
     Program PWSCF v.6.7GPU starts on  9Sep2021 at 12:36:35 

     This program is part of the open-source Quantum ESPRESSO suite
     for quantum simulation of materials; please cite
         "P. Giannozzi et al., J. Phys.:Condens. Matter 21 395502 (2009);
         "P. Giannozzi et al., J. Phys.:Condens. Matter 29 465901 (2017);
         "P. Giannozzi et al., J. Chem. Phys. 152 154105 (2020);
          URL http://www.quantum-espresso.org", 
     in publications or presentations arising from this work. More details at
     http://www.quantum-espresso.org/quote

     Parallel version (MPI), running on    10 processors

     MPI processes distributed on     1 nodes
     R & G space division:  proc/nbgrp/npool/nimage =      10
     Reading input from /storage/home/hcoda1/3/ntian30/research/carbon/CxH_vib/CH3_calc/ads_slab/CH3NNHHH_a/out_0044/pw.inp
Warning: card &CELL ignored
Warning: card   CELL_DYNAMICS='IPI', ignored
Warning: card / ignored

     Current dimensions of program PWSCF are:
     Max number of different atomic species (ntypx) = 10
     Max number of k-points (npk) =  40000
     Max angular momentum in pseudopotentials (lmaxx) =  3
     Presently no symmetry can be used with electric field

     Message from routine cell_base_init:
     DEPRECATED: use true lattice parameter, not A to a.u. conversion factor

     **************************************************************************
     Initializing libbeef V0.1.2 with the BEEF-vdW functional.
     Citation: Wellendorff et al., PRB 85, 235149 (2012).
     **************************************************************************


     IMPORTANT: XC functional enforced from input :
     Exchange-correlation= BEEF-VDW
                           (   1   4  43  14   2   0   0)
     Any further DFT definition will be discarded
     Please, verify this is what you really want


     Subspace diagonalization in iterative solution of the eigenvalue problem:
     one sub-group per band group will be used
     scalapack distributed-memory algorithm (size of sub-group:  3*  3 procs)

  @ DRIVER MODE: Connecting to 
 qe_1139763_2767399.sched-torque.pace.gatech.edufbtiala2_scratch
  using UNIX socket
  @ DRIVER MODE: Message from server: STATUS
  @ DRIVER MODE: Message from server: INIT
  @ DRIVER MODE: Receiving replica           0          -1
  @ DRIVER MODE: Receiving encoded integer          25
  @ DRIVER MODE:  SCF:  T  FORCE:  T  STRESS:  F  VC:  F  ENSEMBLE:  F
  @ DRIVER MODE:  SCF:  T  FORCE:  T  STRESS:  F  VC:  F  ENSEMBLE:  F
 
     Parallelization info
     --------------------
     sticks:   dense  smooth     PW     G-vecs:    dense   smooth      PW
     Min         327     131     37                56683    14340    2191
     Max         328     133     38                56694    14346    2206
     Sum        3275    1317    379               566857   143421   21985
 
     Using Slab Decomposition
 


     bravais-lattice index     =            0
     lattice parameter (alat)  =       1.8897  a.u.
     unit-cell volume          =    6658.9804 (a.u.)^3
     number of atoms/cell      =           56
     number of atomic types    =            5
     number of electrons       =       398.00
     number of Kohn-Sham states=          209
     kinetic-energy cutoff     =      29.3995  Ry
     charge density cutoff     =     293.9946  Ry
     scf convergence threshold =      7.3E-08
     mixing beta               =       0.0500
     number of iterations used =            8  plain     mixing
     Exchange-correlation= BEEF-VDW
                           (   1   4  43  14   2   0   0)

     celldm(1)=   1.889726  celldm(2)=   0.000000  celldm(3)=   0.000000
     celldm(4)=   0.000000  celldm(5)=   0.000000  celldm(6)=   0.000000

     crystal axes: (cart. coord. in units of alat)
               a(1) = (   6.579727   0.000000   0.000000 )  
               a(2) = (  -0.000775   5.961596   0.000000 )  
               a(3) = (   0.000000   0.000000  25.155947 )  

     reciprocal axes: (cart. coord. in units 2 pi/alat)
               b(1) = (  0.151982  0.000020  0.000000 )  
               b(2) = (  0.000000  0.167740  0.000000 )  
               b(3) = (  0.000000  0.000000  0.039752 )  


     PseudoPot. # 1 for Ti read from file:
     /storage/coda1/p-amedford6/0/shared/rich_project_chbe-medford/medford-share/data/pseudos_module/espresso/nninc/pbe/van/Ti.UPF
     MD5 check sum: 8e4df49b7f0d34bbd5052bf3f5ea0213
     Pseudo is Ultrasoft, Zval = 12.0
     Generated by new atomic code, or converted to UPF format
     Using radial grid of  851 points,  6 beta functions with: 
                l(1) =   0
                l(2) =   0
                l(3) =   1
                l(4) =   1
                l(5) =   2
                l(6) =   2
     Q(r) pseudized with  8 coefficients,  rinner =    1.000   1.000   1.000
                                                       1.000   1.000

     PseudoPot. # 2 for O  read from file:
     /storage/coda1/p-amedford6/0/shared/rich_project_chbe-medford/medford-share/data/pseudos_module/espresso/nninc/pbe/van/O.UPF
     MD5 check sum: 78c19812648e8988a0fe644b0f25305e
     Pseudo is Ultrasoft, Zval =  6.0
     Generated by new atomic code, or converted to UPF format
     Using radial grid of  737 points,  4 beta functions with: 
                l(1) =   0
                l(2) =   0
                l(3) =   1
                l(4) =   1
     Q(r) pseudized with  8 coefficients,  rinner =    0.800   0.800   0.800


     PseudoPot. # 3 for N  read from file:
     /storage/coda1/p-amedford6/0/shared/rich_project_chbe-medford/medford-share/data/pseudos_module/espresso/nninc/pbe/van/N.UPF
     MD5 check sum: 90d10febe142ad51ac9d5be1deb811c4
     Pseudo is Ultrasoft, Zval =  5.0
     Generated by new atomic code, or converted to UPF format
     Using radial grid of  729 points,  4 beta functions with: 
                l(1) =   0
                l(2) =   0
                l(3) =   1
                l(4) =   1
     Q(r) pseudized with  8 coefficients,  rinner =    0.800   0.800   0.800


     PseudoPot. # 4 for C  read from file:
     /storage/coda1/p-amedford6/0/shared/rich_project_chbe-medford/medford-share/data/pseudos_module/espresso/nninc/pbe/van/C.UPF
     MD5 check sum: 1a69bf6b8db32088f5b2163dbdb77a27
     Pseudo is Ultrasoft, Zval =  4.0
     Generated by new atomic code, or converted to UPF format
     Using radial grid of  721 points,  4 beta functions with: 
                l(1) =   0
                l(2) =   0
                l(3) =   1
                l(4) =   1
     Q(r) pseudized with  8 coefficients,  rinner =    0.800   0.800   0.800


     PseudoPot. # 5 for H  read from file:
     /storage/coda1/p-amedford6/0/shared/rich_project_chbe-medford/medford-share/data/pseudos_module/espresso/nninc/pbe/van/H.UPF
     MD5 check sum: b5ee9d7bfd3a09ee7748110bda690ff7
     Pseudo is Ultrasoft, Zval =  1.0
     Generated by new atomic code, or converted to UPF format
     Using radial grid of  615 points,  1 beta functions with: 
                l(1) =   0
     Q(r) pseudized with  8 coefficients,  rinner =    0.800

     atomic species   valence    mass     pseudopotential
        Ti1           12.00    47.86700     Ti( 1.00)
        O1             6.00    15.99900     O ( 1.00)
        N1             5.00    14.00700     N ( 1.00)
        C1             4.00    12.01100     C ( 1.00)
        H1             1.00     1.00800     H ( 1.00)

     No symmetry found



   Cartesian axes

     site n.     atom                  positions (alat units)
         1           Ti1 tau(   1) = (   0.0004258   2.9801865   6.0000000  )
         2           Ti1 tau(   2) = (   3.2906075   1.4906267   6.0002472  )
         3           O1  tau(   3) = (   0.0006271   0.0005054   7.9858123  )
         4           O1  tau(   4) = (   3.2906025   0.0005020   7.3038282  )
         5           O1  tau(   5) = (   4.5942328   1.4918067   9.2879030  )
         6           O1  tau(   6) = (   1.9868534   1.4903216   9.2879459  )
         7           Ti1 tau(   7) = (   3.2907910   2.8959150   9.1758416  )
         8           Ti1 tau(   8) = (   0.0015273   1.4827037   9.2680791  )
         9           O1  tau(   9) = (   3.3120675   0.0079458  11.3762204  )
        10           O1  tau(  10) = (   0.0116148   5.9584955  10.6183126  )
        11           O1  tau(  11) = (   1.3148726   1.5133626  12.6447579  )
        12           O1  tau(  12) = (   5.3140862   1.5122126  12.6508301  )
        13           Ti1 tau(  13) = (   0.0289753   2.9995974  12.5105963  )
        14           Ti1 tau(  14) = (   3.3300932   1.5144954  12.5190352  )
        15           O1  tau(  15) = (   0.0303621   0.0967028  14.6836000  )
        16           O1  tau(  16) = (   3.3188409   0.0235386  14.0025835  )
        17           O1  tau(  17) = (   4.5661268   1.5053193  16.2317874  )
        18           O1  tau(  18) = (   2.0488868   1.5039614  16.2002260  )
        19           Ti1 tau(  19) = (   3.3211226   2.9745325  15.7560014  )
        20           Ti1 tau(  20) = (   0.0641794   1.4487855  16.0607878  )
        21           O1  tau(  21) = (   3.2904802   0.0005063   4.7018136  )
        22           O1  tau(  22) = (   0.0207051   5.8381987  17.2232637  )
        23           O1  tau(  23) = (   1.3043587   1.4918075   6.0039043  )
        24           O1  tau(  24) = (   5.2767064   1.4903225   6.0039473  )
        25           Ti1 tau(  25) = (   0.0000382   5.9609847   6.0000000  )
        26           Ti1 tau(  26) = (   3.2902200   4.4714249   6.0002472  )
        27           O1  tau(  27) = (   0.0002396   2.9813036   7.9858123  )
        28           O1  tau(  28) = (   3.2902150   2.9813002   7.3038282  )
        29           O1  tau(  29) = (   4.5938453   4.4726049   9.2879030  )
        30           O1  tau(  30) = (   1.9864658   4.4711199   9.2879459  )
        31           Ti1 tau(  31) = (   3.2891106   5.8743827   9.1763621  )
        32           Ti1 tau(  32) = (   0.0006254   4.4649316   9.2693709  )
        33           O1  tau(  33) = (   3.3137607   3.0039157  11.3695003  )
        34           O1  tau(  34) = (   0.0092240   2.9805883  10.6323155  )
        35           O1  tau(  35) = (   1.3103219   4.4840529  12.6837359  )
        36           O1  tau(  36) = (   5.3166572   4.4842854  12.6901167  )
        37           Ti1 tau(  37) = (   0.0376818   0.0300362  12.4998423  )
        38           Ti1 tau(  38) = (   3.3279277   4.4933691  12.5326681  )
        39           O1  tau(  39) = (   0.0236785   2.9473731  14.9547601  )
        40           O1  tau(  40) = (   3.3158584   2.9778716  13.9675922  )
        41           O1  tau(  41) = (   4.5769684   4.4551829  16.1482216  )
        42           O1  tau(  42) = (   2.0574928   4.4544973  16.1629196  )
        43           Ti1 tau(  43) = (   3.3270828   0.0048838  15.7999907  )
        44           Ti1 tau(  44) = (   0.0216784   4.6657176  15.8371636  )
        45           O1  tau(  45) = (   3.2900926   2.9813045   4.7018136  )
        46           O1  tau(  46) = (   1.3039711   4.4726057   6.0039043  )
        47           O1  tau(  47) = (   5.2763189   4.4711207   6.0039473  )
        48           N1  tau(  48) = (   1.0300599   3.1028741  18.8625222  )
        49           N1  tau(  49) = (   6.4529598   2.6395754  18.1308714  )
        50           C1  tau(  50) = (   0.6566364   3.8075245  20.0867497  )
        51           H1  tau(  51) = (   6.5334193   4.6337433  19.9095685  )
        52           H1  tau(  52) = (   0.2127083   3.1054723  20.7945791  )
        53           H1  tau(  53) = (   1.5644534   4.2160081  20.5287796  )
        54           H1  tau(  54) = (   5.6912064   3.3271340  18.1715891  )
        55           H1  tau(  55) = (   6.1253184   1.7991689  18.5966666  )
        56           H1  tau(  56) = (   1.4989484   3.7555826  18.2384742  )

     number of k points=    10  Fermi-Dirac smearing, width (Ry)=  0.0073
                       cart. coord. in units 2pi/alat
        k(    1) = (   0.0000000   0.0000000   0.0000000), wk =   0.1250000
        k(    2) = (   0.0000000   0.0419351   0.0000000), wk =   0.2500000
        k(    3) = (   0.0000000  -0.0838702   0.0000000), wk =   0.1250000
        k(    4) = (   0.0379955   0.0000049   0.0000000), wk =   0.2500000
        k(    5) = (   0.0379955   0.0419400   0.0000000), wk =   0.2500000
        k(    6) = (   0.0379955  -0.0838652   0.0000000), wk =   0.2500000
        k(    7) = (   0.0379955  -0.0419301   0.0000000), wk =   0.2500000
        k(    8) = (  -0.0759910  -0.0000099   0.0000000), wk =   0.1250000
        k(    9) = (  -0.0759910   0.0419252   0.0000000), wk =   0.2500000
        k(   10) = (  -0.0759910  -0.0838800   0.0000000), wk =   0.1250000

     Dense  grid:   566857 G-vectors     FFT dimensions: (  72,  64, 270)

     Smooth grid:   143421 G-vectors     FFT dimensions: (  45,  40, 180)

     Estimated max dynamical RAM per process >     364.09 MB

     Estimated total dynamical RAM >       3.56 GB
     Cannot read rho : file not found

     Initial potential from superposition of free atoms

     starting charge  381.99914, renormalised to  398.00000

     negative rho (up, down):  1.340E-02 0.000E+00


     %%%%%%%%%%%%%%%%%%%%%%%%%%%%%%%%%%%%%%%%%%%%%%%%%%%%%%%%%%%%%%%%%%%%%%%%
     %                                                                      %
     % You are using vdW-DF, which was implemented by the Thonhauser group. %
     % Please cite the following two papers that made this development      %
     % possible and the two reviews that describe the various versions:     %
     %                                                                      %
     %   T. Thonhauser et al., PRL 115, 136402 (2015).                      %
     %   T. Thonhauser et al., PRB 76, 125112 (2007).                       %
     %   K. Berland et al., Rep. Prog. Phys. 78, 066501 (2015).             %
     %   D.C. Langreth et al., J. Phys.: Condens. Matter 21, 084203 (2009). %
     %                                                                      %
     %                                                                      %
     % If you are calculating the stress with vdW-DF, please also cite:     %
     %                                                                      %
     %   R. Sabatini et al., J. Phys.: Condens. Matter 24, 424209 (2012).   %
     %                                                                      %
     %%%%%%%%%%%%%%%%%%%%%%%%%%%%%%%%%%%%%%%%%%%%%%%%%%%%%%%%%%%%%%%%%%%%%%%%


 
     Adding external electric field

     Computed dipole along edir(3) : 
        Dipole              -11.7464 Ry au,        -29.8564 Debye
        Dipole field         -0.0222 Ry au, 
 
        Potential amp.        2.0549 Ry
        Total length         46.3494 bohr
 
     Starting wfcs are  302 atomic wfcs
  @ DRIVER MODE: Message from server: STATUS
  @ DRIVER MODE: Message from server: POSDATA
  @ DRIVER MODE: Reading and sharing cell 
  @ DRIVER MODE: Reading and sharing positions 
  @ DRIVER MODE: Received positions 

     total cpu time spent up to now is       11.5 secs

     Self-consistent Calculation

     iteration #  1     ecut=    29.40 Ry     beta= 0.05
     Davidson diagonalization with overlap
     c_bands:  1 eigenvalues not converged
     c_bands:  1 eigenvalues not converged
     c_bands:  1 eigenvalues not converged
     c_bands:  3 eigenvalues not converged
     c_bands:  3 eigenvalues not converged
     c_bands:  3 eigenvalues not converged
     c_bands:  4 eigenvalues not converged
     c_bands:  2 eigenvalues not converged
     ethr =  1.00E-05,  avg # of iterations = 21.6

     negative rho (up, down):  9.717E-03 0.000E+00
 
     Adding external electric field

     Computed dipole along edir(3) : 
        Dipole               48.7716 Ry au,        123.9651 Debye
        Dipole field          0.0920 Ry au, 
 
        Potential amp.       -8.5319 Ry
        Total length         46.3494 bohr
 

     total cpu time spent up to now is       54.6 secs

     total energy              =   -2428.08205955 Ry
     estimated scf accuracy    <    5789.75224580 Ry

     iteration #  2     ecut=    29.40 Ry     beta= 0.05
     Davidson diagonalization with overlap
     ethr =  1.00E-02,  avg # of iterations = 22.5

     negative rho (up, down):  1.769E-03 0.000E+00
 
     Adding external electric field

     Computed dipole along edir(3) : 
        Dipole               -2.1572 Ry au,         -5.4831 Debye
        Dipole field         -0.0041 Ry au, 
 
        Potential amp.        0.3774 Ry
        Total length         46.3494 bohr
 

     total cpu time spent up to now is      134.4 secs

     total energy              =   -2423.46847569 Ry
     estimated scf accuracy    <   72469.46308896 Ry

     iteration #  3     ecut=    29.40 Ry     beta= 0.05
     Davidson diagonalization with overlap
     ethr =  1.00E-02,  avg # of iterations = 16.7

     negative rho (up, down):  1.835E-03 0.000E+00
 
     Adding external electric field

     Computed dipole along edir(3) : 
        Dipole               -4.5375 Ry au,        -11.5333 Debye
        Dipole field         -0.0086 Ry au, 
 
        Potential amp.        0.7938 Ry
        Total length         46.3494 bohr
 

     total cpu time spent up to now is      184.1 secs

     total energy              =   -2931.75032304 Ry
     estimated scf accuracy    <    5062.05722438 Ry

     iteration #  4     ecut=    29.40 Ry     beta= 0.05
     Davidson diagonalization with overlap
     ethr =  1.00E-02,  avg # of iterations = 11.0

     negative rho (up, down):  1.876E-03 0.000E+00
 
     Adding external electric field

     Computed dipole along edir(3) : 
        Dipole               -6.1911 Ry au,        -15.7362 Debye
        Dipole field         -0.0117 Ry au, 
 
        Potential amp.        1.0830 Ry
        Total length         46.3494 bohr
 

     total cpu time spent up to now is      203.0 secs

     total energy              =   -2927.34783400 Ry
     estimated scf accuracy    <    2027.00050296 Ry

     iteration #  5     ecut=    29.40 Ry     beta= 0.05
     Davidson diagonalization with overlap
     c_bands:  2 eigenvalues not converged
     c_bands:  2 eigenvalues not converged
     c_bands:  2 eigenvalues not converged
     ethr =  1.00E-02,  avg # of iterations = 11.7

     negative rho (up, down):  1.927E-03 0.000E+00
 
     Adding external electric field

     Computed dipole along edir(3) : 
        Dipole               -6.4489 Ry au,        -16.3915 Debye
        Dipole field         -0.0122 Ry au, 
 
        Potential amp.        1.1281 Ry
        Total length         46.3494 bohr
 

     total cpu time spent up to now is      219.7 secs

     total energy              =   -2933.45641252 Ry
     estimated scf accuracy    <     564.07028374 Ry

     iteration #  6     ecut=    29.40 Ry     beta= 0.05
     Davidson diagonalization with overlap
     ethr =  1.00E-02,  avg # of iterations =  7.4

     negative rho (up, down):  1.921E-03 0.000E+00
 
     Adding external electric field

     Computed dipole along edir(3) : 
        Dipole               -6.0555 Ry au,        -15.3915 Debye
        Dipole field         -0.0114 Ry au, 
 
        Potential amp.        1.0593 Ry
        Total length         46.3494 bohr
 

     total cpu time spent up to now is      234.2 secs

     total energy              =   -2944.63628002 Ry
     estimated scf accuracy    <      35.21692978 Ry

     iteration #  7     ecut=    29.40 Ry     beta= 0.05
     Davidson diagonalization with overlap
     ethr =  8.85E-03,  avg # of iterations =  2.5

     negative rho (up, down):  1.946E-03 0.000E+00
 
     Adding external electric field

     Computed dipole along edir(3) : 
        Dipole               -4.9580 Ry au,        -12.6020 Debye
        Dipole field         -0.0094 Ry au, 
 
        Potential amp.        0.8673 Ry
        Total length         46.3494 bohr
 

     total cpu time spent up to now is      244.9 secs

     total energy              =   -2944.73785064 Ry
     estimated scf accuracy    <      25.98163369 Ry

     iteration #  8     ecut=    29.40 Ry     beta= 0.05
     Davidson diagonalization with overlap
     ethr =  6.53E-03,  avg # of iterations =  3.0

     negative rho (up, down):  2.047E-03 0.000E+00
 
     Adding external electric field

     Computed dipole along edir(3) : 
        Dipole               -1.7388 Ry au,         -4.4197 Debye
        Dipole field         -0.0033 Ry au, 
 
        Potential amp.        0.3042 Ry
        Total length         46.3494 bohr
 

     total cpu time spent up to now is      256.0 secs

     total energy              =   -2944.71292970 Ry
     estimated scf accuracy    <      18.41296246 Ry

     iteration #  9     ecut=    29.40 Ry     beta= 0.05
     Davidson diagonalization with overlap
     c_bands:  2 eigenvalues not converged
     ethr =  4.63E-03,  avg # of iterations = 13.5

     negative rho (up, down):  2.156E-03 0.000E+00
 
     Adding external electric field

     Computed dipole along edir(3) : 
        Dipole               -1.6996 Ry au,         -4.3200 Debye
        Dipole field         -0.0032 Ry au, 
 
        Potential amp.        0.2973 Ry
        Total length         46.3494 bohr
 

     total cpu time spent up to now is      272.4 secs

     total energy              =   -2951.86900508 Ry
     estimated scf accuracy    <    1341.23408266 Ry

     iteration # 10     ecut=    29.40 Ry     beta= 0.05
     Davidson diagonalization with overlap
     ethr =  4.63E-03,  avg # of iterations =  1.7

     negative rho (up, down):  2.689E-03 0.000E+00
 
     Adding external electric field

     Computed dipole along edir(3) : 
        Dipole               -1.4123 Ry au,         -3.5897 Debye
        Dipole field         -0.0027 Ry au, 
 
        Potential amp.        0.2471 Ry
        Total length         46.3494 bohr
 

     total cpu time spent up to now is      283.0 secs

     total energy              =   -2945.35687548 Ry
     estimated scf accuracy    <    1248.08675215 Ry

     iteration # 11     ecut=    29.40 Ry     beta= 0.05
     Davidson diagonalization with overlap
     ethr =  4.63E-03,  avg # of iterations =  3.0

     negative rho (up, down):  2.692E-03 0.000E+00
 
     Adding external electric field

     Computed dipole along edir(3) : 
        Dipole               -1.2062 Ry au,         -3.0660 Debye
        Dipole field         -0.0023 Ry au, 
 
        Potential amp.        0.2110 Ry
        Total length         46.3494 bohr
 

     total cpu time spent up to now is      294.4 secs

     total energy              =   -2947.39253339 Ry
     estimated scf accuracy    <     761.46175713 Ry

     iteration # 12     ecut=    29.40 Ry     beta= 0.05
     Davidson diagonalization with overlap
     ethr =  4.63E-03,  avg # of iterations =  1.2

     negative rho (up, down):  2.665E-03 0.000E+00
 
     Adding external electric field

     Computed dipole along edir(3) : 
        Dipole               -2.5591 Ry au,         -6.5046 Debye
        Dipole field         -0.0048 Ry au, 
 
        Potential amp.        0.4477 Ry
        Total length         46.3494 bohr
 

     total cpu time spent up to now is      304.6 secs

     total energy              =   -2937.72647907 Ry
     estimated scf accuracy    <     842.53815637 Ry

     iteration # 13     ecut=    29.40 Ry     beta= 0.05
     Davidson diagonalization with overlap
     c_bands:  1 eigenvalues not converged
     c_bands:  5 eigenvalues not converged
     ethr =  4.63E-03,  avg # of iterations = 11.9

     negative rho (up, down):  2.567E-03 0.000E+00
 
     Adding external electric field

     Computed dipole along edir(3) : 
        Dipole               -2.6452 Ry au,         -6.7235 Debye
        Dipole field         -0.0050 Ry au, 
 
        Potential amp.        0.4627 Ry
        Total length         46.3494 bohr
 

     total cpu time spent up to now is      319.9 secs

     total energy              =   -2941.73848101 Ry
     estimated scf accuracy    <      61.51489482 Ry

     iteration # 14     ecut=    29.40 Ry     beta= 0.05
     Davidson diagonalization with overlap
     ethr =  4.63E-03,  avg # of iterations =  2.5

     negative rho (up, down):  2.534E-03 0.000E+00
 
     Adding external electric field

     Computed dipole along edir(3) : 
        Dipole               -3.3958 Ry au,         -8.6313 Debye
        Dipole field         -0.0064 Ry au, 
 
        Potential amp.        0.5940 Ry
        Total length         46.3494 bohr
 

     total cpu time spent up to now is      330.7 secs

     total energy              =   -2939.95752972 Ry
     estimated scf accuracy    <      58.97460089 Ry

     iteration # 15     ecut=    29.40 Ry     beta= 0.05
     Davidson diagonalization with overlap
     ethr =  4.63E-03,  avg # of iterations =  7.3

     negative rho (up, down):  2.638E-03 0.000E+00
 
     Adding external electric field

     Computed dipole along edir(3) : 
        Dipole               -2.9637 Ry au,         -7.5330 Debye
        Dipole field         -0.0056 Ry au, 
 
        Potential amp.        0.5185 Ry
        Total length         46.3494 bohr
 

     total cpu time spent up to now is      344.3 secs

     total energy              =   -2941.87878026 Ry
     estimated scf accuracy    <       3.66521576 Ry

     iteration # 16     ecut=    29.40 Ry     beta= 0.05
     Davidson diagonalization with overlap
     c_bands:  3 eigenvalues not converged
     c_bands:  3 eigenvalues not converged
     c_bands:  1 eigenvalues not converged
     c_bands:  1 eigenvalues not converged
     c_bands:  2 eigenvalues not converged
     ethr =  9.21E-04,  avg # of iterations = 18.7

     negative rho (up, down):  2.706E-03 0.000E+00
 
     Adding external electric field

     Computed dipole along edir(3) : 
        Dipole               -2.7527 Ry au,         -6.9967 Debye
        Dipole field         -0.0052 Ry au, 
 
        Potential amp.        0.4815 Ry
        Total length         46.3494 bohr
 

     total cpu time spent up to now is      363.9 secs

     total energy              =   -2943.26384403 Ry
     estimated scf accuracy    <       5.60867676 Ry

     iteration # 17     ecut=    29.40 Ry     beta= 0.05
     Davidson diagonalization with overlap
     ethr =  9.21E-04,  avg # of iterations =  2.0

     negative rho (up, down):  2.731E-03 0.000E+00
 
     Adding external electric field

     Computed dipole along edir(3) : 
        Dipole               -2.5860 Ry au,         -6.5730 Debye
        Dipole field         -0.0049 Ry au, 
 
        Potential amp.        0.4524 Ry
        Total length         46.3494 bohr
 

     total cpu time spent up to now is      374.6 secs

     total energy              =   -2943.17109246 Ry
     estimated scf accuracy    <       5.06189787 Ry

     iteration # 18     ecut=    29.40 Ry     beta= 0.05
     Davidson diagonalization with overlap
     ethr =  9.21E-04,  avg # of iterations =  1.2

     negative rho (up, down):  2.734E-03 0.000E+00
 
     Adding external electric field

     Computed dipole along edir(3) : 
        Dipole               -2.3731 Ry au,         -6.0317 Debye
        Dipole field         -0.0045 Ry au, 
 
        Potential amp.        0.4151 Ry
        Total length         46.3494 bohr
 

     total cpu time spent up to now is      384.8 secs

     total energy              =   -2943.05718684 Ry
     estimated scf accuracy    <       4.33020542 Ry

     iteration # 19     ecut=    29.40 Ry     beta= 0.05
     Davidson diagonalization with overlap
     ethr =  9.21E-04,  avg # of iterations =  3.4

     negative rho (up, down):  2.932E-03 0.000E+00
 
     Adding external electric field

     Computed dipole along edir(3) : 
        Dipole               -1.7254 Ry au,         -4.3856 Debye
        Dipole field         -0.0033 Ry au, 
 
        Potential amp.        0.3018 Ry
        Total length         46.3494 bohr
 

     total cpu time spent up to now is      395.8 secs

     total energy              =   -2942.90060719 Ry
     estimated scf accuracy    <       2.89024155 Ry

     iteration # 20     ecut=    29.40 Ry     beta= 0.05
     Davidson diagonalization with overlap
     ethr =  7.26E-04,  avg # of iterations =  5.4

     negative rho (up, down):  3.110E-03 0.000E+00
 
     Adding external electric field

     Computed dipole along edir(3) : 
        Dipole               -1.4342 Ry au,         -3.6454 Debye
        Dipole field         -0.0027 Ry au, 
 
        Potential amp.        0.2509 Ry
        Total length         46.3494 bohr
 

     total cpu time spent up to now is      407.6 secs

     total energy              =   -2942.91024631 Ry
     estimated scf accuracy    <       0.82150186 Ry

     iteration # 21     ecut=    29.40 Ry     beta= 0.05
     Davidson diagonalization with overlap
     c_bands:  3 eigenvalues not converged
     c_bands:  3 eigenvalues not converged
     c_bands:  1 eigenvalues not converged
     ethr =  2.06E-04,  avg # of iterations = 11.3

     negative rho (up, down):  3.965E-03 0.000E+00
 
     Adding external electric field

     Computed dipole along edir(3) : 
        Dipole                0.0465 Ry au,          0.1182 Debye
        Dipole field          0.0001 Ry au, 
 
        Potential amp.       -0.0081 Ry
        Total length         46.3494 bohr
 

     total cpu time spent up to now is      421.4 secs

     total energy              =   -2942.76088205 Ry
     estimated scf accuracy    <       1.42095857 Ry

     iteration # 22     ecut=    29.40 Ry     beta= 0.05
     Davidson diagonalization with overlap
     c_bands:  1 eigenvalues not converged
     c_bands:  1 eigenvalues not converged
     c_bands:  1 eigenvalues not converged
     c_bands:  5 eigenvalues not converged
     c_bands:  4 eigenvalues not converged
     ethr =  2.06E-04,  avg # of iterations = 19.8

     negative rho (up, down):  3.712E-03 0.000E+00
 
     Adding external electric field

     Computed dipole along edir(3) : 
        Dipole               -0.2182 Ry au,         -0.5547 Debye
        Dipole field         -0.0004 Ry au, 
 
        Potential amp.        0.0382 Ry
        Total length         46.3494 bohr
 

     total cpu time spent up to now is      442.2 secs

     total energy              =   -2942.88406254 Ry
     estimated scf accuracy    <       1.11002074 Ry

     iteration # 23     ecut=    29.40 Ry     beta= 0.05
     Davidson diagonalization with overlap
     ethr =  2.06E-04,  avg # of iterations =  1.4

     negative rho (up, down):  3.802E-03 0.000E+00
 
     Adding external electric field

     Computed dipole along edir(3) : 
        Dipole               -0.0960 Ry au,         -0.2441 Debye
        Dipole field         -0.0002 Ry au, 
 
        Potential amp.        0.0168 Ry
        Total length         46.3494 bohr
 

     total cpu time spent up to now is      452.5 secs

     total energy              =   -2942.90053805 Ry
     estimated scf accuracy    <       0.96014469 Ry

     iteration # 24     ecut=    29.40 Ry     beta= 0.05
     Davidson diagonalization with overlap
     ethr =  2.06E-04,  avg # of iterations =  1.1

     negative rho (up, down):  3.786E-03 0.000E+00
 
     Adding external electric field

     Computed dipole along edir(3) : 
        Dipole               -0.0950 Ry au,         -0.2415 Debye
        Dipole field         -0.0002 Ry au, 
 
        Potential amp.        0.0166 Ry
        Total length         46.3494 bohr
 

     total cpu time spent up to now is      462.6 secs

     total energy              =   -2942.90474025 Ry
     estimated scf accuracy    <       1.09489436 Ry

     iteration # 25     ecut=    29.40 Ry     beta= 0.05
     Davidson diagonalization with overlap
     ethr =  2.06E-04,  avg # of iterations =  1.0

     negative rho (up, down):  3.910E-03 0.000E+00
 
     Adding external electric field

     Computed dipole along edir(3) : 
        Dipole               -0.0291 Ry au,         -0.0740 Debye
        Dipole field         -0.0001 Ry au, 
 
        Potential amp.        0.0051 Ry
        Total length         46.3494 bohr
 

     total cpu time spent up to now is      472.7 secs

     total energy              =   -2942.87967434 Ry
     estimated scf accuracy    <       1.10902969 Ry

     iteration # 26     ecut=    29.40 Ry     beta= 0.05
     Davidson diagonalization with overlap
     ethr =  2.06E-04,  avg # of iterations =  1.2

     negative rho (up, down):  4.035E-03 0.000E+00
 
     Adding external electric field

     Computed dipole along edir(3) : 
        Dipole                0.0694 Ry au,          0.1765 Debye
        Dipole field          0.0001 Ry au, 
 
        Potential amp.       -0.0121 Ry
        Total length         46.3494 bohr
 

     total cpu time spent up to now is      482.9 secs

     total energy              =   -2942.90028840 Ry
     estimated scf accuracy    <       0.40565722 Ry

     iteration # 27     ecut=    29.40 Ry     beta= 0.05
     Davidson diagonalization with overlap
     c_bands:  3 eigenvalues not converged
     c_bands:  1 eigenvalues not converged
     ethr =  1.02E-04,  avg # of iterations = 13.0

     negative rho (up, down):  4.322E-03 0.000E+00
 
     Adding external electric field

     Computed dipole along edir(3) : 
        Dipole                0.3650 Ry au,          0.9279 Debye
        Dipole field          0.0007 Ry au, 
 
        Potential amp.       -0.0639 Ry
        Total length         46.3494 bohr
 

     total cpu time spent up to now is      497.3 secs

     total energy              =   -2942.88079379 Ry
     estimated scf accuracy    <       0.44983521 Ry

     iteration # 28     ecut=    29.40 Ry     beta= 0.05
     Davidson diagonalization with overlap
     c_bands:  1 eigenvalues not converged
     ethr =  1.02E-04,  avg # of iterations = 10.3

     negative rho (up, down):  4.918E-03 0.000E+00
 
     Adding external electric field

     Computed dipole along edir(3) : 
        Dipole                0.7728 Ry au,          1.9644 Debye
        Dipole field          0.0015 Ry au, 
 
        Potential amp.       -0.1352 Ry
        Total length         46.3494 bohr
 

     total cpu time spent up to now is      511.3 secs

     total energy              =   -2942.89311853 Ry
     estimated scf accuracy    <       0.57610542 Ry

     iteration # 29     ecut=    29.40 Ry     beta= 0.05
     Davidson diagonalization with overlap
     ethr =  1.02E-04,  avg # of iterations =  2.0

     negative rho (up, down):  4.883E-03 0.000E+00
 
     Adding external electric field

     Computed dipole along edir(3) : 
        Dipole                0.7578 Ry au,          1.9261 Debye
        Dipole field          0.0014 Ry au, 
 
        Potential amp.       -0.1326 Ry
        Total length         46.3494 bohr
 

     total cpu time spent up to now is      522.2 secs

     total energy              =   -2942.88301715 Ry
     estimated scf accuracy    <       0.27785020 Ry

     iteration # 30     ecut=    29.40 Ry     beta= 0.05
     Davidson diagonalization with overlap
     c_bands:  1 eigenvalues not converged
     ethr =  6.98E-05,  avg # of iterations =  8.7

     negative rho (up, down):  4.908E-03 0.000E+00
 
     Adding external electric field

     Computed dipole along edir(3) : 
        Dipole                0.7719 Ry au,          1.9620 Debye
        Dipole field          0.0015 Ry au, 
 
        Potential amp.       -0.1350 Ry
        Total length         46.3494 bohr
 

     total cpu time spent up to now is      535.1 secs

     total energy              =   -2942.88095205 Ry
     estimated scf accuracy    <       0.24773905 Ry

     iteration # 31     ecut=    29.40 Ry     beta= 0.05
     Davidson diagonalization with overlap
     ethr =  6.22E-05,  avg # of iterations =  3.7

     negative rho (up, down):  4.952E-03 0.000E+00
 
     Adding external electric field

     Computed dipole along edir(3) : 
        Dipole                0.7943 Ry au,          2.0188 Debye
        Dipole field          0.0015 Ry au, 
 
        Potential amp.       -0.1389 Ry
        Total length         46.3494 bohr
 

     total cpu time spent up to now is      546.3 secs

     total energy              =   -2942.86663110 Ry
     estimated scf accuracy    <       0.22522620 Ry

     iteration # 32     ecut=    29.40 Ry     beta= 0.05
     Davidson diagonalization with overlap
     c_bands:  4 eigenvalues not converged
     ethr =  5.66E-05,  avg # of iterations =  4.9

     negative rho (up, down):  6.114E-03 0.000E+00
 
     Adding external electric field

     Computed dipole along edir(3) : 
        Dipole                1.0728 Ry au,          2.7268 Debye
        Dipole field          0.0020 Ry au, 
 
        Potential amp.       -0.1877 Ry
        Total length         46.3494 bohr
 

     total cpu time spent up to now is      558.0 secs

     total energy              =   -2942.85773011 Ry
     estimated scf accuracy    <       0.14517980 Ry

     iteration # 33     ecut=    29.40 Ry     beta= 0.05
     Davidson diagonalization with overlap
     c_bands:  2 eigenvalues not converged
     ethr =  3.65E-05,  avg # of iterations =  7.7

     negative rho (up, down):  1.339E-02 0.000E+00
 
     Adding external electric field

     Computed dipole along edir(3) : 
        Dipole                1.3997 Ry au,          3.5577 Debye
        Dipole field          0.0026 Ry au, 
 
        Potential amp.       -0.2449 Ry
        Total length         46.3494 bohr
 

     total cpu time spent up to now is      570.4 secs

     total energy              =   -2942.84563590 Ry
     estimated scf accuracy    <       0.08494848 Ry

     iteration # 34     ecut=    29.40 Ry     beta= 0.05
     Davidson diagonalization with overlap
     c_bands:  1 eigenvalues not converged
     ethr =  2.13E-05,  avg # of iterations = 11.8

     negative rho (up, down):  8.599E-03 0.000E+00
 
     Adding external electric field

     Computed dipole along edir(3) : 
        Dipole                1.2171 Ry au,          3.0934 Debye
        Dipole field          0.0023 Ry au, 
 
        Potential amp.       -0.2129 Ry
        Total length         46.3494 bohr
 

     total cpu time spent up to now is      590.0 secs

     total energy              =   -2942.85910987 Ry
     estimated scf accuracy    <       0.04042594 Ry

     iteration # 35     ecut=    29.40 Ry     beta= 0.05
     Davidson diagonalization with overlap
     ethr =  1.02E-05,  avg # of iterations =  7.1

     negative rho (up, down):  7.467E-03 0.000E+00
 
     Adding external electric field

     Computed dipole along edir(3) : 
        Dipole                1.1383 Ry au,          2.8933 Debye
        Dipole field          0.0021 Ry au, 
 
        Potential amp.       -0.1991 Ry
        Total length         46.3494 bohr
 

     total cpu time spent up to now is      602.2 secs

     total energy              =   -2942.85574936 Ry
     estimated scf accuracy    <       0.03001917 Ry

     iteration # 36     ecut=    29.40 Ry     beta= 0.05
     Davidson diagonalization with overlap
     c_bands:  1 eigenvalues not converged
     ethr =  7.54E-06,  avg # of iterations =  9.4

     negative rho (up, down):  1.059E-02 0.000E+00
 
     Adding external electric field

     Computed dipole along edir(3) : 
        Dipole                1.2570 Ry au,          3.1949 Debye
        Dipole field          0.0024 Ry au, 
 
        Potential amp.       -0.2199 Ry
        Total length         46.3494 bohr
 

     total cpu time spent up to now is      617.0 secs

     total energy              =   -2942.85887652 Ry
     estimated scf accuracy    <       0.01636672 Ry

     iteration # 37     ecut=    29.40 Ry     beta= 0.05
     Davidson diagonalization with overlap
     ethr =  4.11E-06,  avg # of iterations =  5.9

     negative rho (up, down):  1.220E-02 0.000E+00
 
     Adding external electric field

     Computed dipole along edir(3) : 
        Dipole                1.2519 Ry au,          3.1820 Debye
        Dipole field          0.0024 Ry au, 
 
        Potential amp.       -0.2190 Ry
        Total length         46.3494 bohr
 

     total cpu time spent up to now is      629.1 secs

     total energy              =   -2942.85809987 Ry
     estimated scf accuracy    <       0.00743597 Ry

     iteration # 38     ecut=    29.40 Ry     beta= 0.05
     Davidson diagonalization with overlap
     c_bands:  3 eigenvalues not converged
     c_bands:  1 eigenvalues not converged
     c_bands:  1 eigenvalues not converged
     c_bands:  1 eigenvalues not converged
     c_bands:  1 eigenvalues not converged
     c_bands:  1 eigenvalues not converged
     c_bands:  2 eigenvalues not converged
     c_bands:  2 eigenvalues not converged
     ethr =  1.87E-06,  avg # of iterations = 18.8

     negative rho (up, down):  1.239E-02 0.000E+00
 
     Adding external electric field

     Computed dipole along edir(3) : 
        Dipole                1.2668 Ry au,          3.2200 Debye
        Dipole field          0.0024 Ry au, 
 
        Potential amp.       -0.2216 Ry
        Total length         46.3494 bohr
 

     total cpu time spent up to now is      651.6 secs

     total energy              =   -2942.85932622 Ry
     estimated scf accuracy    <       0.00349550 Ry

     iteration # 39     ecut=    29.40 Ry     beta= 0.05
     Davidson diagonalization with overlap
     c_bands:  1 eigenvalues not converged
     c_bands:  1 eigenvalues not converged
     ethr =  8.78E-07,  avg # of iterations = 12.4

     negative rho (up, down):  1.194E-02 0.000E+00
 
     Adding external electric field

     Computed dipole along edir(3) : 
        Dipole                1.2311 Ry au,          3.1292 Debye
        Dipole field          0.0023 Ry au, 
 
        Potential amp.       -0.2154 Ry
        Total length         46.3494 bohr
 

     total cpu time spent up to now is      666.0 secs

     total energy              =   -2942.85922360 Ry
     estimated scf accuracy    <       0.00251283 Ry

     iteration # 40     ecut=    29.40 Ry     beta= 0.05
     Davidson diagonalization with overlap
     c_bands:  1 eigenvalues not converged
     ethr =  6.31E-07,  avg # of iterations = 13.1

     negative rho (up, down):  1.371E-02 0.000E+00
 
     Adding external electric field

     Computed dipole along edir(3) : 
        Dipole                1.2329 Ry au,          3.1336 Debye
        Dipole field          0.0023 Ry au, 
 
        Potential amp.       -0.2157 Ry
        Total length         46.3494 bohr
 

     total cpu time spent up to now is      682.9 secs

     total energy              =   -2942.85917955 Ry
     estimated scf accuracy    <       0.00205442 Ry

     iteration # 41     ecut=    29.40 Ry     beta= 0.05
     Davidson diagonalization with overlap
     ethr =  5.16E-07,  avg # of iterations =  5.5

     negative rho (up, down):  1.343E-02 0.000E+00
 
     Adding external electric field

     Computed dipole along edir(3) : 
        Dipole                1.2097 Ry au,          3.0747 Debye
        Dipole field          0.0023 Ry au, 
 
        Potential amp.       -0.2116 Ry
        Total length         46.3494 bohr
 

     total cpu time spent up to now is      695.7 secs

     total energy              =   -2942.85931960 Ry
     estimated scf accuracy    <       0.00057112 Ry

     iteration # 42     ecut=    29.40 Ry     beta= 0.05
     Davidson diagonalization with overlap
     c_bands:  1 eigenvalues not converged
     c_bands:  1 eigenvalues not converged
     ethr =  1.43E-07,  avg # of iterations = 15.1

     negative rho (up, down):  1.338E-02 0.000E+00
 
     Adding external electric field

     Computed dipole along edir(3) : 
        Dipole                1.2087 Ry au,          3.0721 Debye
        Dipole field          0.0023 Ry au, 
 
        Potential amp.       -0.2114 Ry
        Total length         46.3494 bohr
 

     total cpu time spent up to now is      717.6 secs

     total energy              =   -2942.85953831 Ry
     estimated scf accuracy    <       0.00084189 Ry

     iteration # 43     ecut=    29.40 Ry     beta= 0.05
     Davidson diagonalization with overlap
     ethr =  1.43E-07,  avg # of iterations =  1.1

     negative rho (up, down):  1.322E-02 0.000E+00
 
     Adding external electric field

     Computed dipole along edir(3) : 
        Dipole                1.2044 Ry au,          3.0612 Debye
        Dipole field          0.0023 Ry au, 
 
        Potential amp.       -0.2107 Ry
        Total length         46.3494 bohr
 

     total cpu time spent up to now is      727.7 secs

     total energy              =   -2942.85944449 Ry
     estimated scf accuracy    <       0.00083725 Ry

     iteration # 44     ecut=    29.40 Ry     beta= 0.05
     Davidson diagonalization with overlap
     ethr =  1.43E-07,  avg # of iterations =  5.5

     negative rho (up, down):  1.369E-02 0.000E+00
 
     Adding external electric field

     Computed dipole along edir(3) : 
        Dipole                1.2144 Ry au,          3.0866 Debye
        Dipole field          0.0023 Ry au, 
 
        Potential amp.       -0.2124 Ry
        Total length         46.3494 bohr
 

     total cpu time spent up to now is      739.9 secs

     total energy              =   -2942.85947512 Ry
     estimated scf accuracy    <       0.00049625 Ry

     iteration # 45     ecut=    29.40 Ry     beta= 0.05
     Davidson diagonalization with overlap
     ethr =  1.25E-07,  avg # of iterations =  4.7

     negative rho (up, down):  1.442E-02 0.000E+00
 
     Adding external electric field

     Computed dipole along edir(3) : 
        Dipole                1.2293 Ry au,          3.1246 Debye
        Dipole field          0.0023 Ry au, 
 
        Potential amp.       -0.2151 Ry
        Total length         46.3494 bohr
 

     total cpu time spent up to now is      751.6 secs

     total energy              =   -2942.85945586 Ry
     estimated scf accuracy    <       0.00028964 Ry

     iteration # 46     ecut=    29.40 Ry     beta= 0.05
     Davidson diagonalization with overlap
     c_bands:  1 eigenvalues not converged
     c_bands:  1 eigenvalues not converged
     ethr =  7.28E-08,  avg # of iterations = 15.4

     negative rho (up, down):  1.442E-02 0.000E+00
 
     Adding external electric field

     Computed dipole along edir(3) : 
        Dipole                1.2213 Ry au,          3.1042 Debye
        Dipole field          0.0023 Ry au, 
 
        Potential amp.       -0.2136 Ry
        Total length         46.3494 bohr
 

     total cpu time spent up to now is      777.0 secs

     total energy              =   -2942.85954034 Ry
     estimated scf accuracy    <       0.00090864 Ry

     iteration # 47     ecut=    29.40 Ry     beta= 0.05
     Davidson diagonalization with overlap
     ethr =  7.28E-08,  avg # of iterations =  3.6

     negative rho (up, down):  1.425E-02 0.000E+00
 
     Adding external electric field

     Computed dipole along edir(3) : 
        Dipole                1.2165 Ry au,          3.0920 Debye
        Dipole field          0.0023 Ry au, 
 
        Potential amp.       -0.2128 Ry
        Total length         46.3494 bohr
 

     total cpu time spent up to now is      789.2 secs

     total energy              =   -2942.85953351 Ry
     estimated scf accuracy    <       0.00041273 Ry

     iteration # 48     ecut=    29.40 Ry     beta= 0.05
     Davidson diagonalization with overlap
     ethr =  7.28E-08,  avg # of iterations =  5.5

     negative rho (up, down):  1.429E-02 0.000E+00
 
     Adding external electric field

     Computed dipole along edir(3) : 
        Dipole                1.2162 Ry au,          3.0912 Debye
        Dipole field          0.0023 Ry au, 
 
        Potential amp.       -0.2128 Ry
        Total length         46.3494 bohr
 

     total cpu time spent up to now is      802.8 secs

     total energy              =   -2942.85955707 Ry
     estimated scf accuracy    <       0.00014003 Ry

     iteration # 49     ecut=    29.40 Ry     beta= 0.05
     Davidson diagonalization with overlap
     c_bands:  1 eigenvalues not converged
     ethr =  3.52E-08,  avg # of iterations = 11.7

     negative rho (up, down):  1.437E-02 0.000E+00
 
     Adding external electric field

     Computed dipole along edir(3) : 
        Dipole                1.2193 Ry au,          3.0991 Debye
        Dipole field          0.0023 Ry au, 
 
        Potential amp.       -0.2133 Ry
        Total length         46.3494 bohr
 

     total cpu time spent up to now is      822.5 secs

     total energy              =   -2942.85960649 Ry
     estimated scf accuracy    <       0.00007553 Ry

     iteration # 50     ecut=    29.40 Ry     beta= 0.05
     Davidson diagonalization with overlap
     ethr =  1.90E-08,  avg # of iterations =  2.7

     negative rho (up, down):  1.453E-02 0.000E+00
 
     Adding external electric field

     Computed dipole along edir(3) : 
        Dipole                1.2259 Ry au,          3.1158 Debye
        Dipole field          0.0023 Ry au, 
 
        Potential amp.       -0.2144 Ry
        Total length         46.3494 bohr
 

     total cpu time spent up to now is      833.7 secs

     total energy              =   -2942.85961980 Ry
     estimated scf accuracy    <       0.00004101 Ry

     iteration # 51     ecut=    29.40 Ry     beta= 0.05
     Davidson diagonalization with overlap
     c_bands:  1 eigenvalues not converged
     c_bands:  2 eigenvalues not converged
     c_bands:  1 eigenvalues not converged
     c_bands:  1 eigenvalues not converged
     ethr =  1.03E-08,  avg # of iterations = 18.1

     negative rho (up, down):  1.469E-02 0.000E+00
 
     Adding external electric field

     Computed dipole along edir(3) : 
        Dipole                1.2266 Ry au,          3.1178 Debye
        Dipole field          0.0023 Ry au, 
 
        Potential amp.       -0.2146 Ry
        Total length         46.3494 bohr
 

     total cpu time spent up to now is      862.8 secs

     total energy              =   -2942.85962751 Ry
     estimated scf accuracy    <       0.00039926 Ry

     iteration # 52     ecut=    29.40 Ry     beta= 0.05
     Davidson diagonalization with overlap
     c_bands:  1 eigenvalues not converged
     ethr =  1.03E-08,  avg # of iterations = 13.6

     negative rho (up, down):  1.466E-02 0.000E+00
 
     Adding external electric field

     Computed dipole along edir(3) : 
        Dipole                1.2243 Ry au,          3.1119 Debye
        Dipole field          0.0023 Ry au, 
 
        Potential amp.       -0.2142 Ry
        Total length         46.3494 bohr
 

     total cpu time spent up to now is      885.1 secs

     total energy              =   -2942.85965093 Ry
     estimated scf accuracy    <       0.00006132 Ry

     iteration # 53     ecut=    29.40 Ry     beta= 0.05
     Davidson diagonalization with overlap
     ethr =  1.03E-08,  avg # of iterations =  4.0

     negative rho (up, down):  1.462E-02 0.000E+00
 
     Adding external electric field

     Computed dipole along edir(3) : 
        Dipole                1.2229 Ry au,          3.1082 Debye
        Dipole field          0.0023 Ry au, 
 
        Potential amp.       -0.2139 Ry
        Total length         46.3494 bohr
 

     total cpu time spent up to now is      896.7 secs

     total energy              =   -2942.85966119 Ry
     estimated scf accuracy    <       0.00002500 Ry

     iteration # 54     ecut=    29.40 Ry     beta= 0.05
     Davidson diagonalization with overlap
     ethr =  6.28E-09,  avg # of iterations = 11.1

     negative rho (up, down):  1.466E-02 0.000E+00
 
     Adding external electric field

     Computed dipole along edir(3) : 
        Dipole                1.2234 Ry au,          3.1095 Debye
        Dipole field          0.0023 Ry au, 
 
        Potential amp.       -0.2140 Ry
        Total length         46.3494 bohr
 

     total cpu time spent up to now is      913.5 secs

     total energy              =   -2942.85967323 Ry
     estimated scf accuracy    <       0.00000610 Ry

     iteration # 55     ecut=    29.40 Ry     beta= 0.05
     Davidson diagonalization with overlap
     c_bands:  2 eigenvalues not converged
     c_bands:  3 eigenvalues not converged
     c_bands:  1 eigenvalues not converged
     ethr =  1.53E-09,  avg # of iterations = 13.5

     negative rho (up, down):  1.466E-02 0.000E+00
 
     Adding external electric field

     Computed dipole along edir(3) : 
        Dipole                1.2233 Ry au,          3.1094 Debye
        Dipole field          0.0023 Ry au, 
 
        Potential amp.       -0.2140 Ry
        Total length         46.3494 bohr
 

     total cpu time spent up to now is      933.8 secs

     total energy              =   -2942.85968385 Ry
     estimated scf accuracy    <       0.00000276 Ry

     iteration # 56     ecut=    29.40 Ry     beta= 0.05
     Davidson diagonalization with overlap
     c_bands:  1 eigenvalues not converged
     c_bands:  1 eigenvalues not converged
     c_bands:  1 eigenvalues not converged
     ethr =  6.94E-10,  avg # of iterations = 14.0

     negative rho (up, down):  1.463E-02 0.000E+00
 
     Adding external electric field

     Computed dipole along edir(3) : 
        Dipole                1.2232 Ry au,          3.1090 Debye
        Dipole field          0.0023 Ry au, 
 
        Potential amp.       -0.2140 Ry
        Total length         46.3494 bohr
 

     total cpu time spent up to now is      949.8 secs

     total energy              =   -2942.85969144 Ry
     estimated scf accuracy    <       0.00000435 Ry

     iteration # 57     ecut=    29.40 Ry     beta= 0.05
     Davidson diagonalization with overlap
     ethr =  6.94E-10,  avg # of iterations =  7.2

     negative rho (up, down):  1.460E-02 0.000E+00
 
     Adding external electric field

     Computed dipole along edir(3) : 
        Dipole                1.2225 Ry au,          3.1073 Debye
        Dipole field          0.0023 Ry au, 
 
        Potential amp.       -0.2139 Ry
        Total length         46.3494 bohr
 

     total cpu time spent up to now is      963.9 secs

     total energy              =   -2942.85969878 Ry
     estimated scf accuracy    <       0.00000106 Ry

     iteration # 58     ecut=    29.40 Ry     beta= 0.05
     Davidson diagonalization with overlap
     c_bands:  1 eigenvalues not converged
     ethr =  2.65E-10,  avg # of iterations = 13.0

     negative rho (up, down):  1.459E-02 0.000E+00
 
     Adding external electric field

     Computed dipole along edir(3) : 
        Dipole                1.2224 Ry au,          3.1071 Debye
        Dipole field          0.0023 Ry au, 
 
        Potential amp.       -0.2138 Ry
        Total length         46.3494 bohr
 

     total cpu time spent up to now is      979.5 secs

     total energy              =   -2942.85970512 Ry
     estimated scf accuracy    <       0.00000098 Ry

     iteration # 59     ecut=    29.40 Ry     beta= 0.05
     Davidson diagonalization with overlap
     ethr =  2.47E-10,  avg # of iterations =  6.1

     negative rho (up, down):  1.458E-02 0.000E+00
 
     Adding external electric field

     Computed dipole along edir(3) : 
        Dipole                1.2220 Ry au,          3.1060 Debye
        Dipole field          0.0023 Ry au, 
 
        Potential amp.       -0.2138 Ry
        Total length         46.3494 bohr
 

     total cpu time spent up to now is      993.4 secs

     total energy              =   -2942.85971092 Ry
     estimated scf accuracy    <       0.00000036 Ry

     iteration # 60     ecut=    29.40 Ry     beta= 0.05
     Davidson diagonalization with overlap
     c_bands:  1 eigenvalues not converged
     ethr =  9.10E-11,  avg # of iterations = 11.4

     negative rho (up, down):  1.457E-02 0.000E+00
 
     Adding external electric field

     Computed dipole along edir(3) : 
        Dipole                1.2216 Ry au,          3.1049 Debye
        Dipole field          0.0023 Ry au, 
 
        Potential amp.       -0.2137 Ry
        Total length         46.3494 bohr
 

     total cpu time spent up to now is     1007.4 secs

     total energy              =   -2942.85971613 Ry
     estimated scf accuracy    <       0.00000018 Ry

     iteration # 61     ecut=    29.40 Ry     beta= 0.05
     Davidson diagonalization with overlap
     ethr =  4.60E-11,  avg # of iterations = 13.6

     negative rho (up, down):  1.457E-02 0.000E+00
 
     Adding external electric field

     Computed dipole along edir(3) : 
        Dipole                1.2217 Ry au,          3.1052 Debye
        Dipole field          0.0023 Ry au, 
 
        Potential amp.       -0.2137 Ry
        Total length         46.3494 bohr
 

     total cpu time spent up to now is     1027.0 secs

     total energy              =   -2942.85972080 Ry
     estimated scf accuracy    <       0.00000016 Ry

     iteration # 62     ecut=    29.40 Ry     beta= 0.05
     Davidson diagonalization with overlap
     ethr =  4.10E-11,  avg # of iterations = 10.3

     negative rho (up, down):  1.457E-02 0.000E+00
 
     Adding external electric field

     Computed dipole along edir(3) : 
        Dipole                1.2215 Ry au,          3.1047 Debye
        Dipole field          0.0023 Ry au, 
 
        Potential amp.       -0.2137 Ry
        Total length         46.3494 bohr
 

     total cpu time spent up to now is     1044.8 secs

     total energy              =   -2942.85972503 Ry
     estimated scf accuracy    <       0.00000010 Ry

     iteration # 63     ecut=    29.40 Ry     beta= 0.05
     Davidson diagonalization with overlap
     ethr =  2.46E-11,  avg # of iterations =  9.7

     negative rho (up, down):  1.465E-02 0.000E+00
 
     Adding external electric field

     Computed dipole along edir(3) : 
        Dipole                1.2217 Ry au,          3.1053 Debye
        Dipole field          0.0023 Ry au, 
 
        Potential amp.       -0.2137 Ry
        Total length         46.3494 bohr
 

     total cpu time spent up to now is     1061.8 secs

     End of self-consistent calculation

          k = 0.0000 0.0000 0.0000 ( 18029 PWs)   bands (ev):

   -55.3493 -55.3124 -55.3016 -55.2704 -55.2675 -55.2331 -55.2260 -55.1906
   -55.1697 -55.1457 -55.1353 -55.1332 -55.0996 -55.0273 -54.3313 -54.2973
   -31.9178 -31.8021 -31.7941 -31.7145 -31.6649 -31.6591 -31.6522 -31.6388
   -31.5908 -31.5900 -31.5588 -31.5533 -31.5466 -31.5306 -31.5192 -31.5116
   -31.5046 -31.4893 -31.4867 -31.4669 -31.4542 -31.4461 -31.4192 -31.4155
   -31.4041 -31.4018 -31.4006 -31.3724 -31.3588 -31.3564 -31.3516 -31.3321
   -31.3288 -31.3205 -31.3196 -31.3176 -31.2834 -31.2692 -31.2616 -31.2445
   -31.2336 -31.2092 -30.7408 -30.6465 -30.6244 -30.5571 -30.4703 -30.3595
   -17.8047 -16.1855 -15.9179 -15.7778 -15.6680 -15.5492 -15.4305 -15.4110
   -15.2790 -15.1962 -15.0761 -15.0532 -15.0266 -15.0073 -14.9952 -14.9802
   -14.8948 -14.8888 -14.8712 -14.8441 -14.8377 -14.7950 -14.7876 -14.7479
   -14.7260 -14.7251 -14.5964 -14.5089 -14.4372 -14.2012 -13.1806 -12.8342
   -12.7168  -9.7286  -6.3972  -5.3887  -4.8847  -3.5379  -3.4964  -3.3693
    -3.2793  -3.2640  -3.2424  -3.1061  -2.9526  -2.7828  -2.7692  -2.7531
    -2.6392  -2.5616  -2.5553  -2.5305  -2.3792  -2.3576  -2.3065  -2.2409
    -2.2134  -2.1653  -2.1545  -2.1333  -2.1139  -2.0939  -2.0857  -1.9722
    -1.9210  -1.8282  -1.7724  -1.7449  -1.7094  -1.6816  -1.6664  -1.6392
    -1.6312  -1.5886  -1.5612  -1.5397  -1.4886  -1.3765  -1.2674  -1.2374
    -1.1397  -0.9879  -0.9537  -0.9418  -0.9302  -0.8537  -0.8367  -0.7882
    -0.7357  -0.7279  -0.6969  -0.5860  -0.5275  -0.4625  -0.3960  -0.3845
    -0.3376  -0.2757  -0.1634  -0.1391  -0.1167  -0.0917   0.0023   0.0417
     0.0867   0.1615   0.1807   0.1943   0.3011   0.3088   0.3890   0.4012
     0.4464   0.5331   0.5674   0.5897   0.5936   0.6071   0.6370   0.7042
     0.7284   0.7547   0.8299   0.9537   1.0238   1.1857   1.2488   1.2622
     1.5921   1.5960   1.6911   1.8750   2.2673   2.3156   3.7480   3.8175
     3.8923   3.8990   3.9111   3.9847   4.2220   4.2382   4.2507   4.2568
     4.2916

          k = 0.0000 0.0419 0.0000 ( 17933 PWs)   bands (ev):

   -55.3442 -55.3174 -55.2965 -55.2724 -55.2697 -55.2314 -55.2211 -55.1954
   -55.1647 -55.1473 -55.1402 -55.1282 -55.1044 -55.0279 -54.3263 -54.3022
   -31.8607 -31.7651 -31.7401 -31.6599 -31.6525 -31.6061 -31.6048 -31.5966
   -31.5957 -31.5857 -31.5780 -31.5475 -31.5421 -31.5389 -31.5228 -31.5212
   -31.5053 -31.4963 -31.4850 -31.4721 -31.4523 -31.4504 -31.4402 -31.4192
   -31.4102 -31.3980 -31.3964 -31.3863 -31.3758 -31.3742 -31.3723 -31.3638
   -31.3394 -31.3301 -31.3233 -31.3218 -31.3167 -31.3126 -31.2984 -31.2721
   -31.2471 -31.2316 -30.6866 -30.6430 -30.6274 -30.5445 -30.4829 -30.4166
   -17.8026 -16.0566 -15.8032 -15.6858 -15.5981 -15.4425 -15.3903 -15.3715
   -15.2651 -15.2128 -15.1593 -15.1126 -15.0401 -15.0302 -14.9785 -14.9507
   -14.9255 -14.9094 -14.8602 -14.8502 -14.8328 -14.8299 -14.8049 -14.7847
   -14.7666 -14.7194 -14.6523 -14.5641 -14.4970 -14.3221 -13.1803 -12.8378
   -12.7560  -9.7262  -6.3925  -5.3888  -4.8870  -3.4879  -3.3311  -3.2018
    -3.1342  -3.1076  -3.0660  -2.9623  -2.7699  -2.7236  -2.6980  -2.6570
    -2.5939  -2.5251  -2.5042  -2.4579  -2.4297  -2.3701  -2.3630  -2.3216
    -2.3147  -2.2921  -2.2468  -2.2318  -2.1489  -2.1289  -2.0929  -2.0696
    -1.9819  -1.9486  -1.9106  -1.9029  -1.8969  -1.8407  -1.7769  -1.7424
    -1.6594  -1.6311  -1.5111  -1.3921  -1.3250  -1.2919  -1.2029  -1.1634
    -1.1042  -1.0322  -0.9488  -0.9368  -0.7676  -0.7210  -0.6901  -0.6738
    -0.6646  -0.6039  -0.5519  -0.5213  -0.5133  -0.3808  -0.3586  -0.3455
    -0.2829  -0.2765  -0.2099  -0.1832  -0.1718  -0.1538  -0.0503   0.0239
     0.0481   0.0576   0.1166   0.1428   0.2030   0.2601   0.2941   0.3648
     0.3888   0.4020   0.4520   0.4592   0.4710   0.5914   0.6062   0.6694
     0.6786   0.7529   0.8332   0.9461   0.9575   0.9997   1.0469   1.1244
     1.2992   1.4661   1.8746   1.9502   2.2223   2.2259   3.9417   3.9554
     3.9822   4.0392   4.1211   4.1257   4.1627   4.1844   4.2349   4.2455
     4.3180

          k = 0.0000-0.0839 0.0000 ( 17884 PWs)   bands (ev):

   -55.3351 -55.3264 -55.2845 -55.2844 -55.2690 -55.2297 -55.2125 -55.2039
   -55.1543 -55.1505 -55.1490 -55.1164 -55.1161 -55.0285 -54.3142 -54.3142
   -31.7244 -31.7217 -31.7179 -31.6344 -31.6077 -31.6075 -31.6057 -31.5759
   -31.5757 -31.5476 -31.5374 -31.5317 -31.5224 -31.5216 -31.5201 -31.5105
   -31.5002 -31.4885 -31.4851 -31.4772 -31.4750 -31.4701 -31.4323 -31.4277
   -31.4230 -31.4185 -31.4180 -31.4165 -31.4143 -31.4065 -31.4064 -31.3877
   -31.3848 -31.3835 -31.3780 -31.3361 -31.3130 -31.3114 -31.2975 -31.2974
   -31.2884 -31.2298 -30.6350 -30.6350 -30.5534 -30.5533 -30.5137 -30.5137
   -17.8006 -15.8014 -15.6950 -15.5581 -15.5014 -15.4473 -15.3666 -15.3613
   -15.2520 -15.2196 -15.2097 -15.1790 -15.1338 -15.1024 -14.9615 -14.9540
   -14.9460 -14.9409 -14.8941 -14.8492 -14.7993 -14.7776 -14.7600 -14.7566
   -14.7478 -14.7010 -14.6951 -14.6421 -14.6399 -14.5226 -13.1803 -12.8187
   -12.8187  -9.7239  -6.3888  -5.3890  -4.8890  -3.4674  -2.9227  -2.8832
    -2.8313  -2.8106  -2.8055  -2.7837  -2.7636  -2.7469  -2.6961  -2.6598
    -2.6239  -2.6219  -2.5467  -2.5382  -2.5063  -2.5046  -2.4750  -2.4073
    -2.3538  -2.3371  -2.2990  -2.2362  -2.2258  -2.2038  -2.1900  -2.1765
    -2.0823  -2.0684  -1.9855  -1.9611  -1.8544  -1.7933  -1.7475  -1.7246
    -1.5751  -1.4897  -1.4554  -1.4092  -1.2668  -1.1801  -1.1691  -1.1237
    -1.1160  -0.8974  -0.8723  -0.8554  -0.8376  -0.8126  -0.7889  -0.7528
    -0.7376  -0.7203  -0.6044  -0.5731  -0.5373  -0.5019  -0.4129  -0.3687
    -0.2039  -0.1631  -0.1474  -0.0982  -0.0636  -0.0052   0.0298   0.0408
     0.0436   0.0823   0.1297   0.1679   0.1745   0.2123   0.2441   0.2758
     0.2911   0.3118   0.3291   0.3931   0.4329   0.4382   0.4390   0.4628
     0.4860   0.7747   0.8426   0.8619   0.8623   0.9823   1.0320   1.0739
     1.2091   1.2171   2.0165   2.0171   2.1579   2.1580   3.9966   4.0229
     4.0510   4.0708   4.1676   4.2016   4.2294   4.2341   4.3234   4.3411
     4.3489

          k = 0.0380 0.0000 0.0000 ( 17913 PWs)   bands (ev):

   -55.3492 -55.3123 -55.3015 -55.2702 -55.2674 -55.2331 -55.2259 -55.1905
   -55.1695 -55.1456 -55.1351 -55.1332 -55.0995 -55.0272 -54.3312 -54.2972
   -31.9179 -31.8021 -31.7950 -31.7199 -31.6656 -31.6631 -31.6553 -31.6391
   -31.5905 -31.5900 -31.5534 -31.5465 -31.5417 -31.5304 -31.5191 -31.5042
   -31.4959 -31.4891 -31.4802 -31.4520 -31.4463 -31.4460 -31.4269 -31.4215
   -31.4152 -31.4016 -31.4003 -31.3724 -31.3586 -31.3557 -31.3442 -31.3396
   -31.3319 -31.3287 -31.3202 -31.3193 -31.2821 -31.2687 -31.2615 -31.2449
   -31.2364 -31.2092 -30.7403 -30.6500 -30.6224 -30.5569 -30.4702 -30.3592
   -17.8042 -16.1069 -15.8308 -15.7727 -15.6296 -15.4561 -15.4370 -15.4101
   -15.2999 -15.2002 -15.1495 -15.1311 -15.0992 -15.0662 -15.0448 -15.0190
   -14.9925 -14.9451 -14.8923 -14.8384 -14.7906 -14.7535 -14.7471 -14.7141
   -14.6716 -14.6060 -14.5839 -14.5710 -14.5236 -14.1994 -13.1820 -12.8309
   -12.7165  -9.7295  -6.3944  -5.3859  -4.8876  -3.5063  -3.4054  -3.2420
    -3.1366  -3.0593  -2.9980  -2.9551  -2.9316  -2.8825  -2.7870  -2.7747
    -2.7562  -2.6876  -2.6471  -2.5016  -2.4259  -2.4167  -2.3228  -2.2935
    -2.1416  -2.1257  -2.0912  -2.0840  -2.0291  -2.0169  -1.9588  -1.9215
    -1.8837  -1.7645  -1.7349  -1.7027  -1.6811  -1.6655  -1.6533  -1.6113
    -1.5921  -1.5253  -1.4630  -1.4461  -1.4086  -1.3290  -1.2937  -1.1829
    -1.1567  -1.0290  -0.9998  -0.9795  -0.9361  -0.8724  -0.8644  -0.8211
    -0.7649  -0.7622  -0.7033  -0.6799  -0.6713  -0.4480  -0.4113  -0.3624
    -0.3113  -0.2466  -0.2328  -0.2067  -0.2005  -0.0516  -0.0402   0.0177
     0.0415   0.0805   0.1522   0.1783   0.1965   0.2671   0.3040   0.3400
     0.3803   0.3916   0.4224   0.4694   0.5053   0.5644   0.6005   0.6374
     0.6694   0.6786   0.7628   0.8456   0.9452   1.0305   1.0800   1.3133
     1.4529   1.6013   1.7030   1.8439   2.1547   2.2328   3.7639   3.8506
     4.0005   4.0507   4.0771   4.1403   4.1876   4.1993   4.2353   4.2393
     4.2621

          k = 0.0380 0.0419 0.0000 ( 17878 PWs)   bands (ev):

   -55.3441 -55.3173 -55.2965 -55.2724 -55.2695 -55.2314 -55.2211 -55.1953
   -55.1645 -55.1472 -55.1401 -55.1283 -55.1044 -55.0278 -54.3262 -54.3022
   -31.8608 -31.7653 -31.7410 -31.6663 -31.6524 -31.6103 -31.6087 -31.5970
   -31.5962 -31.5855 -31.5782 -31.5424 -31.5396 -31.5334 -31.5227 -31.5213
   -31.4913 -31.4869 -31.4845 -31.4722 -31.4506 -31.4386 -31.4340 -31.4242
   -31.4144 -31.4101 -31.3960 -31.3838 -31.3762 -31.3722 -31.3662 -31.3614
   -31.3491 -31.3309 -31.3256 -31.3223 -31.3212 -31.3190 -31.2982 -31.2721
   -31.2470 -31.2346 -30.6862 -30.6458 -30.6264 -30.5443 -30.4830 -30.4165
   -17.8022 -15.9847 -15.7273 -15.6970 -15.5379 -15.3972 -15.3774 -15.3386
   -15.2729 -15.2319 -15.1586 -15.1363 -15.0968 -15.0422 -15.0252 -15.0064
   -14.9958 -14.9498 -14.9044 -14.8787 -14.8244 -14.7990 -14.7717 -14.7616
   -14.7240 -14.6741 -14.6408 -14.6322 -14.5775 -14.3212 -13.1815 -12.8355
   -12.7563  -9.7271  -6.3894  -5.3859  -4.8888  -3.4865  -3.2302  -3.0896
    -2.9706  -2.8970  -2.8439  -2.7840  -2.7692  -2.7468  -2.7062  -2.6652
    -2.6120  -2.5505  -2.4816  -2.4387  -2.3949  -2.3821  -2.3480  -2.2911
    -2.2596  -2.2224  -2.1782  -2.1599  -2.1423  -2.1092  -2.0553  -2.0470
    -1.9896  -1.9562  -1.9316  -1.8603  -1.8190  -1.7983  -1.7588  -1.7127
    -1.6379  -1.5606  -1.4227  -1.3744  -1.3521  -1.3054  -1.1706  -1.1417
    -1.0811  -1.0559  -0.9406  -0.9034  -0.8422  -0.8149  -0.7742  -0.7446
    -0.7043  -0.6786  -0.6411  -0.6034  -0.5325  -0.4932  -0.4624  -0.4282
    -0.3250  -0.2981  -0.2872  -0.2486  -0.1859  -0.1442  -0.1197  -0.0684
    -0.0453  -0.0049   0.0238   0.0307   0.0730   0.1188   0.2025   0.2065
     0.2609   0.3012   0.3728   0.3945   0.4606   0.5428   0.6006   0.6439
     0.7131   0.7561   0.8036   0.8987   0.9421   1.0364   1.0683   1.0704
     1.2439   1.4228   1.8855   1.9536   2.1444   2.2076   3.9283   3.9496
     3.9728   4.0906   4.1101   4.1553   4.1790   4.2525   4.3037   4.3265
     4.3563

          k = 0.0380-0.0839 0.0000 ( 17916 PWs)   bands (ev):

   -55.3351 -55.3264 -55.2845 -55.2844 -55.2689 -55.2297 -55.2125 -55.2040
   -55.1542 -55.1504 -55.1490 -55.1165 -55.1162 -55.0286 -54.3142 -54.3142
   -31.7246 -31.7219 -31.7182 -31.6346 -31.6085 -31.6083 -31.6059 -31.5760
   -31.5758 -31.5496 -31.5477 -31.5426 -31.5397 -31.5119 -31.5033 -31.4941
   -31.4929 -31.4846 -31.4818 -31.4796 -31.4785 -31.4751 -31.4324 -31.4282
   -31.4247 -31.4200 -31.4167 -31.4057 -31.4055 -31.3961 -31.3946 -31.3929
   -31.3876 -31.3862 -31.3834 -31.3372 -31.3247 -31.3232 -31.2975 -31.2974
   -31.2877 -31.2339 -30.6360 -30.6360 -30.5533 -30.5532 -30.5137 -30.5137
   -17.8003 -15.7615 -15.6512 -15.5383 -15.4520 -15.4343 -15.3243 -15.3064
   -15.2332 -15.2184 -15.2160 -15.1658 -15.0918 -15.0609 -14.9794 -14.9739
   -14.9713 -14.9401 -14.9331 -14.9292 -14.8486 -14.8305 -14.7848 -14.7819
   -14.7296 -14.7203 -14.7146 -14.6930 -14.6921 -14.5120 -13.1809 -12.8185
   -12.8185  -9.7245  -6.3867  -5.3887  -4.8899  -3.4686  -2.8766  -2.8370
    -2.8087  -2.7810  -2.6423  -2.6251  -2.6121  -2.5673  -2.5385  -2.5319
    -2.4874  -2.4643  -2.4577  -2.4280  -2.4254  -2.4065  -2.3916  -2.3495
    -2.3318  -2.2863  -2.2550  -2.2360  -2.2114  -2.1876  -2.1210  -2.0924
    -2.0592  -2.0280  -2.0117  -1.9769  -1.9212  -1.8523  -1.6432  -1.5943
    -1.5311  -1.5028  -1.4144  -1.3621  -1.3180  -1.2851  -1.2478  -1.2174
    -1.1450  -1.1029  -1.0859  -1.0313  -1.0296  -0.9616  -0.9157  -0.8223
    -0.7789  -0.7005  -0.6778  -0.6534  -0.6237  -0.5369  -0.4410  -0.3959
    -0.3801  -0.3254  -0.2884  -0.2063  -0.1771  -0.1617  -0.1457  -0.1172
    -0.0654   0.0087   0.0128   0.0378   0.0795   0.1202   0.1343   0.1532
     0.1779   0.3462   0.3755   0.3875   0.4063   0.5238   0.5474   0.7123
     0.7149   0.7374   0.7883   0.8741   0.8879   0.9681   0.9797   1.0548
     1.2003   1.2069   2.0300   2.0306   2.1484   2.1491   3.9146   4.0030
     4.0400   4.0659   4.1535   4.2054   4.2201   4.2317   4.3310   4.3628
     4.4079

          k = 0.0380-0.0419 0.0000 ( 17876 PWs)   bands (ev):

   -55.3441 -55.3173 -55.2965 -55.2724 -55.2695 -55.2314 -55.2211 -55.1953
   -55.1645 -55.1472 -55.1401 -55.1283 -55.1044 -55.0278 -54.3262 -54.3022
   -31.8608 -31.7652 -31.7409 -31.6662 -31.6524 -31.6103 -31.6087 -31.5970
   -31.5962 -31.5855 -31.5782 -31.5424 -31.5396 -31.5335 -31.5228 -31.5213
   -31.4908 -31.4868 -31.4845 -31.4722 -31.4506 -31.4386 -31.4339 -31.4249
   -31.4143 -31.4100 -31.3961 -31.3839 -31.3762 -31.3722 -31.3662 -31.3613
   -31.3493 -31.3305 -31.3253 -31.3224 -31.3213 -31.3190 -31.2982 -31.2721
   -31.2469 -31.2348 -30.6862 -30.6458 -30.6263 -30.5443 -30.4829 -30.4165
   -17.8022 -15.9848 -15.7278 -15.6965 -15.5354 -15.3960 -15.3774 -15.3385
   -15.2742 -15.2315 -15.1557 -15.1439 -15.0973 -15.0432 -15.0244 -15.0057
   -14.9960 -14.9479 -14.9043 -14.8785 -14.8243 -14.7991 -14.7718 -14.7632
   -14.7243 -14.6734 -14.6407 -14.6326 -14.5778 -14.3199 -13.1811 -12.8355
   -12.7563  -9.7268  -6.3905  -5.3885  -4.8890  -3.4844  -3.2305  -3.0895
    -2.9703  -2.9160  -2.8440  -2.7836  -2.7696  -2.7317  -2.7023  -2.6665
    -2.6116  -2.5486  -2.4779  -2.4384  -2.3954  -2.3799  -2.3496  -2.2946
    -2.2586  -2.2193  -2.1811  -2.1619  -2.1336  -2.1094  -2.0553  -2.0472
    -1.9899  -1.9537  -1.9312  -1.8643  -1.8366  -1.7831  -1.7494  -1.7147
    -1.6459  -1.5612  -1.4199  -1.3645  -1.3547  -1.3126  -1.1798  -1.1417
    -1.0763  -1.0389  -0.9506  -0.9098  -0.8330  -0.8005  -0.7846  -0.7359
    -0.7060  -0.6857  -0.6403  -0.6090  -0.5309  -0.4821  -0.4609  -0.4299
    -0.3260  -0.3084  -0.2896  -0.2420  -0.1838  -0.1523  -0.1132  -0.0639
    -0.0481  -0.0105   0.0108   0.0306   0.0748   0.1216   0.1997   0.2146
     0.2628   0.2976   0.3726   0.3876   0.4624   0.5408   0.6004   0.6402
     0.7188   0.7574   0.8033   0.8885   0.9331   1.0362   1.0694   1.0830
     1.2444   1.4233   1.8855   1.9536   2.1442   2.2083   3.9286   3.9495
     3.9723   4.0902   4.1138   4.1573   4.1781   4.2510   4.3037   4.3269
     4.3527

          k =-0.0760-0.0000 0.0000 ( 17886 PWs)   bands (ev):

   -55.3491 -55.3123 -55.3014 -55.2701 -55.2674 -55.2331 -55.2259 -55.1905
   -55.1692 -55.1456 -55.1351 -55.1333 -55.0995 -55.0272 -54.3312 -54.2972
   -31.9180 -31.8024 -31.7960 -31.7251 -31.6674 -31.6665 -31.6575 -31.6395
   -31.5903 -31.5900 -31.5535 -31.5465 -31.5308 -31.5191 -31.5166 -31.5041
   -31.4889 -31.4745 -31.4716 -31.4484 -31.4469 -31.4460 -31.4435 -31.4152
   -31.4122 -31.4015 -31.4007 -31.3743 -31.3723 -31.3588 -31.3555 -31.3360
   -31.3321 -31.3288 -31.3226 -31.3204 -31.2812 -31.2685 -31.2614 -31.2456
   -31.2392 -31.2094 -30.7399 -30.6534 -30.6210 -30.5568 -30.4701 -30.3593
   -17.8037 -15.9743 -15.8615 -15.6811 -15.5728 -15.4294 -15.4000 -15.3872
   -15.2572 -15.2357 -15.2086 -15.1940 -15.1602 -15.1277 -15.1024 -15.0705
   -15.0613 -14.9767 -14.8478 -14.8355 -14.7810 -14.7614 -14.7593 -14.7582
   -14.6807 -14.6318 -14.5949 -14.5161 -14.4828 -14.1980 -13.1833 -12.8278
   -12.7162  -9.7306  -6.3917  -5.3833  -4.8905  -3.5027  -3.3724  -3.2192
    -2.9957  -2.9150  -2.8533  -2.8427  -2.8391  -2.8245  -2.7799  -2.7761
    -2.7310  -2.6636  -2.5961  -2.5804  -2.4192  -2.2886  -2.2802  -2.1954
    -2.1022  -2.0835  -1.9939  -1.9670  -1.9364  -1.9121  -1.9008  -1.8647
    -1.8314  -1.7993  -1.7471  -1.7214  -1.7035  -1.6820  -1.6713  -1.6526
    -1.6385  -1.5537  -1.4922  -1.4554  -1.3623  -1.3269  -1.1747  -1.0968
    -1.0518  -1.0036  -1.0002  -0.9681  -0.9645  -0.9489  -0.9148  -0.8858
    -0.8467  -0.7914  -0.7554  -0.7066  -0.6471  -0.6246  -0.6044  -0.5540
    -0.3371  -0.3275  -0.2701  -0.2592  -0.2265  -0.1288  -0.0679  -0.0491
    -0.0117   0.0434   0.0793   0.1388   0.1428   0.1698   0.2338   0.2453
     0.3041   0.3357   0.3941   0.4226   0.4501   0.4803   0.4960   0.5463
     0.5984   0.6576   0.7744   0.8955   0.9085   1.0425   1.1352   1.1762
     1.3393   1.6059   1.7244   1.8189   2.0245   2.1778   3.7637   3.8082
     3.8928   4.0222   4.0575   4.1331   4.1912   4.2117   4.2376   4.2607
     4.3250

          k =-0.0760 0.0419 0.0000 ( 17914 PWs)   bands (ev):

   -55.3441 -55.3173 -55.2965 -55.2724 -55.2695 -55.2315 -55.2211 -55.1954
   -55.1643 -55.1472 -55.1401 -55.1284 -55.1045 -55.0279 -54.3262 -54.3022
   -31.8611 -31.7655 -31.7420 -31.6724 -31.6527 -31.6147 -31.6128 -31.5972
   -31.5968 -31.5855 -31.5783 -31.5425 -31.5393 -31.5236 -31.5215 -31.5157
   -31.4848 -31.4773 -31.4725 -31.4711 -31.4506 -31.4367 -31.4357 -31.4337
   -31.4102 -31.4003 -31.3969 -31.3832 -31.3808 -31.3763 -31.3719 -31.3688
   -31.3398 -31.3356 -31.3302 -31.3265 -31.3233 -31.3217 -31.2989 -31.2722
   -31.2469 -31.2382 -30.6859 -30.6488 -30.6257 -30.5443 -30.4830 -30.4166
   -17.8018 -15.8578 -15.7850 -15.5971 -15.4813 -15.3844 -15.3269 -15.3087
   -15.2730 -15.2019 -15.1586 -15.1501 -15.1413 -15.1136 -15.0818 -15.0548
   -15.0439 -14.9700 -14.9317 -14.8982 -14.8185 -14.8129 -14.7783 -14.7772
   -14.7287 -14.7278 -14.6388 -14.6040 -14.5898 -14.3194 -13.1823 -12.8333
   -12.7567  -9.7278  -6.3876  -5.3857  -4.8908  -3.4850  -3.2062  -3.0700
    -2.7870  -2.7669  -2.7374  -2.6850  -2.6460  -2.6212  -2.5876  -2.5694
    -2.5581  -2.4987  -2.4580  -2.3803  -2.3662  -2.3269  -2.3015  -2.2966
    -2.2361  -2.1707  -2.1567  -2.0757  -2.0693  -2.0321  -1.9921  -1.9533
    -1.9416  -1.9075  -1.9029  -1.8765  -1.8471  -1.8115  -1.7504  -1.5798
    -1.5614  -1.5216  -1.5039  -1.4283  -1.3341  -1.2307  -1.1303  -1.1158
    -1.0966  -1.0349  -0.9882  -0.9528  -0.9387  -0.9133  -0.8539  -0.7843
    -0.7647  -0.7389  -0.7088  -0.6904  -0.6266  -0.6121  -0.5726  -0.5569
    -0.5412  -0.5083  -0.4437  -0.4132  -0.3459  -0.3146  -0.2671  -0.1532
    -0.1482  -0.1127  -0.0969  -0.0501  -0.0274   0.0929   0.1268   0.1840
     0.2051   0.2993   0.3777   0.4049   0.4694   0.5360   0.5674   0.6102
     0.7431   0.8571   0.8717   0.9200   0.9872   1.0515   1.0631   1.1469
     1.1632   1.3041   1.9008   1.9558   2.0665   2.1968   3.9227   3.9517
     3.9639   3.9761   4.0610   4.1106   4.1508   4.2145   4.2691   4.3595
     4.3864

          k =-0.0760-0.0839 0.0000 ( 17948 PWs)   bands (ev):

   -55.3351 -55.3264 -55.2845 -55.2844 -55.2689 -55.2298 -55.2126 -55.2040
   -55.1541 -55.1504 -55.1490 -55.1166 -55.1163 -55.0286 -54.3143 -54.3142
   -31.7249 -31.7222 -31.7185 -31.6347 -31.6093 -31.6091 -31.6062 -31.5760
   -31.5758 -31.5576 -31.5502 -31.5478 -31.5418 -31.5119 -31.5050 -31.4871
   -31.4868 -31.4828 -31.4793 -31.4741 -31.4710 -31.4701 -31.4332 -31.4280
   -31.4259 -31.4212 -31.4170 -31.4058 -31.4043 -31.4041 -31.3968 -31.3876
   -31.3834 -31.3672 -31.3638 -31.3477 -31.3470 -31.3374 -31.2976 -31.2974
   -31.2870 -31.2383 -30.6371 -30.6370 -30.5533 -30.5532 -30.5137 -30.5137
   -17.8000 -15.7089 -15.5968 -15.5506 -15.3776 -15.3553 -15.3327 -15.3179
   -15.1899 -15.1714 -15.1435 -15.1171 -15.0919 -15.0644 -15.0534 -15.0482
   -14.9659 -14.9540 -14.9465 -14.9304 -14.8626 -14.8597 -14.8554 -14.8495
   -14.7988 -14.7963 -14.7154 -14.7024 -14.7009 -14.5036 -13.1816 -12.8183
   -12.8183  -9.7250  -6.3847  -5.3883  -4.8908  -3.4700  -2.8654  -2.8301
    -2.8064  -2.7820  -2.5931  -2.5549  -2.5180  -2.5056  -2.4065  -2.3644
    -2.3465  -2.3393  -2.2689  -2.2655  -2.2347  -2.2047  -2.1837  -2.1666
    -2.1527  -2.1308  -2.1060  -2.0768  -2.0707  -2.0553  -2.0015  -1.9989
    -1.9831  -1.9611  -1.9435  -1.9224  -1.9061  -1.8494  -1.7271  -1.7169
    -1.6626  -1.5565  -1.5519  -1.4717  -1.4665  -1.4225  -1.3944  -1.3827
    -1.3553  -1.1752  -1.1216  -1.0954  -1.0879  -1.0760  -0.9676  -0.9335
    -0.8753  -0.8596  -0.8335  -0.7355  -0.6851  -0.6806  -0.5989  -0.5676
    -0.5283  -0.4867  -0.3856  -0.3561  -0.3360  -0.3073  -0.3039  -0.2503
    -0.2449  -0.1681  -0.1204  -0.0844  -0.0700  -0.0388   0.1607   0.1702
     0.1886   0.3354   0.3580   0.4985   0.5424   0.5843   0.6451   0.6968
     0.7625   0.8032   0.9302   0.9579   0.9587   1.0291   1.0496   1.0545
     1.1072   1.1091   2.0476   2.0483   2.1355   2.1357   3.8910   3.9956
     4.0104   4.0559   4.1657   4.2393   4.2626   4.2895   4.3322   4.3352
     4.4002

     the Fermi energy is     3.8108 ev

!    total energy              =   -2942.85976337 Ry
     estimated scf accuracy    <       0.00000006 Ry
     smearing contrib. (-TS)   =      -0.03701344 Ry
     internal energy E=F+TS    =   -2942.82274993 Ry

     The total energy is F=E-TS. E is the sum of the following terms:
     one-electron contribution =  -23389.51088413 Ry
     hartree contribution      =   11787.28790878 Ry
     xc contribution           =    -487.75900657 Ry
     ewald contribution        =    9147.15641521 Ry
     electric field correction =       0.00281678 Ry

     convergence has been achieved in  63 iterations

     Forces acting on atoms (cartesian axes, Ry/au):

     atom    1 type  1   force =     0.00000306   -0.00026316    0.09310583
     atom    2 type  1   force =    -0.00014645   -0.00042999   -0.17824160
     atom    3 type  2   force =     0.00007474   -0.00009145   -0.02023726
     atom    4 type  2   force =     0.00001666   -0.00186875    0.05881487
     atom    5 type  2   force =    -0.01019893   -0.00054276    0.00773888
     atom    6 type  2   force =     0.01225073    0.00007615    0.00819994
     atom    7 type  1   force =     0.00038878    0.00328328   -0.01426820
     atom    8 type  1   force =    -0.00045560    0.00043735   -0.00456681
     atom    9 type  2   force =    -0.00002707   -0.00061498   -0.00037331
     atom   10 type  2   force =    -0.00059679    0.00090943   -0.00142454
     atom   11 type  2   force =    -0.00037742   -0.00012631    0.00023033
     atom   12 type  2   force =     0.00006888   -0.00007186    0.00003857
     atom   13 type  1   force =     0.00005038   -0.00032318    0.00018244
     atom   14 type  1   force =    -0.00035921    0.00012979    0.00042627
     atom   15 type  2   force =    -0.00015636    0.00079398    0.00023042
     atom   16 type  2   force =    -0.00008801   -0.00018827    0.00028866
     atom   17 type  2   force =    -0.00044763    0.00005572    0.00037952
     atom   18 type  2   force =     0.00012401   -0.00020642   -0.00008116
     atom   19 type  1   force =     0.00034479    0.00025708    0.00094076
     atom   20 type  1   force =    -0.00067697   -0.00067110    0.00018990
     atom   21 type  2   force =     0.00000347   -0.00010398    0.10392323
     atom   22 type  2   force =    -0.00017716    0.00007011   -0.00052388
     atom   23 type  2   force =    -0.07035430   -0.00022592   -0.02688157
     atom   24 type  2   force =     0.07025245    0.00020261   -0.02696179
     atom   25 type  1   force =     0.00002215   -0.00027084    0.09277310
     atom   26 type  1   force =    -0.00011264   -0.00045137   -0.17826867
     atom   27 type  2   force =     0.00014004   -0.00032697   -0.01925533
     atom   28 type  2   force =     0.00008240   -0.00154910    0.05820858
     atom   29 type  2   force =    -0.01020440   -0.00033080    0.00695726
     atom   30 type  2   force =     0.01215611   -0.00008697    0.00749319
     atom   31 type  1   force =     0.00040062    0.00496200   -0.01539999
     atom   32 type  1   force =    -0.00037626   -0.00031632   -0.00466939
     atom   33 type  2   force =    -0.00021914   -0.00047901    0.00015512
     atom   34 type  2   force =    -0.00014103    0.00364432   -0.00062962
     atom   35 type  2   force =     0.00002866   -0.00055909    0.00031718
     atom   36 type  2   force =    -0.00018667   -0.00052700   -0.00003350
     atom   37 type  1   force =    -0.00026133   -0.00050055    0.00049940
     atom   38 type  1   force =    -0.00019009   -0.00089851    0.00045663
     atom   39 type  2   force =    -0.00047854   -0.00050295    0.00052197
     atom   40 type  2   force =     0.00001683   -0.00048528   -0.00043500
     atom   41 type  2   force =    -0.00075859   -0.00013715   -0.00009921
     atom   42 type  2   force =     0.00029085   -0.00025675   -0.00032573
     atom   43 type  1   force =     0.00006245   -0.00030088   -0.00003257
     atom   44 type  1   force =    -0.00005552   -0.00066238    0.00063443
     atom   45 type  2   force =     0.00001151   -0.00014147    0.10390588
     atom   46 type  2   force =    -0.07040260   -0.00018238   -0.02689383
     atom   47 type  2   force =     0.07026559    0.00025951   -0.02696407
     atom   48 type  3   force =     0.00151481    0.00271981   -0.00096922
     atom   49 type  3   force =     0.00328186    0.00450618   -0.00189276
     atom   50 type  4   force =    -0.00187658   -0.00000052    0.00000689
     atom   51 type  5   force =    -0.00054115    0.00006839    0.00010154
     atom   52 type  5   force =     0.00026373   -0.00010652    0.00035197
     atom   53 type  5   force =     0.00102824    0.00022760    0.00092149
     atom   54 type  5   force =    -0.00034346   -0.00151559    0.00008020
     atom   55 type  5   force =    -0.00318847   -0.00548166    0.00128031
     atom   56 type  5   force =     0.00025457   -0.00080513    0.00007427

     Total force =     0.366219     Total SCF correction =     0.000576
  @ DRIVER MODE: Message from server: STATUS
  @ DRIVER MODE: Message from server: GETFORCE
  @ DRIVER MODE: Returning v,forces,stress,ensemble 

     Writing output data file ./calc.save/
  @ DRIVER MODE: Message from server: EXIT
  @ DRIVE MODE: Exiting  
 
     init_run     :     10.94s CPU     11.16s WALL (       1 calls)
     electrons    :   1035.59s CPU   1050.30s WALL (       1 calls)
     forces       :      2.51s CPU      2.61s WALL (       1 calls)

     Called by init_run:
     wfcinit      :      4.89s CPU      4.95s WALL (       1 calls)
     potinit      :      5.39s CPU      5.45s WALL (       1 calls)
     hinit0       :      0.30s CPU      0.31s WALL (       1 calls)

     Called by electrons:
     c_bands      :    881.78s CPU    887.88s WALL (      63 calls)
     sum_band     :    103.86s CPU    107.28s WALL (      63 calls)
     v_of_rho     :     37.83s CPU     39.66s WALL (      64 calls)
     newd         :     15.29s CPU     18.67s WALL (      64 calls)
     mix_rho      :      1.38s CPU      1.41s WALL (      63 calls)
     vdW_kernel   :      4.55s CPU      4.56s WALL (       1 calls)

     Called by c_bands:
     init_us_2    :      7.28s CPU      7.31s WALL (    1280 calls)
     cegterg      :    863.71s CPU    869.54s WALL (     643 calls)

     Called by *egterg:
     cdiaghg      :    136.23s CPU    136.79s WALL (    6134 calls)
     h_psi        :    460.36s CPU    464.52s WALL (    6145 calls)
     s_psi        :     62.33s CPU     62.51s WALL (    6145 calls)
     g_psi        :      1.82s CPU      1.83s WALL (    5492 calls)

     Called by h_psi:
     h_psi:calbec :     59.86s CPU     60.15s WALL (    6145 calls)
     vloc_psi     :    333.13s CPU    336.44s WALL (    6145 calls)
     add_vuspsi   :     63.70s CPU     64.02s WALL (    6145 calls)

     General routines
     calbec       :     78.74s CPU     79.09s WALL (    6815 calls)
     fft          :     19.34s CPU     19.49s WALL (    4032 calls)
     ffts         :      0.12s CPU      0.12s WALL (     127 calls)
     fftw         :    372.02s CPU    375.67s WALL (  887622 calls)
     interpolate  :      0.41s CPU      0.41s WALL (      64 calls)
     davcio       :      0.00s CPU      0.34s WALL (      10 calls)
 
     Parallel routines
 
     PWSCF        :  17m29.32s CPU  17m44.94s WALL

 
   This run was terminated on:  12:54:20   9Sep2021            

=------------------------------------------------------------------------------=
   JOB DONE.
=------------------------------------------------------------------------------=
