
     Program PWSCF v.6.7GPU starts on  9Sep2021 at  8:32:48 

     This program is part of the open-source Quantum ESPRESSO suite
     for quantum simulation of materials; please cite
         "P. Giannozzi et al., J. Phys.:Condens. Matter 21 395502 (2009);
         "P. Giannozzi et al., J. Phys.:Condens. Matter 29 465901 (2017);
         "P. Giannozzi et al., J. Chem. Phys. 152 154105 (2020);
          URL http://www.quantum-espresso.org", 
     in publications or presentations arising from this work. More details at
     http://www.quantum-espresso.org/quote

     Parallel version (MPI), running on    10 processors

     MPI processes distributed on     1 nodes
     R & G space division:  proc/nbgrp/npool/nimage =      10
     Reading input from /storage/home/hcoda1/3/ntian30/research/carbon/CxH_vib/CH2_calc/ads_slab/CH2N2H_a/out_0035/pw.inp
Warning: card &CELL ignored
Warning: card   CELL_DYNAMICS='IPI', ignored
Warning: card / ignored

     Current dimensions of program PWSCF are:
     Max number of different atomic species (ntypx) = 10
     Max number of k-points (npk) =  40000
     Max angular momentum in pseudopotentials (lmaxx) =  3
     Presently no symmetry can be used with electric field

     Message from routine cell_base_init:
     DEPRECATED: use true lattice parameter, not A to a.u. conversion factor

     **************************************************************************
     Initializing libbeef V0.1.2 with the BEEF-vdW functional.
     Citation: Wellendorff et al., PRB 85, 235149 (2012).
     **************************************************************************


     IMPORTANT: XC functional enforced from input :
     Exchange-correlation= BEEF-VDW
                           (   1   4  43  14   2   0   0)
     Any further DFT definition will be discarded
     Please, verify this is what you really want


     Subspace diagonalization in iterative solution of the eigenvalue problem:
     one sub-group per band group will be used
     scalapack distributed-memory algorithm (size of sub-group:  3*  3 procs)

  @ DRIVER MODE: Connecting to 
 qe_1139763_2767385.sched-torque.pace.gatech.edu_ywohnis_scratch
  using UNIX socket
  @ DRIVER MODE: Message from server: STATUS
  @ DRIVER MODE: Message from server: INIT
  @ DRIVER MODE: Receiving replica           0          -1
  @ DRIVER MODE: Receiving encoded integer          25
  @ DRIVER MODE:  SCF:  T  FORCE:  T  STRESS:  F  VC:  F  ENSEMBLE:  F
  @ DRIVER MODE:  SCF:  T  FORCE:  T  STRESS:  F  VC:  F  ENSEMBLE:  F
 
     Parallelization info
     --------------------
     sticks:   dense  smooth     PW     G-vecs:    dense   smooth      PW
     Min         327     131     37                56683    14340    2191
     Max         328     133     38                56694    14346    2206
     Sum        3275    1317    379               566857   143421   21985
 
     Using Slab Decomposition
 


     bravais-lattice index     =            0
     lattice parameter (alat)  =       1.8897  a.u.
     unit-cell volume          =    6658.9804 (a.u.)^3
     number of atoms/cell      =           53
     number of atomic types    =            5
     number of electrons       =       395.00
     number of Kohn-Sham states=          207
     kinetic-energy cutoff     =      29.3995  Ry
     charge density cutoff     =     293.9946  Ry
     scf convergence threshold =      7.3E-08
     mixing beta               =       0.0500
     number of iterations used =            8  plain     mixing
     Exchange-correlation= BEEF-VDW
                           (   1   4  43  14   2   0   0)

     celldm(1)=   1.889726  celldm(2)=   0.000000  celldm(3)=   0.000000
     celldm(4)=   0.000000  celldm(5)=   0.000000  celldm(6)=   0.000000

     crystal axes: (cart. coord. in units of alat)
               a(1) = (   6.579727   0.000000   0.000000 )  
               a(2) = (  -0.000775   5.961596   0.000000 )  
               a(3) = (   0.000000   0.000000  25.155947 )  

     reciprocal axes: (cart. coord. in units 2 pi/alat)
               b(1) = (  0.151982  0.000020  0.000000 )  
               b(2) = (  0.000000  0.167740  0.000000 )  
               b(3) = (  0.000000  0.000000  0.039752 )  


     PseudoPot. # 1 for Ti read from file:
     /storage/coda1/p-amedford6/0/shared/rich_project_chbe-medford/medford-share/data/pseudos_module/espresso/nninc/pbe/van/Ti.UPF
     MD5 check sum: 8e4df49b7f0d34bbd5052bf3f5ea0213
     Pseudo is Ultrasoft, Zval = 12.0
     Generated by new atomic code, or converted to UPF format
     Using radial grid of  851 points,  6 beta functions with: 
                l(1) =   0
                l(2) =   0
                l(3) =   1
                l(4) =   1
                l(5) =   2
                l(6) =   2
     Q(r) pseudized with  8 coefficients,  rinner =    1.000   1.000   1.000
                                                       1.000   1.000

     PseudoPot. # 2 for O  read from file:
     /storage/coda1/p-amedford6/0/shared/rich_project_chbe-medford/medford-share/data/pseudos_module/espresso/nninc/pbe/van/O.UPF
     MD5 check sum: 78c19812648e8988a0fe644b0f25305e
     Pseudo is Ultrasoft, Zval =  6.0
     Generated by new atomic code, or converted to UPF format
     Using radial grid of  737 points,  4 beta functions with: 
                l(1) =   0
                l(2) =   0
                l(3) =   1
                l(4) =   1
     Q(r) pseudized with  8 coefficients,  rinner =    0.800   0.800   0.800


     PseudoPot. # 3 for N  read from file:
     /storage/coda1/p-amedford6/0/shared/rich_project_chbe-medford/medford-share/data/pseudos_module/espresso/nninc/pbe/van/N.UPF
     MD5 check sum: 90d10febe142ad51ac9d5be1deb811c4
     Pseudo is Ultrasoft, Zval =  5.0
     Generated by new atomic code, or converted to UPF format
     Using radial grid of  729 points,  4 beta functions with: 
                l(1) =   0
                l(2) =   0
                l(3) =   1
                l(4) =   1
     Q(r) pseudized with  8 coefficients,  rinner =    0.800   0.800   0.800


     PseudoPot. # 4 for C  read from file:
     /storage/coda1/p-amedford6/0/shared/rich_project_chbe-medford/medford-share/data/pseudos_module/espresso/nninc/pbe/van/C.UPF
     MD5 check sum: 1a69bf6b8db32088f5b2163dbdb77a27
     Pseudo is Ultrasoft, Zval =  4.0
     Generated by new atomic code, or converted to UPF format
     Using radial grid of  721 points,  4 beta functions with: 
                l(1) =   0
                l(2) =   0
                l(3) =   1
                l(4) =   1
     Q(r) pseudized with  8 coefficients,  rinner =    0.800   0.800   0.800


     PseudoPot. # 5 for H  read from file:
     /storage/coda1/p-amedford6/0/shared/rich_project_chbe-medford/medford-share/data/pseudos_module/espresso/nninc/pbe/van/H.UPF
     MD5 check sum: b5ee9d7bfd3a09ee7748110bda690ff7
     Pseudo is Ultrasoft, Zval =  1.0
     Generated by new atomic code, or converted to UPF format
     Using radial grid of  615 points,  1 beta functions with: 
                l(1) =   0
     Q(r) pseudized with  8 coefficients,  rinner =    0.800

     atomic species   valence    mass     pseudopotential
        Ti1           12.00    47.86700     Ti( 1.00)
        O1             6.00    15.99900     O ( 1.00)
        N1             5.00    14.00700     N ( 1.00)
        C1             4.00    12.01100     C ( 1.00)
        H1             1.00     1.00800     H ( 1.00)

     No symmetry found



   Cartesian axes

     site n.     atom                  positions (alat units)
         1           Ti1 tau(   1) = (   0.0004258   2.9801865   6.0000000  )
         2           Ti1 tau(   2) = (   3.2906075   1.4906267   6.0002472  )
         3           O1  tau(   3) = (   0.0006271   0.0005054   7.9858123  )
         4           O1  tau(   4) = (   3.2906025   0.0005020   7.3038282  )
         5           O1  tau(   5) = (   4.5942328   1.4918067   9.2879030  )
         6           O1  tau(   6) = (   1.9868534   1.4903216   9.2879459  )
         7           Ti1 tau(   7) = (   3.2907910   2.8959150   9.1758416  )
         8           Ti1 tau(   8) = (   0.0015273   1.4827037   9.2680791  )
         9           O1  tau(   9) = (   3.3007851   0.0027079  11.3193151  )
        10           O1  tau(  10) = (   0.0116148   5.9584955  10.6183126  )
        11           O1  tau(  11) = (   1.3147357   1.5019762  12.6210215  )
        12           O1  tau(  12) = (   5.3120411   1.4917641  12.6342566  )
        13           Ti1 tau(  13) = (   6.5359925   2.9538565  12.6086018  )
        14           Ti1 tau(  14) = (   3.2189980   1.4905645  12.4770757  )
        15           O1  tau(  15) = (   0.0426301   5.9606301  14.6312846  )
        16           O1  tau(  16) = (   3.3149351   0.0098317  13.8848037  )
        17           O1  tau(  17) = (   4.5523768   1.5206755  16.0744300  )
        18           O1  tau(  18) = (   2.0715852   1.4807026  15.9918588  )
        19           Ti1 tau(  19) = (   3.2935730   2.9941335  15.6827836  )
        20           Ti1 tau(  20) = (   0.0200723   1.3023755  15.9747514  )
        21           O1  tau(  21) = (   3.2904802   0.0005063   4.7018136  )
        22           O1  tau(  22) = (   6.5179923   0.0002674  17.1556216  )
        23           O1  tau(  23) = (   1.3043587   1.4918075   6.0039043  )
        24           O1  tau(  24) = (   5.2767064   1.4903225   6.0039473  )
        25           Ti1 tau(  25) = (   0.0000382   5.9609847   6.0000000  )
        26           Ti1 tau(  26) = (   3.2902200   4.4714249   6.0002472  )
        27           O1  tau(  27) = (   0.0002396   2.9813036   7.9858123  )
        28           O1  tau(  28) = (   3.2902150   2.9813002   7.3038282  )
        29           O1  tau(  29) = (   4.5938453   4.4726049   9.2879030  )
        30           O1  tau(  30) = (   1.9864658   4.4711199   9.2879459  )
        31           Ti1 tau(  31) = (   3.2891106   5.8743827   9.1763621  )
        32           Ti1 tau(  32) = (   0.0006254   4.4649316   9.2693709  )
        33           O1  tau(  33) = (   3.3053585   2.9833221  11.3185053  )
        34           O1  tau(  34) = (   0.0092240   2.9805883  10.6323155  )
        35           O1  tau(  35) = (   1.3157767   4.4721532  12.6203727  )
        36           O1  tau(  36) = (   5.3104355   4.4689601  12.6331991  )
        37           Ti1 tau(  37) = (   6.5385524   5.9338372  12.5465384  )
        38           Ti1 tau(  38) = (   3.2200853   4.4710709  12.4725482  )
        39           O1  tau(  39) = (   0.0068575   2.9964749  14.7765288  )
        40           O1  tau(  40) = (   3.3021705   2.9848394  13.8818356  )
        41           O1  tau(  41) = (   4.5334443   4.4765196  15.9883447  )
        42           O1  tau(  42) = (   2.0816803   4.4801587  16.0471567  )
        43           Ti1 tau(  43) = (   3.3155128   0.0116264  15.6901768  )
        44           Ti1 tau(  44) = (   6.5575601   4.4671909  15.9479714  )
        45           O1  tau(  45) = (   3.2900926   2.9813045   4.7018136  )
        46           O1  tau(  46) = (   1.3039711   4.4726057   6.0039043  )
        47           O1  tau(  47) = (   5.2763189   4.4711207   6.0039473  )
        48           N1  tau(  48) = (   0.4270260   2.3853988  17.9668900  )
        49           C1  tau(  49) = (   0.9469377   1.9340014  19.0583692  )
        50           H1  tau(  50) = (   1.0789317   2.5769861  19.9249762  )
        51           H1  tau(  51) = (   1.2326487   0.8959138  19.0941702  )
        52           N1  tau(  52) = (   0.0025679   3.6232397  17.7996529  )
        53           H1  tau(  53) = (   0.1020252   4.2324666  18.6051602  )

     number of k points=    10  Fermi-Dirac smearing, width (Ry)=  0.0073
                       cart. coord. in units 2pi/alat
        k(    1) = (   0.0000000   0.0000000   0.0000000), wk =   0.1250000
        k(    2) = (   0.0000000   0.0419351   0.0000000), wk =   0.2500000
        k(    3) = (   0.0000000  -0.0838702   0.0000000), wk =   0.1250000
        k(    4) = (   0.0379955   0.0000049   0.0000000), wk =   0.2500000
        k(    5) = (   0.0379955   0.0419400   0.0000000), wk =   0.2500000
        k(    6) = (   0.0379955  -0.0838652   0.0000000), wk =   0.2500000
        k(    7) = (   0.0379955  -0.0419301   0.0000000), wk =   0.2500000
        k(    8) = (  -0.0759910  -0.0000099   0.0000000), wk =   0.1250000
        k(    9) = (  -0.0759910   0.0419252   0.0000000), wk =   0.2500000
        k(   10) = (  -0.0759910  -0.0838800   0.0000000), wk =   0.1250000

     Dense  grid:   566857 G-vectors     FFT dimensions: (  72,  64, 270)

     Smooth grid:   143421 G-vectors     FFT dimensions: (  45,  40, 180)

     Estimated max dynamical RAM per process >     363.40 MB

     Estimated total dynamical RAM >       3.55 GB
     Cannot read rho : file not found

     Initial potential from superposition of free atoms

     starting charge  378.99916, renormalised to  395.00000

     negative rho (up, down):  1.649E-02 0.000E+00


     %%%%%%%%%%%%%%%%%%%%%%%%%%%%%%%%%%%%%%%%%%%%%%%%%%%%%%%%%%%%%%%%%%%%%%%%
     %                                                                      %
     % You are using vdW-DF, which was implemented by the Thonhauser group. %
     % Please cite the following two papers that made this development      %
     % possible and the two reviews that describe the various versions:     %
     %                                                                      %
     %   T. Thonhauser et al., PRL 115, 136402 (2015).                      %
     %   T. Thonhauser et al., PRB 76, 125112 (2007).                       %
     %   K. Berland et al., Rep. Prog. Phys. 78, 066501 (2015).             %
     %   D.C. Langreth et al., J. Phys.: Condens. Matter 21, 084203 (2009). %
     %                                                                      %
     %                                                                      %
     % If you are calculating the stress with vdW-DF, please also cite:     %
     %                                                                      %
     %   R. Sabatini et al., J. Phys.: Condens. Matter 24, 424209 (2012).   %
     %                                                                      %
     %%%%%%%%%%%%%%%%%%%%%%%%%%%%%%%%%%%%%%%%%%%%%%%%%%%%%%%%%%%%%%%%%%%%%%%%


 
     Adding external electric field

     Computed dipole along edir(3) : 
        Dipole               -8.3962 Ry au,        -21.3410 Debye
        Dipole field         -0.0158 Ry au, 
 
        Potential amp.        1.4688 Ry
        Total length         46.3494 bohr
 
     Starting wfcs are  299 atomic wfcs
  @ DRIVER MODE: Message from server: STATUS
  @ DRIVER MODE: Message from server: POSDATA
  @ DRIVER MODE: Reading and sharing cell 
  @ DRIVER MODE: Reading and sharing positions 
  @ DRIVER MODE: Received positions 

     total cpu time spent up to now is       11.4 secs

     Self-consistent Calculation

     iteration #  1     ecut=    29.40 Ry     beta= 0.05
     Davidson diagonalization with overlap
     c_bands:  2 eigenvalues not converged
     c_bands:  1 eigenvalues not converged
     c_bands:  2 eigenvalues not converged
     c_bands:  3 eigenvalues not converged
     c_bands:  3 eigenvalues not converged
     c_bands:  2 eigenvalues not converged
     c_bands:  1 eigenvalues not converged
     ethr =  1.00E-05,  avg # of iterations = 19.3

     negative rho (up, down):  1.467E-02 0.000E+00
 
     Adding external electric field

     Computed dipole along edir(3) : 
        Dipole               38.1204 Ry au,         96.8925 Debye
        Dipole field          0.0719 Ry au, 
 
        Potential amp.       -6.6686 Ry
        Total length         46.3494 bohr
 

     total cpu time spent up to now is       50.3 secs

     total energy              =   -2613.93986428 Ry
     estimated scf accuracy    <    3601.17999678 Ry

     iteration #  2     ecut=    29.40 Ry     beta= 0.05
     Davidson diagonalization with overlap
     c_bands:  4 eigenvalues not converged
     c_bands:  3 eigenvalues not converged
     c_bands:  3 eigenvalues not converged
     ethr =  1.00E-02,  avg # of iterations = 21.3

     negative rho (up, down):  4.686E-03 0.000E+00
 
     Adding external electric field

     Computed dipole along edir(3) : 
        Dipole               -3.0696 Ry au,         -7.8021 Debye
        Dipole field         -0.0058 Ry au, 
 
        Potential amp.        0.5370 Ry
        Total length         46.3494 bohr
 

     total cpu time spent up to now is      116.5 secs

     total energy              =   -2451.03318269 Ry
     estimated scf accuracy    <   64652.65676986 Ry

     iteration #  3     ecut=    29.40 Ry     beta= 0.05
     Davidson diagonalization with overlap
     ethr =  1.00E-02,  avg # of iterations = 13.5

     negative rho (up, down):  4.756E-03 0.000E+00
 
     Adding external electric field

     Computed dipole along edir(3) : 
        Dipole               -4.9457 Ry au,        -12.5707 Debye
        Dipole field         -0.0093 Ry au, 
 
        Potential amp.        0.8652 Ry
        Total length         46.3494 bohr
 

     total cpu time spent up to now is      159.5 secs

     total energy              =   -2915.74893253 Ry
     estimated scf accuracy    <    3957.54090794 Ry

     iteration #  4     ecut=    29.40 Ry     beta= 0.05
     Davidson diagonalization with overlap
     c_bands:  1 eigenvalues not converged
     c_bands:  4 eigenvalues not converged
     c_bands:  5 eigenvalues not converged
     c_bands:  3 eigenvalues not converged
     ethr =  1.00E-02,  avg # of iterations = 16.8

     negative rho (up, down):  4.785E-03 0.000E+00
 
     Adding external electric field

     Computed dipole along edir(3) : 
        Dipole               -5.7063 Ry au,        -14.5040 Debye
        Dipole field         -0.0108 Ry au, 
 
        Potential amp.        0.9982 Ry
        Total length         46.3494 bohr
 

     total cpu time spent up to now is      180.6 secs

     total energy              =   -2935.34124123 Ry
     estimated scf accuracy    <     367.00829594 Ry

     iteration #  5     ecut=    29.40 Ry     beta= 0.05
     Davidson diagonalization with overlap
     ethr =  1.00E-02,  avg # of iterations =  3.7

     negative rho (up, down):  4.788E-03 0.000E+00
 
     Adding external electric field

     Computed dipole along edir(3) : 
        Dipole               -6.1233 Ry au,        -15.5639 Debye
        Dipole field         -0.0116 Ry au, 
 
        Potential amp.        1.0712 Ry
        Total length         46.3494 bohr
 

     total cpu time spent up to now is      191.6 secs

     total energy              =   -2934.61536079 Ry
     estimated scf accuracy    <     247.15243962 Ry

     iteration #  6     ecut=    29.40 Ry     beta= 0.05
     Davidson diagonalization with overlap
     c_bands:  2 eigenvalues not converged
     ethr =  1.00E-02,  avg # of iterations =  6.4

     negative rho (up, down):  4.858E-03 0.000E+00
 
     Adding external electric field

     Computed dipole along edir(3) : 
        Dipole               -6.5654 Ry au,        -16.6877 Debye
        Dipole field         -0.0124 Ry au, 
 
        Potential amp.        1.1485 Ry
        Total length         46.3494 bohr
 

     total cpu time spent up to now is      203.6 secs

     total energy              =   -2933.48118860 Ry
     estimated scf accuracy    <     152.89536156 Ry

     iteration #  7     ecut=    29.40 Ry     beta= 0.05
     Davidson diagonalization with overlap
     ethr =  1.00E-02,  avg # of iterations =  6.4

     negative rho (up, down):  4.625E-03 0.000E+00
 
     Adding external electric field

     Computed dipole along edir(3) : 
        Dipole               -5.9905 Ry au,        -15.2263 Debye
        Dipole field         -0.0113 Ry au, 
 
        Potential amp.        1.0479 Ry
        Total length         46.3494 bohr
 

     total cpu time spent up to now is      216.8 secs

     total energy              =   -2939.48745555 Ry
     estimated scf accuracy    <      10.95727090 Ry

     iteration #  8     ecut=    29.40 Ry     beta= 0.05
     Davidson diagonalization with overlap
     ethr =  2.77E-03,  avg # of iterations =  9.3

     negative rho (up, down):  4.668E-03 0.000E+00
 
     Adding external electric field

     Computed dipole along edir(3) : 
        Dipole               -6.4161 Ry au,        -16.3081 Debye
        Dipole field         -0.0121 Ry au, 
 
        Potential amp.        1.1224 Ry
        Total length         46.3494 bohr
 

     total cpu time spent up to now is      230.5 secs

     total energy              =   -2941.50937399 Ry
     estimated scf accuracy    <      17.39884460 Ry

     iteration #  9     ecut=    29.40 Ry     beta= 0.05
     Davidson diagonalization with overlap
     ethr =  2.77E-03,  avg # of iterations =  6.0

     negative rho (up, down):  4.666E-03 0.000E+00
 
     Adding external electric field

     Computed dipole along edir(3) : 
        Dipole               -5.9501 Ry au,        -15.1237 Debye
        Dipole field         -0.0112 Ry au, 
 
        Potential amp.        1.0409 Ry
        Total length         46.3494 bohr
 

     total cpu time spent up to now is      242.3 secs

     total energy              =   -2941.59261709 Ry
     estimated scf accuracy    <      26.13405524 Ry

     iteration # 10     ecut=    29.40 Ry     beta= 0.05
     Davidson diagonalization with overlap
     ethr =  2.77E-03,  avg # of iterations =  1.2

     negative rho (up, down):  6.165E-03 0.000E+00
 
     Adding external electric field

     Computed dipole along edir(3) : 
        Dipole               -3.0873 Ry au,         -7.8472 Debye
        Dipole field         -0.0058 Ry au, 
 
        Potential amp.        0.5401 Ry
        Total length         46.3494 bohr
 

     total cpu time spent up to now is      252.1 secs

     total energy              =   -2938.99172654 Ry
     estimated scf accuracy    <      23.25182515 Ry

     iteration # 11     ecut=    29.40 Ry     beta= 0.05
     Davidson diagonalization with overlap
     c_bands:  3 eigenvalues not converged
     ethr =  2.77E-03,  avg # of iterations = 11.1

     negative rho (up, down):  7.037E-03 0.000E+00
 
     Adding external electric field

     Computed dipole along edir(3) : 
        Dipole                0.0520 Ry au,          0.1321 Debye
        Dipole field          0.0001 Ry au, 
 
        Potential amp.       -0.0091 Ry
        Total length         46.3494 bohr
 

     total cpu time spent up to now is      266.5 secs

     total energy              =   -2950.42940086 Ry
     estimated scf accuracy    <     221.82107221 Ry

     iteration # 12     ecut=    29.40 Ry     beta= 0.05
     Davidson diagonalization with overlap
     c_bands:  1 eigenvalues not converged
     c_bands:  1 eigenvalues not converged
     ethr =  2.77E-03,  avg # of iterations = 17.9

     negative rho (up, down):  6.253E-03 0.000E+00
 
     Adding external electric field

     Computed dipole along edir(3) : 
        Dipole               -2.7878 Ry au,         -7.0859 Debye
        Dipole field         -0.0053 Ry au, 
 
        Potential amp.        0.4877 Ry
        Total length         46.3494 bohr
 

     total cpu time spent up to now is      287.0 secs

     total energy              =   -2926.08257201 Ry
     estimated scf accuracy    <    1739.52258867 Ry

     iteration # 13     ecut=    29.40 Ry     beta= 0.05
     Davidson diagonalization with overlap
     c_bands:  3 eigenvalues not converged
     ethr =  2.77E-03,  avg # of iterations = 16.1

     negative rho (up, down):  5.901E-03 0.000E+00
 
     Adding external electric field

     Computed dipole along edir(3) : 
        Dipole               -2.4344 Ry au,         -6.1875 Debye
        Dipole field         -0.0046 Ry au, 
 
        Potential amp.        0.4259 Ry
        Total length         46.3494 bohr
 

     total cpu time spent up to now is      313.8 secs

     total energy              =   -2939.28544144 Ry
     estimated scf accuracy    <       3.28537519 Ry

     iteration # 14     ecut=    29.40 Ry     beta= 0.05
     Davidson diagonalization with overlap
     ethr =  8.32E-04,  avg # of iterations =  2.6

     negative rho (up, down):  5.350E-03 0.000E+00
 
     Adding external electric field

     Computed dipole along edir(3) : 
        Dipole               -1.8213 Ry au,         -4.6292 Debye
        Dipole field         -0.0034 Ry au, 
 
        Potential amp.        0.3186 Ry
        Total length         46.3494 bohr
 

     total cpu time spent up to now is      324.5 secs

     total energy              =   -2939.15748949 Ry
     estimated scf accuracy    <       2.81353009 Ry

     iteration # 15     ecut=    29.40 Ry     beta= 0.05
     Davidson diagonalization with overlap
     ethr =  7.12E-04,  avg # of iterations =  6.6

     negative rho (up, down):  4.910E-03 0.000E+00
 
     Adding external electric field

     Computed dipole along edir(3) : 
        Dipole               -2.1880 Ry au,         -5.5613 Debye
        Dipole field         -0.0041 Ry au, 
 
        Potential amp.        0.3828 Ry
        Total length         46.3494 bohr
 

     total cpu time spent up to now is      338.0 secs

     total energy              =   -2938.64707377 Ry
     estimated scf accuracy    <       5.88450132 Ry

     iteration # 16     ecut=    29.40 Ry     beta= 0.05
     Davidson diagonalization with overlap
     c_bands:  1 eigenvalues not converged
     c_bands:  1 eigenvalues not converged
     c_bands:  1 eigenvalues not converged
     c_bands:  4 eigenvalues not converged
     c_bands:  1 eigenvalues not converged
     ethr =  7.12E-04,  avg # of iterations = 21.4

     negative rho (up, down):  4.952E-03 0.000E+00
 
     Adding external electric field

     Computed dipole along edir(3) : 
        Dipole               -1.5173 Ry au,         -3.8567 Debye
        Dipole field         -0.0029 Ry au, 
 
        Potential amp.        0.2654 Ry
        Total length         46.3494 bohr
 

     total cpu time spent up to now is      358.4 secs

     total energy              =   -2939.20294880 Ry
     estimated scf accuracy    <       1.99341413 Ry

     iteration # 17     ecut=    29.40 Ry     beta= 0.05
     Davidson diagonalization with overlap
     ethr =  5.05E-04,  avg # of iterations =  4.4

     negative rho (up, down):  4.915E-03 0.000E+00
 
     Adding external electric field

     Computed dipole along edir(3) : 
        Dipole               -1.1714 Ry au,         -2.9774 Debye
        Dipole field         -0.0022 Ry au, 
 
        Potential amp.        0.2049 Ry
        Total length         46.3494 bohr
 

     total cpu time spent up to now is      369.5 secs

     total energy              =   -2939.24859710 Ry
     estimated scf accuracy    <       1.05602209 Ry

     iteration # 18     ecut=    29.40 Ry     beta= 0.05
     Davidson diagonalization with overlap
     ethr =  2.67E-04,  avg # of iterations =  4.3

     negative rho (up, down):  5.333E-03 0.000E+00
 
     Adding external electric field

     Computed dipole along edir(3) : 
        Dipole               -0.9356 Ry au,         -2.3782 Debye
        Dipole field         -0.0018 Ry au, 
 
        Potential amp.        0.1637 Ry
        Total length         46.3494 bohr
 

     total cpu time spent up to now is      380.7 secs

     total energy              =   -2939.21190249 Ry
     estimated scf accuracy    <       1.43343244 Ry

     iteration # 19     ecut=    29.40 Ry     beta= 0.05
     Davidson diagonalization with overlap
     ethr =  2.67E-04,  avg # of iterations =  1.2

     negative rho (up, down):  6.576E-03 0.000E+00
 
     Adding external electric field

     Computed dipole along edir(3) : 
        Dipole               -0.6724 Ry au,         -1.7092 Debye
        Dipole field         -0.0013 Ry au, 
 
        Potential amp.        0.1176 Ry
        Total length         46.3494 bohr
 

     total cpu time spent up to now is      390.5 secs

     total energy              =   -2939.18441449 Ry
     estimated scf accuracy    <       1.09760181 Ry

     iteration # 20     ecut=    29.40 Ry     beta= 0.05
     Davidson diagonalization with overlap
     c_bands:  1 eigenvalues not converged
     ethr =  2.67E-04,  avg # of iterations =  8.2

     negative rho (up, down):  6.959E-03 0.000E+00
 
     Adding external electric field

     Computed dipole along edir(3) : 
        Dipole               -0.8486 Ry au,         -2.1569 Debye
        Dipole field         -0.0016 Ry au, 
 
        Potential amp.        0.1484 Ry
        Total length         46.3494 bohr
 

     total cpu time spent up to now is      402.7 secs

     total energy              =   -2939.28297073 Ry
     estimated scf accuracy    <       4.89542257 Ry

     iteration # 21     ecut=    29.40 Ry     beta= 0.05
     Davidson diagonalization with overlap
     c_bands:  2 eigenvalues not converged
     c_bands:  1 eigenvalues not converged
     c_bands:  1 eigenvalues not converged
     ethr =  2.67E-04,  avg # of iterations =  9.2

     negative rho (up, down):  6.933E-03 0.000E+00
 
     Adding external electric field

     Computed dipole along edir(3) : 
        Dipole               -0.6886 Ry au,         -1.7503 Debye
        Dipole field         -0.0013 Ry au, 
 
        Potential amp.        0.1205 Ry
        Total length         46.3494 bohr
 

     total cpu time spent up to now is      415.3 secs

     total energy              =   -2939.29131682 Ry
     estimated scf accuracy    <       9.99926236 Ry

     iteration # 22     ecut=    29.40 Ry     beta= 0.05
     Davidson diagonalization with overlap
     ethr =  2.67E-04,  avg # of iterations =  1.5

     negative rho (up, down):  6.646E-03 0.000E+00
 
     Adding external electric field

     Computed dipole along edir(3) : 
        Dipole               -0.4298 Ry au,         -1.0925 Debye
        Dipole field         -0.0008 Ry au, 
 
        Potential amp.        0.0752 Ry
        Total length         46.3494 bohr
 

     total cpu time spent up to now is      425.4 secs

     total energy              =   -2939.16596715 Ry
     estimated scf accuracy    <       9.52923588 Ry

     iteration # 23     ecut=    29.40 Ry     beta= 0.05
     Davidson diagonalization with overlap
     c_bands:  2 eigenvalues not converged
     c_bands:  2 eigenvalues not converged
     c_bands:  2 eigenvalues not converged
     c_bands:  2 eigenvalues not converged
     c_bands:  1 eigenvalues not converged
     ethr =  2.67E-04,  avg # of iterations = 17.7

     negative rho (up, down):  6.495E-03 0.000E+00
 
     Adding external electric field

     Computed dipole along edir(3) : 
        Dipole                0.1185 Ry au,          0.3012 Debye
        Dipole field          0.0002 Ry au, 
 
        Potential amp.       -0.0207 Ry
        Total length         46.3494 bohr
 

     total cpu time spent up to now is      441.2 secs

     total energy              =   -2939.17178454 Ry
     estimated scf accuracy    <       6.73211388 Ry

     iteration # 24     ecut=    29.40 Ry     beta= 0.05
     Davidson diagonalization with overlap
     c_bands:  1 eigenvalues not converged
     c_bands:  1 eigenvalues not converged
     ethr =  2.67E-04,  avg # of iterations =  9.8

     negative rho (up, down):  7.486E-03 0.000E+00
 
     Adding external electric field

     Computed dipole along edir(3) : 
        Dipole               -0.2193 Ry au,         -0.5573 Debye
        Dipole field         -0.0004 Ry au, 
 
        Potential amp.        0.0384 Ry
        Total length         46.3494 bohr
 

     total cpu time spent up to now is      454.3 secs

     total energy              =   -2939.23445588 Ry
     estimated scf accuracy    <       1.16625371 Ry

     iteration # 25     ecut=    29.40 Ry     beta= 0.05
     Davidson diagonalization with overlap
     ethr =  2.67E-04,  avg # of iterations =  4.1

     negative rho (up, down):  8.482E-03 0.000E+00
 
     Adding external electric field

     Computed dipole along edir(3) : 
        Dipole               -0.1449 Ry au,         -0.3684 Debye
        Dipole field         -0.0003 Ry au, 
 
        Potential amp.        0.0254 Ry
        Total length         46.3494 bohr
 

     total cpu time spent up to now is      465.2 secs

     total energy              =   -2939.28300721 Ry
     estimated scf accuracy    <       2.20095624 Ry

     iteration # 26     ecut=    29.40 Ry     beta= 0.05
     Davidson diagonalization with overlap
     c_bands:  2 eigenvalues not converged
     c_bands:  1 eigenvalues not converged
     ethr =  2.67E-04,  avg # of iterations =  7.5

     negative rho (up, down):  8.308E-03 0.000E+00
 
     Adding external electric field

     Computed dipole along edir(3) : 
        Dipole                0.3941 Ry au,          1.0018 Debye
        Dipole field          0.0007 Ry au, 
 
        Potential amp.       -0.0689 Ry
        Total length         46.3494 bohr
 

     total cpu time spent up to now is      477.0 secs

     total energy              =   -2939.28778054 Ry
     estimated scf accuracy    <       3.48865615 Ry

     iteration # 27     ecut=    29.40 Ry     beta= 0.05
     Davidson diagonalization with overlap
     ethr =  2.67E-04,  avg # of iterations =  6.3

     negative rho (up, down):  8.032E-03 0.000E+00
 
     Adding external electric field

     Computed dipole along edir(3) : 
        Dipole                0.3405 Ry au,          0.8654 Debye
        Dipole field          0.0006 Ry au, 
 
        Potential amp.       -0.0596 Ry
        Total length         46.3494 bohr
 

     total cpu time spent up to now is      488.5 secs

     total energy              =   -2939.29707304 Ry
     estimated scf accuracy    <       1.56182832 Ry

     iteration # 28     ecut=    29.40 Ry     beta= 0.05
     Davidson diagonalization with overlap
     ethr =  2.67E-04,  avg # of iterations =  1.3

     negative rho (up, down):  6.756E-03 0.000E+00
 
     Adding external electric field

     Computed dipole along edir(3) : 
        Dipole                0.1182 Ry au,          0.3004 Debye
        Dipole field          0.0002 Ry au, 
 
        Potential amp.       -0.0207 Ry
        Total length         46.3494 bohr
 

     total cpu time spent up to now is      498.4 secs

     total energy              =   -2939.15400163 Ry
     estimated scf accuracy    <       2.53072591 Ry

     iteration # 29     ecut=    29.40 Ry     beta= 0.05
     Davidson diagonalization with overlap
     ethr =  2.67E-04,  avg # of iterations =  1.2

     negative rho (up, down):  6.501E-03 0.000E+00
 
     Adding external electric field

     Computed dipole along edir(3) : 
        Dipole                0.0746 Ry au,          0.1895 Debye
        Dipole field          0.0001 Ry au, 
 
        Potential amp.       -0.0130 Ry
        Total length         46.3494 bohr
 

     total cpu time spent up to now is      508.2 secs

     total energy              =   -2939.19891535 Ry
     estimated scf accuracy    <       0.83666233 Ry

     iteration # 30     ecut=    29.40 Ry     beta= 0.05
     Davidson diagonalization with overlap
     ethr =  2.12E-04,  avg # of iterations =  1.2

     negative rho (up, down):  6.104E-03 0.000E+00
 
     Adding external electric field

     Computed dipole along edir(3) : 
        Dipole                0.0248 Ry au,          0.0629 Debye
        Dipole field          0.0000 Ry au, 
 
        Potential amp.       -0.0043 Ry
        Total length         46.3494 bohr
 

     total cpu time spent up to now is      518.1 secs

     total energy              =   -2939.12037733 Ry
     estimated scf accuracy    <       0.81372822 Ry

     iteration # 31     ecut=    29.40 Ry     beta= 0.05
     Davidson diagonalization with overlap
     ethr =  2.06E-04,  avg # of iterations =  6.8

     negative rho (up, down):  5.619E-03 0.000E+00
 
     Adding external electric field

     Computed dipole along edir(3) : 
        Dipole               -0.5085 Ry au,         -1.2924 Debye
        Dipole field         -0.0010 Ry au, 
 
        Potential amp.        0.0889 Ry
        Total length         46.3494 bohr
 

     total cpu time spent up to now is      530.0 secs

     total energy              =   -2939.04999198 Ry
     estimated scf accuracy    <       0.37410863 Ry

     iteration # 32     ecut=    29.40 Ry     beta= 0.05
     Davidson diagonalization with overlap
     c_bands:  3 eigenvalues not converged
     c_bands:  4 eigenvalues not converged
     c_bands:  2 eigenvalues not converged
     c_bands:  3 eigenvalues not converged
     c_bands:  4 eigenvalues not converged
     c_bands:  2 eigenvalues not converged
     c_bands:  1 eigenvalues not converged
     c_bands:  4 eigenvalues not converged
     c_bands:  2 eigenvalues not converged
     ethr =  9.47E-05,  avg # of iterations = 20.0

     negative rho (up, down):  5.966E-03 0.000E+00
 
     Adding external electric field

     Computed dipole along edir(3) : 
        Dipole                0.1306 Ry au,          0.3320 Debye
        Dipole field          0.0002 Ry au, 
 
        Potential amp.       -0.0228 Ry
        Total length         46.3494 bohr
 

     total cpu time spent up to now is      552.4 secs

     total energy              =   -2939.03063578 Ry
     estimated scf accuracy    <       1.94669414 Ry

     iteration # 33     ecut=    29.40 Ry     beta= 0.05
     Davidson diagonalization with overlap
     c_bands:  1 eigenvalues not converged
     c_bands:  4 eigenvalues not converged
     c_bands:  3 eigenvalues not converged
     c_bands:  2 eigenvalues not converged
     c_bands:  3 eigenvalues not converged
     c_bands:  1 eigenvalues not converged
     ethr =  9.47E-05,  avg # of iterations = 19.0

     negative rho (up, down):  6.884E-03 0.000E+00
 
     Adding external electric field

     Computed dipole along edir(3) : 
        Dipole                0.6251 Ry au,          1.5888 Debye
        Dipole field          0.0012 Ry au, 
 
        Potential amp.       -0.1094 Ry
        Total length         46.3494 bohr
 

     total cpu time spent up to now is      572.7 secs

     total energy              =   -2939.12230658 Ry
     estimated scf accuracy    <       0.11222526 Ry

     iteration # 34     ecut=    29.40 Ry     beta= 0.05
     Davidson diagonalization with overlap
     c_bands:  2 eigenvalues not converged
     c_bands:  4 eigenvalues not converged
     c_bands:  5 eigenvalues not converged
     c_bands:  4 eigenvalues not converged
     c_bands:  2 eigenvalues not converged
     c_bands:  4 eigenvalues not converged
     c_bands:  4 eigenvalues not converged
     c_bands:  4 eigenvalues not converged
     ethr =  2.84E-05,  avg # of iterations = 22.0

     negative rho (up, down):  6.862E-03 0.000E+00
 
     Adding external electric field

     Computed dipole along edir(3) : 
        Dipole                0.4190 Ry au,          1.0651 Debye
        Dipole field          0.0008 Ry au, 
 
        Potential amp.       -0.0733 Ry
        Total length         46.3494 bohr
 

     total cpu time spent up to now is      597.3 secs

     total energy              =   -2939.12897040 Ry
     estimated scf accuracy    <       0.42002856 Ry

     iteration # 35     ecut=    29.40 Ry     beta= 0.05
     Davidson diagonalization with overlap
     c_bands:  3 eigenvalues not converged
     c_bands:  1 eigenvalues not converged
     c_bands:  1 eigenvalues not converged
     c_bands:  1 eigenvalues not converged
     ethr =  2.84E-05,  avg # of iterations = 16.9

     negative rho (up, down):  6.707E-03 0.000E+00
 
     Adding external electric field

     Computed dipole along edir(3) : 
        Dipole                0.2744 Ry au,          0.6975 Debye
        Dipole field          0.0005 Ry au, 
 
        Potential amp.       -0.0480 Ry
        Total length         46.3494 bohr
 

     total cpu time spent up to now is      615.2 secs

     total energy              =   -2939.12691198 Ry
     estimated scf accuracy    <       0.16434592 Ry

     iteration # 36     ecut=    29.40 Ry     beta= 0.05
     Davidson diagonalization with overlap
     c_bands:  2 eigenvalues not converged
     c_bands:  4 eigenvalues not converged
     c_bands:  1 eigenvalues not converged
     c_bands:  2 eigenvalues not converged
     c_bands:  2 eigenvalues not converged
     c_bands:  3 eigenvalues not converged
     c_bands:  2 eigenvalues not converged
     ethr =  2.84E-05,  avg # of iterations = 19.8

     negative rho (up, down):  7.276E-03 0.000E+00
 
     Adding external electric field

     Computed dipole along edir(3) : 
        Dipole                0.4095 Ry au,          1.0407 Debye
        Dipole field          0.0008 Ry au, 
 
        Potential amp.       -0.0716 Ry
        Total length         46.3494 bohr
 

     total cpu time spent up to now is      633.1 secs

     total energy              =   -2939.13401445 Ry
     estimated scf accuracy    <       0.05284947 Ry

     iteration # 37     ecut=    29.40 Ry     beta= 0.05
     Davidson diagonalization with overlap
     c_bands:  1 eigenvalues not converged
     c_bands:  1 eigenvalues not converged
     ethr =  1.34E-05,  avg # of iterations = 13.5

     negative rho (up, down):  7.690E-03 0.000E+00
 
     Adding external electric field

     Computed dipole along edir(3) : 
        Dipole                0.5836 Ry au,          1.4834 Debye
        Dipole field          0.0011 Ry au, 
 
        Potential amp.       -0.1021 Ry
        Total length         46.3494 bohr
 

     total cpu time spent up to now is      647.4 secs

     total energy              =   -2939.13030488 Ry
     estimated scf accuracy    <       0.05170904 Ry

     iteration # 38     ecut=    29.40 Ry     beta= 0.05
     Davidson diagonalization with overlap
     c_bands:  2 eigenvalues not converged
     c_bands:  2 eigenvalues not converged
     c_bands:  4 eigenvalues not converged
     c_bands:  1 eigenvalues not converged
     c_bands:  4 eigenvalues not converged
     c_bands:  3 eigenvalues not converged
     ethr =  1.31E-05,  avg # of iterations = 17.8

     negative rho (up, down):  8.378E-03 0.000E+00
 
     Adding external electric field

     Computed dipole along edir(3) : 
        Dipole                0.6853 Ry au,          1.7417 Debye
        Dipole field          0.0013 Ry au, 
 
        Potential amp.       -0.1199 Ry
        Total length         46.3494 bohr
 

     total cpu time spent up to now is      664.1 secs

     total energy              =   -2939.14005686 Ry
     estimated scf accuracy    <       0.11798547 Ry

     iteration # 39     ecut=    29.40 Ry     beta= 0.05
     Davidson diagonalization with overlap
     c_bands:  1 eigenvalues not converged
     ethr =  1.31E-05,  avg # of iterations =  9.7

     negative rho (up, down):  1.031E-02 0.000E+00
 
     Adding external electric field

     Computed dipole along edir(3) : 
        Dipole                0.8698 Ry au,          2.2109 Debye
        Dipole field          0.0016 Ry au, 
 
        Potential amp.       -0.1522 Ry
        Total length         46.3494 bohr
 

     total cpu time spent up to now is      676.6 secs

     total energy              =   -2939.14355855 Ry
     estimated scf accuracy    <       0.21587966 Ry

     iteration # 40     ecut=    29.40 Ry     beta= 0.05
     Davidson diagonalization with overlap
     c_bands:  2 eigenvalues not converged
     c_bands:  1 eigenvalues not converged
     c_bands:  2 eigenvalues not converged
     ethr =  1.31E-05,  avg # of iterations = 14.5

     negative rho (up, down):  1.029E-02 0.000E+00
 
     Adding external electric field

     Computed dipole along edir(3) : 
        Dipole                0.8148 Ry au,          2.0710 Debye
        Dipole field          0.0015 Ry au, 
 
        Potential amp.       -0.1425 Ry
        Total length         46.3494 bohr
 

     total cpu time spent up to now is      691.2 secs

     total energy              =   -2939.13986572 Ry
     estimated scf accuracy    <       0.34544345 Ry

     iteration # 41     ecut=    29.40 Ry     beta= 0.05
     Davidson diagonalization with overlap
     ethr =  1.31E-05,  avg # of iterations =  2.1

     negative rho (up, down):  1.123E-02 0.000E+00
 
     Adding external electric field

     Computed dipole along edir(3) : 
        Dipole                0.7453 Ry au,          1.8944 Debye
        Dipole field          0.0014 Ry au, 
 
        Potential amp.       -0.1304 Ry
        Total length         46.3494 bohr
 

     total cpu time spent up to now is      701.3 secs

     total energy              =   -2939.13241752 Ry
     estimated scf accuracy    <       0.21003498 Ry

     iteration # 42     ecut=    29.40 Ry     beta= 0.05
     Davidson diagonalization with overlap
     c_bands:  1 eigenvalues not converged
     ethr =  1.31E-05,  avg # of iterations = 13.2

     negative rho (up, down):  1.107E-02 0.000E+00
 
     Adding external electric field

     Computed dipole along edir(3) : 
        Dipole                0.7255 Ry au,          1.8440 Debye
        Dipole field          0.0014 Ry au, 
 
        Potential amp.       -0.1269 Ry
        Total length         46.3494 bohr
 

     total cpu time spent up to now is      715.4 secs

     total energy              =   -2939.13344750 Ry
     estimated scf accuracy    <       0.03499316 Ry

     iteration # 43     ecut=    29.40 Ry     beta= 0.05
     Davidson diagonalization with overlap
     c_bands:  3 eigenvalues not converged
     c_bands:  2 eigenvalues not converged
     c_bands:  1 eigenvalues not converged
     ethr =  8.86E-06,  avg # of iterations = 13.1

     negative rho (up, down):  1.207E-02 0.000E+00
 
     Adding external electric field

     Computed dipole along edir(3) : 
        Dipole                0.7363 Ry au,          1.8715 Debye
        Dipole field          0.0014 Ry au, 
 
        Potential amp.       -0.1288 Ry
        Total length         46.3494 bohr
 

     total cpu time spent up to now is      729.2 secs

     total energy              =   -2939.13397054 Ry
     estimated scf accuracy    <       0.02067285 Ry

     iteration # 44     ecut=    29.40 Ry     beta= 0.05
     Davidson diagonalization with overlap
     c_bands:  1 eigenvalues not converged
     c_bands:  2 eigenvalues not converged
     c_bands:  1 eigenvalues not converged
     c_bands:  2 eigenvalues not converged
     ethr =  5.23E-06,  avg # of iterations = 13.4

     negative rho (up, down):  1.320E-02 0.000E+00
 
     Adding external electric field

     Computed dipole along edir(3) : 
        Dipole                0.7534 Ry au,          1.9150 Debye
        Dipole field          0.0014 Ry au, 
 
        Potential amp.       -0.1318 Ry
        Total length         46.3494 bohr
 

     total cpu time spent up to now is      743.9 secs

     total energy              =   -2939.13479025 Ry
     estimated scf accuracy    <       0.00245029 Ry

     iteration # 45     ecut=    29.40 Ry     beta= 0.05
     Davidson diagonalization with overlap
     c_bands:  1 eigenvalues not converged
     c_bands:  1 eigenvalues not converged
     c_bands:  1 eigenvalues not converged
     c_bands:  2 eigenvalues not converged
     ethr =  6.20E-07,  avg # of iterations = 17.0

     negative rho (up, down):  1.322E-02 0.000E+00
 
     Adding external electric field

     Computed dipole along edir(3) : 
        Dipole                0.7499 Ry au,          1.9062 Debye
        Dipole field          0.0014 Ry au, 
 
        Potential amp.       -0.1312 Ry
        Total length         46.3494 bohr
 

     total cpu time spent up to now is      763.9 secs

     total energy              =   -2939.13507214 Ry
     estimated scf accuracy    <       0.00222341 Ry

     iteration # 46     ecut=    29.40 Ry     beta= 0.05
     Davidson diagonalization with overlap
     ethr =  5.63E-07,  avg # of iterations =  5.0

     negative rho (up, down):  1.308E-02 0.000E+00
 
     Adding external electric field

     Computed dipole along edir(3) : 
        Dipole                0.7484 Ry au,          1.9023 Debye
        Dipole field          0.0014 Ry au, 
 
        Potential amp.       -0.1309 Ry
        Total length         46.3494 bohr
 

     total cpu time spent up to now is      774.7 secs

     total energy              =   -2939.13491577 Ry
     estimated scf accuracy    <       0.00168924 Ry

     iteration # 47     ecut=    29.40 Ry     beta= 0.05
     Davidson diagonalization with overlap
     ethr =  4.28E-07,  avg # of iterations =  9.0

     negative rho (up, down):  1.519E-02 0.000E+00
 
     Adding external electric field

     Computed dipole along edir(3) : 
        Dipole                0.7796 Ry au,          1.9816 Debye
        Dipole field          0.0015 Ry au, 
 
        Potential amp.       -0.1364 Ry
        Total length         46.3494 bohr
 

     total cpu time spent up to now is      787.3 secs

     total energy              =   -2939.13496653 Ry
     estimated scf accuracy    <       0.00135612 Ry

     iteration # 48     ecut=    29.40 Ry     beta= 0.05
     Davidson diagonalization with overlap
     c_bands:  1 eigenvalues not converged
     c_bands:  2 eigenvalues not converged
     ethr =  3.43E-07,  avg # of iterations = 16.3

     negative rho (up, down):  1.551E-02 0.000E+00
 
     Adding external electric field

     Computed dipole along edir(3) : 
        Dipole                0.7837 Ry au,          1.9919 Debye
        Dipole field          0.0015 Ry au, 
 
        Potential amp.       -0.1371 Ry
        Total length         46.3494 bohr
 

     total cpu time spent up to now is      807.3 secs

     total energy              =   -2939.13519674 Ry
     estimated scf accuracy    <       0.00596900 Ry

     iteration # 49     ecut=    29.40 Ry     beta= 0.05
     Davidson diagonalization with overlap
     ethr =  3.43E-07,  avg # of iterations =  9.4

     negative rho (up, down):  1.563E-02 0.000E+00
 
     Adding external electric field

     Computed dipole along edir(3) : 
        Dipole                0.7775 Ry au,          1.9762 Debye
        Dipole field          0.0015 Ry au, 
 
        Potential amp.       -0.1360 Ry
        Total length         46.3494 bohr
 

     total cpu time spent up to now is      820.0 secs

     total energy              =   -2939.13494593 Ry
     estimated scf accuracy    <       0.00310065 Ry

     iteration # 50     ecut=    29.40 Ry     beta= 0.05
     Davidson diagonalization with overlap
     c_bands:  2 eigenvalues not converged
     ethr =  3.43E-07,  avg # of iterations = 13.2

     negative rho (up, down):  1.585E-02 0.000E+00
 
     Adding external electric field

     Computed dipole along edir(3) : 
        Dipole                0.7830 Ry au,          1.9902 Debye
        Dipole field          0.0015 Ry au, 
 
        Potential amp.       -0.1370 Ry
        Total length         46.3494 bohr
 

     total cpu time spent up to now is      837.2 secs

     total energy              =   -2939.13515190 Ry
     estimated scf accuracy    <       0.00023745 Ry

     iteration # 51     ecut=    29.40 Ry     beta= 0.05
     Davidson diagonalization with overlap
     ethr =  6.01E-08,  avg # of iterations = 11.3

     negative rho (up, down):  1.606E-02 0.000E+00
 
     Adding external electric field

     Computed dipole along edir(3) : 
        Dipole                0.7830 Ry au,          1.9902 Debye
        Dipole field          0.0015 Ry au, 
 
        Potential amp.       -0.1370 Ry
        Total length         46.3494 bohr
 

     total cpu time spent up to now is      854.5 secs

     total energy              =   -2939.13518636 Ry
     estimated scf accuracy    <       0.00015308 Ry

     iteration # 52     ecut=    29.40 Ry     beta= 0.05
     Davidson diagonalization with overlap
     ethr =  3.88E-08,  avg # of iterations = 12.3

     negative rho (up, down):  1.641E-02 0.000E+00
 
     Adding external electric field

     Computed dipole along edir(3) : 
        Dipole                0.7873 Ry au,          2.0010 Debye
        Dipole field          0.0015 Ry au, 
 
        Potential amp.       -0.1377 Ry
        Total length         46.3494 bohr
 

     total cpu time spent up to now is      870.7 secs

     total energy              =   -2939.13524547 Ry
     estimated scf accuracy    <       0.00016436 Ry

     iteration # 53     ecut=    29.40 Ry     beta= 0.05
     Davidson diagonalization with overlap
     ethr =  3.88E-08,  avg # of iterations =  6.1

     negative rho (up, down):  1.646E-02 0.000E+00
 
     Adding external electric field

     Computed dipole along edir(3) : 
        Dipole                0.7899 Ry au,          2.0077 Debye
        Dipole field          0.0015 Ry au, 
 
        Potential amp.       -0.1382 Ry
        Total length         46.3494 bohr
 

     total cpu time spent up to now is      882.9 secs

     total energy              =   -2939.13521901 Ry
     estimated scf accuracy    <       0.00023326 Ry

     iteration # 54     ecut=    29.40 Ry     beta= 0.05
     Davidson diagonalization with overlap
     ethr =  3.88E-08,  avg # of iterations =  9.4

     negative rho (up, down):  1.654E-02 0.000E+00
 
     Adding external electric field

     Computed dipole along edir(3) : 
        Dipole                0.7902 Ry au,          2.0084 Debye
        Dipole field          0.0015 Ry au, 
 
        Potential amp.       -0.1382 Ry
        Total length         46.3494 bohr
 

     total cpu time spent up to now is      896.9 secs

     total energy              =   -2939.13523370 Ry
     estimated scf accuracy    <       0.00007867 Ry

     iteration # 55     ecut=    29.40 Ry     beta= 0.05
     Davidson diagonalization with overlap
     ethr =  1.99E-08,  avg # of iterations = 11.1

     negative rho (up, down):  1.683E-02 0.000E+00
 
     Adding external electric field

     Computed dipole along edir(3) : 
        Dipole                0.7917 Ry au,          2.0122 Debye
        Dipole field          0.0015 Ry au, 
 
        Potential amp.       -0.1385 Ry
        Total length         46.3494 bohr
 

     total cpu time spent up to now is      912.4 secs

     total energy              =   -2939.13524747 Ry
     estimated scf accuracy    <       0.00004387 Ry

     iteration # 56     ecut=    29.40 Ry     beta= 0.05
     Davidson diagonalization with overlap
     ethr =  1.11E-08,  avg # of iterations =  9.3

     negative rho (up, down):  1.708E-02 0.000E+00
 
     Adding external electric field

     Computed dipole along edir(3) : 
        Dipole                0.7931 Ry au,          2.0159 Debye
        Dipole field          0.0015 Ry au, 
 
        Potential amp.       -0.1387 Ry
        Total length         46.3494 bohr
 

     total cpu time spent up to now is      925.3 secs

     total energy              =   -2939.13525300 Ry
     estimated scf accuracy    <       0.00002958 Ry

     iteration # 57     ecut=    29.40 Ry     beta= 0.05
     Davidson diagonalization with overlap
     ethr =  7.49E-09,  avg # of iterations =  8.0

     negative rho (up, down):  1.701E-02 0.000E+00
 
     Adding external electric field

     Computed dipole along edir(3) : 
        Dipole                0.7913 Ry au,          2.0114 Debye
        Dipole field          0.0015 Ry au, 
 
        Potential amp.       -0.1384 Ry
        Total length         46.3494 bohr
 

     total cpu time spent up to now is      937.8 secs

     total energy              =   -2939.13525561 Ry
     estimated scf accuracy    <       0.00001732 Ry

     iteration # 58     ecut=    29.40 Ry     beta= 0.05
     Davidson diagonalization with overlap
     ethr =  4.39E-09,  avg # of iterations = 16.4

     negative rho (up, down):  1.691E-02 0.000E+00
 
     Adding external electric field

     Computed dipole along edir(3) : 
        Dipole                0.7901 Ry au,          2.0083 Debye
        Dipole field          0.0015 Ry au, 
 
        Potential amp.       -0.1382 Ry
        Total length         46.3494 bohr
 

     total cpu time spent up to now is      963.5 secs

     total energy              =   -2939.13525945 Ry
     estimated scf accuracy    <       0.00009475 Ry

     iteration # 59     ecut=    29.40 Ry     beta= 0.05
     Davidson diagonalization with overlap
     ethr =  4.39E-09,  avg # of iterations = 12.7

     negative rho (up, down):  1.680E-02 0.000E+00
 
     Adding external electric field

     Computed dipole along edir(3) : 
        Dipole                0.7880 Ry au,          2.0029 Debye
        Dipole field          0.0015 Ry au, 
 
        Potential amp.       -0.1378 Ry
        Total length         46.3494 bohr
 

     total cpu time spent up to now is      981.8 secs

     total energy              =   -2939.13526477 Ry
     estimated scf accuracy    <       0.00001735 Ry

     iteration # 60     ecut=    29.40 Ry     beta= 0.05
     Davidson diagonalization with overlap
     ethr =  4.39E-09,  avg # of iterations = 11.4

     negative rho (up, down):  1.679E-02 0.000E+00
 
     Adding external electric field

     Computed dipole along edir(3) : 
        Dipole                0.7878 Ry au,          2.0023 Debye
        Dipole field          0.0015 Ry au, 
 
        Potential amp.       -0.1378 Ry
        Total length         46.3494 bohr
 

     total cpu time spent up to now is      998.2 secs

     total energy              =   -2939.13527195 Ry
     estimated scf accuracy    <       0.00000262 Ry

     iteration # 61     ecut=    29.40 Ry     beta= 0.05
     Davidson diagonalization with overlap
     ethr =  6.63E-10,  avg # of iterations =  9.6

     negative rho (up, down):  1.677E-02 0.000E+00
 
     Adding external electric field

     Computed dipole along edir(3) : 
        Dipole                0.7874 Ry au,          2.0015 Debye
        Dipole field          0.0015 Ry au, 
 
        Potential amp.       -0.1378 Ry
        Total length         46.3494 bohr
 

     total cpu time spent up to now is     1014.6 secs

     total energy              =   -2939.13527615 Ry
     estimated scf accuracy    <       0.00000138 Ry

     iteration # 62     ecut=    29.40 Ry     beta= 0.05
     Davidson diagonalization with overlap
     ethr =  3.49E-10,  avg # of iterations = 12.7

     negative rho (up, down):  1.677E-02 0.000E+00
 
     Adding external electric field

     Computed dipole along edir(3) : 
        Dipole                0.7873 Ry au,          2.0012 Debye
        Dipole field          0.0015 Ry au, 
 
        Potential amp.       -0.1377 Ry
        Total length         46.3494 bohr
 

     total cpu time spent up to now is     1033.1 secs

     total energy              =   -2939.13527982 Ry
     estimated scf accuracy    <       0.00000138 Ry

     iteration # 63     ecut=    29.40 Ry     beta= 0.05
     Davidson diagonalization with overlap
     ethr =  3.49E-10,  avg # of iterations =  9.4

     negative rho (up, down):  1.674E-02 0.000E+00
 
     Adding external electric field

     Computed dipole along edir(3) : 
        Dipole                0.7872 Ry au,          2.0009 Debye
        Dipole field          0.0015 Ry au, 
 
        Potential amp.       -0.1377 Ry
        Total length         46.3494 bohr
 

     total cpu time spent up to now is     1049.9 secs

     total energy              =   -2939.13528342 Ry
     estimated scf accuracy    <       0.00000055 Ry

     iteration # 64     ecut=    29.40 Ry     beta= 0.05
     Davidson diagonalization with overlap
     ethr =  1.38E-10,  avg # of iterations =  8.0

     negative rho (up, down):  1.674E-02 0.000E+00
 
     Adding external electric field

     Computed dipole along edir(3) : 
        Dipole                0.7873 Ry au,          2.0011 Debye
        Dipole field          0.0015 Ry au, 
 
        Potential amp.       -0.1377 Ry
        Total length         46.3494 bohr
 

     total cpu time spent up to now is     1063.9 secs

     total energy              =   -2939.13528631 Ry
     estimated scf accuracy    <       0.00000058 Ry

     iteration # 65     ecut=    29.40 Ry     beta= 0.05
     Davidson diagonalization with overlap
     ethr =  1.38E-10,  avg # of iterations = 10.6

     negative rho (up, down):  1.674E-02 0.000E+00
 
     Adding external electric field

     Computed dipole along edir(3) : 
        Dipole                0.7873 Ry au,          2.0011 Debye
        Dipole field          0.0015 Ry au, 
 
        Potential amp.       -0.1377 Ry
        Total length         46.3494 bohr
 

     total cpu time spent up to now is     1079.7 secs

     total energy              =   -2939.13528904 Ry
     estimated scf accuracy    <       0.00000014 Ry

     iteration # 66     ecut=    29.40 Ry     beta= 0.05
     Davidson diagonalization with overlap
     ethr =  3.61E-11,  avg # of iterations =  6.7

     negative rho (up, down):  1.675E-02 0.000E+00
 
     Adding external electric field

     Computed dipole along edir(3) : 
        Dipole                0.7873 Ry au,          2.0012 Debye
        Dipole field          0.0015 Ry au, 
 
        Potential amp.       -0.1377 Ry
        Total length         46.3494 bohr
 

     total cpu time spent up to now is     1093.0 secs

     total energy              =   -2939.13529143 Ry
     estimated scf accuracy    <       0.00000012 Ry

     iteration # 67     ecut=    29.40 Ry     beta= 0.05
     Davidson diagonalization with overlap
     ethr =  3.01E-11,  avg # of iterations =  2.8

     negative rho (up, down):  1.676E-02 0.000E+00
 
     Adding external electric field

     Computed dipole along edir(3) : 
        Dipole                0.7874 Ry au,          2.0013 Debye
        Dipole field          0.0015 Ry au, 
 
        Potential amp.       -0.1377 Ry
        Total length         46.3494 bohr
 

     total cpu time spent up to now is     1103.8 secs

     total energy              =   -2939.13529357 Ry
     estimated scf accuracy    <       0.00000010 Ry

     iteration # 68     ecut=    29.40 Ry     beta= 0.05
     Davidson diagonalization with overlap
     ethr =  2.43E-11,  avg # of iterations =  9.3

     negative rho (up, down):  1.682E-02 0.000E+00
 
     Adding external electric field

     Computed dipole along edir(3) : 
        Dipole                0.7876 Ry au,          2.0020 Debye
        Dipole field          0.0015 Ry au, 
 
        Potential amp.       -0.1378 Ry
        Total length         46.3494 bohr
 

     total cpu time spent up to now is     1117.1 secs

     End of self-consistent calculation

          k = 0.0000 0.0000 0.0000 ( 18029 PWs)   bands (ev):

   -55.8528 -55.8515 -55.8187 -55.8154 -55.7458 -55.7027 -55.6650 -55.6632
   -55.6301 -55.6292 -55.6246 -55.5909 -55.1897 -55.1439 -54.8282 -54.7941
   -32.4055 -32.3357 -32.2415 -32.1632 -32.1493 -32.1450 -32.1310 -32.1164
   -32.0958 -32.0825 -32.0296 -32.0117 -32.0052 -32.0033 -31.9932 -31.9896
   -31.9576 -31.9455 -31.9396 -31.9369 -31.9101 -31.9075 -31.8917 -31.8896
   -31.8588 -31.8545 -31.8524 -31.8512 -31.8261 -31.8111 -31.8035 -31.7932
   -31.7810 -31.7791 -31.7714 -31.7380 -31.7315 -31.4543 -31.4169 -31.3899
   -31.3366 -31.3021 -31.2350 -31.1474 -31.1249 -31.0520 -30.9655 -30.8542
   -17.9159 -16.6118 -16.3318 -16.0764 -16.0012 -15.9972 -15.8637 -15.7008
   -15.5881 -15.5211 -15.4408 -15.4110 -15.3892 -15.3534 -15.3471 -15.3094
   -15.3006 -15.2750 -15.2718 -15.2093 -15.2059 -15.1985 -15.1887 -15.1045
   -15.0468 -14.9955 -14.9879 -14.9144 -14.8804 -14.3528 -13.3300 -13.2136
   -12.1767  -7.9076  -5.3777  -4.5386  -3.9886  -3.8293  -3.7597  -3.7251
    -3.6482  -3.4888  -3.4100  -3.1279  -3.0794  -3.0237  -3.0142  -2.9777
    -2.9329  -2.7813  -2.7038  -2.6770  -2.6613  -2.6390  -2.6239  -2.6118
    -2.5959  -2.5765  -2.4952  -2.4144  -2.3703  -2.2936  -2.2799  -2.2448
    -2.1649  -2.1646  -2.1245  -2.1041  -2.0858  -2.0697  -2.0612  -2.0459
    -1.9057  -1.8486  -1.8347  -1.6535  -1.6353  -1.5882  -1.4615  -1.4551
    -1.3386  -1.3233  -1.2832  -1.2455  -1.1727  -1.1510  -1.0394  -0.9981
    -0.9364  -0.8887  -0.8740  -0.7986  -0.7338  -0.6955  -0.6823  -0.6172
    -0.6105  -0.5974  -0.4630  -0.3867  -0.3329  -0.2768  -0.2546  -0.1987
    -0.1590  -0.1158  -0.0281  -0.0013   0.0104   0.0680   0.0903   0.1158
     0.1273   0.1471   0.1761   0.2316   0.3498   0.3816   0.4579   0.4717
     0.5312   0.6665   0.8046   0.8715   0.9243   1.0218   1.1252   1.1947
     1.2678   1.3870   1.7648   1.8102   2.1354   3.2670   3.3691   3.4019
     3.4129   3.5159   3.6649   3.7263   3.7414   3.7828   3.8166

          k = 0.0000 0.0419 0.0000 ( 17933 PWs)   bands (ev):

   -55.8477 -55.8461 -55.8236 -55.8206 -55.7420 -55.7064 -55.6598 -55.6582
   -55.6351 -55.6341 -55.6196 -55.5957 -55.1862 -55.1473 -54.8231 -54.7990
   -32.3477 -32.2817 -32.1866 -32.1403 -32.1350 -32.1338 -32.0777 -32.0769
   -32.0709 -32.0652 -32.0586 -32.0464 -32.0142 -32.0142 -32.0004 -31.9913
   -31.9879 -31.9358 -31.9324 -31.9311 -31.9240 -31.9093 -31.8955 -31.8943
   -31.8936 -31.8680 -31.8528 -31.8464 -31.8297 -31.8268 -31.8258 -31.8002
   -31.7996 -31.7940 -31.7899 -31.7822 -31.7396 -31.4494 -31.4148 -31.3911
   -31.3633 -31.3258 -31.1809 -31.1439 -31.1280 -31.0394 -30.9781 -30.9113
   -17.9092 -16.4746 -16.2110 -15.9669 -15.8974 -15.8885 -15.8252 -15.7238
   -15.6348 -15.6153 -15.4391 -15.4229 -15.3822 -15.3770 -15.3441 -15.3305
   -15.3264 -15.3070 -15.2815 -15.2440 -15.2162 -15.1993 -15.1632 -15.1040
   -15.0862 -15.0463 -15.0010 -14.9711 -14.9369 -14.4820 -13.3341 -13.2532
   -12.1559  -7.8789  -5.3997  -4.5745  -3.7955  -3.6630  -3.5826  -3.5642
    -3.4764  -3.3301  -3.1750  -3.0878  -3.0414  -2.9941  -2.9338  -2.9019
    -2.8899  -2.8430  -2.8212  -2.8066  -2.7469  -2.7182  -2.7034  -2.6153
    -2.6051  -2.5838  -2.5547  -2.5364  -2.5171  -2.4667  -2.3679  -2.3519
    -2.3355  -2.2741  -2.2577  -2.1252  -2.1126  -2.0801  -2.0236  -1.9602
    -1.8384  -1.7687  -1.6721  -1.6285  -1.5823  -1.5138  -1.4959  -1.4340
    -1.2545  -1.1937  -1.1625  -1.1273  -1.0813  -1.0346  -0.9754  -0.8801
    -0.8358  -0.8026  -0.7916  -0.7472  -0.7356  -0.7061  -0.6712  -0.6580
    -0.6199  -0.5683  -0.4858  -0.4414  -0.3872  -0.3536  -0.3411  -0.3230
    -0.2800  -0.1755  -0.1151  -0.1040  -0.0449  -0.0226  -0.0124   0.0150
     0.0385   0.1412   0.1864   0.2333   0.2848   0.3019   0.4096   0.4608
     0.4756   0.5110   0.5364   0.7574   0.8101   0.8274   0.8889   1.1471
     1.3834   1.4701   1.7191   1.7221   2.1296   3.4730   3.5092   3.5312
     3.6233   3.6415   3.6846   3.7403   3.7676   3.8112   3.8269

          k = 0.0000-0.0839 0.0000 ( 17884 PWs)   bands (ev):

   -55.8359 -55.8354 -55.8339 -55.8328 -55.7371 -55.7112 -55.6482 -55.6466
   -55.6466 -55.6456 -55.6082 -55.6070 -55.1818 -55.1515 -54.8112 -54.8109
   -32.2072 -32.2055 -32.1496 -32.1493 -32.1305 -32.1301 -32.0961 -32.0932
   -32.0628 -32.0448 -32.0395 -32.0384 -32.0009 -31.9943 -31.9692 -31.9615
   -31.9580 -31.9574 -31.9335 -31.9307 -31.9287 -31.9270 -31.9249 -31.9102
   -31.9051 -31.9029 -31.9005 -31.8997 -31.8643 -31.8532 -31.8399 -31.8392
   -31.8247 -31.8234 -31.7907 -31.7904 -31.6843 -31.4491 -31.4151 -31.4098
   -31.3917 -31.3376 -31.1358 -31.1356 -31.0480 -31.0477 -31.0089 -31.0087
   -17.9027 -16.1323 -16.1173 -15.9277 -15.9208 -15.7543 -15.7369 -15.6755
   -15.6299 -15.6202 -15.6003 -15.5709 -15.5471 -15.4166 -15.4087 -15.3075
   -15.2470 -15.2411 -15.2378 -15.2312 -15.1916 -15.1885 -15.1873 -15.1138
   -15.1017 -15.0990 -15.0802 -15.0742 -14.8527 -14.7064 -13.3159 -13.3158
   -12.1369  -7.8498  -5.4225  -4.6021  -3.3386  -3.3195  -3.2711  -3.2550
    -3.2335  -3.2233  -3.1435  -3.1435  -3.0806  -3.0473  -3.0153  -2.9981
    -2.9705  -2.9456  -2.9204  -2.9173  -2.8639  -2.8137  -2.8011  -2.7155
    -2.6743  -2.6548  -2.5972  -2.5734  -2.5180  -2.4695  -2.4358  -2.4148
    -2.3064  -2.2386  -2.2283  -2.2206  -2.1427  -1.9684  -1.8973  -1.8652
    -1.7589  -1.6769  -1.6222  -1.5523  -1.5084  -1.4805  -1.4027  -1.3506
    -1.2849  -1.2775  -1.2644  -1.2254  -1.2116  -1.0988  -1.0333  -0.9721
    -0.9437  -0.9252  -0.8171  -0.7282  -0.5880  -0.5356  -0.4988  -0.4912
    -0.4728  -0.4556  -0.4151  -0.4078  -0.3610  -0.3476  -0.3060  -0.3026
    -0.2863  -0.2674  -0.1744  -0.1560  -0.1417  -0.1124  -0.0852  -0.0600
    -0.0416  -0.0258   0.0180   0.0414   0.0740   0.1128   0.3333   0.3894
     0.4018   0.4061   0.4329   0.7088   0.7722   0.8313   0.8550   0.9102
     1.5279   1.5281   1.6556   1.6562   2.1112   3.6052   3.6116   3.6671
     3.6809   3.7222   3.7244   3.8276   3.8386   3.8655   3.8749

          k = 0.0380 0.0000 0.0000 ( 17913 PWs)   bands (ev):

   -55.8527 -55.8513 -55.8186 -55.8153 -55.7458 -55.7026 -55.6649 -55.6629
   -55.6300 -55.6291 -55.6246 -55.5908 -55.1896 -55.1438 -54.8281 -54.7940
   -32.4057 -32.3365 -32.2466 -32.1633 -32.1491 -32.1448 -32.1322 -32.1211
   -32.0958 -32.0644 -32.0295 -32.0115 -32.0023 -31.9971 -31.9931 -31.9892
   -31.9573 -31.9557 -31.9384 -31.9251 -31.9099 -31.9035 -31.8916 -31.8896
   -31.8576 -31.8523 -31.8520 -31.8475 -31.8260 -31.8244 -31.8148 -31.7931
   -31.7792 -31.7766 -31.7704 -31.7382 -31.7312 -31.4546 -31.4203 -31.3880
   -31.3364 -31.3020 -31.2345 -31.1507 -31.1229 -31.0518 -30.9654 -30.8540
   -17.9153 -16.5387 -16.2489 -16.0227 -15.9879 -15.9018 -15.8629 -15.7446
   -15.5863 -15.5838 -15.5441 -15.5176 -15.4762 -15.4179 -15.4009 -15.3974
   -15.3622 -15.2239 -15.2084 -15.1463 -15.1301 -15.1052 -15.0974 -15.0969
   -15.0456 -15.0376 -15.0273 -14.9759 -14.9022 -14.3524 -13.3268 -13.2133
   -12.1768  -7.9072  -5.3772  -4.5287  -3.9103  -3.6243  -3.5726  -3.4809
    -3.4613  -3.4071  -3.3961  -3.3364  -3.1207  -3.1060  -3.0536  -2.9580
    -2.9318  -2.9043  -2.7945  -2.7267  -2.6491  -2.6206  -2.6055  -2.5709
    -2.5635  -2.4600  -2.4157  -2.3707  -2.3173  -2.2561  -2.2411  -2.2311
    -2.1803  -2.1250  -2.0801  -2.0661  -2.0427  -1.9308  -1.8981  -1.8670
    -1.8159  -1.7882  -1.6962  -1.6856  -1.6611  -1.6008  -1.5311  -1.4531
    -1.3811  -1.3123  -1.2937  -1.2843  -1.2640  -1.1864  -1.1373  -1.1270
    -1.1171  -0.9666  -0.9267  -0.8596  -0.7569  -0.6810  -0.6608  -0.6383
    -0.6193  -0.5848  -0.5189  -0.4240  -0.3628  -0.2946  -0.2721  -0.2010
    -0.1818  -0.1505  -0.1066  -0.0676  -0.0550  -0.0325  -0.0015   0.0215
     0.0321   0.0774   0.0945   0.2283   0.2581   0.3057   0.3527   0.4386
     0.5306   0.5874   0.6442   0.7997   0.8378   0.9952   1.1198   1.1372
     1.2065   1.3566   1.6534   1.7276   2.1069   3.2933   3.3388   3.6112
     3.6333   3.6544   3.6956   3.7260   3.7591   3.7799   3.8006

          k = 0.0380 0.0419 0.0000 ( 17878 PWs)   bands (ev):

   -55.8476 -55.8460 -55.8236 -55.8206 -55.7420 -55.7064 -55.6597 -55.6579
   -55.6351 -55.6341 -55.6196 -55.5957 -55.1861 -55.1473 -54.8230 -54.7990
   -32.3479 -32.2825 -32.1925 -32.1401 -32.1348 -32.1339 -32.0790 -32.0772
   -32.0695 -32.0615 -32.0535 -32.0472 -32.0143 -32.0047 -32.0003 -31.9888
   -31.9879 -31.9518 -31.9314 -31.9237 -31.9151 -31.9076 -31.8985 -31.8945
   -31.8902 -31.8568 -31.8516 -31.8473 -31.8297 -31.8275 -31.8263 -31.8206
   -31.8000 -31.7901 -31.7899 -31.7867 -31.7382 -31.4496 -31.4171 -31.3905
   -31.3632 -31.3259 -31.1805 -31.1465 -31.1270 -31.0393 -30.9781 -30.9112
   -17.9089 -16.4079 -16.1347 -15.9193 -15.8827 -15.8231 -15.7963 -15.7263
   -15.6720 -15.6159 -15.5097 -15.4850 -15.4641 -15.4312 -15.4130 -15.3480
   -15.3168 -15.2695 -15.2353 -15.1945 -15.1847 -15.1773 -15.1709 -15.1126
   -15.1004 -15.0917 -15.0625 -15.0160 -14.9252 -14.4821 -13.3319 -13.2534
   -12.1558  -7.8785  -5.3992  -4.5720  -3.7310  -3.4526  -3.4062  -3.3077
    -3.2849  -3.2518  -3.1882  -3.1504  -3.0170  -2.9845  -2.9486  -2.8839
    -2.8551  -2.8424  -2.7674  -2.7447  -2.7316  -2.6820  -2.6627  -2.6096
    -2.5914  -2.5659  -2.5585  -2.5043  -2.4834  -2.4156  -2.4104  -2.3443
    -2.3346  -2.2016  -2.1662  -2.1138  -2.0512  -2.0100  -1.9621  -1.8604
    -1.8297  -1.8052  -1.7067  -1.5999  -1.5842  -1.5391  -1.4305  -1.3529
    -1.3075  -1.2710  -1.2441  -1.1679  -1.1465  -1.1168  -1.0707  -1.0010
    -0.9764  -0.9229  -0.8880  -0.8327  -0.7859  -0.7609  -0.7087  -0.6784
    -0.6308  -0.5821  -0.5674  -0.5403  -0.4969  -0.4598  -0.4397  -0.3798
    -0.3344  -0.3110  -0.2710  -0.1990  -0.1721  -0.1380  -0.1119  -0.0600
     0.0499   0.0794   0.1570   0.2117   0.3019   0.3665   0.4010   0.4702
     0.4962   0.5435   0.5867   0.6772   0.7466   0.8041   0.8655   1.0762
     1.3942   1.4743   1.6416   1.7030   2.1000   3.4567   3.5064   3.6176
     3.6383   3.7091   3.7261   3.8156   3.8497   3.8610   3.8752

          k = 0.0380-0.0839 0.0000 ( 17916 PWs)   bands (ev):

   -55.8359 -55.8354 -55.8339 -55.8328 -55.7372 -55.7112 -55.6482 -55.6466
   -55.6465 -55.6456 -55.6083 -55.6071 -55.1819 -55.1516 -54.8112 -54.8109
   -32.2074 -32.2058 -32.1504 -32.1500 -32.1305 -32.1301 -32.0962 -32.0932
   -32.0766 -32.0610 -32.0171 -32.0132 -32.0009 -31.9944 -31.9698 -31.9622
   -31.9568 -31.9563 -31.9426 -31.9399 -31.9345 -31.9338 -31.9284 -31.9123
   -31.9093 -31.9053 -31.8773 -31.8763 -31.8624 -31.8518 -31.8397 -31.8390
   -31.8249 -31.8236 -31.8024 -31.8020 -31.6841 -31.4493 -31.4154 -31.4105
   -31.3926 -31.3377 -31.1368 -31.1366 -31.0479 -31.0477 -31.0089 -31.0087
   -17.9025 -16.0858 -16.0759 -15.8775 -15.8706 -15.7370 -15.7138 -15.6777
   -15.6232 -15.5679 -15.5586 -15.5513 -15.5195 -15.4294 -15.4191 -15.3413
   -15.3045 -15.2750 -15.2665 -15.2519 -15.2456 -15.2107 -15.1861 -15.1601
   -15.1567 -15.1483 -15.1206 -15.0786 -14.8398 -14.6994 -13.3157 -13.3156
   -12.1368  -7.8495  -5.4224  -4.6005  -3.3226  -3.3109  -3.1156  -3.0895
    -3.0551  -3.0465  -3.0262  -3.0156  -2.9635  -2.9368  -2.9257  -2.8921
    -2.8702  -2.8457  -2.8286  -2.8030  -2.7347  -2.7110  -2.7007  -2.6935
    -2.6771  -2.6120  -2.5775  -2.5648  -2.5333  -2.4934  -2.4539  -2.4228
    -2.3664  -2.3091  -2.1912  -2.0130  -1.9813  -1.9349  -1.9104  -1.8126
    -1.7624  -1.7488  -1.6940  -1.6669  -1.6414  -1.5805  -1.5428  -1.5277
    -1.5008  -1.4839  -1.4380  -1.3272  -1.3121  -1.0698  -1.0536  -0.9986
    -0.9780  -0.9390  -0.9098  -0.7716  -0.7340  -0.6724  -0.6577  -0.6296
    -0.6205  -0.6079  -0.5713  -0.5513  -0.4813  -0.4549  -0.4337  -0.4062
    -0.3947  -0.3864  -0.3549  -0.2809  -0.2484  -0.2214  -0.0996  -0.0418
     0.0111   0.0578   0.1461   0.2041   0.2539   0.2676   0.3195   0.3457
     0.4046   0.4858   0.5201   0.6634   0.7471   0.7789   0.8585   0.8852
     1.5410   1.5412   1.6449   1.6456   2.0929   3.5799   3.6008   3.6708
     3.6821   3.7148   3.7234   3.8744   3.8835   3.9046   3.9142

          k = 0.0380-0.0419 0.0000 ( 17876 PWs)   bands (ev):

   -55.8476 -55.8460 -55.8236 -55.8206 -55.7420 -55.7064 -55.6597 -55.6579
   -55.6351 -55.6341 -55.6196 -55.5957 -55.1861 -55.1473 -54.8230 -54.7990
   -32.3479 -32.2825 -32.1925 -32.1401 -32.1348 -32.1339 -32.0790 -32.0772
   -32.0695 -32.0615 -32.0534 -32.0474 -32.0143 -32.0048 -32.0003 -31.9889
   -31.9879 -31.9511 -31.9314 -31.9237 -31.9151 -31.9081 -31.8984 -31.8945
   -31.8901 -31.8568 -31.8516 -31.8473 -31.8297 -31.8273 -31.8263 -31.8208
   -31.8000 -31.7902 -31.7899 -31.7867 -31.7381 -31.4497 -31.4171 -31.3906
   -31.3630 -31.3258 -31.1805 -31.1465 -31.1270 -31.0393 -30.9781 -30.9112
   -17.9088 -16.4078 -16.1346 -15.9195 -15.8822 -15.8234 -15.7961 -15.7278
   -15.6722 -15.6164 -15.5101 -15.4850 -15.4615 -15.4316 -15.3917 -15.3560
   -15.3426 -15.2686 -15.2350 -15.1974 -15.1785 -15.1760 -15.1667 -15.1124
   -15.0986 -15.0914 -15.0612 -15.0169 -14.9255 -14.4821 -13.3319 -13.2534
   -12.1561  -7.8786  -5.3996  -4.5660  -3.7316  -3.4506  -3.4056  -3.3070
    -3.3021  -3.2513  -3.1865  -3.1543  -3.0141  -2.9633  -2.9521  -2.8782
    -2.8593  -2.8420  -2.7799  -2.7582  -2.7273  -2.6728  -2.6619  -2.6171
    -2.5792  -2.5681  -2.5508  -2.5053  -2.4845  -2.4208  -2.3937  -2.3490
    -2.3367  -2.2286  -2.1587  -2.1178  -2.0588  -2.0031  -1.9608  -1.8650
    -1.8265  -1.7780  -1.7288  -1.6247  -1.5838  -1.5207  -1.4429  -1.3612
    -1.3060  -1.2736  -1.2282  -1.1738  -1.1344  -1.1214  -1.0798  -1.0159
    -0.9938  -0.9256  -0.8581  -0.8489  -0.7875  -0.7677  -0.6919  -0.6707
    -0.6195  -0.5968  -0.5644  -0.5071  -0.4912  -0.4560  -0.4449  -0.3750
    -0.3314  -0.2998  -0.2780  -0.1822  -0.1603  -0.1356  -0.1152  -0.0563
     0.0662   0.0843   0.1431   0.2127   0.3007   0.3650   0.3842   0.4656
     0.4900   0.5433   0.5847   0.6277   0.7469   0.8130   0.8745   1.0772
     1.3941   1.4741   1.6414   1.7036   2.1115   3.4557   3.5049   3.6133
     3.6382   3.6923   3.7189   3.8094   3.8457   3.8673   3.8795

          k =-0.0760-0.0000 0.0000 ( 17886 PWs)   bands (ev):

   -55.8526 -55.8512 -55.8186 -55.8153 -55.7458 -55.7026 -55.6648 -55.6627
   -55.6300 -55.6291 -55.6247 -55.5908 -55.1896 -55.1438 -54.8280 -54.7940
   -32.4059 -32.3374 -32.2514 -32.1635 -32.1489 -32.1446 -32.1335 -32.1257
   -32.0958 -32.0360 -32.0295 -32.0112 -31.9994 -31.9930 -31.9919 -31.9891
   -31.9843 -31.9573 -31.9383 -31.9103 -31.8994 -31.8917 -31.8898 -31.8816
   -31.8692 -31.8559 -31.8532 -31.8523 -31.8413 -31.8258 -31.8181 -31.7930
   -31.7800 -31.7732 -31.7697 -31.7388 -31.7312 -31.4551 -31.4237 -31.3866
   -31.3363 -31.3020 -31.2341 -31.1540 -31.1216 -31.0518 -30.9653 -30.8540
   -17.9147 -16.4413 -16.1795 -15.9666 -15.9458 -15.8623 -15.8032 -15.7223
   -15.6631 -15.6271 -15.5829 -15.5589 -15.5309 -15.5132 -15.4838 -15.4445
   -15.3753 -15.2441 -15.2115 -15.2041 -15.1465 -15.0987 -15.0859 -15.0612
   -15.0423 -15.0078 -14.9924 -14.9482 -14.9146 -14.3521 -13.3238 -13.2130
   -12.1769  -7.9070  -5.3769  -4.5207  -3.8894  -3.5570  -3.4694  -3.3823
    -3.3023  -3.2837  -3.2655  -3.1167  -3.1127  -3.1011  -3.0966  -3.0813
    -2.8949  -2.8727  -2.7118  -2.6562  -2.6491  -2.6030  -2.5701  -2.4847
    -2.4281  -2.4112  -2.3554  -2.3531  -2.2657  -2.2405  -2.1994  -2.1720
    -2.1349  -2.0969  -2.0821  -2.0737  -2.0533  -2.0172  -1.9076  -1.8840
    -1.8320  -1.7348  -1.7066  -1.6226  -1.5677  -1.4916  -1.4577  -1.4524
    -1.4464  -1.4355  -1.3985  -1.3172  -1.2887  -1.2401  -1.1775  -1.1459
    -1.1404  -1.0848  -1.0398  -1.0132  -1.0055  -0.8579  -0.6992  -0.6354
    -0.5951  -0.5740  -0.5149  -0.4846  -0.4596  -0.4139  -0.3615  -0.3087
    -0.2813  -0.2350  -0.1852  -0.1525  -0.1033  -0.0604  -0.0494  -0.0120
    -0.0004   0.0384   0.1084   0.1771   0.2522   0.3251   0.3822   0.4192
     0.5691   0.6199   0.6396   0.7360   0.8408   0.8449   0.9745   1.1394
     1.2276   1.3323   1.5245   1.6722   2.0823   3.2974   3.3135   3.4327
     3.5642   3.6161   3.6930   3.7246   3.7821   3.8079   3.8251

          k =-0.0760 0.0419 0.0000 ( 17914 PWs)   bands (ev):

   -55.8476 -55.8460 -55.8236 -55.8206 -55.7420 -55.7064 -55.6598 -55.6578
   -55.6351 -55.6341 -55.6198 -55.5958 -55.1861 -55.1473 -54.8230 -54.7990
   -32.3482 -32.2835 -32.1983 -32.1401 -32.1348 -32.1342 -32.0806 -32.0774
   -32.0742 -32.0600 -32.0481 -32.0338 -32.0146 -32.0006 -31.9956 -31.9877
   -31.9867 -31.9734 -31.9314 -31.9236 -31.9073 -31.9020 -31.8946 -31.8870
   -31.8829 -31.8592 -31.8490 -31.8483 -31.8446 -31.8296 -31.8272 -31.8242
   -31.7999 -31.7930 -31.7907 -31.7897 -31.7368 -31.4502 -31.4197 -31.3901
   -31.3632 -31.3259 -31.1803 -31.1493 -31.1263 -31.0393 -30.9782 -30.9112
   -17.9085 -16.3202 -16.0650 -15.8646 -15.8576 -15.8209 -15.7323 -15.7019
   -15.6232 -15.6100 -15.5895 -15.5154 -15.5113 -15.4965 -15.4530 -15.3977
   -15.3771 -15.2985 -15.2594 -15.2320 -15.1974 -15.1547 -15.1410 -15.1362
   -15.1154 -15.1017 -15.0384 -15.0259 -14.9202 -14.4823 -13.3298 -13.2538
   -12.1560  -7.8783  -5.3992  -4.5646  -3.7167  -3.3915  -3.2077  -3.1707
    -3.1507  -3.1034  -2.9810  -2.9655  -2.9441  -2.9027  -2.8970  -2.8775
    -2.8249  -2.8111  -2.8010  -2.7703  -2.7328  -2.6332  -2.6197  -2.5781
    -2.5516  -2.5429  -2.5076  -2.4740  -2.4329  -2.3546  -2.3383  -2.3307
    -2.2682  -2.2254  -2.1769  -1.9941  -1.9756  -1.9483  -1.9289  -1.8809
    -1.7889  -1.7638  -1.7048  -1.6373  -1.6164  -1.4904  -1.4466  -1.4102
    -1.3898  -1.3269  -1.2902  -1.2584  -1.2286  -1.1490  -1.1383  -1.1141
    -1.0755  -1.0603  -1.0263  -0.9955  -0.9679  -0.8984  -0.8673  -0.8537
    -0.8020  -0.7505  -0.6660  -0.6156  -0.5831  -0.5751  -0.5138  -0.4836
    -0.4482  -0.4102  -0.3642  -0.3038  -0.2469  -0.1725  -0.1312  -0.0228
     0.0518   0.1038   0.1517   0.3490   0.3823   0.4237   0.4646   0.5102
     0.5503   0.6041   0.6131   0.6595   0.7147   0.7383   0.8661   0.9063
     1.4088   1.4771   1.5647   1.6923   2.0844   3.4418   3.4993   3.5023
     3.6056   3.6449   3.6575   3.7635   3.8810   3.9089   3.9498

          k =-0.0760-0.0839 0.0000 ( 17948 PWs)   bands (ev):

   -55.8359 -55.8354 -55.8339 -55.8328 -55.7372 -55.7113 -55.6483 -55.6467
   -55.6465 -55.6455 -55.6084 -55.6072 -55.1818 -55.1516 -54.8112 -54.8109
   -32.2077 -32.2061 -32.1511 -32.1508 -32.1305 -32.1302 -32.0963 -32.0934
   -32.0842 -32.0676 -32.0020 -31.9993 -31.9938 -31.9919 -31.9699 -31.9623
   -31.9557 -31.9551 -31.9498 -31.9486 -31.9467 -31.9351 -31.9294 -31.9225
   -31.9104 -31.9055 -31.8605 -31.8504 -31.8484 -31.8476 -31.8393 -31.8386
   -31.8253 -31.8247 -31.8242 -31.8229 -31.6837 -31.4495 -31.4158 -31.4111
   -31.3935 -31.3377 -31.1378 -31.1375 -31.0479 -31.0476 -31.0089 -31.0087
   -17.9024 -16.0270 -16.0242 -15.8165 -15.7776 -15.7584 -15.7526 -15.6627
   -15.5770 -15.5436 -15.5406 -15.4536 -15.4275 -15.4114 -15.3952 -15.3897
   -15.3809 -15.3513 -15.3162 -15.3087 -15.2946 -15.2890 -15.2770 -15.2201
   -15.1688 -15.1646 -15.1419 -15.0700 -14.8309 -14.6937 -13.3155 -13.3154
   -12.1368  -7.8491  -5.4223  -4.5992  -3.3215  -3.3120  -3.0656  -3.0227
    -3.0187  -2.9927  -2.9506  -2.7897  -2.7772  -2.7576  -2.7500  -2.7052
    -2.6817  -2.6615  -2.6418  -2.6365  -2.6076  -2.5814  -2.5664  -2.5294
    -2.5225  -2.5136  -2.4821  -2.4713  -2.4247  -2.4195  -2.3987  -2.3712
    -2.3617  -2.3274  -2.1796  -2.1072  -2.0790  -1.9943  -1.9874  -1.9476
    -1.9248  -1.9035  -1.8953  -1.8685  -1.8305  -1.6944  -1.6121  -1.5503
    -1.5416  -1.4572  -1.4296  -1.3679  -1.2781  -1.2526  -1.2317  -1.1600
    -1.0842  -1.0461  -0.9948  -0.9817  -0.9143  -0.9055  -0.8479  -0.8111
    -0.8091  -0.7317  -0.7011  -0.6544  -0.6181  -0.6013  -0.5783  -0.5516
    -0.5360  -0.5129  -0.4363  -0.3528  -0.3012  -0.2407  -0.1475  -0.0192
     0.1023   0.2150   0.2369   0.2811   0.3338   0.3681   0.4613   0.4651
     0.5281   0.5518   0.5930   0.6709   0.6821   0.7065   0.8176   0.8505
     1.5592   1.5596   1.6301   1.6303   2.0759   3.5900   3.6189   3.6380
     3.6697   3.7991   3.8051   3.8156   3.8163   3.9512   3.9545

     the Fermi energy is     3.2770 ev

!    total energy              =   -2939.13531363 Ry
     estimated scf accuracy    <       0.00000006 Ry
     smearing contrib. (-TS)   =      -0.02098924 Ry
     internal energy E=F+TS    =   -2939.11432439 Ry

     The total energy is F=E-TS. E is the sum of the following terms:
     one-electron contribution =  -24492.92072545 Ry
     hartree contribution      =   12334.41461756 Ry
     xc contribution           =    -485.37768084 Ry
     ewald contribution        =    9704.76829360 Ry
     electric field correction =       0.00117074 Ry

     convergence has been achieved in  68 iterations

     Forces acting on atoms (cartesian axes, Ry/au):

     atom    1 type  1   force =     0.00008363   -0.00023721    0.09632320
     atom    2 type  1   force =     0.00005313   -0.00057214   -0.17515217
     atom    3 type  2   force =     0.00015158   -0.00013281   -0.02407762
     atom    4 type  2   force =    -0.00000458   -0.00125047    0.05223340
     atom    5 type  2   force =    -0.01055526   -0.00047708    0.00250679
     atom    6 type  2   force =     0.01237358    0.00022320    0.00288229
     atom    7 type  1   force =     0.00098427    0.00026776   -0.01175153
     atom    8 type  1   force =    -0.00013734    0.00774971    0.02262589
     atom    9 type  2   force =    -0.00019792   -0.00015384   -0.00027776
     atom   10 type  2   force =    -0.00261996    0.00115418   -0.01267036
     atom   11 type  2   force =     0.00007298   -0.00012756    0.00005512
     atom   12 type  2   force =     0.00008688    0.00017781   -0.00038818
     atom   13 type  1   force =     0.00043719   -0.00035407    0.00024585
     atom   14 type  1   force =     0.00015212    0.00032247   -0.00014939
     atom   15 type  2   force =    -0.00022529    0.00022733    0.00000348
     atom   16 type  2   force =     0.00011070   -0.00021437    0.00034997
     atom   17 type  2   force =     0.00049890   -0.00002848    0.00035023
     atom   18 type  2   force =     0.00065741   -0.00017297    0.00026016
     atom   19 type  1   force =    -0.00116385   -0.00005559    0.00020622
     atom   20 type  1   force =     0.00031207   -0.00025976   -0.00048940
     atom   21 type  2   force =     0.00004860    0.00000318    0.10310168
     atom   22 type  2   force =     0.00016089   -0.00039693    0.00014095
     atom   23 type  2   force =    -0.07162217   -0.00015196   -0.02764182
     atom   24 type  2   force =     0.07156227    0.00034824   -0.02770612
     atom   25 type  1   force =     0.00015709   -0.00023765    0.09586890
     atom   26 type  1   force =     0.00010029   -0.00040564   -0.17542193
     atom   27 type  2   force =     0.00017792   -0.00021451   -0.02291097
     atom   28 type  2   force =     0.00006436   -0.00101125    0.05219565
     atom   29 type  2   force =    -0.01085526    0.00048186    0.00242963
     atom   30 type  2   force =     0.01255035    0.00064272    0.00277676
     atom   31 type  1   force =     0.00086920    0.00347737   -0.01293173
     atom   32 type  1   force =     0.00002909   -0.00924998    0.02305014
     atom   33 type  2   force =    -0.00048364    0.00013618    0.00022364
     atom   34 type  2   force =    -0.00302279    0.00022956   -0.01289861
     atom   35 type  2   force =     0.00009587    0.00009466   -0.00008233
     atom   36 type  2   force =     0.00009295    0.00034133   -0.00039778
     atom   37 type  1   force =     0.00033548    0.00036634    0.00009579
     atom   38 type  1   force =     0.00002439   -0.00043417    0.00014451
     atom   39 type  2   force =     0.00015403    0.00042522    0.00052480
     atom   40 type  2   force =     0.00035561    0.00013296   -0.00038108
     atom   41 type  2   force =     0.00042488    0.00004848    0.00027295
     atom   42 type  2   force =     0.00089145    0.00003413    0.00053430
     atom   43 type  1   force =    -0.00155098   -0.00034357   -0.00035157
     atom   44 type  1   force =     0.00063297   -0.00058335   -0.00097793
     atom   45 type  2   force =     0.00006006   -0.00003757    0.10308240
     atom   46 type  2   force =    -0.07164472   -0.00007179   -0.02766051
     atom   47 type  2   force =     0.07158407    0.00032489   -0.02772677
     atom   48 type  3   force =    -0.00060963   -0.00113210   -0.00004969
     atom   49 type  4   force =    -0.00084631    0.00020183   -0.00016952
     atom   50 type  5   force =    -0.00093269    0.00061098    0.00066783
     atom   51 type  5   force =     0.00048307   -0.00058896    0.00016733
     atom   52 type  3   force =    -0.00163203   -0.00557672   -0.01222522
     atom   53 type  5   force =     0.00127512    0.00645012    0.01117009

     Total force =     0.366196     Total SCF correction =     0.000469
  @ DRIVER MODE: Message from server: STATUS
  @ DRIVER MODE: Message from server: GETFORCE
  @ DRIVER MODE: Returning v,forces,stress,ensemble 

     Writing output data file ./calc.save/
  @ DRIVER MODE: Message from server: EXIT
  @ DRIVE MODE: Exiting  
 
     init_run     :     10.72s CPU     11.00s WALL (       1 calls)
     electrons    :   1088.77s CPU   1105.71s WALL (       1 calls)
     forces       :      2.35s CPU      2.44s WALL (       1 calls)

     Called by init_run:
     wfcinit      :      4.72s CPU      4.81s WALL (       1 calls)
     potinit      :      5.36s CPU      5.44s WALL (       1 calls)
     hinit0       :      0.29s CPU      0.31s WALL (       1 calls)

     Called by electrons:
     c_bands      :    930.36s CPU    937.71s WALL (      68 calls)
     sum_band     :    107.15s CPU    110.88s WALL (      68 calls)
     v_of_rho     :     38.75s CPU     40.95s WALL (      69 calls)
     newd         :     15.54s CPU     19.01s WALL (      69 calls)
     mix_rho      :      1.40s CPU      1.53s WALL (      68 calls)
     vdW_kernel   :      4.54s CPU      4.56s WALL (       1 calls)

     Called by c_bands:
     init_us_2    :      6.23s CPU      6.30s WALL (    1380 calls)
     cegterg      :    912.04s CPU    918.85s WALL (     691 calls)

     Called by *egterg:
     cdiaghg      :    159.19s CPU    160.29s WALL (    7754 calls)
     h_psi        :    479.60s CPU    483.99s WALL (    7764 calls)
     s_psi        :     65.24s CPU     65.46s WALL (    7764 calls)
     g_psi        :      1.73s CPU      1.74s WALL (    7063 calls)

     Called by h_psi:
     h_psi:calbec :     61.01s CPU     61.34s WALL (    7764 calls)
     vloc_psi     :    350.18s CPU    353.61s WALL (    7764 calls)
     add_vuspsi   :     65.34s CPU     65.75s WALL (    7764 calls)

     General routines
     calbec       :     80.01s CPU     80.40s WALL (    8484 calls)
     fft          :     20.09s CPU     20.27s WALL (    4347 calls)
     ffts         :      0.13s CPU      0.13s WALL (     137 calls)
     fftw         :    391.85s CPU    395.69s WALL (  931562 calls)
     interpolate  :      0.43s CPU      0.44s WALL (      69 calls)
     davcio       :      0.00s CPU      0.30s WALL (      10 calls)
 
     Parallel routines
 
     PWSCF        :  18m22.12s CPU  18m40.13s WALL

 
   This run was terminated on:   8:51:28   9Sep2021            

=------------------------------------------------------------------------------=
   JOB DONE.
=------------------------------------------------------------------------------=
