
     Program PWSCF v.6.7GPU starts on  2Aug2021 at 20:57:54 

     This program is part of the open-source Quantum ESPRESSO suite
     for quantum simulation of materials; please cite
         "P. Giannozzi et al., J. Phys.:Condens. Matter 21 395502 (2009);
         "P. Giannozzi et al., J. Phys.:Condens. Matter 29 465901 (2017);
         "P. Giannozzi et al., J. Chem. Phys. 152 154105 (2020);
          URL http://www.quantum-espresso.org", 
     in publications or presentations arising from this work. More details at
     http://www.quantum-espresso.org/quote

     Parallel version (MPI), running on    16 processors

     MPI processes distributed on     1 nodes
     R & G space division:  proc/nbgrp/npool/nimage =      16
     Reading input from /storage/home/hcoda1/3/ntian30/research/carbon/02Aug_vib_paired/ads_slab/CH3N2H_a/out_0033/pw.inp
Warning: card &CELL ignored
Warning: card   CELL_DYNAMICS='IPI', ignored
Warning: card / ignored

     Current dimensions of program PWSCF are:
     Max number of different atomic species (ntypx) = 10
     Max number of k-points (npk) =  40000
     Max angular momentum in pseudopotentials (lmaxx) =  3
     Presently no symmetry can be used with electric field

     Message from routine cell_base_init:
     DEPRECATED: use true lattice parameter, not A to a.u. conversion factor

     **************************************************************************
     Initializing libbeef V0.1.2 with the BEEF-vdW functional.
     Citation: Wellendorff et al., PRB 85, 235149 (2012).
     **************************************************************************


     IMPORTANT: XC functional enforced from input :
     Exchange-correlation= BEEF-VDW
                           (   1   4  43  14   2   0   0)
     Any further DFT definition will be discarded
     Please, verify this is what you really want


     Subspace diagonalization in iterative solution of the eigenvalue problem:
     one sub-group per band group will be used
     scalapack distributed-memory algorithm (size of sub-group:  4*  4 procs)

  @ DRIVER MODE: Connecting to 
 qe_1139763_2482535.sched-torque.pace.gatech.eduzw589j7r_scratch
  using UNIX socket
  @ DRIVER MODE: Message from server: STATUS
  @ DRIVER MODE: Message from server: INIT
  @ DRIVER MODE: Receiving replica           0          -1
  @ DRIVER MODE: Receiving encoded integer          25
  @ DRIVER MODE:  SCF:  T  FORCE:  T  STRESS:  F  VC:  F  ENSEMBLE:  F
  @ DRIVER MODE:  SCF:  T  FORCE:  T  STRESS:  F  VC:  F  ENSEMBLE:  F
 
     Parallelization info
     --------------------
     sticks:   dense  smooth     PW     G-vecs:    dense   smooth      PW
     Min         204      82     23                35422     8962    1367
     Max         205      84     24                35435     8968    1382
     Sum        3275    1317    379               566857   143421   21985
 
     Using Slab Decomposition
 


     bravais-lattice index     =            0
     lattice parameter (alat)  =       1.8897  a.u.
     unit-cell volume          =    6658.9804 (a.u.)^3
     number of atoms/cell      =           54
     number of atomic types    =            5
     number of electrons       =       396.00
     number of Kohn-Sham states=          208
     kinetic-energy cutoff     =      29.3995  Ry
     charge density cutoff     =     293.9946  Ry
     scf convergence threshold =      7.3E-08
     mixing beta               =       0.0500
     number of iterations used =            8  plain     mixing
     Exchange-correlation= BEEF-VDW
                           (   1   4  43  14   2   0   0)

     celldm(1)=   1.889726  celldm(2)=   0.000000  celldm(3)=   0.000000
     celldm(4)=   0.000000  celldm(5)=   0.000000  celldm(6)=   0.000000

     crystal axes: (cart. coord. in units of alat)
               a(1) = (   6.579727   0.000000   0.000000 )  
               a(2) = (  -0.000775   5.961596   0.000000 )  
               a(3) = (   0.000000   0.000000  25.155947 )  

     reciprocal axes: (cart. coord. in units 2 pi/alat)
               b(1) = (  0.151982  0.000020  0.000000 )  
               b(2) = (  0.000000  0.167740  0.000000 )  
               b(3) = (  0.000000  0.000000  0.039752 )  


     PseudoPot. # 1 for Ti read from file:
     /storage/coda1/p-amedford6/0/shared/rich_project_chbe-medford/medford-share/data/pseudos_module/espresso/nninc/pbe/van/Ti.UPF
     MD5 check sum: 8e4df49b7f0d34bbd5052bf3f5ea0213
     Pseudo is Ultrasoft, Zval = 12.0
     Generated by new atomic code, or converted to UPF format
     Using radial grid of  851 points,  6 beta functions with: 
                l(1) =   0
                l(2) =   0
                l(3) =   1
                l(4) =   1
                l(5) =   2
                l(6) =   2
     Q(r) pseudized with  8 coefficients,  rinner =    1.000   1.000   1.000
                                                       1.000   1.000

     PseudoPot. # 2 for O  read from file:
     /storage/coda1/p-amedford6/0/shared/rich_project_chbe-medford/medford-share/data/pseudos_module/espresso/nninc/pbe/van/O.UPF
     MD5 check sum: 78c19812648e8988a0fe644b0f25305e
     Pseudo is Ultrasoft, Zval =  6.0
     Generated by new atomic code, or converted to UPF format
     Using radial grid of  737 points,  4 beta functions with: 
                l(1) =   0
                l(2) =   0
                l(3) =   1
                l(4) =   1
     Q(r) pseudized with  8 coefficients,  rinner =    0.800   0.800   0.800


     PseudoPot. # 3 for N  read from file:
     /storage/coda1/p-amedford6/0/shared/rich_project_chbe-medford/medford-share/data/pseudos_module/espresso/nninc/pbe/van/N.UPF
     MD5 check sum: 90d10febe142ad51ac9d5be1deb811c4
     Pseudo is Ultrasoft, Zval =  5.0
     Generated by new atomic code, or converted to UPF format
     Using radial grid of  729 points,  4 beta functions with: 
                l(1) =   0
                l(2) =   0
                l(3) =   1
                l(4) =   1
     Q(r) pseudized with  8 coefficients,  rinner =    0.800   0.800   0.800


     PseudoPot. # 4 for C  read from file:
     /storage/coda1/p-amedford6/0/shared/rich_project_chbe-medford/medford-share/data/pseudos_module/espresso/nninc/pbe/van/C.UPF
     MD5 check sum: 1a69bf6b8db32088f5b2163dbdb77a27
     Pseudo is Ultrasoft, Zval =  4.0
     Generated by new atomic code, or converted to UPF format
     Using radial grid of  721 points,  4 beta functions with: 
                l(1) =   0
                l(2) =   0
                l(3) =   1
                l(4) =   1
     Q(r) pseudized with  8 coefficients,  rinner =    0.800   0.800   0.800


     PseudoPot. # 5 for H  read from file:
     /storage/coda1/p-amedford6/0/shared/rich_project_chbe-medford/medford-share/data/pseudos_module/espresso/nninc/pbe/van/H.UPF
     MD5 check sum: b5ee9d7bfd3a09ee7748110bda690ff7
     Pseudo is Ultrasoft, Zval =  1.0
     Generated by new atomic code, or converted to UPF format
     Using radial grid of  615 points,  1 beta functions with: 
                l(1) =   0
     Q(r) pseudized with  8 coefficients,  rinner =    0.800

     atomic species   valence    mass     pseudopotential
        Ti1           12.00    47.86700     Ti( 1.00)
        O1             6.00    15.99900     O ( 1.00)
        N1             5.00    14.00700     N ( 1.00)
        C1             4.00    12.01100     C ( 1.00)
        H1             1.00     1.00800     H ( 1.00)

     No symmetry found



   Cartesian axes

     site n.     atom                  positions (alat units)
         1           Ti1 tau(   1) = (   0.0004258   2.9801865   6.0000000  )
         2           Ti1 tau(   2) = (   3.2906075   1.4906267   6.0002472  )
         3           O1  tau(   3) = (   0.0006271   0.0005054   7.9858123  )
         4           O1  tau(   4) = (   3.2906025   0.0005020   7.3038282  )
         5           O1  tau(   5) = (   4.5942328   1.4918067   9.2879030  )
         6           O1  tau(   6) = (   1.9868534   1.4903216   9.2879459  )
         7           Ti1 tau(   7) = (   3.2907910   2.8959150   9.1758416  )
         8           Ti1 tau(   8) = (   0.0015273   1.4827037   9.2680791  )
         9           O1  tau(   9) = (   3.3106937   0.0084137  11.2927479  )
        10           O1  tau(  10) = (   0.0116148   5.9584955  10.6183126  )
        11           O1  tau(  11) = (   1.3255326   1.5151957  12.5859258  )
        12           O1  tau(  12) = (   5.3246634   1.4871208  12.6441624  )
        13           Ti1 tau(  13) = (   6.5358624   2.9940264  12.7507449  )
        14           Ti1 tau(  14) = (   3.1828407   1.5032771  12.4528579  )
        15           O1  tau(  15) = (   0.1336207   0.0073438  14.6266748  )
        16           O1  tau(  16) = (   3.2550344   0.0288700  13.8306396  )
        17           O1  tau(  17) = (   4.6334483   1.5013943  15.9792279  )
        18           O1  tau(  18) = (   2.1409664   1.5470880  15.9954950  )
        19           Ti1 tau(  19) = (   3.4798582   3.0305884  15.6593850  )
        20           Ti1 tau(  20) = (   0.1386493   1.3724552  15.8613965  )
        21           O1  tau(  21) = (   3.2904802   0.0005063   4.7018136  )
        22           O1  tau(  22) = (   0.1429122   0.0333940  17.1908172  )
        23           O1  tau(  23) = (   1.3043587   1.4918075   6.0039043  )
        24           O1  tau(  24) = (   5.2767064   1.4903225   6.0039473  )
        25           Ti1 tau(  25) = (   0.0000382   5.9609847   6.0000000  )
        26           Ti1 tau(  26) = (   3.2902200   4.4714249   6.0002472  )
        27           O1  tau(  27) = (   0.0002396   2.9813036   7.9858123  )
        28           O1  tau(  28) = (   3.2902150   2.9813002   7.3038282  )
        29           O1  tau(  29) = (   4.5938453   4.4726049   9.2879030  )
        30           O1  tau(  30) = (   1.9864658   4.4711199   9.2879459  )
        31           Ti1 tau(  31) = (   3.2891106   5.8743827   9.1763621  )
        32           Ti1 tau(  32) = (   0.0006254   4.4649316   9.2693709  )
        33           O1  tau(  33) = (   3.3137399   2.9960163  11.2943833  )
        34           O1  tau(  34) = (   0.0092240   2.9805883  10.6323155  )
        35           O1  tau(  35) = (   1.3234708   4.4688006  12.5930975  )
        36           O1  tau(  36) = (   5.3222282   4.4932535  12.6449723  )
        37           Ti1 tau(  37) = (   6.5041614   0.0053836  12.5833808  )
        38           Ti1 tau(  38) = (   3.1843229   4.4812189  12.4522442  )
        39           O1  tau(  39) = (   0.0584892   2.9792810  14.6723703  )
        40           O1  tau(  40) = (   3.3232524   2.9928384  13.8523860  )
        41           O1  tau(  41) = (   4.6237859   4.5837569  15.7472905  )
        42           O1  tau(  42) = (   2.1882403   4.4693611  16.1038286  )
        43           Ti1 tau(  43) = (   3.3015484   0.0242660  15.6383815  )
        44           Ti1 tau(  44) = (   0.0181797   4.4930750  16.1931172  )
        45           O1  tau(  45) = (   3.2900926   2.9813045   4.7018136  )
        46           O1  tau(  46) = (   1.3039711   4.4726057   6.0039043  )
        47           O1  tau(  47) = (   5.2763189   4.4711207   6.0039473  )
        48           N1  tau(  48) = (   0.2677213   2.8760844  17.5655548  )
        49           C1  tau(  49) = (   1.2271684   2.7639891  18.6598760  )
        50           H1  tau(  50) = (   1.2930054   3.7106696  19.2072709  )
        51           H1  tau(  51) = (   0.8976878   1.9730418  19.3402421  )
        52           H1  tau(  52) = (   2.2102292   2.4972526  18.2850250  )
        53           N1  tau(  53) = (   5.6732178   3.4827010  17.8452151  )
        54           H1  tau(  54) = (   5.7345573   4.0058295  18.7343860  )

     number of k points=    10  Fermi-Dirac smearing, width (Ry)=  0.0073
                       cart. coord. in units 2pi/alat
        k(    1) = (   0.0000000   0.0000000   0.0000000), wk =   0.1250000
        k(    2) = (   0.0000000   0.0419351   0.0000000), wk =   0.2500000
        k(    3) = (   0.0000000  -0.0838702   0.0000000), wk =   0.1250000
        k(    4) = (   0.0379955   0.0000049   0.0000000), wk =   0.2500000
        k(    5) = (   0.0379955   0.0419400   0.0000000), wk =   0.2500000
        k(    6) = (   0.0379955  -0.0838652   0.0000000), wk =   0.2500000
        k(    7) = (   0.0379955  -0.0419301   0.0000000), wk =   0.2500000
        k(    8) = (  -0.0759910  -0.0000099   0.0000000), wk =   0.1250000
        k(    9) = (  -0.0759910   0.0419252   0.0000000), wk =   0.2500000
        k(   10) = (  -0.0759910  -0.0838800   0.0000000), wk =   0.1250000

     Dense  grid:   566857 G-vectors     FFT dimensions: (  72,  64, 270)

     Smooth grid:   143421 G-vectors     FFT dimensions: (  45,  40, 180)

     Estimated max dynamical RAM per process >     230.02 MB

     Estimated total dynamical RAM >       3.59 GB
     Cannot read rho : file not found

     Initial potential from superposition of free atoms

     starting charge  379.99915, renormalised to  396.00000

     negative rho (up, down):  1.686E-02 0.000E+00


     %%%%%%%%%%%%%%%%%%%%%%%%%%%%%%%%%%%%%%%%%%%%%%%%%%%%%%%%%%%%%%%%%%%%%%%%
     %                                                                      %
     % You are using vdW-DF, which was implemented by the Thonhauser group. %
     % Please cite the following two papers that made this development      %
     % possible and the two reviews that describe the various versions:     %
     %                                                                      %
     %   T. Thonhauser et al., PRL 115, 136402 (2015).                      %
     %   T. Thonhauser et al., PRB 76, 125112 (2007).                       %
     %   K. Berland et al., Rep. Prog. Phys. 78, 066501 (2015).             %
     %   D.C. Langreth et al., J. Phys.: Condens. Matter 21, 084203 (2009). %
     %                                                                      %
     %                                                                      %
     % If you are calculating the stress with vdW-DF, please also cite:     %
     %                                                                      %
     %   R. Sabatini et al., J. Phys.: Condens. Matter 24, 424209 (2012).   %
     %                                                                      %
     %%%%%%%%%%%%%%%%%%%%%%%%%%%%%%%%%%%%%%%%%%%%%%%%%%%%%%%%%%%%%%%%%%%%%%%%


 
     Adding external electric field

     Computed dipole along edir(3) : 
        Dipole               -8.2222 Ry au,        -20.8988 Debye
        Dipole field         -0.0155 Ry au, 
 
        Potential amp.        1.4384 Ry
        Total length         46.3494 bohr
 
     Starting wfcs are  300 atomic wfcs
  @ DRIVER MODE: Message from server: STATUS
  @ DRIVER MODE: Message from server: POSDATA
  @ DRIVER MODE: Reading and sharing cell 
  @ DRIVER MODE: Reading and sharing positions 
  @ DRIVER MODE: Received positions 

     total cpu time spent up to now is       10.7 secs

     Self-consistent Calculation

     iteration #  1     ecut=    29.40 Ry     beta= 0.05
     Davidson diagonalization with overlap
     c_bands:  1 eigenvalues not converged
     c_bands:  1 eigenvalues not converged
     c_bands:  1 eigenvalues not converged
     c_bands:  1 eigenvalues not converged
     c_bands:  4 eigenvalues not converged
     c_bands:  1 eigenvalues not converged
     c_bands:  4 eigenvalues not converged
     c_bands:  1 eigenvalues not converged
     c_bands:  1 eigenvalues not converged
     ethr =  1.00E-05,  avg # of iterations = 19.9

     negative rho (up, down):  1.445E-02 0.000E+00
 
     Adding external electric field

     Computed dipole along edir(3) : 
        Dipole               38.7573 Ry au,         98.5112 Debye
        Dipole field          0.0731 Ry au, 
 
        Potential amp.       -6.7800 Ry
        Total length         46.3494 bohr
 

     total cpu time spent up to now is       44.1 secs

     total energy              =   -2607.32726847 Ry
     estimated scf accuracy    <    3678.05232129 Ry

     iteration #  2     ecut=    29.40 Ry     beta= 0.05
     Davidson diagonalization with overlap
     ethr =  1.00E-02,  avg # of iterations = 22.2

     negative rho (up, down):  4.898E-03 0.000E+00
 
     Adding external electric field

     Computed dipole along edir(3) : 
        Dipole               -2.5274 Ry au,         -6.4240 Debye
        Dipole field         -0.0048 Ry au, 
 
        Potential amp.        0.4421 Ry
        Total length         46.3494 bohr
 

     total cpu time spent up to now is       93.3 secs

     total energy              =   -2459.32001047 Ry
     estimated scf accuracy    <   64487.29418068 Ry

     iteration #  3     ecut=    29.40 Ry     beta= 0.05
     Davidson diagonalization with overlap
     ethr =  1.00E-02,  avg # of iterations = 14.1

     negative rho (up, down):  4.972E-03 0.000E+00
 
     Adding external electric field

     Computed dipole along edir(3) : 
        Dipole               -4.6026 Ry au,        -11.6988 Debye
        Dipole field         -0.0087 Ry au, 
 
        Potential amp.        0.8052 Ry
        Total length         46.3494 bohr
 

     total cpu time spent up to now is      125.0 secs

     total energy              =   -2918.34625258 Ry
     estimated scf accuracy    <    3936.83521700 Ry

     iteration #  4     ecut=    29.40 Ry     beta= 0.05
     Davidson diagonalization with overlap
     c_bands:  1 eigenvalues not converged
     c_bands:  2 eigenvalues not converged
     c_bands:  1 eigenvalues not converged
     ethr =  1.00E-02,  avg # of iterations = 17.4

     negative rho (up, down):  5.010E-03 0.000E+00
 
     Adding external electric field

     Computed dipole along edir(3) : 
        Dipole               -5.4190 Ry au,        -13.7737 Debye
        Dipole field         -0.0102 Ry au, 
 
        Potential amp.        0.9480 Ry
        Total length         46.3494 bohr
 

     total cpu time spent up to now is      144.6 secs

     total energy              =   -2937.09890779 Ry
     estimated scf accuracy    <     363.82228382 Ry

     iteration #  5     ecut=    29.40 Ry     beta= 0.05
     Davidson diagonalization with overlap
     ethr =  1.00E-02,  avg # of iterations =  3.2

     negative rho (up, down):  5.015E-03 0.000E+00
 
     Adding external electric field

     Computed dipole along edir(3) : 
        Dipole               -5.8015 Ry au,        -14.7459 Debye
        Dipole field         -0.0109 Ry au, 
 
        Potential amp.        1.0149 Ry
        Total length         46.3494 bohr
 

     total cpu time spent up to now is      152.1 secs

     total energy              =   -2936.23283718 Ry
     estimated scf accuracy    <     260.56965791 Ry

     iteration #  6     ecut=    29.40 Ry     beta= 0.05
     Davidson diagonalization with overlap
     ethr =  1.00E-02,  avg # of iterations =  1.8

     negative rho (up, down):  5.394E-03 0.000E+00
 
     Adding external electric field

     Computed dipole along edir(3) : 
        Dipole               -8.7922 Ry au,        -22.3476 Debye
        Dipole field         -0.0166 Ry au, 
 
        Potential amp.        1.5381 Ry
        Total length         46.3494 bohr
 

     total cpu time spent up to now is      159.0 secs

     total energy              =   -2922.20541847 Ry
     estimated scf accuracy    <     255.21033989 Ry

     iteration #  7     ecut=    29.40 Ry     beta= 0.05
     Davidson diagonalization with overlap
     ethr =  1.00E-02,  avg # of iterations = 10.5

     negative rho (up, down):  2.740E-03 0.000E+00
 
     Adding external electric field

     Computed dipole along edir(3) : 
        Dipole               -7.9080 Ry au,        -20.1000 Debye
        Dipole field         -0.0149 Ry au, 
 
        Potential amp.        1.3834 Ry
        Total length         46.3494 bohr
 

     total cpu time spent up to now is      176.2 secs

     total energy              =   -2947.93207374 Ry
     estimated scf accuracy    <    1701.95116929 Ry

     iteration #  8     ecut=    29.40 Ry     beta= 0.05
     Davidson diagonalization with overlap
     ethr =  1.00E-02,  avg # of iterations =  1.6

     negative rho (up, down):  2.762E-03 0.000E+00
 
     Adding external electric field

     Computed dipole along edir(3) : 
        Dipole               -7.9072 Ry au,        -20.0980 Debye
        Dipole field         -0.0149 Ry au, 
 
        Potential amp.        1.3832 Ry
        Total length         46.3494 bohr
 

     total cpu time spent up to now is      183.2 secs

     total energy              =   -2948.88400531 Ry
     estimated scf accuracy    <     972.82794056 Ry

     iteration #  9     ecut=    29.40 Ry     beta= 0.05
     Davidson diagonalization with overlap
     ethr =  1.00E-02,  avg # of iterations =  1.1

     negative rho (up, down):  2.718E-03 0.000E+00
 
     Adding external electric field

     Computed dipole along edir(3) : 
        Dipole               -7.9192 Ry au,        -20.1285 Debye
        Dipole field         -0.0149 Ry au, 
 
        Potential amp.        1.3853 Ry
        Total length         46.3494 bohr
 

     total cpu time spent up to now is      189.9 secs

     total energy              =   -2949.06112299 Ry
     estimated scf accuracy    <     992.30872139 Ry

     iteration # 10     ecut=    29.40 Ry     beta= 0.05
     Davidson diagonalization with overlap
     ethr =  1.00E-02,  avg # of iterations =  1.0

     negative rho (up, down):  2.265E-02 0.000E+00
 
     Adding external electric field

     Computed dipole along edir(3) : 
        Dipole               -8.7261 Ry au,        -22.1796 Debye
        Dipole field         -0.0165 Ry au, 
 
        Potential amp.        1.5265 Ry
        Total length         46.3494 bohr
 

     total cpu time spent up to now is      196.9 secs

     total energy              =   -2954.61790674 Ry
     estimated scf accuracy    <    1015.75781058 Ry

     iteration # 11     ecut=    29.40 Ry     beta= 0.05
     Davidson diagonalization with overlap
     ethr =  1.00E-02,  avg # of iterations =  1.1

     negative rho (up, down):  4.103E-02 0.000E+00
 
     Adding external electric field

     Computed dipole along edir(3) : 
        Dipole               -7.9793 Ry au,        -20.2814 Debye
        Dipole field         -0.0151 Ry au, 
 
        Potential amp.        1.3959 Ry
        Total length         46.3494 bohr
 

     total cpu time spent up to now is      203.9 secs

     total energy              =   -2948.39261013 Ry
     estimated scf accuracy    <    1764.45348039 Ry

     iteration # 12     ecut=    29.40 Ry     beta= 0.05
     Davidson diagonalization with overlap
     ethr =  1.00E-02,  avg # of iterations =  1.1

     negative rho (up, down):  1.214E-01 0.000E+00
 
     Adding external electric field

     Computed dipole along edir(3) : 
        Dipole               -5.8675 Ry au,        -14.9136 Debye
        Dipole field         -0.0111 Ry au, 
 
        Potential amp.        1.0264 Ry
        Total length         46.3494 bohr
 

     total cpu time spent up to now is      215.6 secs

     total energy              =   -2933.63400681 Ry
     estimated scf accuracy    <    1142.98639642 Ry

     iteration # 13     ecut=    29.40 Ry     beta= 0.05
     Davidson diagonalization with overlap
     ethr =  1.00E-02,  avg # of iterations =  9.1

     negative rho (up, down):  1.499E-01 0.000E+00
 
     Adding external electric field

     Computed dipole along edir(3) : 
        Dipole               -5.7515 Ry au,        -14.6187 Debye
        Dipole field         -0.0109 Ry au, 
 
        Potential amp.        1.0061 Ry
        Total length         46.3494 bohr
 

     total cpu time spent up to now is      225.7 secs

     total energy              =   -2941.89111703 Ry
     estimated scf accuracy    <      87.68950090 Ry

     iteration # 14     ecut=    29.40 Ry     beta= 0.05
     Davidson diagonalization with overlap
     ethr =  1.00E-02,  avg # of iterations =  2.9

     negative rho (up, down):  1.708E-01 0.000E+00
 
     Adding external electric field

     Computed dipole along edir(3) : 
        Dipole               -5.7649 Ry au,        -14.6529 Debye
        Dipole field         -0.0109 Ry au, 
 
        Potential amp.        1.0085 Ry
        Total length         46.3494 bohr
 

     total cpu time spent up to now is      240.9 secs

     total energy              =   -2942.08626233 Ry
     estimated scf accuracy    <      66.37626109 Ry

     iteration # 15     ecut=    29.40 Ry     beta= 0.05
     Davidson diagonalization with overlap
     ethr =  1.00E-02,  avg # of iterations =  1.4

     negative rho (up, down):  5.051E-01 0.000E+00
 
     Adding external electric field

     Computed dipole along edir(3) : 
        Dipole               -5.6023 Ry au,        -14.2395 Debye
        Dipole field         -0.0106 Ry au, 
 
        Potential amp.        0.9800 Ry
        Total length         46.3494 bohr
 

     total cpu time spent up to now is      247.8 secs

     total energy              =   -2940.12307342 Ry
     estimated scf accuracy    <      63.34935429 Ry

     iteration # 16     ecut=    29.40 Ry     beta= 0.05
     Davidson diagonalization with overlap
     ethr =  1.00E-02,  avg # of iterations =  5.7

     negative rho (up, down):  6.747E-01 0.000E+00
 
     Adding external electric field

     Computed dipole along edir(3) : 
        Dipole               -5.4571 Ry au,        -13.8706 Debye
        Dipole field         -0.0103 Ry au, 
 
        Potential amp.        0.9546 Ry
        Total length         46.3494 bohr
 

     total cpu time spent up to now is      256.3 secs

     total energy              =   -2942.02324522 Ry
     estimated scf accuracy    <      13.22205955 Ry

     iteration # 17     ecut=    29.40 Ry     beta= 0.05
     Davidson diagonalization with overlap
     ethr =  3.34E-03,  avg # of iterations =  3.6

     negative rho (up, down):  9.748E-01 0.000E+00
 
     Adding external electric field

     Computed dipole along edir(3) : 
        Dipole               -5.6128 Ry au,        -14.2663 Debye
        Dipole field         -0.0106 Ry au, 
 
        Potential amp.        0.9819 Ry
        Total length         46.3494 bohr
 

     total cpu time spent up to now is      264.2 secs

     total energy              =   -2942.06779865 Ry
     estimated scf accuracy    <      15.16847705 Ry

     iteration # 18     ecut=    29.40 Ry     beta= 0.05
     Davidson diagonalization with overlap
     ethr =  3.34E-03,  avg # of iterations =  8.9

     negative rho (up, down):  9.290E-01 0.000E+00
 
     Adding external electric field

     Computed dipole along edir(3) : 
        Dipole               -4.6897 Ry au,        -11.9201 Debye
        Dipole field         -0.0089 Ry au, 
 
        Potential amp.        0.8204 Ry
        Total length         46.3494 bohr
 

     total cpu time spent up to now is      277.6 secs

     total energy              =   -2950.95066631 Ry
     estimated scf accuracy    <     493.39506830 Ry

     iteration # 19     ecut=    29.40 Ry     beta= 0.05
     Davidson diagonalization with overlap
     ethr =  3.34E-03,  avg # of iterations =  3.2

     negative rho (up, down):  7.970E-01 0.000E+00
 
     Adding external electric field

     Computed dipole along edir(3) : 
        Dipole               -4.5066 Ry au,        -11.4547 Debye
        Dipole field         -0.0085 Ry au, 
 
        Potential amp.        0.7884 Ry
        Total length         46.3494 bohr
 

     total cpu time spent up to now is      285.3 secs

     total energy              =   -2943.64075157 Ry
     estimated scf accuracy    <     575.07113387 Ry

     iteration # 20     ecut=    29.40 Ry     beta= 0.05
     Davidson diagonalization with overlap
     ethr =  3.34E-03,  avg # of iterations =  1.2

     negative rho (up, down):  7.211E-01 0.000E+00
 
     Adding external electric field

     Computed dipole along edir(3) : 
        Dipole               -3.9789 Ry au,        -10.1133 Debye
        Dipole field         -0.0075 Ry au, 
 
        Potential amp.        0.6960 Ry
        Total length         46.3494 bohr
 

     total cpu time spent up to now is      292.1 secs

     total energy              =   -2945.02876529 Ry
     estimated scf accuracy    <     250.95764339 Ry

     iteration # 21     ecut=    29.40 Ry     beta= 0.05
     Davidson diagonalization with overlap
     ethr =  3.34E-03,  avg # of iterations =  1.0

     negative rho (up, down):  7.032E-01 0.000E+00
 
     Adding external electric field

     Computed dipole along edir(3) : 
        Dipole               -3.7855 Ry au,         -9.6218 Debye
        Dipole field         -0.0071 Ry au, 
 
        Potential amp.        0.6622 Ry
        Total length         46.3494 bohr
 

     total cpu time spent up to now is      298.8 secs

     total energy              =   -2942.73750594 Ry
     estimated scf accuracy    <     289.34175871 Ry

     iteration # 22     ecut=    29.40 Ry     beta= 0.05
     Davidson diagonalization with overlap
     ethr =  3.34E-03,  avg # of iterations =  1.0

     negative rho (up, down):  6.527E-01 0.000E+00
 
     Adding external electric field

     Computed dipole along edir(3) : 
        Dipole               -3.8732 Ry au,         -9.8448 Debye
        Dipole field         -0.0073 Ry au, 
 
        Potential amp.        0.6776 Ry
        Total length         46.3494 bohr
 

     total cpu time spent up to now is      305.5 secs

     total energy              =   -2943.62048251 Ry
     estimated scf accuracy    <     114.63976829 Ry

     iteration # 23     ecut=    29.40 Ry     beta= 0.05
     Davidson diagonalization with overlap
     ethr =  3.34E-03,  avg # of iterations =  1.0

     negative rho (up, down):  7.045E-01 0.000E+00
 
     Adding external electric field

     Computed dipole along edir(3) : 
        Dipole               -4.2678 Ry au,        -10.8477 Debye
        Dipole field         -0.0081 Ry au, 
 
        Potential amp.        0.7466 Ry
        Total length         46.3494 bohr
 

     total cpu time spent up to now is      312.2 secs

     total energy              =   -2942.23065736 Ry
     estimated scf accuracy    <     192.00307066 Ry

     iteration # 24     ecut=    29.40 Ry     beta= 0.05
     Davidson diagonalization with overlap
     ethr =  3.34E-03,  avg # of iterations =  1.0

     negative rho (up, down):  6.271E-01 0.000E+00
 
     Adding external electric field

     Computed dipole along edir(3) : 
        Dipole               -3.9356 Ry au,        -10.0034 Debye
        Dipole field         -0.0074 Ry au, 
 
        Potential amp.        0.6885 Ry
        Total length         46.3494 bohr
 

     total cpu time spent up to now is      318.9 secs

     total energy              =   -2940.83159935 Ry
     estimated scf accuracy    <     124.77635810 Ry

     iteration # 25     ecut=    29.40 Ry     beta= 0.05
     Davidson diagonalization with overlap
     ethr =  3.34E-03,  avg # of iterations =  1.6

     negative rho (up, down):  3.809E-01 0.000E+00
 
     Adding external electric field

     Computed dipole along edir(3) : 
        Dipole               -2.9831 Ry au,         -7.5822 Debye
        Dipole field         -0.0056 Ry au, 
 
        Potential amp.        0.5218 Ry
        Total length         46.3494 bohr
 

     total cpu time spent up to now is      325.8 secs

     total energy              =   -2939.36752196 Ry
     estimated scf accuracy    <      42.10467009 Ry

     iteration # 26     ecut=    29.40 Ry     beta= 0.05
     Davidson diagonalization with overlap
     ethr =  3.34E-03,  avg # of iterations =  5.4

     negative rho (up, down):  3.048E-01 0.000E+00
 
     Adding external electric field

     Computed dipole along edir(3) : 
        Dipole               -2.8123 Ry au,         -7.1481 Debye
        Dipole field         -0.0053 Ry au, 
 
        Potential amp.        0.4920 Ry
        Total length         46.3494 bohr
 

     total cpu time spent up to now is      334.4 secs

     total energy              =   -2939.59197006 Ry
     estimated scf accuracy    <      12.08436824 Ry

     iteration # 27     ecut=    29.40 Ry     beta= 0.05
     Davidson diagonalization with overlap
     ethr =  3.05E-03,  avg # of iterations =  5.8

     negative rho (up, down):  3.715E-01 0.000E+00
 
     Adding external electric field

     Computed dipole along edir(3) : 
        Dipole               -3.1342 Ry au,         -7.9664 Debye
        Dipole field         -0.0059 Ry au, 
 
        Potential amp.        0.5483 Ry
        Total length         46.3494 bohr
 

     total cpu time spent up to now is      345.9 secs

     total energy              =   -2940.22523531 Ry
     estimated scf accuracy    <       3.39314190 Ry

     iteration # 28     ecut=    29.40 Ry     beta= 0.05
     Davidson diagonalization with overlap
     ethr =  8.57E-04,  avg # of iterations =  8.3

     negative rho (up, down):  4.025E-01 0.000E+00
 
     Adding external electric field

     Computed dipole along edir(3) : 
        Dipole               -2.9262 Ry au,         -7.4376 Debye
        Dipole field         -0.0055 Ry au, 
 
        Potential amp.        0.5119 Ry
        Total length         46.3494 bohr
 

     total cpu time spent up to now is      355.5 secs

     total energy              =   -2940.58221292 Ry
     estimated scf accuracy    <       2.37180390 Ry

     iteration # 29     ecut=    29.40 Ry     beta= 0.05
     Davidson diagonalization with overlap
     ethr =  5.99E-04,  avg # of iterations =  5.5

     negative rho (up, down):  3.802E-01 0.000E+00
 
     Adding external electric field

     Computed dipole along edir(3) : 
        Dipole               -2.1640 Ry au,         -5.5004 Debye
        Dipole field         -0.0041 Ry au, 
 
        Potential amp.        0.3786 Ry
        Total length         46.3494 bohr
 

     total cpu time spent up to now is      363.8 secs

     total energy              =   -2940.33632774 Ry
     estimated scf accuracy    <       1.59576813 Ry

     iteration # 30     ecut=    29.40 Ry     beta= 0.05
     Davidson diagonalization with overlap
     c_bands:  1 eigenvalues not converged
     c_bands:  1 eigenvalues not converged
     c_bands:  1 eigenvalues not converged
     c_bands:  3 eigenvalues not converged
     ethr =  4.03E-04,  avg # of iterations = 19.2

     negative rho (up, down):  3.035E-01 0.000E+00
 
     Adding external electric field

     Computed dipole along edir(3) : 
        Dipole               -1.9182 Ry au,         -4.8756 Debye
        Dipole field         -0.0036 Ry au, 
 
        Potential amp.        0.3356 Ry
        Total length         46.3494 bohr
 

     total cpu time spent up to now is      380.7 secs

     total energy              =   -2940.36302272 Ry
     estimated scf accuracy    <       4.99563168 Ry

     iteration # 31     ecut=    29.40 Ry     beta= 0.05
     Davidson diagonalization with overlap
     ethr =  4.03E-04,  avg # of iterations =  4.9

     negative rho (up, down):  2.471E-01 0.000E+00
 
     Adding external electric field

     Computed dipole along edir(3) : 
        Dipole               -1.0651 Ry au,         -2.7071 Debye
        Dipole field         -0.0020 Ry au, 
 
        Potential amp.        0.1863 Ry
        Total length         46.3494 bohr
 

     total cpu time spent up to now is      388.8 secs

     total energy              =   -2940.43670196 Ry
     estimated scf accuracy    <       1.64391051 Ry

     iteration # 32     ecut=    29.40 Ry     beta= 0.05
     Davidson diagonalization with overlap
     ethr =  4.03E-04,  avg # of iterations =  5.4

     negative rho (up, down):  2.294E-01 0.000E+00
 
     Adding external electric field

     Computed dipole along edir(3) : 
        Dipole               -0.7505 Ry au,         -1.9077 Debye
        Dipole field         -0.0014 Ry au, 
 
        Potential amp.        0.1313 Ry
        Total length         46.3494 bohr
 

     total cpu time spent up to now is      401.5 secs

     total energy              =   -2940.45959688 Ry
     estimated scf accuracy    <       1.12954937 Ry

     iteration # 33     ecut=    29.40 Ry     beta= 0.05
     Davidson diagonalization with overlap
     ethr =  2.85E-04,  avg # of iterations =  1.3

     negative rho (up, down):  1.906E-01 0.000E+00
 
     Adding external electric field

     Computed dipole along edir(3) : 
        Dipole               -0.0198 Ry au,         -0.0504 Debye
        Dipole field         -0.0000 Ry au, 
 
        Potential amp.        0.0035 Ry
        Total length         46.3494 bohr
 

     total cpu time spent up to now is      408.4 secs

     total energy              =   -2940.34975255 Ry
     estimated scf accuracy    <       1.03303051 Ry

     iteration # 34     ecut=    29.40 Ry     beta= 0.05
     Davidson diagonalization with overlap
     ethr =  2.61E-04,  avg # of iterations = 11.0

     negative rho (up, down):  1.518E-01 0.000E+00
 
     Adding external electric field

     Computed dipole along edir(3) : 
        Dipole               -0.0516 Ry au,         -0.1313 Debye
        Dipole field         -0.0001 Ry au, 
 
        Potential amp.        0.0090 Ry
        Total length         46.3494 bohr
 

     total cpu time spent up to now is      427.9 secs

     total energy              =   -2940.37328251 Ry
     estimated scf accuracy    <       0.73515120 Ry

     iteration # 35     ecut=    29.40 Ry     beta= 0.05
     Davidson diagonalization with overlap
     ethr =  1.86E-04,  avg # of iterations =  5.5

     negative rho (up, down):  9.324E-02 0.000E+00
 
     Adding external electric field

     Computed dipole along edir(3) : 
        Dipole               -0.2036 Ry au,         -0.5174 Debye
        Dipole field         -0.0004 Ry au, 
 
        Potential amp.        0.0356 Ry
        Total length         46.3494 bohr
 

     total cpu time spent up to now is      436.2 secs

     total energy              =   -2940.30976304 Ry
     estimated scf accuracy    <       0.65457432 Ry

     iteration # 36     ecut=    29.40 Ry     beta= 0.05
     Davidson diagonalization with overlap
     c_bands:  2 eigenvalues not converged
     c_bands:  4 eigenvalues not converged
     c_bands:  4 eigenvalues not converged
     c_bands:  2 eigenvalues not converged
     c_bands:  2 eigenvalues not converged
     c_bands:  3 eigenvalues not converged
     c_bands:  1 eigenvalues not converged
     c_bands:  4 eigenvalues not converged
     ethr =  1.65E-04,  avg # of iterations = 19.4

     negative rho (up, down):  1.304E-01 0.000E+00
 
     Adding external electric field

     Computed dipole along edir(3) : 
        Dipole                0.0045 Ry au,          0.0115 Debye
        Dipole field          0.0000 Ry au, 
 
        Potential amp.       -0.0008 Ry
        Total length         46.3494 bohr
 

     total cpu time spent up to now is      452.1 secs

     total energy              =   -2940.31010377 Ry
     estimated scf accuracy    <       5.76952797 Ry

     iteration # 37     ecut=    29.40 Ry     beta= 0.05
     Davidson diagonalization with overlap
     c_bands:  2 eigenvalues not converged
     ethr =  1.65E-04,  avg # of iterations = 11.4

     negative rho (up, down):  1.324E-01 0.000E+00
 
     Adding external electric field

     Computed dipole along edir(3) : 
        Dipole                0.0300 Ry au,          0.0763 Debye
        Dipole field          0.0001 Ry au, 
 
        Potential amp.       -0.0053 Ry
        Total length         46.3494 bohr
 

     total cpu time spent up to now is      461.9 secs

     total energy              =   -2940.35768312 Ry
     estimated scf accuracy    <       0.19204800 Ry

     iteration # 38     ecut=    29.40 Ry     beta= 0.05
     Davidson diagonalization with overlap
     c_bands:  3 eigenvalues not converged
     c_bands:  1 eigenvalues not converged
     c_bands:  1 eigenvalues not converged
     c_bands:  1 eigenvalues not converged
     c_bands:  2 eigenvalues not converged
     c_bands:  1 eigenvalues not converged
     ethr =  4.85E-05,  avg # of iterations = 18.0

     negative rho (up, down):  1.118E-01 0.000E+00
 
     Adding external electric field

     Computed dipole along edir(3) : 
        Dipole               -0.1020 Ry au,         -0.2594 Debye
        Dipole field         -0.0002 Ry au, 
 
        Potential amp.        0.0179 Ry
        Total length         46.3494 bohr
 

     total cpu time spent up to now is      474.9 secs

     total energy              =   -2940.35433849 Ry
     estimated scf accuracy    <       0.11895099 Ry

     iteration # 39     ecut=    29.40 Ry     beta= 0.05
     Davidson diagonalization with overlap
     ethr =  3.00E-05,  avg # of iterations =  5.9

     negative rho (up, down):  1.192E-01 0.000E+00
 
     Adding external electric field

     Computed dipole along edir(3) : 
        Dipole                0.0125 Ry au,          0.0318 Debye
        Dipole field          0.0000 Ry au, 
 
        Potential amp.       -0.0022 Ry
        Total length         46.3494 bohr
 

     total cpu time spent up to now is      483.4 secs

     total energy              =   -2940.33663678 Ry
     estimated scf accuracy    <       1.38016885 Ry

     iteration # 40     ecut=    29.40 Ry     beta= 0.05
     Davidson diagonalization with overlap
     c_bands:  2 eigenvalues not converged
     c_bands:  2 eigenvalues not converged
     c_bands:  5 eigenvalues not converged
     c_bands:  3 eigenvalues not converged
     ethr =  3.00E-05,  avg # of iterations = 21.8

     negative rho (up, down):  9.644E-02 0.000E+00
 
     Adding external electric field

     Computed dipole along edir(3) : 
        Dipole                0.1439 Ry au,          0.3657 Debye
        Dipole field          0.0003 Ry au, 
 
        Potential amp.       -0.0252 Ry
        Total length         46.3494 bohr
 

     total cpu time spent up to now is      499.8 secs

     total energy              =   -2940.35387964 Ry
     estimated scf accuracy    <       0.05331688 Ry

     iteration # 41     ecut=    29.40 Ry     beta= 0.05
     Davidson diagonalization with overlap
     c_bands:  1 eigenvalues not converged
     ethr =  1.35E-05,  avg # of iterations = 13.8

     negative rho (up, down):  6.909E-02 0.000E+00
 
     Adding external electric field

     Computed dipole along edir(3) : 
        Dipole                0.5245 Ry au,          1.3333 Debye
        Dipole field          0.0010 Ry au, 
 
        Potential amp.       -0.0918 Ry
        Total length         46.3494 bohr
 

     total cpu time spent up to now is      510.9 secs

     total energy              =   -2940.34840419 Ry
     estimated scf accuracy    <       0.15293957 Ry

     iteration # 42     ecut=    29.40 Ry     beta= 0.05
     Davidson diagonalization with overlap
     ethr =  1.35E-05,  avg # of iterations =  8.8

     negative rho (up, down):  4.748E-02 0.000E+00
 
     Adding external electric field

     Computed dipole along edir(3) : 
        Dipole                0.6371 Ry au,          1.6195 Debye
        Dipole field          0.0012 Ry au, 
 
        Potential amp.       -0.1115 Ry
        Total length         46.3494 bohr
 

     total cpu time spent up to now is      521.4 secs

     total energy              =   -2940.35233750 Ry
     estimated scf accuracy    <       0.12011453 Ry

     iteration # 43     ecut=    29.40 Ry     beta= 0.05
     Davidson diagonalization with overlap
     c_bands:  1 eigenvalues not converged
     c_bands:  2 eigenvalues not converged
     ethr =  1.35E-05,  avg # of iterations =  9.7

     negative rho (up, down):  3.072E-02 0.000E+00
 
     Adding external electric field

     Computed dipole along edir(3) : 
        Dipole                0.6657 Ry au,          1.6920 Debye
        Dipole field          0.0013 Ry au, 
 
        Potential amp.       -0.1165 Ry
        Total length         46.3494 bohr
 

     total cpu time spent up to now is      530.7 secs

     total energy              =   -2940.34998803 Ry
     estimated scf accuracy    <       0.11866013 Ry

     iteration # 44     ecut=    29.40 Ry     beta= 0.05
     Davidson diagonalization with overlap
     ethr =  1.35E-05,  avg # of iterations =  7.2

     negative rho (up, down):  2.892E-02 0.000E+00
 
     Adding external electric field

     Computed dipole along edir(3) : 
        Dipole                0.7209 Ry au,          1.8323 Debye
        Dipole field          0.0014 Ry au, 
 
        Potential amp.       -0.1261 Ry
        Total length         46.3494 bohr
 

     total cpu time spent up to now is      539.6 secs

     total energy              =   -2940.34972252 Ry
     estimated scf accuracy    <       0.03098961 Ry

     iteration # 45     ecut=    29.40 Ry     beta= 0.05
     Davidson diagonalization with overlap
     ethr =  7.83E-06,  avg # of iterations =  7.4

     negative rho (up, down):  2.413E-02 0.000E+00
 
     Adding external electric field

     Computed dipole along edir(3) : 
        Dipole                0.7319 Ry au,          1.8603 Debye
        Dipole field          0.0014 Ry au, 
 
        Potential amp.       -0.1280 Ry
        Total length         46.3494 bohr
 

     total cpu time spent up to now is      548.5 secs

     total energy              =   -2940.35087017 Ry
     estimated scf accuracy    <       0.00887365 Ry

     iteration # 46     ecut=    29.40 Ry     beta= 0.05
     Davidson diagonalization with overlap
     c_bands:  1 eigenvalues not converged
     c_bands:  1 eigenvalues not converged
     c_bands:  1 eigenvalues not converged
     c_bands:  1 eigenvalues not converged
     c_bands:  1 eigenvalues not converged
     c_bands:  1 eigenvalues not converged
     ethr =  2.24E-06,  avg # of iterations = 17.3

     negative rho (up, down):  2.261E-02 0.000E+00
 
     Adding external electric field

     Computed dipole along edir(3) : 
        Dipole                0.7534 Ry au,          1.9148 Debye
        Dipole field          0.0014 Ry au, 
 
        Potential amp.       -0.1318 Ry
        Total length         46.3494 bohr
 

     total cpu time spent up to now is      564.3 secs

     total energy              =   -2940.35138040 Ry
     estimated scf accuracy    <       0.00635761 Ry

     iteration # 47     ecut=    29.40 Ry     beta= 0.05
     Davidson diagonalization with overlap
     c_bands:  1 eigenvalues not converged
     ethr =  1.61E-06,  avg # of iterations =  7.2

     negative rho (up, down):  2.302E-02 0.000E+00
 
     Adding external electric field

     Computed dipole along edir(3) : 
        Dipole                0.7267 Ry au,          1.8471 Debye
        Dipole field          0.0014 Ry au, 
 
        Potential amp.       -0.1271 Ry
        Total length         46.3494 bohr
 

     total cpu time spent up to now is      574.0 secs

     total energy              =   -2940.35123077 Ry
     estimated scf accuracy    <       0.00596476 Ry

     iteration # 48     ecut=    29.40 Ry     beta= 0.05
     Davidson diagonalization with overlap
     c_bands:  1 eigenvalues not converged
     c_bands:  2 eigenvalues not converged
     c_bands:  1 eigenvalues not converged
     ethr =  1.51E-06,  avg # of iterations = 12.8

     negative rho (up, down):  2.126E-02 0.000E+00
 
     Adding external electric field

     Computed dipole along edir(3) : 
        Dipole                0.7252 Ry au,          1.8434 Debye
        Dipole field          0.0014 Ry au, 
 
        Potential amp.       -0.1269 Ry
        Total length         46.3494 bohr
 

     total cpu time spent up to now is      585.0 secs

     total energy              =   -2940.35138014 Ry
     estimated scf accuracy    <       0.00790726 Ry

     iteration # 49     ecut=    29.40 Ry     beta= 0.05
     Davidson diagonalization with overlap
     ethr =  1.51E-06,  avg # of iterations =  8.1

     negative rho (up, down):  1.871E-02 0.000E+00
 
     Adding external electric field

     Computed dipole along edir(3) : 
        Dipole                0.7389 Ry au,          1.8781 Debye
        Dipole field          0.0014 Ry au, 
 
        Potential amp.       -0.1293 Ry
        Total length         46.3494 bohr
 

     total cpu time spent up to now is      594.1 secs

     total energy              =   -2940.35176602 Ry
     estimated scf accuracy    <       0.00078007 Ry

     iteration # 50     ecut=    29.40 Ry     beta= 0.05
     Davidson diagonalization with overlap
     ethr =  1.97E-07,  avg # of iterations =  7.2

     negative rho (up, down):  1.769E-02 0.000E+00
 
     Adding external electric field

     Computed dipole along edir(3) : 
        Dipole                0.7543 Ry au,          1.9174 Debye
        Dipole field          0.0014 Ry au, 
 
        Potential amp.       -0.1320 Ry
        Total length         46.3494 bohr
 

     total cpu time spent up to now is      603.5 secs

     total energy              =   -2940.35184529 Ry
     estimated scf accuracy    <       0.00067895 Ry

     iteration # 51     ecut=    29.40 Ry     beta= 0.05
     Davidson diagonalization with overlap
     ethr =  1.71E-07,  avg # of iterations =  7.0

     negative rho (up, down):  1.780E-02 0.000E+00
 
     Adding external electric field

     Computed dipole along edir(3) : 
        Dipole                0.7408 Ry au,          1.8829 Debye
        Dipole field          0.0014 Ry au, 
 
        Potential amp.       -0.1296 Ry
        Total length         46.3494 bohr
 

     total cpu time spent up to now is      612.4 secs

     total energy              =   -2940.35189043 Ry
     estimated scf accuracy    <       0.00026277 Ry

     iteration # 52     ecut=    29.40 Ry     beta= 0.05
     Davidson diagonalization with overlap
     ethr =  6.64E-08,  avg # of iterations =  6.6

     negative rho (up, down):  1.777E-02 0.000E+00
 
     Adding external electric field

     Computed dipole along edir(3) : 
        Dipole                0.7354 Ry au,          1.8693 Debye
        Dipole field          0.0014 Ry au, 
 
        Potential amp.       -0.1287 Ry
        Total length         46.3494 bohr
 

     total cpu time spent up to now is      621.7 secs

     total energy              =   -2940.35194864 Ry
     estimated scf accuracy    <       0.00011655 Ry

     iteration # 53     ecut=    29.40 Ry     beta= 0.05
     Davidson diagonalization with overlap
     ethr =  2.94E-08,  avg # of iterations =  9.4

     negative rho (up, down):  1.741E-02 0.000E+00
 
     Adding external electric field

     Computed dipole along edir(3) : 
        Dipole                0.7436 Ry au,          1.8899 Debye
        Dipole field          0.0014 Ry au, 
 
        Potential amp.       -0.1301 Ry
        Total length         46.3494 bohr
 

     total cpu time spent up to now is      634.0 secs

     total energy              =   -2940.35198706 Ry
     estimated scf accuracy    <       0.00011891 Ry

     iteration # 54     ecut=    29.40 Ry     beta= 0.05
     Davidson diagonalization with overlap
     ethr =  2.94E-08,  avg # of iterations =  5.8

     negative rho (up, down):  1.718E-02 0.000E+00
 
     Adding external electric field

     Computed dipole along edir(3) : 
        Dipole                0.7463 Ry au,          1.8968 Debye
        Dipole field          0.0014 Ry au, 
 
        Potential amp.       -0.1305 Ry
        Total length         46.3494 bohr
 

     total cpu time spent up to now is      643.0 secs

     total energy              =   -2940.35200402 Ry
     estimated scf accuracy    <       0.00006586 Ry

     iteration # 55     ecut=    29.40 Ry     beta= 0.05
     Davidson diagonalization with overlap
     ethr =  1.66E-08,  avg # of iterations =  7.8

     negative rho (up, down):  1.713E-02 0.000E+00
 
     Adding external electric field

     Computed dipole along edir(3) : 
        Dipole                0.7477 Ry au,          1.9006 Debye
        Dipole field          0.0014 Ry au, 
 
        Potential amp.       -0.1308 Ry
        Total length         46.3494 bohr
 

     total cpu time spent up to now is      653.4 secs

     total energy              =   -2940.35202959 Ry
     estimated scf accuracy    <       0.00002194 Ry

     iteration # 56     ecut=    29.40 Ry     beta= 0.05
     Davidson diagonalization with overlap
     ethr =  5.54E-09,  avg # of iterations =  5.9

     negative rho (up, down):  1.712E-02 0.000E+00
 
     Adding external electric field

     Computed dipole along edir(3) : 
        Dipole                0.7492 Ry au,          1.9042 Debye
        Dipole field          0.0014 Ry au, 
 
        Potential amp.       -0.1311 Ry
        Total length         46.3494 bohr
 

     total cpu time spent up to now is      661.9 secs

     total energy              =   -2940.35204461 Ry
     estimated scf accuracy    <       0.00001646 Ry

     iteration # 57     ecut=    29.40 Ry     beta= 0.05
     Davidson diagonalization with overlap
     ethr =  4.16E-09,  avg # of iterations =  6.6

     negative rho (up, down):  1.718E-02 0.000E+00
 
     Adding external electric field

     Computed dipole along edir(3) : 
        Dipole                0.7484 Ry au,          1.9022 Debye
        Dipole field          0.0014 Ry au, 
 
        Potential amp.       -0.1309 Ry
        Total length         46.3494 bohr
 

     total cpu time spent up to now is      672.0 secs

     total energy              =   -2940.35205675 Ry
     estimated scf accuracy    <       0.00000783 Ry

     iteration # 58     ecut=    29.40 Ry     beta= 0.05
     Davidson diagonalization with overlap
     ethr =  1.98E-09,  avg # of iterations =  7.4

     negative rho (up, down):  1.719E-02 0.000E+00
 
     Adding external electric field

     Computed dipole along edir(3) : 
        Dipole                0.7467 Ry au,          1.8979 Debye
        Dipole field          0.0014 Ry au, 
 
        Potential amp.       -0.1306 Ry
        Total length         46.3494 bohr
 

     total cpu time spent up to now is      687.7 secs

     total energy              =   -2940.35206727 Ry
     estimated scf accuracy    <       0.00000796 Ry

     iteration # 59     ecut=    29.40 Ry     beta= 0.05
     Davidson diagonalization with overlap
     ethr =  1.98E-09,  avg # of iterations =  6.8

     negative rho (up, down):  1.723E-02 0.000E+00
 
     Adding external electric field

     Computed dipole along edir(3) : 
        Dipole                0.7443 Ry au,          1.8919 Debye
        Dipole field          0.0014 Ry au, 
 
        Potential amp.       -0.1302 Ry
        Total length         46.3494 bohr
 

     total cpu time spent up to now is      696.6 secs

     total energy              =   -2940.35207646 Ry
     estimated scf accuracy    <       0.00000312 Ry

     iteration # 60     ecut=    29.40 Ry     beta= 0.05
     Davidson diagonalization with overlap
     ethr =  7.88E-10,  avg # of iterations =  6.9

     negative rho (up, down):  1.726E-02 0.000E+00
 
     Adding external electric field

     Computed dipole along edir(3) : 
        Dipole                0.7442 Ry au,          1.8917 Debye
        Dipole field          0.0014 Ry au, 
 
        Potential amp.       -0.1302 Ry
        Total length         46.3494 bohr
 

     total cpu time spent up to now is      708.9 secs

     total energy              =   -2940.35208517 Ry
     estimated scf accuracy    <       0.00000167 Ry

     iteration # 61     ecut=    29.40 Ry     beta= 0.05
     Davidson diagonalization with overlap
     ethr =  4.22E-10,  avg # of iterations =  4.9

     negative rho (up, down):  1.728E-02 0.000E+00
 
     Adding external electric field

     Computed dipole along edir(3) : 
        Dipole                0.7436 Ry au,          1.8901 Debye
        Dipole field          0.0014 Ry au, 
 
        Potential amp.       -0.1301 Ry
        Total length         46.3494 bohr
 

     total cpu time spent up to now is      719.2 secs

     total energy              =   -2940.35209277 Ry
     estimated scf accuracy    <       0.00000106 Ry

     iteration # 62     ecut=    29.40 Ry     beta= 0.05
     Davidson diagonalization with overlap
     ethr =  2.68E-10,  avg # of iterations =  9.6

     negative rho (up, down):  1.729E-02 0.000E+00
 
     Adding external electric field

     Computed dipole along edir(3) : 
        Dipole                0.7424 Ry au,          1.8871 Debye
        Dipole field          0.0014 Ry au, 
 
        Potential amp.       -0.1299 Ry
        Total length         46.3494 bohr
 

     total cpu time spent up to now is      735.1 secs

     total energy              =   -2940.35209962 Ry
     estimated scf accuracy    <       0.00000144 Ry

     iteration # 63     ecut=    29.40 Ry     beta= 0.05
     Davidson diagonalization with overlap
     ethr =  2.68E-10,  avg # of iterations =  6.2

     negative rho (up, down):  1.731E-02 0.000E+00
 
     Adding external electric field

     Computed dipole along edir(3) : 
        Dipole                0.7418 Ry au,          1.8855 Debye
        Dipole field          0.0014 Ry au, 
 
        Potential amp.       -0.1298 Ry
        Total length         46.3494 bohr
 

     total cpu time spent up to now is      751.1 secs

     total energy              =   -2940.35210592 Ry
     estimated scf accuracy    <       0.00000036 Ry

     iteration # 64     ecut=    29.40 Ry     beta= 0.05
     Davidson diagonalization with overlap
     ethr =  9.21E-11,  avg # of iterations =  7.6

     negative rho (up, down):  1.732E-02 0.000E+00
 
     Adding external electric field

     Computed dipole along edir(3) : 
        Dipole                0.7417 Ry au,          1.8851 Debye
        Dipole field          0.0014 Ry au, 
 
        Potential amp.       -0.1297 Ry
        Total length         46.3494 bohr
 

     total cpu time spent up to now is      761.8 secs

     total energy              =   -2940.35211159 Ry
     estimated scf accuracy    <       0.00000023 Ry

     iteration # 65     ecut=    29.40 Ry     beta= 0.05
     Davidson diagonalization with overlap
     ethr =  5.89E-11,  avg # of iterations =  3.6

     negative rho (up, down):  1.733E-02 0.000E+00
 
     Adding external electric field

     Computed dipole along edir(3) : 
        Dipole                0.7412 Ry au,          1.8840 Debye
        Dipole field          0.0014 Ry au, 
 
        Potential amp.       -0.1297 Ry
        Total length         46.3494 bohr
 

     total cpu time spent up to now is      769.6 secs

     total energy              =   -2940.35211666 Ry
     estimated scf accuracy    <       0.00000018 Ry

     iteration # 66     ecut=    29.40 Ry     beta= 0.05
     Davidson diagonalization with overlap
     ethr =  4.66E-11,  avg # of iterations =  8.5

     negative rho (up, down):  1.734E-02 0.000E+00
 
     Adding external electric field

     Computed dipole along edir(3) : 
        Dipole                0.7409 Ry au,          1.8831 Debye
        Dipole field          0.0014 Ry au, 
 
        Potential amp.       -0.1296 Ry
        Total length         46.3494 bohr
 

     total cpu time spent up to now is      788.9 secs

     total energy              =   -2940.35212124 Ry
     estimated scf accuracy    <       0.00000012 Ry

     iteration # 67     ecut=    29.40 Ry     beta= 0.05
     Davidson diagonalization with overlap
     ethr =  2.94E-11,  avg # of iterations =  5.6

     negative rho (up, down):  1.735E-02 0.000E+00
 
     Adding external electric field

     Computed dipole along edir(3) : 
        Dipole                0.7404 Ry au,          1.8818 Debye
        Dipole field          0.0014 Ry au, 
 
        Potential amp.       -0.1295 Ry
        Total length         46.3494 bohr
 

     total cpu time spent up to now is      797.6 secs

     total energy              =   -2940.35212536 Ry
     estimated scf accuracy    <       0.00000009 Ry

     iteration # 68     ecut=    29.40 Ry     beta= 0.05
     Davidson diagonalization with overlap
     ethr =  2.17E-11,  avg # of iterations =  7.9

     negative rho (up, down):  1.737E-02 0.000E+00
 
     Adding external electric field

     Computed dipole along edir(3) : 
        Dipole                0.7401 Ry au,          1.8810 Debye
        Dipole field          0.0014 Ry au, 
 
        Potential amp.       -0.1295 Ry
        Total length         46.3494 bohr
 

     total cpu time spent up to now is      811.3 secs

     total energy              =   -2940.35212911 Ry
     estimated scf accuracy    <       0.00000008 Ry

     iteration # 69     ecut=    29.40 Ry     beta= 0.05
     Davidson diagonalization with overlap
     ethr =  2.05E-11,  avg # of iterations =  6.7

     negative rho (up, down):  1.746E-02 0.000E+00
 
     Adding external electric field

     Computed dipole along edir(3) : 
        Dipole                0.7390 Ry au,          1.8783 Debye
        Dipole field          0.0014 Ry au, 
 
        Potential amp.       -0.1293 Ry
        Total length         46.3494 bohr
 

     total cpu time spent up to now is      820.2 secs

     End of self-consistent calculation

          k = 0.0000 0.0000 0.0000 ( 18029 PWs)   bands (ev):

   -56.0206 -55.9866 -55.8039 -55.7650 -55.7232 -55.6887 -55.6635 -55.6379
   -55.6293 -55.6032 -55.5768 -55.4970 -55.2442 -54.9170 -54.8830 -54.7901
   -32.4873 -32.3461 -32.3145 -32.2912 -32.1901 -32.1754 -32.1662 -32.1275
   -32.1101 -32.0988 -32.0814 -32.0449 -32.0226 -31.9817 -31.9741 -31.9728
   -31.9400 -31.9307 -31.9210 -31.8944 -31.8868 -31.8688 -31.8620 -31.8595
   -31.8383 -31.8373 -31.8278 -31.8246 -31.8176 -31.8028 -31.7946 -31.7921
   -31.7762 -31.7506 -31.6934 -31.6679 -31.6178 -31.4707 -31.4679 -31.3205
   -31.2412 -31.2182 -31.2086 -31.1379 -31.0519 -30.9944 -30.9405 -30.9141
   -17.3621 -16.5588 -16.3671 -16.0772 -15.9272 -15.9100 -15.7887 -15.6905
   -15.6120 -15.5120 -15.4609 -15.4048 -15.3923 -15.3689 -15.3103 -15.2869
   -15.2469 -15.2280 -15.1875 -15.1768 -15.1318 -15.1059 -15.0859 -15.0533
   -14.9865 -14.9173 -14.9025 -14.7489 -14.6077 -14.4586 -13.4181 -13.3032
   -11.5509  -8.3246  -5.0261  -4.0242  -3.9452  -3.8744  -3.8532  -3.7738
    -3.6921  -3.4413  -3.4199  -3.3584  -3.0692  -3.0227  -2.9987  -2.9941
    -2.8967  -2.7558  -2.7255  -2.6657  -2.6605  -2.6388  -2.6205  -2.6029
    -2.5463  -2.4925  -2.4745  -2.4323  -2.2956  -2.2721  -2.2672  -2.2454
    -2.1756  -2.1659  -2.1021  -2.0831  -2.0611  -2.0416  -2.0062  -1.8731
    -1.8402  -1.7757  -1.6953  -1.6038  -1.5235  -1.4896  -1.4041  -1.3843
    -1.3509  -1.2618  -1.2587  -1.1795  -1.1450  -1.0727  -1.0459  -1.0071
    -0.8975  -0.8715  -0.8140  -0.7555  -0.7096  -0.6970  -0.6550  -0.6303
    -0.6262  -0.6126  -0.5988  -0.4066  -0.3735  -0.2313  -0.1852  -0.1615
    -0.1198  -0.0985  -0.0397  -0.0143  -0.0111   0.0307   0.0491   0.0912
     0.1466   0.1623   0.1872   0.2790   0.3115   0.3671   0.4929   0.5077
     0.5940   0.6633   0.7659   0.7825   0.8341   0.9657   1.0618   1.0856
     1.1053   1.3105   1.4140   1.6694   1.7118   3.0276   3.1725   3.2677
     3.3761   3.4962   3.5703   3.6102   3.7837   3.8203   3.8627   3.9388

          k = 0.0000 0.0419 0.0000 ( 17933 PWs)   bands (ev):

   -56.0156 -55.9915 -55.7991 -55.7697 -55.7183 -55.6934 -55.6584 -55.6342
   -55.6331 -55.6079 -55.5748 -55.4988 -55.2438 -54.9120 -54.8879 -54.7903
   -32.4335 -32.3100 -32.2917 -32.2882 -32.1666 -32.1617 -32.1416 -32.1116
   -32.0952 -32.0851 -32.0743 -32.0344 -32.0049 -31.9948 -31.9827 -31.9636
   -31.9620 -31.9274 -31.9150 -31.9054 -31.8957 -31.8830 -31.8645 -31.8578
   -31.8534 -31.8446 -31.8410 -31.8340 -31.8229 -31.8198 -31.8067 -31.7975
   -31.7937 -31.7897 -31.7106 -31.6681 -31.6418 -31.4701 -31.4670 -31.2666
   -31.2376 -31.2313 -31.2214 -31.1253 -31.0643 -31.0004 -30.9975 -30.9157
   -17.3538 -16.4224 -16.2465 -15.9692 -15.8276 -15.8011 -15.7575 -15.6919
   -15.6360 -15.6210 -15.4729 -15.4525 -15.3727 -15.3389 -15.3371 -15.3109
   -15.2929 -15.2304 -15.2175 -15.2060 -15.1653 -15.1317 -15.0806 -15.0431
   -15.0397 -14.9596 -14.9161 -14.8051 -14.6354 -14.5322 -13.4230 -13.3431
   -11.5488  -8.3226  -5.0253  -3.9771  -3.8515  -3.7514  -3.6959  -3.6118
    -3.5339  -3.2932  -3.2640  -3.1471  -3.0085  -2.9963  -2.9544  -2.9010
    -2.8847  -2.8225  -2.7930  -2.7763  -2.7616  -2.6667  -2.6494  -2.6190
    -2.5962  -2.5660  -2.5428  -2.4999  -2.4536  -2.3992  -2.3677  -2.3464
    -2.2783  -2.2651  -2.1930  -2.1455  -2.0946  -2.0194  -1.9787  -1.8428
    -1.8170  -1.6932  -1.5902  -1.5677  -1.5038  -1.4626  -1.4516  -1.3569
    -1.2465  -1.1794  -1.1640  -1.1182  -1.0059  -0.9706  -0.9429  -0.9165
    -0.8330  -0.7845  -0.7656  -0.7534  -0.7320  -0.7036  -0.6959  -0.5885
    -0.5639  -0.5219  -0.4934  -0.4700  -0.4033  -0.3715  -0.3478  -0.2841
    -0.2394  -0.1375  -0.0945  -0.0729  -0.0432  -0.0021   0.0160   0.0407
     0.0966   0.1031   0.1710   0.2069   0.3027   0.3394   0.3736   0.4324
     0.4617   0.5117   0.5424   0.6581   0.7374   0.7623   0.8925   1.0665
     1.2929   1.3029   1.3983   1.6218   1.6274   3.0439   3.3828   3.4421
     3.5316   3.5911   3.6543   3.7303   3.7696   3.7826   3.8386   3.8618

          k = 0.0000-0.0839 0.0000 ( 17884 PWs)   bands (ev):

   -56.0044 -56.0026 -55.7918 -55.7769 -55.7096 -55.7021 -55.6477 -55.6448
   -55.6245 -55.6165 -55.5728 -55.5008 -55.2435 -54.8999 -54.8999 -54.7905
   -32.3023 -32.3016 -32.2999 -32.2985 -32.1530 -32.1408 -32.1294 -32.1275
   -32.0497 -32.0369 -32.0212 -32.0140 -32.0135 -32.0016 -31.9835 -31.9718
   -31.9451 -31.9375 -31.9356 -31.9308 -31.9137 -31.9006 -31.8884 -31.8759
   -31.8637 -31.8573 -31.8540 -31.8492 -31.8443 -31.8165 -31.8129 -31.8082
   -31.7984 -31.7944 -31.7650 -31.7120 -31.6108 -31.4694 -31.4671 -31.2587
   -31.2293 -31.2293 -31.1339 -31.1338 -31.0949 -31.0949 -31.0063 -30.9172
   -17.3457 -16.0912 -16.0600 -15.9586 -15.9428 -15.7437 -15.7226 -15.6373
   -15.6133 -15.5697 -15.5346 -15.5055 -15.4449 -15.4019 -15.3852 -15.3089
   -15.3087 -15.2697 -15.2680 -15.1924 -15.1650 -15.1377 -15.0999 -15.0887
   -14.9851 -14.9459 -14.9323 -14.9022 -14.6786 -14.6257 -13.4061 -13.4057
   -11.5468  -8.3208  -5.0248  -3.9352  -3.8520  -3.2902  -3.2670  -3.2626
    -3.2608  -3.2200  -3.2163  -3.1996  -3.1839  -2.9835  -2.9453  -2.9429
    -2.9100  -2.9000  -2.8902  -2.8759  -2.8583  -2.8476  -2.8361  -2.7113
    -2.6367  -2.6080  -2.5662  -2.5078  -2.4346  -2.4180  -2.3743  -2.3457
    -2.2635  -2.2394  -2.1918  -2.1402  -2.0696  -1.9659  -1.8328  -1.7581
    -1.7374  -1.6246  -1.5941  -1.5396  -1.4706  -1.4584  -1.4045  -1.3457
    -1.3289  -1.2859  -1.2574  -1.2119  -1.1628  -1.1106  -1.0762  -0.9447
    -0.8962  -0.8539  -0.7850  -0.7104  -0.5897  -0.5514  -0.5235  -0.4981
    -0.4867  -0.4305  -0.3951  -0.3800  -0.3628  -0.3285  -0.2918  -0.2629
    -0.1963  -0.1853  -0.1765  -0.1623  -0.1402  -0.0854  -0.0742  -0.0045
     0.0244   0.0434   0.0576   0.0998   0.1715   0.1893   0.2681   0.3262
     0.3616   0.3833   0.4196   0.4297   0.6809   0.8176   0.9769   1.0297
     1.0920   1.4472   1.4480   1.5602   1.5641   3.0444   3.5978   3.6011
     3.6962   3.7112   3.7682   3.7705   3.7854   3.7866   3.8682   3.8866

          k = 0.0380 0.0000 0.0000 ( 17913 PWs)   bands (ev):

   -56.0205 -55.9865 -55.8037 -55.7649 -55.7230 -55.6886 -55.6634 -55.6379
   -55.6292 -55.6031 -55.5767 -55.4969 -55.2441 -54.9169 -54.8829 -54.7900
   -32.4881 -32.3462 -32.3143 -32.2911 -32.1903 -32.1728 -32.1722 -32.1328
   -32.1098 -32.0987 -32.0812 -32.0295 -32.0236 -31.9815 -31.9660 -31.9549
   -31.9396 -31.9302 -31.9209 -31.9026 -31.8872 -31.8687 -31.8618 -31.8594
   -31.8474 -31.8382 -31.8364 -31.8245 -31.8170 -31.7997 -31.7940 -31.7920
   -31.7761 -31.7505 -31.6962 -31.6639 -31.6174 -31.4726 -31.4678 -31.3201
   -31.2442 -31.2163 -31.2086 -31.1377 -31.0518 -30.9942 -30.9403 -30.9141
   -17.3596 -16.4831 -16.2818 -15.9823 -15.9549 -15.8386 -15.7882 -15.7312
   -15.6694 -15.6099 -15.5080 -15.4630 -15.4562 -15.4479 -15.3173 -15.2766
   -15.2301 -15.2220 -15.1942 -15.1573 -15.1037 -15.0809 -15.0494 -15.0206
   -15.0057 -14.9694 -14.9075 -14.7625 -14.6008 -14.4587 -13.4150 -13.3029
   -11.5566  -8.3162  -5.0343  -3.9780  -3.8674  -3.8386  -3.6065  -3.5589
    -3.5042  -3.3832  -3.3554  -3.2830  -3.2363  -3.1122  -3.0644  -3.0038
    -2.9583  -2.8321  -2.7575  -2.6448  -2.6272  -2.6053  -2.5548  -2.5462
    -2.5353  -2.4798  -2.4250  -2.3810  -2.3330  -2.3140  -2.2563  -2.2072
    -2.1641  -2.1349  -2.0682  -2.0170  -1.9062  -1.8446  -1.8084  -1.7862
    -1.7593  -1.7289  -1.6824  -1.6646  -1.5677  -1.5085  -1.4716  -1.4064
    -1.3773  -1.3121  -1.2903  -1.2383  -1.1784  -1.1282  -1.1138  -1.0923
    -1.0421  -0.9839  -0.9633  -0.8436  -0.8034  -0.7197  -0.6193  -0.6004
    -0.5810  -0.5533  -0.5237  -0.4743  -0.3127  -0.2772  -0.2562  -0.2100
    -0.1812  -0.1570  -0.1059  -0.0473  -0.0385  -0.0193   0.0034   0.0529
     0.0636   0.1252   0.1637   0.2101   0.2836   0.3059   0.4184   0.4762
     0.5270   0.5922   0.6461   0.7138   0.7930   0.8246   1.0250   1.0747
     1.1171   1.2756   1.2877   1.5594   1.6287   3.0093   3.2476   3.2612
     3.5506   3.6094   3.6681   3.6867   3.7328   3.7750   3.8371   3.8562

          k = 0.0380 0.0419 0.0000 ( 17878 PWs)   bands (ev):

   -56.0155 -55.9915 -55.7990 -55.7696 -55.7182 -55.6934 -55.6584 -55.6341
   -55.6331 -55.6079 -55.5748 -55.4988 -55.2438 -54.9119 -54.8879 -54.7903
   -32.4342 -32.3098 -32.2918 -32.2884 -32.1668 -32.1594 -32.1418 -32.1192
   -32.0948 -32.0849 -32.0804 -32.0221 -32.0051 -31.9944 -31.9725 -31.9644
   -31.9463 -31.9271 -31.9150 -31.8973 -31.8952 -31.8943 -31.8645 -31.8578
   -31.8535 -31.8464 -31.8419 -31.8409 -31.8331 -31.8196 -31.8037 -31.8010
   -31.7935 -31.7874 -31.7105 -31.6688 -31.6399 -31.4715 -31.4670 -31.2662
   -31.2400 -31.2315 -31.2204 -31.1252 -31.0644 -31.0003 -30.9974 -30.9160
   -17.3522 -16.3525 -16.1684 -15.8806 -15.8530 -15.7543 -15.7356 -15.6975
   -15.6560 -15.6415 -15.6081 -15.4278 -15.4061 -15.4001 -15.3537 -15.3085
   -15.2835 -15.2473 -15.2066 -15.1996 -15.1483 -15.1035 -15.0982 -15.0758
   -15.0545 -15.0350 -14.9100 -14.8135 -14.6297 -14.5332 -13.4208 -13.3434
   -11.5530  -8.3142  -5.0309  -3.9621  -3.8509  -3.6860  -3.4296  -3.3909
    -3.3473  -3.2323  -3.1532  -3.1041  -3.0698  -2.9880  -2.9419  -2.8872
    -2.8296  -2.8243  -2.7850  -2.7191  -2.6839  -2.6377  -2.6083  -2.6014
    -2.5768  -2.5500  -2.5233  -2.4970  -2.4654  -2.4297  -2.3554  -2.3338
    -2.2665  -2.1958  -2.1180  -2.0485  -2.0363  -1.9878  -1.8911  -1.8318
    -1.7754  -1.6892  -1.6336  -1.5763  -1.5484  -1.4424  -1.3688  -1.3061
    -1.3010  -1.2487  -1.2140  -1.1760  -1.1424  -1.0609  -1.0512  -1.0069
    -0.9479  -0.9116  -0.8764  -0.8194  -0.7609  -0.7549  -0.6862  -0.6659
    -0.6487  -0.5986  -0.5962  -0.5312  -0.4851  -0.4703  -0.4389  -0.3596
    -0.3256  -0.2710  -0.2265  -0.1951  -0.1466  -0.1000  -0.0511  -0.0106
     0.0660   0.1278   0.1439   0.2238   0.2873   0.3397   0.4173   0.4565
     0.5006   0.5264   0.5963   0.6670   0.6993   0.7316   0.8528   1.0417
     1.2227   1.3145   1.4068   1.5449   1.6050   3.0232   3.3716   3.4730
     3.6649   3.6764   3.7126   3.7519   3.7715   3.7818   3.8535   3.8717

          k = 0.0380-0.0839 0.0000 ( 17916 PWs)   bands (ev):

   -56.0044 -56.0026 -55.7918 -55.7769 -55.7096 -55.7021 -55.6477 -55.6449
   -55.6245 -55.6165 -55.5728 -55.5008 -55.2435 -54.8999 -54.8999 -54.7906
   -32.3030 -32.3022 -32.3001 -32.2986 -32.1532 -32.1411 -32.1284 -32.1264
   -32.0498 -32.0371 -32.0223 -32.0210 -32.0141 -32.0092 -31.9687 -31.9617
   -31.9574 -31.9563 -31.9141 -31.9070 -31.9031 -31.9004 -31.8884 -31.8764
   -31.8710 -31.8638 -31.8542 -31.8493 -31.8444 -31.8232 -31.8186 -31.8165
   -31.7985 -31.7945 -31.7655 -31.7096 -31.6104 -31.4712 -31.4672 -31.2587
   -31.2302 -31.2302 -31.1338 -31.1337 -31.0949 -31.0949 -31.0063 -30.9176
   -17.3447 -16.0418 -16.0108 -15.9089 -15.8948 -15.7011 -15.6811 -15.6615
   -15.6374 -15.5541 -15.5147 -15.4739 -15.4369 -15.4130 -15.3792 -15.3509
   -15.3451 -15.2652 -15.2601 -15.2515 -15.2290 -15.1531 -15.1433 -15.1117
   -15.0647 -15.0223 -14.9139 -14.8773 -14.6733 -14.6214 -13.4059 -13.4055
   -11.5507  -8.3126  -5.0287  -3.9325  -3.8462  -3.2786  -3.2424  -3.0889
    -3.0732  -3.0484  -3.0430  -3.0072  -2.9949  -2.9821  -2.9350  -2.8591
    -2.8201  -2.8105  -2.7861  -2.7379  -2.7290  -2.7145  -2.7077  -2.6614
    -2.6224  -2.5768  -2.5597  -2.5490  -2.4973  -2.4452  -2.4057  -2.3346
    -2.2829  -2.2509  -2.1137  -2.0026  -1.9143  -1.8938  -1.8445  -1.7494
    -1.7376  -1.7092  -1.6989  -1.6107  -1.5977  -1.5837  -1.5333  -1.4962
    -1.4718  -1.4379  -1.3648  -1.3030  -1.2673  -1.1625  -1.0834  -0.9714
    -0.9188  -0.8810  -0.8605  -0.8032  -0.7708  -0.6804  -0.6690  -0.6252
    -0.5995  -0.5678  -0.5543  -0.5358  -0.5197  -0.4882  -0.4751  -0.4279
    -0.3752  -0.3411  -0.2712  -0.2043  -0.1922  -0.1247  -0.0849  -0.0440
     0.0427   0.1231   0.1737   0.2030   0.2131   0.2658   0.3117   0.3261
     0.4053   0.4657   0.5215   0.5712   0.7127   0.7989   0.9135   1.0370
     1.0658   1.4600   1.4608   1.5478   1.5500   3.0183   3.5970   3.6023
     3.6816   3.7198   3.7810   3.7987   3.8048   3.8150   3.9182   3.9357

          k = 0.0380-0.0419 0.0000 ( 17876 PWs)   bands (ev):

   -56.0155 -55.9915 -55.7990 -55.7696 -55.7182 -55.6934 -55.6584 -55.6341
   -55.6331 -55.6079 -55.5747 -55.4988 -55.2438 -54.9119 -54.8879 -54.7903
   -32.4342 -32.3098 -32.2918 -32.2884 -32.1667 -32.1594 -32.1418 -32.1191
   -32.0948 -32.0850 -32.0804 -32.0222 -32.0051 -31.9947 -31.9722 -31.9647
   -31.9463 -31.9271 -31.9150 -31.8975 -31.8948 -31.8945 -31.8644 -31.8577
   -31.8535 -31.8465 -31.8419 -31.8409 -31.8330 -31.8196 -31.8037 -31.8010
   -31.7931 -31.7874 -31.7091 -31.6698 -31.6400 -31.4721 -31.4670 -31.2662
   -31.2400 -31.2312 -31.2203 -31.1252 -31.0644 -31.0003 -30.9974 -30.9160
   -17.3519 -16.3526 -16.1683 -15.8810 -15.8517 -15.7559 -15.7351 -15.6975
   -15.6562 -15.6420 -15.6082 -15.4286 -15.4055 -15.4000 -15.3541 -15.3077
   -15.2759 -15.2457 -15.2131 -15.1999 -15.1628 -15.1175 -15.0951 -15.0753
   -15.0384 -15.0243 -14.9134 -14.8153 -14.6280 -14.5331 -13.4208 -13.3434
   -11.5541  -8.3144  -5.0317  -3.9463  -3.8302  -3.6859  -3.4291  -3.3912
    -3.3451  -3.2319  -3.1421  -3.1123  -3.0786  -2.9880  -2.9427  -2.8896
    -2.8337  -2.8222  -2.7922  -2.7188  -2.6721  -2.6420  -2.6166  -2.6003
    -2.5824  -2.5678  -2.5151  -2.5011  -2.4655  -2.4401  -2.3531  -2.3293
    -2.3058  -2.1918  -2.1592  -2.0588  -2.0419  -2.0039  -1.8792  -1.8086
    -1.7699  -1.7117  -1.6389  -1.5933  -1.5348  -1.4140  -1.3887  -1.3048
    -1.2943  -1.2664  -1.1958  -1.1720  -1.1413  -1.0662  -1.0380  -1.0088
    -0.9392  -0.9220  -0.8542  -0.8037  -0.7717  -0.7297  -0.6938  -0.6682
    -0.6349  -0.5961  -0.5435  -0.5332  -0.5032  -0.4457  -0.4117  -0.3516
    -0.2967  -0.2614  -0.2187  -0.1838  -0.1271  -0.0946  -0.0542  -0.0061
     0.0276   0.1183   0.1648   0.2435   0.2825   0.3255   0.3881   0.4660
     0.4938   0.5206   0.5650   0.6164   0.6891   0.7298   0.8283   1.0466
     1.2202   1.3145   1.4063   1.5446   1.6056   3.0196   3.3727   3.4738
     3.6669   3.6855   3.6970   3.7474   3.7636   3.7890   3.8591   3.8729

          k =-0.0760-0.0000 0.0000 ( 17886 PWs)   bands (ev):

   -56.0204 -55.9865 -55.8037 -55.7649 -55.7229 -55.6886 -55.6634 -55.6379
   -55.6292 -55.6031 -55.5766 -55.4969 -55.2440 -54.9169 -54.8829 -54.7900
   -32.4890 -32.3463 -32.3142 -32.2910 -32.1906 -32.1779 -32.1702 -32.1379
   -32.1098 -32.0985 -32.0815 -32.0247 -32.0086 -31.9814 -31.9597 -31.9396
   -31.9301 -31.9254 -31.9211 -31.9202 -31.8815 -31.8807 -31.8684 -31.8616
   -31.8593 -31.8382 -31.8361 -31.8245 -31.8168 -31.7975 -31.7929 -31.7924
   -31.7762 -31.7507 -31.6986 -31.6607 -31.6173 -31.4750 -31.4677 -31.3197
   -31.2472 -31.2150 -31.2087 -31.1376 -31.0516 -30.9941 -30.9403 -30.9145
   -17.3572 -16.3812 -16.1833 -15.9441 -15.9221 -15.7877 -15.7648 -15.7525
   -15.7296 -15.6065 -15.5852 -15.5695 -15.5424 -15.4564 -15.3475 -15.3088
   -15.2632 -15.2322 -15.1894 -15.1448 -15.1340 -15.1335 -15.0694 -14.9986
   -14.9386 -14.9323 -14.8960 -14.7679 -14.5964 -14.4590 -13.4121 -13.3026
   -11.5622  -8.3079  -5.0425  -3.9485  -3.8470  -3.8191  -3.4946  -3.4096
    -3.3262  -3.2379  -3.2289  -3.2248  -3.1926  -3.0723  -3.0622  -3.0241
    -2.8789  -2.8350  -2.6830  -2.6431  -2.6095  -2.5863  -2.5450  -2.4758
    -2.4465  -2.4220  -2.4196  -2.3286  -2.2930  -2.2152  -2.2117  -2.1668
    -2.1425  -2.1129  -2.0896  -2.0320  -2.0044  -1.9447  -1.8725  -1.8493
    -1.7404  -1.6762  -1.6381  -1.5542  -1.5027  -1.5013  -1.4511  -1.4388
    -1.4354  -1.4101  -1.3717  -1.3314  -1.2705  -1.2006  -1.1686  -1.0686
    -1.0605  -1.0134  -1.0027  -0.9835  -0.9544  -0.8616  -0.6349  -0.6003
    -0.5542  -0.5308  -0.5115  -0.4965  -0.4863  -0.4384  -0.3076  -0.2793
    -0.2645  -0.2204  -0.1826  -0.1132  -0.0820  -0.0626  -0.0197   0.0030
     0.0163   0.1034   0.1783   0.2042   0.3176   0.3462   0.3759   0.4674
     0.5459   0.5867   0.6579   0.6997   0.7539   0.7943   0.9905   1.0201
     1.1090   1.1381   1.2580   1.4314   1.5717   2.9783   3.2375   3.2780
     3.4578   3.5216   3.6085   3.6438   3.7097   3.7266   3.8289   3.8795

          k =-0.0760 0.0419 0.0000 ( 17914 PWs)   bands (ev):

   -56.0155 -55.9915 -55.7990 -55.7696 -55.7182 -55.6934 -55.6584 -55.6342
   -55.6331 -55.6079 -55.5748 -55.4988 -55.2438 -54.9119 -54.8879 -54.7903
   -32.4352 -32.3098 -32.2918 -32.2887 -32.1669 -32.1576 -32.1422 -32.1262
   -32.0948 -32.0868 -32.0846 -32.0073 -32.0049 -31.9946 -31.9662 -31.9621
   -31.9274 -31.9220 -31.9155 -31.9128 -31.8968 -31.8835 -31.8686 -31.8641
   -31.8577 -31.8519 -31.8488 -31.8412 -31.8326 -31.8196 -31.8056 -31.8028
   -31.7933 -31.7852 -31.7092 -31.6706 -31.6383 -31.4739 -31.4671 -31.2660
   -31.2426 -31.2315 -31.2197 -31.1252 -31.0644 -31.0003 -30.9975 -30.9164
   -17.3505 -16.2593 -16.0746 -15.8459 -15.8259 -15.7489 -15.7120 -15.6756
   -15.6587 -15.6534 -15.6365 -15.5237 -15.4775 -15.4466 -15.3340 -15.2965
   -15.2552 -15.2526 -15.2390 -15.2181 -15.1952 -15.1861 -15.1657 -15.0451
   -15.0253 -15.0134 -14.9092 -14.8182 -14.6243 -14.5343 -13.4187 -13.3437
   -11.5583  -8.3061  -5.0373  -3.9350  -3.8324  -3.6726  -3.3335  -3.1646
    -3.1094  -3.0370  -3.0104  -2.9490  -2.9360  -2.9205  -2.8978  -2.8663
    -2.8372  -2.8003  -2.7644  -2.7026  -2.6744  -2.6415  -2.5957  -2.5763
    -2.5517  -2.5304  -2.5169  -2.4812  -2.4426  -2.4343  -2.3363  -2.3193
    -2.2051  -2.1247  -2.0562  -1.9979  -1.9643  -1.9218  -1.8997  -1.8220
    -1.7822  -1.7549  -1.6081  -1.5473  -1.4903  -1.4669  -1.4115  -1.3916
    -1.3768  -1.3127  -1.2545  -1.2258  -1.2050  -1.1826  -1.1504  -1.0987
    -1.0905  -1.0289  -0.9928  -0.9640  -0.9340  -0.8674  -0.8227  -0.7764
    -0.7351  -0.6941  -0.6409  -0.6247  -0.6108  -0.5443  -0.5201  -0.4704
    -0.4197  -0.3583  -0.3034  -0.2976  -0.1671  -0.1448  -0.1039  -0.0697
    -0.0187   0.1055   0.1831   0.3058   0.3968   0.4300   0.4941   0.5224
     0.5394   0.5796   0.6151   0.6778   0.6951   0.7411   0.7828   1.0136
     1.0788   1.3287   1.4126   1.4702   1.5939   2.9912   3.3596   3.4755
     3.5340   3.6182   3.6578   3.6844   3.7266   3.8781   3.9486   3.9620

          k =-0.0760-0.0839 0.0000 ( 17948 PWs)   bands (ev):

   -56.0044 -56.0026 -55.7918 -55.7769 -55.7095 -55.7021 -55.6478 -55.6449
   -55.6246 -55.6166 -55.5728 -55.5008 -55.2436 -54.9000 -54.8999 -54.7906
   -32.3036 -32.3028 -32.3003 -32.2987 -32.1535 -32.1414 -32.1273 -32.1253
   -32.0500 -32.0373 -32.0270 -32.0218 -32.0155 -32.0131 -31.9692 -31.9637
   -31.9555 -31.9435 -31.9140 -31.9008 -31.8886 -31.8844 -31.8808 -31.8789
   -31.8765 -31.8716 -31.8543 -31.8495 -31.8443 -31.8392 -31.8341 -31.8166
   -31.7985 -31.7947 -31.7659 -31.7072 -31.6100 -31.4731 -31.4673 -31.2587
   -31.2310 -31.2310 -31.1338 -31.1337 -31.0949 -31.0949 -31.0063 -30.9180
   -17.3438 -15.9764 -15.9479 -15.8388 -15.8193 -15.7319 -15.7185 -15.6033
   -15.5958 -15.5835 -15.5171 -15.4705 -15.4600 -15.3799 -15.3520 -15.3409
   -15.3153 -15.3055 -15.2992 -15.2886 -15.2778 -15.1955 -15.1914 -15.1897
   -15.1155 -15.0910 -14.9072 -14.8638 -14.6690 -14.6179 -13.4057 -13.4053
   -11.5545  -8.3044  -5.0326  -3.9257  -3.8459  -3.2785  -3.2424  -3.0253
    -3.0002  -2.9797  -2.9493  -2.7652  -2.7515  -2.7445  -2.7277  -2.7151
    -2.6781  -2.6591  -2.6466  -2.5802  -2.5713  -2.5493  -2.5443  -2.5352
    -2.5162  -2.5009  -2.4932  -2.4735  -2.4608  -2.4161  -2.3612  -2.3386
    -2.2893  -2.1951  -2.0901  -2.0425  -2.0277  -2.0200  -1.9975  -1.9882
    -1.9491  -1.9361  -1.8499  -1.6689  -1.6205  -1.5562  -1.5504  -1.5482
    -1.4859  -1.4287  -1.3928  -1.3147  -1.2458  -1.1925  -1.1638  -1.1383
    -1.1050  -1.0368  -0.9720  -0.9526  -0.9408  -0.9089  -0.9048  -0.8889
    -0.8114  -0.7289  -0.6851  -0.6556  -0.6328  -0.6180  -0.6024  -0.5804
    -0.4769  -0.4046  -0.3567  -0.3118  -0.2708  -0.2270  -0.1095  -0.0941
     0.0942   0.1665   0.1932   0.2708   0.3663   0.3935   0.4045   0.4666
     0.5444   0.6054   0.6385   0.6940   0.7113   0.7315   0.7986   1.0182
     1.0699   1.4793   1.4809   1.5300   1.5310   2.9918   3.6719   3.6799
     3.6833   3.6937   3.7137   3.7366   3.7888   3.8234   3.9262   3.9473

     the Fermi energy is     3.1371 ev

!    total energy              =   -2940.35216363 Ry
     estimated scf accuracy    <       0.00000003 Ry
     smearing contrib. (-TS)   =      -0.01873089 Ry
     internal energy E=F+TS    =   -2940.33343274 Ry

     The total energy is F=E-TS. E is the sum of the following terms:
     one-electron contribution =  -24661.68881528 Ry
     hartree contribution      =   12419.97651264 Ry
     xc contribution           =    -486.05041726 Ry
     ewald contribution        =    9787.42825664 Ry
     electric field correction =       0.00103052 Ry

     convergence has been achieved in  69 iterations

     Forces acting on atoms (cartesian axes, Ry/au):

     atom    1 type  1   force =     0.00026339   -0.00036595    0.10150318
     atom    2 type  1   force =     0.00004202   -0.00088027   -0.17141703
     atom    3 type  2   force =     0.00029202    0.00021775   -0.03320823
     atom    4 type  2   force =     0.00003187   -0.00078372    0.04480616
     atom    5 type  2   force =    -0.01194740   -0.00021456   -0.00232129
     atom    6 type  2   force =     0.01438316    0.00038177   -0.00112199
     atom    7 type  1   force =     0.00140472   -0.00128112   -0.00434198
     atom    8 type  1   force =    -0.00078905    0.02218815    0.05615358
     atom    9 type  2   force =     0.00002779   -0.00032425    0.00051241
     atom   10 type  2   force =    -0.00267156    0.00207200   -0.02584457
     atom   11 type  2   force =    -0.00000743    0.00024987   -0.00002742
     atom   12 type  2   force =     0.00011202    0.00075097    0.00005122
     atom   13 type  1   force =    -0.00004232    0.00013861    0.00003155
     atom   14 type  1   force =     0.00029407    0.00027329   -0.00009770
     atom   15 type  2   force =     0.00026779   -0.00027728    0.00023751
     atom   16 type  2   force =    -0.00001746   -0.00015080    0.00086108
     atom   17 type  2   force =    -0.00010513   -0.00096303   -0.00009954
     atom   18 type  2   force =     0.00046376   -0.00072011    0.00030195
     atom   19 type  1   force =    -0.00007762   -0.00055217    0.00014233
     atom   20 type  1   force =     0.00013789    0.00003668   -0.00071352
     atom   21 type  2   force =     0.00006909   -0.00000741    0.10211371
     atom   22 type  2   force =    -0.00032952   -0.00090026    0.00058463
     atom   23 type  2   force =    -0.07325797   -0.00015689   -0.02887494
     atom   24 type  2   force =     0.07321212    0.00032928   -0.02892881
     atom   25 type  1   force =    -0.00029291   -0.00032557    0.10197888
     atom   26 type  1   force =     0.00002807   -0.00015830   -0.17141288
     atom   27 type  2   force =     0.00036417   -0.00022811   -0.03193365
     atom   28 type  2   force =     0.00009026   -0.00057394    0.04541682
     atom   29 type  2   force =    -0.01209564    0.00213254   -0.00287264
     atom   30 type  2   force =     0.01440945    0.00229300   -0.00161773
     atom   31 type  1   force =     0.00159537    0.00093884   -0.00568553
     atom   32 type  1   force =    -0.00059408   -0.02474022    0.05721037
     atom   33 type  2   force =     0.00014811    0.00036264    0.00067761
     atom   34 type  2   force =    -0.00421226    0.00212264   -0.04823558
     atom   35 type  2   force =     0.00057571   -0.00059318    0.00003957
     atom   36 type  2   force =    -0.00038182   -0.00076491    0.00016826
     atom   37 type  1   force =     0.00007665    0.00061513   -0.00024822
     atom   38 type  1   force =     0.00004013   -0.00013249   -0.00020047
     atom   39 type  2   force =     0.00018881   -0.00005612   -0.00036519
     atom   40 type  2   force =    -0.00007441   -0.00001737   -0.00022802
     atom   41 type  2   force =     0.00026984    0.00043674    0.00040605
     atom   42 type  2   force =     0.00000402    0.00033405    0.00074315
     atom   43 type  1   force =    -0.00026306   -0.00006492    0.00006444
     atom   44 type  1   force =    -0.00014484   -0.00013474   -0.00021612
     atom   45 type  2   force =     0.00004540   -0.00005346    0.10217660
     atom   46 type  2   force =    -0.07326872   -0.00008950   -0.02885106
     atom   47 type  2   force =     0.07322233    0.00028700   -0.02888817
     atom   48 type  3   force =     0.00402958   -0.00225865   -0.00017378
     atom   49 type  4   force =     0.00033227   -0.00063117   -0.00011265
     atom   50 type  5   force =    -0.00017596   -0.00011261   -0.00009947
     atom   51 type  5   force =    -0.00060930   -0.00043426    0.00046420
     atom   52 type  5   force =    -0.00021626   -0.00040720    0.00020803
     atom   53 type  3   force =    -0.00405353    0.00740079    0.00701795
     atom   54 type  5   force =    -0.00079365   -0.00420721   -0.00573307

     Total force =     0.377994     Total SCF correction =     0.000513
  @ DRIVER MODE: Message from server: STATUS
  @ DRIVER MODE: Message from server: GETFORCE
  @ DRIVER MODE: Returning v,forces,stress,ensemble 

     Writing output data file ./calc.save/
  @ DRIVER MODE: Message from server: EXIT
  @ DRIVE MODE: Exiting  
 
     init_run     :      7.27s CPU      7.41s WALL (       1 calls)
     electrons    :    797.18s CPU    809.56s WALL (       1 calls)
     forces       :      5.98s CPU      6.04s WALL (       1 calls)

     Called by init_run:
     wfcinit      :      3.30s CPU      3.34s WALL (       1 calls)
     potinit      :      3.52s CPU      3.56s WALL (       1 calls)
     hinit0       :      0.19s CPU      0.20s WALL (       1 calls)

     Called by electrons:
     c_bands      :    681.33s CPU    687.56s WALL (      69 calls)
     sum_band     :     79.74s CPU     81.70s WALL (      69 calls)
     v_of_rho     :     23.98s CPU     24.60s WALL (      70 calls)
     newd         :     10.16s CPU     12.40s WALL (      70 calls)
     mix_rho      :      4.47s CPU      5.73s WALL (      69 calls)
     vdW_kernel   :      3.03s CPU      3.04s WALL (       1 calls)

     Called by c_bands:
     init_us_2    :      3.85s CPU      3.87s WALL (    1400 calls)
     cegterg      :    668.65s CPU    674.60s WALL (     703 calls)

     Called by *egterg:
     cdiaghg      :    157.60s CPU    158.15s WALL (    5860 calls)
     h_psi        :    329.34s CPU    334.15s WALL (    5870 calls)
     s_psi        :     38.22s CPU     38.34s WALL (    5870 calls)
     g_psi        :      0.96s CPU      0.97s WALL (    5157 calls)

     Called by h_psi:
     h_psi:calbec :     39.21s CPU     39.40s WALL (    5870 calls)
     vloc_psi     :    250.15s CPU    254.61s WALL (    5870 calls)
     add_vuspsi   :     38.58s CPU     38.75s WALL (    5870 calls)

     General routines
     calbec       :     56.97s CPU     57.21s WALL (    6600 calls)
     fft          :     13.27s CPU     13.40s WALL (    4410 calls)
     ffts         :      0.13s CPU      0.13s WALL (     139 calls)
     fftw         :    287.48s CPU    292.26s WALL (  896204 calls)
     interpolate  :      0.31s CPU      0.32s WALL (      70 calls)
     davcio       :      0.00s CPU      0.10s WALL (      10 calls)
 
     Parallel routines
 
     PWSCF        :  13m33.65s CPU  13m46.62s WALL

 
   This run was terminated on:  21:11:41   2Aug2021            

=------------------------------------------------------------------------------=
   JOB DONE.
=------------------------------------------------------------------------------=
