
     Program PWSCF v.6.7GPU starts on 26Sep2021 at 13:39:44 

     This program is part of the open-source Quantum ESPRESSO suite
     for quantum simulation of materials; please cite
         "P. Giannozzi et al., J. Phys.:Condens. Matter 21 395502 (2009);
         "P. Giannozzi et al., J. Phys.:Condens. Matter 29 465901 (2017);
         "P. Giannozzi et al., J. Chem. Phys. 152 154105 (2020);
          URL http://www.quantum-espresso.org", 
     in publications or presentations arising from this work. More details at
     http://www.quantum-espresso.org/quote

     Parallel version (MPI), running on     8 processors

     MPI processes distributed on     1 nodes
     R & G space division:  proc/nbgrp/npool/nimage =       8
     Reading input from /storage/home/hcoda1/3/ntian30/research/carbon/CxH_vib/H2O_calc/ads_slab/CH3OHN2HO_a/out_0040/pw.inp
Warning: card &CELL ignored
Warning: card   CELL_DYNAMICS='IPI', ignored
Warning: card / ignored

     Current dimensions of program PWSCF are:
     Max number of different atomic species (ntypx) = 10
     Max number of k-points (npk) =  40000
     Max angular momentum in pseudopotentials (lmaxx) =  3
     Presently no symmetry can be used with electric field

     Message from routine cell_base_init:
     DEPRECATED: use true lattice parameter, not A to a.u. conversion factor

     **************************************************************************
     Initializing libbeef V0.1.2 with the BEEF-vdW functional.
     Citation: Wellendorff et al., PRB 85, 235149 (2012).
     **************************************************************************


     IMPORTANT: XC functional enforced from input :
     Exchange-correlation= BEEF-VDW
                           (   1   4  43  14   2   0   0)
     Any further DFT definition will be discarded
     Please, verify this is what you really want


     Subspace diagonalization in iterative solution of the eigenvalue problem:
     one sub-group per band group will be used
     scalapack distributed-memory algorithm (size of sub-group:  2*  2 procs)

  @ DRIVER MODE: Connecting to 
 qe_1139763_2971668.sched-torque.pace.gatech.edu_zbozolo_scratch
  using UNIX socket
  @ DRIVER MODE: Message from server: STATUS
  @ DRIVER MODE: Message from server: INIT
  @ DRIVER MODE: Receiving replica           0          -1
  @ DRIVER MODE: Receiving encoded integer          25
  @ DRIVER MODE:  SCF:  T  FORCE:  T  STRESS:  F  VC:  F  ENSEMBLE:  F
  @ DRIVER MODE:  SCF:  T  FORCE:  T  STRESS:  F  VC:  F  ENSEMBLE:  F
 
     Parallelization info
     --------------------
     sticks:   dense  smooth     PW     G-vecs:    dense   smooth      PW
     Min         409     164     47                70857    17926    2743
     Max         411     165     48                70858    17931    2751
     Sum        3275    1317    379               566857   143421   21985
 
     Using Slab Decomposition
 


     bravais-lattice index     =            0
     lattice parameter (alat)  =       1.8897  a.u.
     unit-cell volume          =    6658.9804 (a.u.)^3
     number of atoms/cell      =           57
     number of atomic types    =            5
     number of electrons       =       409.00
     number of Kohn-Sham states=          214
     kinetic-energy cutoff     =      29.3995  Ry
     charge density cutoff     =     293.9946  Ry
     scf convergence threshold =      7.3E-08
     mixing beta               =       0.0500
     number of iterations used =            8  plain     mixing
     Exchange-correlation= BEEF-VDW
                           (   1   4  43  14   2   0   0)

     celldm(1)=   1.889726  celldm(2)=   0.000000  celldm(3)=   0.000000
     celldm(4)=   0.000000  celldm(5)=   0.000000  celldm(6)=   0.000000

     crystal axes: (cart. coord. in units of alat)
               a(1) = (   6.579727   0.000000   0.000000 )  
               a(2) = (  -0.000775   5.961596   0.000000 )  
               a(3) = (   0.000000   0.000000  25.155947 )  

     reciprocal axes: (cart. coord. in units 2 pi/alat)
               b(1) = (  0.151982  0.000020  0.000000 )  
               b(2) = (  0.000000  0.167740  0.000000 )  
               b(3) = (  0.000000  0.000000  0.039752 )  


     PseudoPot. # 1 for Ti read from file:
     /storage/coda1/p-amedford6/0/shared/rich_project_chbe-medford/medford-share/data/pseudos_module/espresso/nninc/pbe/van/Ti.UPF
     MD5 check sum: 8e4df49b7f0d34bbd5052bf3f5ea0213
     Pseudo is Ultrasoft, Zval = 12.0
     Generated by new atomic code, or converted to UPF format
     Using radial grid of  851 points,  6 beta functions with: 
                l(1) =   0
                l(2) =   0
                l(3) =   1
                l(4) =   1
                l(5) =   2
                l(6) =   2
     Q(r) pseudized with  8 coefficients,  rinner =    1.000   1.000   1.000
                                                       1.000   1.000

     PseudoPot. # 2 for O  read from file:
     /storage/coda1/p-amedford6/0/shared/rich_project_chbe-medford/medford-share/data/pseudos_module/espresso/nninc/pbe/van/O.UPF
     MD5 check sum: 78c19812648e8988a0fe644b0f25305e
     Pseudo is Ultrasoft, Zval =  6.0
     Generated by new atomic code, or converted to UPF format
     Using radial grid of  737 points,  4 beta functions with: 
                l(1) =   0
                l(2) =   0
                l(3) =   1
                l(4) =   1
     Q(r) pseudized with  8 coefficients,  rinner =    0.800   0.800   0.800


     PseudoPot. # 3 for C  read from file:
     /storage/coda1/p-amedford6/0/shared/rich_project_chbe-medford/medford-share/data/pseudos_module/espresso/nninc/pbe/van/C.UPF
     MD5 check sum: 1a69bf6b8db32088f5b2163dbdb77a27
     Pseudo is Ultrasoft, Zval =  4.0
     Generated by new atomic code, or converted to UPF format
     Using radial grid of  721 points,  4 beta functions with: 
                l(1) =   0
                l(2) =   0
                l(3) =   1
                l(4) =   1
     Q(r) pseudized with  8 coefficients,  rinner =    0.800   0.800   0.800


     PseudoPot. # 4 for H  read from file:
     /storage/coda1/p-amedford6/0/shared/rich_project_chbe-medford/medford-share/data/pseudos_module/espresso/nninc/pbe/van/H.UPF
     MD5 check sum: b5ee9d7bfd3a09ee7748110bda690ff7
     Pseudo is Ultrasoft, Zval =  1.0
     Generated by new atomic code, or converted to UPF format
     Using radial grid of  615 points,  1 beta functions with: 
                l(1) =   0
     Q(r) pseudized with  8 coefficients,  rinner =    0.800

     PseudoPot. # 5 for N  read from file:
     /storage/coda1/p-amedford6/0/shared/rich_project_chbe-medford/medford-share/data/pseudos_module/espresso/nninc/pbe/van/N.UPF
     MD5 check sum: 90d10febe142ad51ac9d5be1deb811c4
     Pseudo is Ultrasoft, Zval =  5.0
     Generated by new atomic code, or converted to UPF format
     Using radial grid of  729 points,  4 beta functions with: 
                l(1) =   0
                l(2) =   0
                l(3) =   1
                l(4) =   1
     Q(r) pseudized with  8 coefficients,  rinner =    0.800   0.800   0.800


     atomic species   valence    mass     pseudopotential
        Ti1           12.00    47.86700     Ti( 1.00)
        O1             6.00    15.99900     O ( 1.00)
        C1             4.00    12.01100     C ( 1.00)
        H1             1.00     1.00800     H ( 1.00)
        N1             5.00    14.00700     N ( 1.00)

     No symmetry found



   Cartesian axes

     site n.     atom                  positions (alat units)
         1           Ti1 tau(   1) = (   0.0004258   2.9801865   6.0000000  )
         2           Ti1 tau(   2) = (   3.2906075   1.4906267   6.0002472  )
         3           O1  tau(   3) = (   0.0006271   0.0005054   7.9858123  )
         4           O1  tau(   4) = (   3.2906025   0.0005020   7.3038282  )
         5           O1  tau(   5) = (   4.5942328   1.4918067   9.2879030  )
         6           O1  tau(   6) = (   1.9868534   1.4903216   9.2879459  )
         7           Ti1 tau(   7) = (   3.3371032   3.0268772   9.1887580  )
         8           Ti1 tau(   8) = (   0.0611061   1.5258697   9.2809523  )
         9           O1  tau(   9) = (   3.3143856   0.0188946  11.3581724  )
        10           O1  tau(  10) = (   0.0164151   0.0031400  10.5895864  )
        11           O1  tau(  11) = (   1.3088961   1.4994640  12.6347600  )
        12           O1  tau(  12) = (   5.3347766   1.4946156  12.6347356  )
        13           Ti1 tau(  13) = (   0.0202478   3.0292801  12.5720800  )
        14           Ti1 tau(  14) = (   3.3188568   1.5851219  12.4260843  )
        15           O1  tau(  15) = (   0.0445434   5.9450813  14.6510506  )
        16           O1  tau(  16) = (   3.3207065   5.8849141  14.0104376  )
        17           O1  tau(  17) = (   4.6249962   1.5116716  16.1313945  )
        18           O1  tau(  18) = (   2.0639035   1.5439872  16.0680944  )
        19           Ti1 tau(  19) = (   3.3360141   2.9454253  15.6763505  )
        20           Ti1 tau(  20) = (   0.0686920   1.3314864  15.9334539  )
        21           O1  tau(  21) = (   3.2904802   0.0005063   4.7018136  )
        22           O1  tau(  22) = (   0.0979609   0.0039778  17.1657837  )
        23           O1  tau(  23) = (   1.3043587   1.4918075   6.0039043  )
        24           O1  tau(  24) = (   5.2767064   1.4903225   6.0039473  )
        25           Ti1 tau(  25) = (   0.0000382   5.9609847   6.0000000  )
        26           Ti1 tau(  26) = (   3.2902200   4.4714249   6.0002472  )
        27           O1  tau(  27) = (   0.0002396   2.9813036   7.9858123  )
        28           O1  tau(  28) = (   3.2902150   2.9813002   7.3038282  )
        29           O1  tau(  29) = (   4.5938453   4.4726049   9.2879030  )
        30           O1  tau(  30) = (   1.9864658   4.4711199   9.2879459  )
        31           Ti1 tau(  31) = (   3.3368545   0.0404040   9.1664313  )
        32           Ti1 tau(  32) = (   0.0604674   4.4799263   9.2696248  )
        33           O1  tau(  33) = (   3.3137611   2.9662427  11.3084074  )
        34           O1  tau(  34) = (   0.0134136   2.9850836  10.6046154  )
        35           O1  tau(  35) = (   1.3054726   4.4719986  12.6384794  )
        36           O1  tau(  36) = (   5.3362180   4.4781181  12.6390536  )
        37           Ti1 tau(  37) = (   0.0365240   0.0487139  12.4702884  )
        38           Ti1 tau(  38) = (   3.3180881   4.6653017  12.7087268  )
        39           O1  tau(  39) = (   0.0228105   2.9918545  14.7761892  )
        40           O1  tau(  40) = (   3.3431522   2.9700269  13.9040455  )
        41           O1  tau(  41) = (   4.6265974   4.4152401  16.1544535  )
        42           O1  tau(  42) = (   2.0571238   4.3592187  16.1146037  )
        43           Ti1 tau(  43) = (   3.3848590   5.9294639  16.2700006  )
        44           Ti1 tau(  44) = (   0.0517009   4.5268197  15.8466567  )
        45           O1  tau(  45) = (   3.2900926   2.9813045   4.7018136  )
        46           O1  tau(  46) = (   1.3039711   4.4726057   6.0039043  )
        47           O1  tau(  47) = (   5.2763189   4.4711207   6.0039473  )
        48           C1  tau(  48) = (   5.9450987   3.0517216  18.8599509  )
        49           O1  tau(  49) = (   0.1802289   3.0084098  17.6484507  )
        50           H1  tau(  50) = (   4.9625852   2.6832861  18.5889656  )
        51           H1  tau(  51) = (   1.1163247   3.1442434  17.8758057  )
        52           H1  tau(  52) = (   6.3899442   2.3914015  19.6026461  )
        53           H1  tau(  53) = (   5.8846647   4.0795385  19.2151274  )
        54           N1  tau(  54) = (   5.7598779   3.1423611  22.9045362  )
        55           N1  tau(  55) = (   4.9845974   3.1850264  22.1203839  )
        56           O1  tau(  56) = (   3.1467188   0.0118795  18.1166202  )
        57           H1  tau(  57) = (   2.2164505   0.0865285  18.3868412  )

     number of k points=    10  Fermi-Dirac smearing, width (Ry)=  0.0073
                       cart. coord. in units 2pi/alat
        k(    1) = (   0.0000000   0.0000000   0.0000000), wk =   0.1250000
        k(    2) = (   0.0000000   0.0419351   0.0000000), wk =   0.2500000
        k(    3) = (   0.0000000  -0.0838702   0.0000000), wk =   0.1250000
        k(    4) = (   0.0379955   0.0000049   0.0000000), wk =   0.2500000
        k(    5) = (   0.0379955   0.0419400   0.0000000), wk =   0.2500000
        k(    6) = (   0.0379955  -0.0838652   0.0000000), wk =   0.2500000
        k(    7) = (   0.0379955  -0.0419301   0.0000000), wk =   0.2500000
        k(    8) = (  -0.0759910  -0.0000099   0.0000000), wk =   0.1250000
        k(    9) = (  -0.0759910   0.0419252   0.0000000), wk =   0.2500000
        k(   10) = (  -0.0759910  -0.0838800   0.0000000), wk =   0.1250000

     Dense  grid:   566857 G-vectors     FFT dimensions: (  72,  64, 270)

     Smooth grid:   143421 G-vectors     FFT dimensions: (  45,  40, 180)

     Estimated max dynamical RAM per process >     462.31 MB

     Estimated total dynamical RAM >       3.61 GB
     Cannot read rho : file not found

     Initial potential from superposition of free atoms

     starting charge  392.99914, renormalised to  409.00000

     negative rho (up, down):  9.142E-03 0.000E+00


     %%%%%%%%%%%%%%%%%%%%%%%%%%%%%%%%%%%%%%%%%%%%%%%%%%%%%%%%%%%%%%%%%%%%%%%%
     %                                                                      %
     % You are using vdW-DF, which was implemented by the Thonhauser group. %
     % Please cite the following two papers that made this development      %
     % possible and the two reviews that describe the various versions:     %
     %                                                                      %
     %   T. Thonhauser et al., PRL 115, 136402 (2015).                      %
     %   T. Thonhauser et al., PRB 76, 125112 (2007).                       %
     %   K. Berland et al., Rep. Prog. Phys. 78, 066501 (2015).             %
     %   D.C. Langreth et al., J. Phys.: Condens. Matter 21, 084203 (2009). %
     %                                                                      %
     %                                                                      %
     % If you are calculating the stress with vdW-DF, please also cite:     %
     %                                                                      %
     %   R. Sabatini et al., J. Phys.: Condens. Matter 24, 424209 (2012).   %
     %                                                                      %
     %%%%%%%%%%%%%%%%%%%%%%%%%%%%%%%%%%%%%%%%%%%%%%%%%%%%%%%%%%%%%%%%%%%%%%%%


 
     Adding external electric field

     Computed dipole along edir(3) : 
        Dipole              -18.8687 Ry au,        -47.9594 Debye
        Dipole field         -0.0356 Ry au, 
 
        Potential amp.        3.3008 Ry
        Total length         46.3494 bohr
 
     Starting wfcs are  309 atomic wfcs
  @ DRIVER MODE: Message from server: STATUS
  @ DRIVER MODE: Message from server: POSDATA
  @ DRIVER MODE: Reading and sharing cell 
  @ DRIVER MODE: Reading and sharing positions 
  @ DRIVER MODE: Received positions 

     total cpu time spent up to now is       24.2 secs

     Self-consistent Calculation

     iteration #  1     ecut=    29.40 Ry     beta= 0.05
     Davidson diagonalization with overlap
     c_bands:  5 eigenvalues not converged
     c_bands:  5 eigenvalues not converged
     c_bands:  1 eigenvalues not converged
     c_bands:  4 eigenvalues not converged
     c_bands:  1 eigenvalues not converged
     c_bands:  4 eigenvalues not converged
     ethr =  1.00E-05,  avg # of iterations = 27.3

     negative rho (up, down):  6.625E-03 0.000E+00
 
     Adding external electric field

     Computed dipole along edir(3) : 
        Dipole               65.1449 Ry au,        165.5817 Debye
        Dipole field          0.1229 Ry au, 
 
        Potential amp.      -11.3961 Ry
        Total length         46.3494 bohr
 

     total cpu time spent up to now is      176.4 secs

     total energy              =   -2113.19286419 Ry
     estimated scf accuracy    <   10331.04020730 Ry

     iteration #  2     ecut=    29.40 Ry     beta= 0.05
     Davidson diagonalization with overlap
     ethr =  1.00E-02,  avg # of iterations = 29.4

     negative rho (up, down):  1.099E-04 0.000E+00
 
     Adding external electric field

     Computed dipole along edir(3) : 
        Dipole               -2.1686 Ry au,         -5.5121 Debye
        Dipole field         -0.0041 Ry au, 
 
        Potential amp.        0.3794 Ry
        Total length         46.3494 bohr
 

     total cpu time spent up to now is      320.2 secs

     total energy              =   -2405.79966844 Ry
     estimated scf accuracy    <   87723.69780963 Ry

     iteration #  3     ecut=    29.40 Ry     beta= 0.05
     Davidson diagonalization with overlap
     ethr =  1.00E-02,  avg # of iterations = 16.9

     negative rho (up, down):  1.391E-04 0.000E+00
 
     Adding external electric field

     Computed dipole along edir(3) : 
        Dipole               -5.2810 Ry au,        -13.4229 Debye
        Dipole field         -0.0100 Ry au, 
 
        Potential amp.        0.9238 Ry
        Total length         46.3494 bohr
 

     total cpu time spent up to now is      449.8 secs

     total energy              =   -2997.59934537 Ry
     estimated scf accuracy    <    9424.90945228 Ry

     iteration #  4     ecut=    29.40 Ry     beta= 0.05
     Davidson diagonalization with overlap
     ethr =  1.00E-02,  avg # of iterations = 12.4

     negative rho (up, down):  1.474E-04 0.000E+00
 
     Adding external electric field

     Computed dipole along edir(3) : 
        Dipole               -6.4815 Ry au,        -16.4744 Debye
        Dipole field         -0.0122 Ry au, 
 
        Potential amp.        1.1338 Ry
        Total length         46.3494 bohr
 

     total cpu time spent up to now is      488.4 secs

     total energy              =   -3006.84244739 Ry
     estimated scf accuracy    <    2787.33305545 Ry

     iteration #  5     ecut=    29.40 Ry     beta= 0.05
     Davidson diagonalization with overlap
     ethr =  1.00E-02,  avg # of iterations =  3.9

     negative rho (up, down):  1.682E-04 0.000E+00
 
     Adding external electric field

     Computed dipole along edir(3) : 
        Dipole               -8.0410 Ry au,        -20.4383 Debye
        Dipole field         -0.0152 Ry au, 
 
        Potential amp.        1.4067 Ry
        Total length         46.3494 bohr
 

     total cpu time spent up to now is      503.8 secs

     total energy              =   -2970.35741646 Ry
     estimated scf accuracy    <    2665.47055364 Ry

     iteration #  6     ecut=    29.40 Ry     beta= 0.05
     Davidson diagonalization with overlap
     ethr =  1.00E-02,  avg # of iterations = 14.0

     negative rho (up, down):  1.511E-04 0.000E+00
 
     Adding external electric field

     Computed dipole along edir(3) : 
        Dipole               -5.3204 Ry au,        -13.5231 Debye
        Dipole field         -0.0100 Ry au, 
 
        Potential amp.        0.9307 Ry
        Total length         46.3494 bohr
 

     total cpu time spent up to now is      546.1 secs

     total energy              =   -3009.94985461 Ry
     estimated scf accuracy    <     187.13867323 Ry

     iteration #  7     ecut=    29.40 Ry     beta= 0.05
     Davidson diagonalization with overlap
     ethr =  1.00E-02,  avg # of iterations =  2.0

     negative rho (up, down):  1.454E-04 0.000E+00
 
     Adding external electric field

     Computed dipole along edir(3) : 
        Dipole               -3.3268 Ry au,         -8.4559 Debye
        Dipole field         -0.0063 Ry au, 
 
        Potential amp.        0.5820 Ry
        Total length         46.3494 bohr
 

     total cpu time spent up to now is      606.3 secs

     total energy              =   -3010.13713374 Ry
     estimated scf accuracy    <     112.20874755 Ry

     iteration #  8     ecut=    29.40 Ry     beta= 0.05
     Davidson diagonalization with overlap
     ethr =  1.00E-02,  avg # of iterations =  2.8

     negative rho (up, down):  1.435E-04 0.000E+00
 
     Adding external electric field

     Computed dipole along edir(3) : 
        Dipole               -2.3261 Ry au,         -5.9123 Debye
        Dipole field         -0.0044 Ry au, 
 
        Potential amp.        0.4069 Ry
        Total length         46.3494 bohr
 

     total cpu time spent up to now is      622.4 secs

     total energy              =   -3010.31105277 Ry
     estimated scf accuracy    <     127.18822469 Ry

     iteration #  9     ecut=    29.40 Ry     beta= 0.05
     Davidson diagonalization with overlap
     ethr =  1.00E-02,  avg # of iterations =  4.4

     negative rho (up, down):  1.470E-04 0.000E+00
 
     Adding external electric field

     Computed dipole along edir(3) : 
        Dipole               -3.0434 Ry au,         -7.7355 Debye
        Dipole field         -0.0057 Ry au, 
 
        Potential amp.        0.5324 Ry
        Total length         46.3494 bohr
 

     total cpu time spent up to now is      637.9 secs

     total energy              =   -3008.23869750 Ry
     estimated scf accuracy    <     287.11807164 Ry

     iteration # 10     ecut=    29.40 Ry     beta= 0.05
     Davidson diagonalization with overlap
     ethr =  1.00E-02,  avg # of iterations =  3.9

     negative rho (up, down):  1.558E-04 0.000E+00
 
     Adding external electric field

     Computed dipole along edir(3) : 
        Dipole                0.5436 Ry au,          1.3816 Debye
        Dipole field          0.0010 Ry au, 
 
        Potential amp.       -0.0951 Ry
        Total length         46.3494 bohr
 

     total cpu time spent up to now is      652.9 secs

     total energy              =   -3007.97576523 Ry
     estimated scf accuracy    <      59.03221840 Ry

     iteration # 11     ecut=    29.40 Ry     beta= 0.05
     Davidson diagonalization with overlap
     c_bands:  2 eigenvalues not converged
     ethr =  1.00E-02,  avg # of iterations = 10.8

     negative rho (up, down):  1.803E-04 0.000E+00
 
     Adding external electric field

     Computed dipole along edir(3) : 
        Dipole                1.2981 Ry au,          3.2996 Debye
        Dipole field          0.0024 Ry au, 
 
        Potential amp.       -0.2271 Ry
        Total length         46.3494 bohr
 

     total cpu time spent up to now is      707.4 secs

     total energy              =   -3011.07457715 Ry
     estimated scf accuracy    <    2177.10782096 Ry

     iteration # 12     ecut=    29.40 Ry     beta= 0.05
     Davidson diagonalization with overlap
     ethr =  1.00E-02,  avg # of iterations =  5.3

     negative rho (up, down):  2.018E-04 0.000E+00
 
     Adding external electric field

     Computed dipole along edir(3) : 
        Dipole                1.5808 Ry au,          4.0180 Debye
        Dipole field          0.0030 Ry au, 
 
        Potential amp.       -0.2765 Ry
        Total length         46.3494 bohr
 

     total cpu time spent up to now is      727.2 secs

     total energy              =   -3002.27867181 Ry
     estimated scf accuracy    <    1745.71789364 Ry

     iteration # 13     ecut=    29.40 Ry     beta= 0.05
     Davidson diagonalization with overlap
     ethr =  1.00E-02,  avg # of iterations =  9.4

     negative rho (up, down):  1.927E-04 0.000E+00
 
     Adding external electric field

     Computed dipole along edir(3) : 
        Dipole                2.4140 Ry au,          6.1358 Debye
        Dipole field          0.0046 Ry au, 
 
        Potential amp.       -0.4223 Ry
        Total length         46.3494 bohr
 

     total cpu time spent up to now is      749.6 secs

     total energy              =   -3016.51870412 Ry
     estimated scf accuracy    <     705.09035746 Ry

     iteration # 14     ecut=    29.40 Ry     beta= 0.05
     Davidson diagonalization with overlap
     ethr =  1.00E-02,  avg # of iterations =  2.7

     negative rho (up, down):  1.863E-04 0.000E+00
 
     Adding external electric field

     Computed dipole along edir(3) : 
        Dipole               -3.2104 Ry au,         -8.1600 Debye
        Dipole field         -0.0061 Ry au, 
 
        Potential amp.        0.5616 Ry
        Total length         46.3494 bohr
 

     total cpu time spent up to now is      765.3 secs

     total energy              =   -2999.64634238 Ry
     estimated scf accuracy    <    1645.76963146 Ry

     iteration # 15     ecut=    29.40 Ry     beta= 0.05
     Davidson diagonalization with overlap
     ethr =  1.00E-02,  avg # of iterations =  3.3

     negative rho (up, down):  1.932E-04 0.000E+00
 
     Adding external electric field

     Computed dipole along edir(3) : 
        Dipole               -4.5447 Ry au,        -11.5516 Debye
        Dipole field         -0.0086 Ry au, 
 
        Potential amp.        0.7950 Ry
        Total length         46.3494 bohr
 

     total cpu time spent up to now is      781.8 secs

     total energy              =   -3006.33745402 Ry
     estimated scf accuracy    <     292.31521627 Ry

     iteration # 16     ecut=    29.40 Ry     beta= 0.05
     Davidson diagonalization with overlap
     ethr =  1.00E-02,  avg # of iterations =  3.7

     negative rho (up, down):  2.102E-04 0.000E+00
 
     Adding external electric field

     Computed dipole along edir(3) : 
        Dipole               -6.1483 Ry au,        -15.6275 Debye
        Dipole field         -0.0116 Ry au, 
 
        Potential amp.        1.0756 Ry
        Total length         46.3494 bohr
 

     total cpu time spent up to now is      797.6 secs

     total energy              =   -3003.34969062 Ry
     estimated scf accuracy    <     247.94646248 Ry

     iteration # 17     ecut=    29.40 Ry     beta= 0.05
     Davidson diagonalization with overlap
     ethr =  1.00E-02,  avg # of iterations = 10.4

     negative rho (up, down):  2.621E-04 0.000E+00
 
     Adding external electric field

     Computed dipole along edir(3) : 
        Dipole               -4.9528 Ry au,        -12.5888 Debye
        Dipole field         -0.0093 Ry au, 
 
        Potential amp.        0.8664 Ry
        Total length         46.3494 bohr
 

     total cpu time spent up to now is      817.5 secs

     total energy              =   -3004.66854847 Ry
     estimated scf accuracy    <     100.56862055 Ry

     iteration # 18     ecut=    29.40 Ry     beta= 0.05
     Davidson diagonalization with overlap
     ethr =  1.00E-02,  avg # of iterations =  2.9

     negative rho (up, down):  5.420E-04 0.000E+00
 
     Adding external electric field

     Computed dipole along edir(3) : 
        Dipole               -0.1245 Ry au,         -0.3165 Debye
        Dipole field         -0.0002 Ry au, 
 
        Potential amp.        0.0218 Ry
        Total length         46.3494 bohr
 

     total cpu time spent up to now is      832.4 secs

     total energy              =   -2997.77635661 Ry
     estimated scf accuracy    <      43.98295063 Ry

     iteration # 19     ecut=    29.40 Ry     beta= 0.05
     Davidson diagonalization with overlap
     ethr =  1.00E-02,  avg # of iterations = 13.2

     negative rho (up, down):  3.786E-04 0.000E+00
 
     Adding external electric field

     Computed dipole along edir(3) : 
        Dipole               -0.3721 Ry au,         -0.9458 Debye
        Dipole field         -0.0007 Ry au, 
 
        Potential amp.        0.0651 Ry
        Total length         46.3494 bohr
 

     total cpu time spent up to now is      863.7 secs

     total energy              =   -3007.25981891 Ry
     estimated scf accuracy    <    1858.11874722 Ry

     iteration # 20     ecut=    29.40 Ry     beta= 0.05
     Davidson diagonalization with overlap
     ethr =  1.00E-02,  avg # of iterations =  2.4

     negative rho (up, down):  3.877E-04 0.000E+00
 
     Adding external electric field

     Computed dipole along edir(3) : 
        Dipole               -0.3472 Ry au,         -0.8825 Debye
        Dipole field         -0.0007 Ry au, 
 
        Potential amp.        0.0607 Ry
        Total length         46.3494 bohr
 

     total cpu time spent up to now is      878.6 secs

     total energy              =   -3009.49697544 Ry
     estimated scf accuracy    <     843.64692402 Ry

     iteration # 21     ecut=    29.40 Ry     beta= 0.05
     Davidson diagonalization with overlap
     ethr =  1.00E-02,  avg # of iterations =  1.0

     negative rho (up, down):  3.839E-04 0.000E+00
 
     Adding external electric field

     Computed dipole along edir(3) : 
        Dipole               -0.2105 Ry au,         -0.5351 Debye
        Dipole field         -0.0004 Ry au, 
 
        Potential amp.        0.0368 Ry
        Total length         46.3494 bohr
 

     total cpu time spent up to now is      892.7 secs

     total energy              =   -3013.90353760 Ry
     estimated scf accuracy    <     821.99741719 Ry

     iteration # 22     ecut=    29.40 Ry     beta= 0.05
     Davidson diagonalization with overlap
     ethr =  1.00E-02,  avg # of iterations =  1.0

     negative rho (up, down):  3.895E-04 0.000E+00
 
     Adding external electric field

     Computed dipole along edir(3) : 
        Dipole               -0.3155 Ry au,         -0.8020 Debye
        Dipole field         -0.0006 Ry au, 
 
        Potential amp.        0.0552 Ry
        Total length         46.3494 bohr
 

     total cpu time spent up to now is      913.1 secs

     total energy              =   -3015.41101109 Ry
     estimated scf accuracy    <    1015.90918197 Ry

     iteration # 23     ecut=    29.40 Ry     beta= 0.05
     Davidson diagonalization with overlap
     ethr =  1.00E-02,  avg # of iterations =  1.2

     negative rho (up, down):  4.699E-04 0.000E+00
 
     Adding external electric field

     Computed dipole along edir(3) : 
        Dipole               -0.8923 Ry au,         -2.2681 Debye
        Dipole field         -0.0017 Ry au, 
 
        Potential amp.        0.1561 Ry
        Total length         46.3494 bohr
 

     total cpu time spent up to now is      938.1 secs

     total energy              =   -3012.44623485 Ry
     estimated scf accuracy    <    1147.69541374 Ry

     iteration # 24     ecut=    29.40 Ry     beta= 0.05
     Davidson diagonalization with overlap
     ethr =  1.00E-02,  avg # of iterations =  1.1

     negative rho (up, down):  2.321E-04 0.000E+00
 
     Adding external electric field

     Computed dipole along edir(3) : 
        Dipole               -1.4743 Ry au,         -3.7473 Debye
        Dipole field         -0.0028 Ry au, 
 
        Potential amp.        0.2579 Ry
        Total length         46.3494 bohr
 

     total cpu time spent up to now is      951.7 secs

     total energy              =   -3011.52687185 Ry
     estimated scf accuracy    <     947.69716225 Ry

     iteration # 25     ecut=    29.40 Ry     beta= 0.05
     Davidson diagonalization with overlap
     ethr =  1.00E-02,  avg # of iterations =  1.1

     negative rho (up, down):  1.471E-04 0.000E+00
 
     Adding external electric field

     Computed dipole along edir(3) : 
        Dipole               -0.7375 Ry au,         -1.8745 Debye
        Dipole field         -0.0014 Ry au, 
 
        Potential amp.        0.1290 Ry
        Total length         46.3494 bohr
 

     total cpu time spent up to now is      965.3 secs

     total energy              =   -3014.61266279 Ry
     estimated scf accuracy    <     958.11223786 Ry

     iteration # 26     ecut=    29.40 Ry     beta= 0.05
     Davidson diagonalization with overlap
     ethr =  1.00E-02,  avg # of iterations =  1.0

     negative rho (up, down):  9.052E-05 0.000E+00
 
     Adding external electric field

     Computed dipole along edir(3) : 
        Dipole               -0.2329 Ry au,         -0.5919 Debye
        Dipole field         -0.0004 Ry au, 
 
        Potential amp.        0.0407 Ry
        Total length         46.3494 bohr
 

     total cpu time spent up to now is      979.5 secs

     total energy              =   -2989.76264861 Ry
     estimated scf accuracy    <    1470.74567915 Ry

     iteration # 27     ecut=    29.40 Ry     beta= 0.05
     Davidson diagonalization with overlap
     ethr =  1.00E-02,  avg # of iterations = 15.4

     negative rho (up, down):  2.334E-04 0.000E+00
 
     Adding external electric field

     Computed dipole along edir(3) : 
        Dipole                1.4123 Ry au,          3.5896 Debye
        Dipole field          0.0027 Ry au, 
 
        Potential amp.       -0.2471 Ry
        Total length         46.3494 bohr
 

     total cpu time spent up to now is     1006.0 secs

     total energy              =   -3007.02578319 Ry
     estimated scf accuracy    <      10.25039106 Ry

     iteration # 28     ecut=    29.40 Ry     beta= 0.05
     Davidson diagonalization with overlap
     ethr =  2.51E-03,  avg # of iterations =  2.8

     negative rho (up, down):  4.579E-05 0.000E+00
 
     Adding external electric field

     Computed dipole along edir(3) : 
        Dipole                1.1769 Ry au,          2.9914 Debye
        Dipole field          0.0022 Ry au, 
 
        Potential amp.       -0.2059 Ry
        Total length         46.3494 bohr
 

     total cpu time spent up to now is     1032.6 secs

     total energy              =   -3006.72207547 Ry
     estimated scf accuracy    <      56.65722734 Ry

     iteration # 29     ecut=    29.40 Ry     beta= 0.05
     Davidson diagonalization with overlap
     ethr =  2.51E-03,  avg # of iterations =  3.8

     negative rho (up, down):  3.743E-05 0.000E+00
 
     Adding external electric field

     Computed dipole along edir(3) : 
        Dipole                1.1392 Ry au,          2.8955 Debye
        Dipole field          0.0021 Ry au, 
 
        Potential amp.       -0.1993 Ry
        Total length         46.3494 bohr
 

     total cpu time spent up to now is     1048.0 secs

     total energy              =   -3008.08161384 Ry
     estimated scf accuracy    <      47.47535131 Ry

     iteration # 30     ecut=    29.40 Ry     beta= 0.05
     Davidson diagonalization with overlap
     ethr =  2.51E-03,  avg # of iterations =  1.0

     negative rho (up, down):  8.718E-05 0.000E+00
 
     Adding external electric field

     Computed dipole along edir(3) : 
        Dipole               -0.5341 Ry au,         -1.3576 Debye
        Dipole field         -0.0010 Ry au, 
 
        Potential amp.        0.0934 Ry
        Total length         46.3494 bohr
 

     total cpu time spent up to now is     1061.4 secs

     total energy              =   -3006.97848865 Ry
     estimated scf accuracy    <      33.95068623 Ry

     iteration # 31     ecut=    29.40 Ry     beta= 0.05
     Davidson diagonalization with overlap
     ethr =  2.51E-03,  avg # of iterations =  1.1

     negative rho (up, down):  1.611E-04 0.000E+00
 
     Adding external electric field

     Computed dipole along edir(3) : 
        Dipole                0.1510 Ry au,          0.3837 Debye
        Dipole field          0.0003 Ry au, 
 
        Potential amp.       -0.0264 Ry
        Total length         46.3494 bohr
 

     total cpu time spent up to now is     1075.6 secs

     total energy              =   -3007.22009129 Ry
     estimated scf accuracy    <       7.43967311 Ry

     iteration # 32     ecut=    29.40 Ry     beta= 0.05
     Davidson diagonalization with overlap
     ethr =  1.82E-03,  avg # of iterations =  1.2

     negative rho (up, down):  8.492E-04 0.000E+00
 
     Adding external electric field

     Computed dipole along edir(3) : 
        Dipole                1.0727 Ry au,          2.7266 Debye
        Dipole field          0.0020 Ry au, 
 
        Potential amp.       -0.1877 Ry
        Total length         46.3494 bohr
 

     total cpu time spent up to now is     1089.6 secs

     total energy              =   -3006.67597057 Ry
     estimated scf accuracy    <       6.64907413 Ry

     iteration # 33     ecut=    29.40 Ry     beta= 0.05
     Davidson diagonalization with overlap
     ethr =  1.63E-03,  avg # of iterations =  9.9

     negative rho (up, down):  9.270E-04 0.000E+00
 
     Adding external electric field

     Computed dipole along edir(3) : 
        Dipole                0.4154 Ry au,          1.0558 Debye
        Dipole field          0.0008 Ry au, 
 
        Potential amp.       -0.0727 Ry
        Total length         46.3494 bohr
 

     total cpu time spent up to now is     1109.5 secs

     total energy              =   -3007.05021534 Ry
     estimated scf accuracy    <      29.84096432 Ry

     iteration # 34     ecut=    29.40 Ry     beta= 0.05
     Davidson diagonalization with overlap
     ethr =  1.63E-03,  avg # of iterations =  4.3

     negative rho (up, down):  2.599E-04 0.000E+00
 
     Adding external electric field

     Computed dipole along edir(3) : 
        Dipole                1.2553 Ry au,          3.1907 Debye
        Dipole field          0.0024 Ry au, 
 
        Potential amp.       -0.2196 Ry
        Total length         46.3494 bohr
 

     total cpu time spent up to now is     1125.7 secs

     total energy              =   -3007.71347275 Ry
     estimated scf accuracy    <      20.25940391 Ry

     iteration # 35     ecut=    29.40 Ry     beta= 0.05
     Davidson diagonalization with overlap
     c_bands:  1 eigenvalues not converged
     c_bands:  2 eigenvalues not converged
     c_bands:  2 eigenvalues not converged
     c_bands:  2 eigenvalues not converged
     c_bands:  2 eigenvalues not converged
     ethr =  1.63E-03,  avg # of iterations = 12.5

     negative rho (up, down):  3.113E-04 0.000E+00
 
     Adding external electric field

     Computed dipole along edir(3) : 
        Dipole                1.5383 Ry au,          3.9099 Debye
        Dipole field          0.0029 Ry au, 
 
        Potential amp.       -0.2691 Ry
        Total length         46.3494 bohr
 

     total cpu time spent up to now is     1144.7 secs

     total energy              =   -3006.15764839 Ry
     estimated scf accuracy    <      52.40970683 Ry

     iteration # 36     ecut=    29.40 Ry     beta= 0.05
     Davidson diagonalization with overlap
     ethr =  1.63E-03,  avg # of iterations =  4.1

     negative rho (up, down):  3.191E-04 0.000E+00
 
     Adding external electric field

     Computed dipole along edir(3) : 
        Dipole                1.7069 Ry au,          4.3385 Debye
        Dipole field          0.0032 Ry au, 
 
        Potential amp.       -0.2986 Ry
        Total length         46.3494 bohr
 

     total cpu time spent up to now is     1162.0 secs

     total energy              =   -3006.98034952 Ry
     estimated scf accuracy    <      14.22269523 Ry

     iteration # 37     ecut=    29.40 Ry     beta= 0.05
     Davidson diagonalization with overlap
     ethr =  1.63E-03,  avg # of iterations =  3.1

     negative rho (up, down):  1.593E-04 0.000E+00
 
     Adding external electric field

     Computed dipole along edir(3) : 
        Dipole                1.2572 Ry au,          3.1954 Debye
        Dipole field          0.0024 Ry au, 
 
        Potential amp.       -0.2199 Ry
        Total length         46.3494 bohr
 

     total cpu time spent up to now is     1177.4 secs

     total energy              =   -3006.73708148 Ry
     estimated scf accuracy    <      16.70052699 Ry

     iteration # 38     ecut=    29.40 Ry     beta= 0.05
     Davidson diagonalization with overlap
     ethr =  1.63E-03,  avg # of iterations =  4.6

     negative rho (up, down):  1.186E-04 0.000E+00
 
     Adding external electric field

     Computed dipole along edir(3) : 
        Dipole                1.0753 Ry au,          2.7330 Debye
        Dipole field          0.0020 Ry au, 
 
        Potential amp.       -0.1881 Ry
        Total length         46.3494 bohr
 

     total cpu time spent up to now is     1193.6 secs

     total energy              =   -3006.65085470 Ry
     estimated scf accuracy    <      14.10565208 Ry

     iteration # 39     ecut=    29.40 Ry     beta= 0.05
     Davidson diagonalization with overlap
     ethr =  1.63E-03,  avg # of iterations =  1.2

     negative rho (up, down):  1.201E-04 0.000E+00
 
     Adding external electric field

     Computed dipole along edir(3) : 
        Dipole                1.0351 Ry au,          2.6309 Debye
        Dipole field          0.0020 Ry au, 
 
        Potential amp.       -0.1811 Ry
        Total length         46.3494 bohr
 

     total cpu time spent up to now is     1207.2 secs

     total energy              =   -3006.61734396 Ry
     estimated scf accuracy    <      15.76908972 Ry

     iteration # 40     ecut=    29.40 Ry     beta= 0.05
     Davidson diagonalization with overlap
     ethr =  1.63E-03,  avg # of iterations =  1.0

     negative rho (up, down):  1.842E-04 0.000E+00
 
     Adding external electric field

     Computed dipole along edir(3) : 
        Dipole                1.0931 Ry au,          2.7783 Debye
        Dipole field          0.0021 Ry au, 
 
        Potential amp.       -0.1912 Ry
        Total length         46.3494 bohr
 

     total cpu time spent up to now is     1220.7 secs

     total energy              =   -3006.53838543 Ry
     estimated scf accuracy    <       7.48290522 Ry

     iteration # 41     ecut=    29.40 Ry     beta= 0.05
     Davidson diagonalization with overlap
     ethr =  1.63E-03,  avg # of iterations =  1.0

     negative rho (up, down):  2.438E-04 0.000E+00
 
     Adding external electric field

     Computed dipole along edir(3) : 
        Dipole                0.8786 Ry au,          2.2333 Debye
        Dipole field          0.0017 Ry au, 
 
        Potential amp.       -0.1537 Ry
        Total length         46.3494 bohr
 

     total cpu time spent up to now is     1234.8 secs

     total energy              =   -3006.44507933 Ry
     estimated scf accuracy    <       2.73783012 Ry

     iteration # 42     ecut=    29.40 Ry     beta= 0.05
     Davidson diagonalization with overlap
     ethr =  6.69E-04,  avg # of iterations =  2.0

     negative rho (up, down):  3.384E-04 0.000E+00
 
     Adding external electric field

     Computed dipole along edir(3) : 
        Dipole                0.7230 Ry au,          1.8378 Debye
        Dipole field          0.0014 Ry au, 
 
        Potential amp.       -0.1265 Ry
        Total length         46.3494 bohr
 

     total cpu time spent up to now is     1249.2 secs

     total energy              =   -3006.41296358 Ry
     estimated scf accuracy    <       1.34477897 Ry

     iteration # 43     ecut=    29.40 Ry     beta= 0.05
     Davidson diagonalization with overlap
     ethr =  3.29E-04,  avg # of iterations = 10.5

     negative rho (up, down):  3.317E-04 0.000E+00
 
     Adding external electric field

     Computed dipole along edir(3) : 
        Dipole                0.7786 Ry au,          1.9791 Debye
        Dipole field          0.0015 Ry au, 
 
        Potential amp.       -0.1362 Ry
        Total length         46.3494 bohr
 

     total cpu time spent up to now is     1272.7 secs

     total energy              =   -3006.47875403 Ry
     estimated scf accuracy    <       0.36712625 Ry

     iteration # 44     ecut=    29.40 Ry     beta= 0.05
     Davidson diagonalization with overlap
     c_bands:  1 eigenvalues not converged
     c_bands:  2 eigenvalues not converged
     c_bands:  2 eigenvalues not converged
     c_bands:  4 eigenvalues not converged
     c_bands:  2 eigenvalues not converged
     c_bands:  2 eigenvalues not converged
     ethr =  8.98E-05,  avg # of iterations = 18.2

     negative rho (up, down):  3.490E-04 0.000E+00
 
     Adding external electric field

     Computed dipole along edir(3) : 
        Dipole                0.7881 Ry au,          2.0032 Debye
        Dipole field          0.0015 Ry au, 
 
        Potential amp.       -0.1379 Ry
        Total length         46.3494 bohr
 

     total cpu time spent up to now is     1352.6 secs

     total energy              =   -3006.49515256 Ry
     estimated scf accuracy    <       0.38973344 Ry

     iteration # 45     ecut=    29.40 Ry     beta= 0.05
     Davidson diagonalization with overlap
     ethr =  8.98E-05,  avg # of iterations =  1.6

     negative rho (up, down):  3.119E-04 0.000E+00
 
     Adding external electric field

     Computed dipole along edir(3) : 
        Dipole                0.8899 Ry au,          2.2619 Debye
        Dipole field          0.0017 Ry au, 
 
        Potential amp.       -0.1557 Ry
        Total length         46.3494 bohr
 

     total cpu time spent up to now is     1392.7 secs

     total energy              =   -3006.49592539 Ry
     estimated scf accuracy    <       0.39291649 Ry

     iteration # 46     ecut=    29.40 Ry     beta= 0.05
     Davidson diagonalization with overlap
     ethr =  8.98E-05,  avg # of iterations =  1.0

     negative rho (up, down):  3.501E-04 0.000E+00
 
     Adding external electric field

     Computed dipole along edir(3) : 
        Dipole                0.6986 Ry au,          1.7757 Debye
        Dipole field          0.0013 Ry au, 
 
        Potential amp.       -0.1222 Ry
        Total length         46.3494 bohr
 

     total cpu time spent up to now is     1431.4 secs

     total energy              =   -3006.49298309 Ry
     estimated scf accuracy    <       0.32922669 Ry

     iteration # 47     ecut=    29.40 Ry     beta= 0.05
     Davidson diagonalization with overlap
     c_bands:  5 eigenvalues not converged
     c_bands:  2 eigenvalues not converged
     c_bands:  5 eigenvalues not converged
     c_bands:  3 eigenvalues not converged
     c_bands:  1 eigenvalues not converged
     ethr =  8.05E-05,  avg # of iterations = 15.5

     negative rho (up, down):  4.392E-04 0.000E+00
 
     Adding external electric field

     Computed dipole along edir(3) : 
        Dipole                0.4343 Ry au,          1.1040 Debye
        Dipole field          0.0008 Ry au, 
 
        Potential amp.       -0.0760 Ry
        Total length         46.3494 bohr
 

     total cpu time spent up to now is     1452.9 secs

     total energy              =   -3006.50755685 Ry
     estimated scf accuracy    <       0.53523286 Ry

     iteration # 48     ecut=    29.40 Ry     beta= 0.05
     Davidson diagonalization with overlap
     c_bands:  1 eigenvalues not converged
     ethr =  8.05E-05,  avg # of iterations =  7.7

     negative rho (up, down):  4.862E-04 0.000E+00
 
     Adding external electric field

     Computed dipole along edir(3) : 
        Dipole                0.7679 Ry au,          1.9517 Debye
        Dipole field          0.0014 Ry au, 
 
        Potential amp.       -0.1343 Ry
        Total length         46.3494 bohr
 

     total cpu time spent up to now is     1470.0 secs

     total energy              =   -3006.51454355 Ry
     estimated scf accuracy    <       0.47959771 Ry

     iteration # 49     ecut=    29.40 Ry     beta= 0.05
     Davidson diagonalization with overlap
     c_bands:  2 eigenvalues not converged
     c_bands:  2 eigenvalues not converged
     ethr =  8.05E-05,  avg # of iterations = 10.6

     negative rho (up, down):  5.395E-04 0.000E+00
 
     Adding external electric field

     Computed dipole along edir(3) : 
        Dipole                0.8620 Ry au,          2.1910 Debye
        Dipole field          0.0016 Ry au, 
 
        Potential amp.       -0.1508 Ry
        Total length         46.3494 bohr
 

     total cpu time spent up to now is     1490.8 secs

     total energy              =   -3006.54901631 Ry
     estimated scf accuracy    <       0.57470731 Ry

     iteration # 50     ecut=    29.40 Ry     beta= 0.05
     Davidson diagonalization with overlap
     c_bands:  2 eigenvalues not converged
     c_bands:  3 eigenvalues not converged
     c_bands:  5 eigenvalues not converged
     c_bands:  4 eigenvalues not converged
     c_bands:  3 eigenvalues not converged
     c_bands:  4 eigenvalues not converged
     c_bands:  4 eigenvalues not converged
     c_bands:  5 eigenvalues not converged
     c_bands:  2 eigenvalues not converged
     ethr =  8.05E-05,  avg # of iterations = 20.2

     negative rho (up, down):  4.028E-04 0.000E+00
 
     Adding external electric field

     Computed dipole along edir(3) : 
        Dipole                1.1499 Ry au,          2.9227 Debye
        Dipole field          0.0022 Ry au, 
 
        Potential amp.       -0.2012 Ry
        Total length         46.3494 bohr
 

     total cpu time spent up to now is     1538.9 secs

     total energy              =   -3006.47168639 Ry
     estimated scf accuracy    <       0.75198757 Ry

     iteration # 51     ecut=    29.40 Ry     beta= 0.05
     Davidson diagonalization with overlap
     c_bands:  1 eigenvalues not converged
     c_bands:  3 eigenvalues not converged
     ethr =  8.05E-05,  avg # of iterations = 14.8

     negative rho (up, down):  5.007E-04 0.000E+00
 
     Adding external electric field

     Computed dipole along edir(3) : 
        Dipole                1.4540 Ry au,          3.6958 Debye
        Dipole field          0.0027 Ry au, 
 
        Potential amp.       -0.2544 Ry
        Total length         46.3494 bohr
 

     total cpu time spent up to now is     1601.0 secs

     total energy              =   -3006.41259322 Ry
     estimated scf accuracy    <       0.42747130 Ry

     iteration # 52     ecut=    29.40 Ry     beta= 0.05
     Davidson diagonalization with overlap
     c_bands:  1 eigenvalues not converged
     c_bands:  2 eigenvalues not converged
     c_bands:  2 eigenvalues not converged
     c_bands:  1 eigenvalues not converged
     c_bands:  1 eigenvalues not converged
     c_bands:  2 eigenvalues not converged
     ethr =  8.05E-05,  avg # of iterations = 18.0

     negative rho (up, down):  6.367E-04 0.000E+00
 
     Adding external electric field

     Computed dipole along edir(3) : 
        Dipole                1.5751 Ry au,          4.0035 Debye
        Dipole field          0.0030 Ry au, 
 
        Potential amp.       -0.2755 Ry
        Total length         46.3494 bohr
 

     total cpu time spent up to now is     1644.4 secs

     total energy              =   -3006.51453774 Ry
     estimated scf accuracy    <       0.60542397 Ry

     iteration # 53     ecut=    29.40 Ry     beta= 0.05
     Davidson diagonalization with overlap
     ethr =  8.05E-05,  avg # of iterations =  3.2

     negative rho (up, down):  1.067E-03 0.000E+00
 
     Adding external electric field

     Computed dipole along edir(3) : 
        Dipole                0.9952 Ry au,          2.5295 Debye
        Dipole field          0.0019 Ry au, 
 
        Potential amp.       -0.1741 Ry
        Total length         46.3494 bohr
 

     total cpu time spent up to now is     1659.1 secs

     total energy              =   -3006.46947777 Ry
     estimated scf accuracy    <       0.53868513 Ry

     iteration # 54     ecut=    29.40 Ry     beta= 0.05
     Davidson diagonalization with overlap
     ethr =  8.05E-05,  avg # of iterations =  4.1

     negative rho (up, down):  1.644E-03 0.000E+00
 
     Adding external electric field

     Computed dipole along edir(3) : 
        Dipole                0.7473 Ry au,          1.8995 Debye
        Dipole field          0.0014 Ry au, 
 
        Potential amp.       -0.1307 Ry
        Total length         46.3494 bohr
 

     total cpu time spent up to now is     1675.0 secs

     total energy              =   -3006.43722516 Ry
     estimated scf accuracy    <       0.60052694 Ry

     iteration # 55     ecut=    29.40 Ry     beta= 0.05
     Davidson diagonalization with overlap
     c_bands:  2 eigenvalues not converged
     c_bands:  2 eigenvalues not converged
     c_bands:  1 eigenvalues not converged
     c_bands:  1 eigenvalues not converged
     c_bands:  4 eigenvalues not converged
     c_bands:  3 eigenvalues not converged
     c_bands:  1 eigenvalues not converged
     c_bands:  4 eigenvalues not converged
     ethr =  8.05E-05,  avg # of iterations = 21.5

     negative rho (up, down):  1.225E-03 0.000E+00
 
     Adding external electric field

     Computed dipole along edir(3) : 
        Dipole                0.9329 Ry au,          2.3712 Debye
        Dipole field          0.0018 Ry au, 
 
        Potential amp.       -0.1632 Ry
        Total length         46.3494 bohr
 

     total cpu time spent up to now is     1703.1 secs

     total energy              =   -3006.45498006 Ry
     estimated scf accuracy    <       0.09397506 Ry

     iteration # 56     ecut=    29.40 Ry     beta= 0.05
     Davidson diagonalization with overlap
     c_bands:  3 eigenvalues not converged
     c_bands:  2 eigenvalues not converged
     c_bands:  1 eigenvalues not converged
     c_bands:  1 eigenvalues not converged
     c_bands:  3 eigenvalues not converged
     c_bands:  1 eigenvalues not converged
     c_bands:  1 eigenvalues not converged
     ethr =  2.30E-05,  avg # of iterations = 19.1

     negative rho (up, down):  1.449E-03 0.000E+00
 
     Adding external electric field

     Computed dipole along edir(3) : 
        Dipole                1.2968 Ry au,          3.2960 Debye
        Dipole field          0.0024 Ry au, 
 
        Potential amp.       -0.2268 Ry
        Total length         46.3494 bohr
 

     total cpu time spent up to now is     1799.5 secs

     total energy              =   -3006.45614463 Ry
     estimated scf accuracy    <       0.16841241 Ry

     iteration # 57     ecut=    29.40 Ry     beta= 0.05
     Davidson diagonalization with overlap
     c_bands:  1 eigenvalues not converged
     c_bands:  1 eigenvalues not converged
     ethr =  2.30E-05,  avg # of iterations = 11.7

     negative rho (up, down):  1.782E-03 0.000E+00
 
     Adding external electric field

     Computed dipole along edir(3) : 
        Dipole                1.2411 Ry au,          3.1546 Debye
        Dipole field          0.0023 Ry au, 
 
        Potential amp.       -0.2171 Ry
        Total length         46.3494 bohr
 

     total cpu time spent up to now is     1830.2 secs

     total energy              =   -3006.45815386 Ry
     estimated scf accuracy    <       0.03213712 Ry

     iteration # 58     ecut=    29.40 Ry     beta= 0.05
     Davidson diagonalization with overlap
     c_bands:  2 eigenvalues not converged
     c_bands:  1 eigenvalues not converged
     c_bands:  4 eigenvalues not converged
     c_bands:  3 eigenvalues not converged
     c_bands:  1 eigenvalues not converged
     c_bands:  1 eigenvalues not converged
     ethr =  7.86E-06,  avg # of iterations = 20.8

     negative rho (up, down):  2.151E-03 0.000E+00
 
     Adding external electric field

     Computed dipole along edir(3) : 
        Dipole                1.1392 Ry au,          2.8955 Debye
        Dipole field          0.0021 Ry au, 
 
        Potential amp.       -0.1993 Ry
        Total length         46.3494 bohr
 

     total cpu time spent up to now is     1899.6 secs

     total energy              =   -3006.45511506 Ry
     estimated scf accuracy    <       0.03989870 Ry

     iteration # 59     ecut=    29.40 Ry     beta= 0.05
     Davidson diagonalization with overlap
     c_bands:  1 eigenvalues not converged
     c_bands:  1 eigenvalues not converged
     c_bands:  1 eigenvalues not converged
     c_bands:  1 eigenvalues not converged
     ethr =  7.86E-06,  avg # of iterations = 16.7

     negative rho (up, down):  2.901E-03 0.000E+00
 
     Adding external electric field

     Computed dipole along edir(3) : 
        Dipole                1.1192 Ry au,          2.8446 Debye
        Dipole field          0.0021 Ry au, 
 
        Potential amp.       -0.1958 Ry
        Total length         46.3494 bohr
 

     total cpu time spent up to now is     2018.2 secs

     total energy              =   -3006.45614985 Ry
     estimated scf accuracy    <       0.03021025 Ry

     iteration # 60     ecut=    29.40 Ry     beta= 0.05
     Davidson diagonalization with overlap
     ethr =  7.39E-06,  avg # of iterations = 15.2

     negative rho (up, down):  5.156E-03 0.000E+00
 
     Adding external electric field

     Computed dipole along edir(3) : 
        Dipole                1.2197 Ry au,          3.1003 Debye
        Dipole field          0.0023 Ry au, 
 
        Potential amp.       -0.2134 Ry
        Total length         46.3494 bohr
 

     total cpu time spent up to now is     2090.0 secs

     total energy              =   -3006.45802773 Ry
     estimated scf accuracy    <       0.01758828 Ry

     iteration # 61     ecut=    29.40 Ry     beta= 0.05
     Davidson diagonalization with overlap
     c_bands:  2 eigenvalues not converged
     c_bands:  1 eigenvalues not converged
     ethr =  4.30E-06,  avg # of iterations = 14.5

     negative rho (up, down):  6.754E-03 0.000E+00
 
     Adding external electric field

     Computed dipole along edir(3) : 
        Dipole                1.0499 Ry au,          2.6687 Debye
        Dipole field          0.0020 Ry au, 
 
        Potential amp.       -0.1837 Ry
        Total length         46.3494 bohr
 

     total cpu time spent up to now is     2126.5 secs

     total energy              =   -3006.45717610 Ry
     estimated scf accuracy    <       0.01435752 Ry

     iteration # 62     ecut=    29.40 Ry     beta= 0.05
     Davidson diagonalization with overlap
     c_bands:  1 eigenvalues not converged
     ethr =  3.51E-06,  avg # of iterations = 13.1

     negative rho (up, down):  6.813E-03 0.000E+00
 
     Adding external electric field

     Computed dipole along edir(3) : 
        Dipole                0.9523 Ry au,          2.4205 Debye
        Dipole field          0.0018 Ry au, 
 
        Potential amp.       -0.1666 Ry
        Total length         46.3494 bohr
 

     total cpu time spent up to now is     2158.6 secs

     total energy              =   -3006.45837284 Ry
     estimated scf accuracy    <       0.00420235 Ry

     iteration # 63     ecut=    29.40 Ry     beta= 0.05
     Davidson diagonalization with overlap
     c_bands:  1 eigenvalues not converged
     c_bands:  1 eigenvalues not converged
     ethr =  1.03E-06,  avg # of iterations = 14.5

     negative rho (up, down):  8.028E-03 0.000E+00
 
     Adding external electric field

     Computed dipole along edir(3) : 
        Dipole                1.0711 Ry au,          2.7225 Debye
        Dipole field          0.0020 Ry au, 
 
        Potential amp.       -0.1874 Ry
        Total length         46.3494 bohr
 

     total cpu time spent up to now is     2228.5 secs

     total energy              =   -3006.45783126 Ry
     estimated scf accuracy    <       0.00825051 Ry

     iteration # 64     ecut=    29.40 Ry     beta= 0.05
     Davidson diagonalization with overlap
     ethr =  1.03E-06,  avg # of iterations =  7.6

     negative rho (up, down):  8.388E-03 0.000E+00
 
     Adding external electric field

     Computed dipole along edir(3) : 
        Dipole                1.1037 Ry au,          2.8054 Debye
        Dipole field          0.0021 Ry au, 
 
        Potential amp.       -0.1931 Ry
        Total length         46.3494 bohr
 

     total cpu time spent up to now is     2255.9 secs

     total energy              =   -3006.45799429 Ry
     estimated scf accuracy    <       0.00202430 Ry

     iteration # 65     ecut=    29.40 Ry     beta= 0.05
     Davidson diagonalization with overlap
     c_bands:  1 eigenvalues not converged
     ethr =  4.95E-07,  avg # of iterations = 11.9

     negative rho (up, down):  9.350E-03 0.000E+00
 
     Adding external electric field

     Computed dipole along edir(3) : 
        Dipole                1.0898 Ry au,          2.7700 Debye
        Dipole field          0.0021 Ry au, 
 
        Potential amp.       -0.1906 Ry
        Total length         46.3494 bohr
 

     total cpu time spent up to now is     2279.1 secs

     total energy              =   -3006.45817733 Ry
     estimated scf accuracy    <       0.00146196 Ry

     iteration # 66     ecut=    29.40 Ry     beta= 0.05
     Davidson diagonalization with overlap
     ethr =  3.57E-07,  avg # of iterations =  7.6

     negative rho (up, down):  9.772E-03 0.000E+00
 
     Adding external electric field

     Computed dipole along edir(3) : 
        Dipole                1.0385 Ry au,          2.6397 Debye
        Dipole field          0.0020 Ry au, 
 
        Potential amp.       -0.1817 Ry
        Total length         46.3494 bohr
 

     total cpu time spent up to now is     2297.0 secs

     total energy              =   -3006.45815843 Ry
     estimated scf accuracy    <       0.00049938 Ry

     iteration # 67     ecut=    29.40 Ry     beta= 0.05
     Davidson diagonalization with overlap
     ethr =  1.22E-07,  avg # of iterations = 11.0

     negative rho (up, down):  9.921E-03 0.000E+00
 
     Adding external electric field

     Computed dipole along edir(3) : 
        Dipole                1.0599 Ry au,          2.6940 Debye
        Dipole field          0.0020 Ry au, 
 
        Potential amp.       -0.1854 Ry
        Total length         46.3494 bohr
 

     total cpu time spent up to now is     2321.9 secs

     total energy              =   -3006.45824502 Ry
     estimated scf accuracy    <       0.00019117 Ry

     iteration # 68     ecut=    29.40 Ry     beta= 0.05
     Davidson diagonalization with overlap
     ethr =  4.67E-08,  avg # of iterations =  9.0

     negative rho (up, down):  1.024E-02 0.000E+00
 
     Adding external electric field

     Computed dipole along edir(3) : 
        Dipole                1.0613 Ry au,          2.6977 Debye
        Dipole field          0.0020 Ry au, 
 
        Potential amp.       -0.1857 Ry
        Total length         46.3494 bohr
 

     total cpu time spent up to now is     2340.8 secs

     total energy              =   -3006.45827140 Ry
     estimated scf accuracy    <       0.00011323 Ry

     iteration # 69     ecut=    29.40 Ry     beta= 0.05
     Davidson diagonalization with overlap
     ethr =  2.77E-08,  avg # of iterations = 11.0

     negative rho (up, down):  1.043E-02 0.000E+00
 
     Adding external electric field

     Computed dipole along edir(3) : 
        Dipole                1.0452 Ry au,          2.6566 Debye
        Dipole field          0.0020 Ry au, 
 
        Potential amp.       -0.1828 Ry
        Total length         46.3494 bohr
 

     total cpu time spent up to now is     2360.9 secs

     total energy              =   -3006.45828541 Ry
     estimated scf accuracy    <       0.00006988 Ry

     iteration # 70     ecut=    29.40 Ry     beta= 0.05
     Davidson diagonalization with overlap
     ethr =  1.71E-08,  avg # of iterations =  8.0

     negative rho (up, down):  1.065E-02 0.000E+00
 
     Adding external electric field

     Computed dipole along edir(3) : 
        Dipole                1.0524 Ry au,          2.6750 Debye
        Dipole field          0.0020 Ry au, 
 
        Potential amp.       -0.1841 Ry
        Total length         46.3494 bohr
 

     total cpu time spent up to now is     2382.7 secs

     total energy              =   -3006.45830200 Ry
     estimated scf accuracy    <       0.00005261 Ry

     iteration # 71     ecut=    29.40 Ry     beta= 0.05
     Davidson diagonalization with overlap
     ethr =  1.29E-08,  avg # of iterations =  5.1

     negative rho (up, down):  1.076E-02 0.000E+00
 
     Adding external electric field

     Computed dipole along edir(3) : 
        Dipole                1.0557 Ry au,          2.6833 Debye
        Dipole field          0.0020 Ry au, 
 
        Potential amp.       -0.1847 Ry
        Total length         46.3494 bohr
 

     total cpu time spent up to now is     2399.5 secs

     total energy              =   -3006.45831034 Ry
     estimated scf accuracy    <       0.00003039 Ry

     iteration # 72     ecut=    29.40 Ry     beta= 0.05
     Davidson diagonalization with overlap
     c_bands:  1 eigenvalues not converged
     ethr =  7.43E-09,  avg # of iterations = 11.8

     negative rho (up, down):  1.079E-02 0.000E+00
 
     Adding external electric field

     Computed dipole along edir(3) : 
        Dipole                1.0481 Ry au,          2.6641 Debye
        Dipole field          0.0020 Ry au, 
 
        Potential amp.       -0.1834 Ry
        Total length         46.3494 bohr
 

     total cpu time spent up to now is     2420.8 secs

     total energy              =   -3006.45831314 Ry
     estimated scf accuracy    <       0.00002776 Ry

     iteration # 73     ecut=    29.40 Ry     beta= 0.05
     Davidson diagonalization with overlap
     ethr =  6.79E-09,  avg # of iterations =  6.6

     negative rho (up, down):  1.091E-02 0.000E+00
 
     Adding external electric field

     Computed dipole along edir(3) : 
        Dipole                1.0524 Ry au,          2.6749 Debye
        Dipole field          0.0020 Ry au, 
 
        Potential amp.       -0.1841 Ry
        Total length         46.3494 bohr
 

     total cpu time spent up to now is     2440.1 secs

     total energy              =   -3006.45831886 Ry
     estimated scf accuracy    <       0.00001297 Ry

     iteration # 74     ecut=    29.40 Ry     beta= 0.05
     Davidson diagonalization with overlap
     c_bands:  1 eigenvalues not converged
     ethr =  3.17E-09,  avg # of iterations =  8.5

     negative rho (up, down):  1.085E-02 0.000E+00
 
     Adding external electric field

     Computed dipole along edir(3) : 
        Dipole                1.0524 Ry au,          2.6750 Debye
        Dipole field          0.0020 Ry au, 
 
        Potential amp.       -0.1841 Ry
        Total length         46.3494 bohr
 

     total cpu time spent up to now is     2458.5 secs

     total energy              =   -3006.45832060 Ry
     estimated scf accuracy    <       0.00000844 Ry

     iteration # 75     ecut=    29.40 Ry     beta= 0.05
     Davidson diagonalization with overlap
     ethr =  2.06E-09,  avg # of iterations =  8.5

     negative rho (up, down):  1.083E-02 0.000E+00
 
     Adding external electric field

     Computed dipole along edir(3) : 
        Dipole                1.0504 Ry au,          2.6700 Debye
        Dipole field          0.0020 Ry au, 
 
        Potential amp.       -0.1838 Ry
        Total length         46.3494 bohr
 

     total cpu time spent up to now is     2484.3 secs

     total energy              =   -3006.45832362 Ry
     estimated scf accuracy    <       0.00001109 Ry

     iteration # 76     ecut=    29.40 Ry     beta= 0.05
     Davidson diagonalization with overlap
     ethr =  2.06E-09,  avg # of iterations =  2.0

     negative rho (up, down):  1.082E-02 0.000E+00
 
     Adding external electric field

     Computed dipole along edir(3) : 
        Dipole                1.0495 Ry au,          2.6675 Debye
        Dipole field          0.0020 Ry au, 
 
        Potential amp.       -0.1836 Ry
        Total length         46.3494 bohr
 

     total cpu time spent up to now is     2499.2 secs

     total energy              =   -3006.45832505 Ry
     estimated scf accuracy    <       0.00000580 Ry

     iteration # 77     ecut=    29.40 Ry     beta= 0.05
     Davidson diagonalization with overlap
     ethr =  1.42E-09,  avg # of iterations =  9.7

     negative rho (up, down):  1.081E-02 0.000E+00
 
     Adding external electric field

     Computed dipole along edir(3) : 
        Dipole                1.0510 Ry au,          2.6715 Debye
        Dipole field          0.0020 Ry au, 
 
        Potential amp.       -0.1839 Ry
        Total length         46.3494 bohr
 

     total cpu time spent up to now is     2522.8 secs

     total energy              =   -3006.45832777 Ry
     estimated scf accuracy    <       0.00000269 Ry

     iteration # 78     ecut=    29.40 Ry     beta= 0.05
     Davidson diagonalization with overlap
     ethr =  6.58E-10,  avg # of iterations =  6.1

     negative rho (up, down):  1.078E-02 0.000E+00
 
     Adding external electric field

     Computed dipole along edir(3) : 
        Dipole                1.0519 Ry au,          2.6737 Debye
        Dipole field          0.0020 Ry au, 
 
        Potential amp.       -0.1840 Ry
        Total length         46.3494 bohr
 

     total cpu time spent up to now is     2540.9 secs

     total energy              =   -3006.45832965 Ry
     estimated scf accuracy    <       0.00000167 Ry

     iteration # 79     ecut=    29.40 Ry     beta= 0.05
     Davidson diagonalization with overlap
     ethr =  4.09E-10,  avg # of iterations = 11.1

     negative rho (up, down):  1.073E-02 0.000E+00
 
     Adding external electric field

     Computed dipole along edir(3) : 
        Dipole                1.0507 Ry au,          2.6707 Debye
        Dipole field          0.0020 Ry au, 
 
        Potential amp.       -0.1838 Ry
        Total length         46.3494 bohr
 

     total cpu time spent up to now is     2566.5 secs

     total energy              =   -3006.45833110 Ry
     estimated scf accuracy    <       0.00000263 Ry

     iteration # 80     ecut=    29.40 Ry     beta= 0.05
     Davidson diagonalization with overlap
     ethr =  4.09E-10,  avg # of iterations =  5.4

     negative rho (up, down):  1.069E-02 0.000E+00
 
     Adding external electric field

     Computed dipole along edir(3) : 
        Dipole                1.0508 Ry au,          2.6710 Debye
        Dipole field          0.0020 Ry au, 
 
        Potential amp.       -0.1838 Ry
        Total length         46.3494 bohr
 

     total cpu time spent up to now is     2583.6 secs

     total energy              =   -3006.45833258 Ry
     estimated scf accuracy    <       0.00000080 Ry

     iteration # 81     ecut=    29.40 Ry     beta= 0.05
     Davidson diagonalization with overlap
     c_bands:  1 eigenvalues not converged
     ethr =  1.94E-10,  avg # of iterations = 10.7

     negative rho (up, down):  1.067E-02 0.000E+00
 
     Adding external electric field

     Computed dipole along edir(3) : 
        Dipole                1.0508 Ry au,          2.6708 Debye
        Dipole field          0.0020 Ry au, 
 
        Potential amp.       -0.1838 Ry
        Total length         46.3494 bohr
 

     total cpu time spent up to now is     2604.7 secs

     total energy              =   -3006.45833393 Ry
     estimated scf accuracy    <       0.00000025 Ry

     iteration # 82     ecut=    29.40 Ry     beta= 0.05
     Davidson diagonalization with overlap
     ethr =  6.19E-11,  avg # of iterations = 10.4

     negative rho (up, down):  1.066E-02 0.000E+00
 
     Adding external electric field

     Computed dipole along edir(3) : 
        Dipole                1.0506 Ry au,          2.6704 Debye
        Dipole field          0.0020 Ry au, 
 
        Potential amp.       -0.1838 Ry
        Total length         46.3494 bohr
 

     total cpu time spent up to now is     2654.5 secs

     total energy              =   -3006.45833517 Ry
     estimated scf accuracy    <       0.00000015 Ry

     iteration # 83     ecut=    29.40 Ry     beta= 0.05
     Davidson diagonalization with overlap
     ethr =  3.75E-11,  avg # of iterations =  8.1

     negative rho (up, down):  1.065E-02 0.000E+00
 
     Adding external electric field

     Computed dipole along edir(3) : 
        Dipole                1.0504 Ry au,          2.6698 Debye
        Dipole field          0.0020 Ry au, 
 
        Potential amp.       -0.1837 Ry
        Total length         46.3494 bohr
 

     total cpu time spent up to now is     2730.0 secs

     total energy              =   -3006.45833626 Ry
     estimated scf accuracy    <       0.00000009 Ry

     iteration # 84     ecut=    29.40 Ry     beta= 0.05
     Davidson diagonalization with overlap
     ethr =  2.09E-11,  avg # of iterations =  9.1

     negative rho (up, down):  1.064E-02 0.000E+00
 
     Adding external electric field

     Computed dipole along edir(3) : 
        Dipole                1.0496 Ry au,          2.6679 Debye
        Dipole field          0.0020 Ry au, 
 
        Potential amp.       -0.1836 Ry
        Total length         46.3494 bohr
 

     total cpu time spent up to now is     2803.8 secs

     End of self-consistent calculation

          k = 0.0000 0.0000 0.0000 ( 18029 PWs)   bands (ev):

   -55.3289 -55.2531 -55.2179 -55.1437 -55.1220 -55.0871 -55.0510 -55.0467
   -55.0449 -55.0255 -55.0155 -54.9855 -54.8989 -54.8228 -54.2129 -54.1789
   -31.7311 -31.7226 -31.6351 -31.6233 -31.5825 -31.5688 -31.5443 -31.5423
   -31.5074 -31.4960 -31.4849 -31.4201 -31.4069 -31.4068 -31.3800 -31.3617
   -31.3532 -31.3362 -31.3354 -31.3240 -31.3166 -31.3119 -31.2660 -31.2640
   -31.2619 -31.2552 -31.2525 -31.2394 -31.2330 -31.2146 -31.2076 -31.1971
   -31.1953 -31.1755 -31.1710 -31.1629 -31.1618 -31.1276 -31.0877 -31.0681
   -31.0370 -31.0266 -30.6191 -30.5327 -30.5102 -30.4360 -30.3497 -30.2382
   -21.5125 -19.7117 -16.1353 -15.9053 -15.7260 -15.5240 -15.4673 -15.4008
   -15.2135 -15.1401 -14.9842 -14.8589 -14.8443 -14.7876 -14.7865 -14.7766
   -14.7474 -14.7226 -14.6773 -14.6659 -14.6606 -14.6570 -14.5954 -14.5530
   -14.5502 -14.5232 -14.5025 -14.3754 -14.3283 -14.2739 -14.1037 -14.0817
   -12.7126 -12.5965 -10.5723  -6.6828  -6.4092  -4.6694  -4.6330  -4.5921
    -4.4086  -3.6516  -3.3702  -3.2545  -3.1541  -3.1353  -3.0706  -3.0199
    -2.8050  -2.6987  -2.6357  -2.5230  -2.3959  -2.3596  -2.3076  -2.2775
    -2.1857  -2.1676  -2.1357  -2.1059  -2.0505  -2.0226  -2.0150  -2.0021
    -1.9266  -1.9199  -1.7901  -1.7851  -1.7288  -1.6368  -1.6190  -1.5961
    -1.5889  -1.5546  -1.5522  -1.5099  -1.4862  -1.4621  -1.4337  -1.3586
    -1.3392  -1.2761  -1.2389  -1.0065  -0.8519  -0.8274  -0.7471  -0.7309
    -0.6999  -0.6709  -0.6509  -0.6399  -0.6029  -0.5875  -0.4838  -0.3803
    -0.3716  -0.3120  -0.2743  -0.2696  -0.1339  -0.0890  -0.0148   0.0079
     0.0402   0.0613   0.1456   0.1944   0.2160   0.2826   0.3140   0.4195
     0.4569   0.4761   0.5175   0.5729   0.6333   0.6672   0.7066   0.7100
     0.7426   0.7919   0.8214   0.8559   0.8783   0.9253   1.0281   1.0656
     1.0760   1.2167   1.2278   1.3099   1.4346   1.4866   1.7595   1.8120
     1.8588   2.0044   2.3808   2.4277   3.8707   3.9733   3.9944   4.0156
     4.0834   4.1652   4.3306   4.3538   4.4181   4.5191

          k = 0.0000 0.0419 0.0000 ( 17933 PWs)   bands (ev):

   -55.3285 -55.2483 -55.2226 -55.1408 -55.1199 -55.0898 -55.0488 -55.0461
   -55.0450 -55.0219 -55.0199 -54.9894 -54.8970 -54.8245 -54.2079 -54.1838
   -31.6856 -31.6772 -31.6069 -31.5793 -31.5688 -31.5443 -31.5432 -31.5279
   -31.4815 -31.4701 -31.4535 -31.4098 -31.4080 -31.3930 -31.3724 -31.3665
   -31.3606 -31.3414 -31.3257 -31.3236 -31.3227 -31.3222 -31.2912 -31.2897
   -31.2804 -31.2675 -31.2571 -31.2543 -31.2479 -31.2273 -31.2105 -31.2098
   -31.2021 -31.1966 -31.1938 -31.1823 -31.1764 -31.1663 -31.0962 -31.0865
   -31.0633 -31.0263 -30.5650 -30.5292 -30.5132 -30.4234 -30.3623 -30.2952
   -21.5124 -19.7099 -16.1251 -15.7853 -15.6172 -15.4524 -15.4017 -15.2990
   -15.1447 -15.0856 -14.9795 -14.9630 -14.9117 -14.7901 -14.7731 -14.7586
   -14.7469 -14.7174 -14.7004 -14.6862 -14.6762 -14.6424 -14.6092 -14.5999
   -14.5894 -14.5422 -14.4754 -14.4337 -14.3891 -14.3314 -14.1988 -14.1484
   -12.7168 -12.6361 -10.5722  -6.6823  -6.4091  -4.6665  -4.6364  -4.5868
    -4.3990  -3.6536  -3.3678  -3.0731  -2.9837  -2.9665  -2.9470  -2.8720
    -2.6804  -2.6123  -2.4378  -2.3892  -2.3547  -2.3362  -2.2916  -2.2562
    -2.2080  -2.1929  -2.1790  -2.1516  -2.1151  -2.1003  -2.0611  -1.9911
    -1.9685  -1.9337  -1.9089  -1.8628  -1.8137  -1.7962  -1.7780  -1.7289
    -1.7236  -1.6569  -1.6539  -1.5630  -1.5134  -1.4454  -1.4081  -1.3432
    -1.2527  -1.1271  -1.0254  -0.9648  -0.9410  -0.8836  -0.8398  -0.6844
    -0.6697  -0.5697  -0.5281  -0.4554  -0.4124  -0.4050  -0.3665  -0.2928
    -0.2575  -0.2134  -0.1901  -0.1627  -0.1039  -0.0583  -0.0461  -0.0329
     0.0101   0.0477   0.0942   0.1033   0.1863   0.1993   0.2225   0.2767
     0.3549   0.4127   0.4392   0.4913   0.5404   0.5738   0.5961   0.6146
     0.6345   0.7103   0.7238   0.8294   0.8794   0.9096   0.9688   1.0194
     1.0399   1.0659   1.1245   1.1525   1.2260   1.3614   1.4320   1.7366
     2.0017   2.0985   2.3340   2.3412   4.0912   4.1020   4.1473   4.2304
     4.2551   4.3203   4.3500   4.4201   4.4383   4.4834

          k = 0.0000-0.0839 0.0000 ( 17884 PWs)   bands (ev):

   -55.3281 -55.2400 -55.2308 -55.1377 -55.1176 -55.0929 -55.0510 -55.0453
   -55.0372 -55.0292 -55.0161 -54.9946 -54.8951 -54.8263 -54.1960 -54.1955
   -31.6413 -31.5813 -31.5664 -31.5496 -31.5446 -31.5406 -31.5361 -31.5202
   -31.4547 -31.4536 -31.4108 -31.3931 -31.3807 -31.3758 -31.3623 -31.3565
   -31.3521 -31.3453 -31.3375 -31.3347 -31.3288 -31.3203 -31.3184 -31.3125
   -31.3067 -31.3029 -31.2923 -31.2851 -31.2762 -31.2511 -31.2472 -31.2278
   -31.2187 -31.2136 -31.2070 -31.1887 -31.1795 -31.1742 -31.1547 -31.0853
   -31.0740 -31.0260 -30.5212 -30.5209 -30.4330 -30.4315 -30.3930 -30.3921
   -21.5124 -19.7081 -16.1173 -15.5741 -15.4675 -15.3456 -15.3307 -15.1614
   -15.1433 -15.1042 -15.0764 -14.9949 -14.9624 -14.9297 -14.8874 -14.7641
   -14.7059 -14.6995 -14.6805 -14.6749 -14.6316 -14.5767 -14.5742 -14.5709
   -14.5436 -14.5392 -14.5309 -14.4770 -14.4614 -14.4233 -14.4075 -14.2220
   -12.6992 -12.6983 -10.5721  -6.6819  -6.4091  -4.6643  -4.6401  -4.5816
    -4.3927  -3.6565  -3.3656  -2.7157  -2.6836  -2.6759  -2.6071  -2.5675
    -2.5633  -2.5307  -2.5295  -2.5097  -2.5031  -2.4322  -2.3698  -2.2807
    -2.2780  -2.2692  -2.2453  -2.2156  -2.1911  -2.1620  -2.1339  -2.1072
    -2.0388  -2.0233  -1.9998  -1.9530  -1.9028  -1.8697  -1.8036  -1.7492
    -1.6346  -1.5494  -1.5133  -1.3863  -1.3456  -1.3136  -1.2735  -1.2450
    -1.1286  -1.0848  -1.0381  -0.9616  -0.9203  -0.8306  -0.7564  -0.6969
    -0.6745  -0.6681  -0.6211  -0.5790  -0.5763  -0.5626  -0.5196  -0.4649
    -0.3838  -0.3277  -0.2815  -0.2023   0.0364   0.0587   0.0877   0.0995
     0.1420   0.1468   0.1752   0.2227   0.2401   0.2513   0.2966   0.3209
     0.3237   0.3479   0.3692   0.4182   0.4575   0.4938   0.5201   0.5644
     0.5749   0.5881   0.6536   0.6623   0.7079   0.7638   0.7881   0.8647
     0.9602   0.9942   1.0158   1.0399   1.1941   1.2942   1.4948   1.5037
     2.1404   2.1563   2.2690   2.2746   4.3022   4.3122   4.3326   4.3503
     4.3598   4.3844   4.4370   4.4753   4.5070   4.5688

          k = 0.0380 0.0000 0.0000 ( 17913 PWs)   bands (ev):

   -55.3288 -55.2530 -55.2178 -55.1435 -55.1219 -55.0870 -55.0507 -55.0464
   -55.0450 -55.0256 -55.0154 -54.9854 -54.8988 -54.8226 -54.2128 -54.1788
   -31.7319 -31.7228 -31.6375 -31.6251 -31.5790 -31.5689 -31.5428 -31.5421
   -31.5120 -31.4960 -31.4851 -31.4198 -31.4078 -31.4039 -31.3730 -31.3615
   -31.3529 -31.3352 -31.3212 -31.3165 -31.3161 -31.3117 -31.2653 -31.2639
   -31.2610 -31.2556 -31.2463 -31.2339 -31.2327 -31.2226 -31.2165 -31.2075
   -31.1952 -31.1754 -31.1709 -31.1622 -31.1618 -31.1279 -31.0919 -31.0679
   -31.0369 -31.0271 -30.6186 -30.5360 -30.5082 -30.4358 -30.3496 -30.2380
   -21.5124 -19.7115 -16.1269 -15.8271 -15.6448 -15.5135 -15.4169 -15.3134
   -15.2342 -15.1430 -14.9940 -14.9701 -14.9319 -14.9105 -14.8729 -14.8392
   -14.8079 -14.7314 -14.6993 -14.6793 -14.6592 -14.5831 -14.5346 -14.5123
   -14.4850 -14.4518 -14.4325 -14.4012 -14.3781 -14.3572 -14.1011 -14.0814
   -12.7094 -12.5962 -10.5739  -6.6834  -6.4128  -4.6663  -4.6326  -4.5843
    -4.4071  -3.6440  -3.3674  -3.1208  -2.9734  -2.8831  -2.8652  -2.8429
    -2.7526  -2.6983  -2.6248  -2.5930  -2.5339  -2.5171  -2.4341  -2.3206
    -2.3036  -2.2787  -2.1881  -2.1253  -2.0122  -1.9295  -1.8907  -1.8692
[...]
   -55.0452 -55.0218 -55.0200 -54.9894 -54.8970 -54.8244 -54.2078 -54.1838
   -31.6858 -31.6780 -31.6089 -31.5767 -31.5706 -31.5442 -31.5419 -31.5279
   -31.4817 -31.4704 -31.4588 -31.4100 -31.4079 -31.3906 -31.3739 -31.3609
   -31.3602 -31.3412 -31.3253 -31.3238 -31.3227 -31.3054 -31.2903 -31.2895
   -31.2768 -31.2597 -31.2565 -31.2481 -31.2439 -31.2271 -31.2206 -31.2158
   -31.2098 -31.2012 -31.1947 -31.1823 -31.1784 -31.1662 -31.0963 -31.0899
   -31.0632 -31.0276 -30.5646 -30.5318 -30.5122 -30.4232 -30.3624 -30.2951
   -21.5124 -19.7097 -16.1202 -15.7165 -15.5433 -15.4653 -15.3191 -15.2262
   -15.1507 -15.0885 -14.9847 -14.9665 -14.9566 -14.8888 -14.8510 -14.8355
   -14.7558 -14.7451 -14.7361 -14.7098 -14.6651 -14.6153 -14.5853 -14.5604
   -14.5376 -14.5128 -14.4839 -14.4530 -14.4257 -14.3988 -14.1969 -14.1477
   -12.7146 -12.6363 -10.5735  -6.6829  -6.4116  -4.6653  -4.6362  -4.5824
    -4.4007  -3.6390  -3.3652  -2.9614  -2.8285  -2.7273  -2.7121  -2.6917
    -2.6197  -2.5924  -2.4571  -2.4140  -2.3954  -2.3574  -2.3134  -2.2568
    -2.2271  -2.1327  -2.1266  -2.0923  -2.0789  -2.0312  -2.0125  -1.9763
    -1.9473  -1.9154  -1.8855  -1.8634  -1.8325  -1.7858  -1.7473  -1.6935
    -1.6808  -1.6183  -1.5956  -1.5052  -1.4775  -1.3608  -1.3452  -1.2945
    -1.2308  -1.1833  -1.0149  -0.9871  -0.9194  -0.8816  -0.8334  -0.7535
    -0.6898  -0.6206  -0.5792  -0.5624  -0.5243  -0.4665  -0.4167  -0.3847
    -0.3509  -0.3162  -0.2788  -0.2280  -0.1987  -0.1774  -0.1123  -0.0622
    -0.0052   0.0155   0.0617   0.0683   0.0964   0.1095   0.1719   0.1842
     0.2422   0.3337   0.3551   0.3714   0.4232   0.4618   0.5085   0.5546
     0.6047   0.6560   0.7456   0.7973   0.8413   0.9242   0.9565   1.0124
     1.0569   1.0942   1.1298   1.2010   1.2164   1.3356   1.4023   1.6766
     2.0125   2.1015   2.2573   2.3200   4.0726   4.0995   4.1450   4.2890
     4.3433   4.3611   4.3988   4.4452   4.4690   4.4803

          k = 0.0380-0.0839 0.0000 ( 17916 PWs)   bands (ev):

   -55.3281 -55.2401 -55.2308 -55.1377 -55.1176 -55.0929 -55.0508 -55.0456
   -55.0372 -55.0290 -55.0163 -54.9947 -54.8952 -54.8263 -54.1961 -54.1956
   -31.6418 -31.5797 -31.5678 -31.5503 -31.5434 -31.5413 -31.5362 -31.5202
   -31.4564 -31.4536 -31.4127 -31.3933 -31.3812 -31.3762 -31.3612 -31.3553
   -31.3524 -31.3491 -31.3424 -31.3390 -31.3343 -31.3266 -31.3160 -31.3137
   -31.3066 -31.2926 -31.2700 -31.2682 -31.2637 -31.2512 -31.2470 -31.2277
   -31.2189 -31.2168 -31.2138 -31.1995 -31.1910 -31.1737 -31.1547 -31.0885
   -31.0740 -31.0283 -30.5221 -30.5218 -30.4329 -30.4314 -30.3930 -30.3921
   -21.5124 -19.7080 -16.1145 -15.5548 -15.4265 -15.2921 -15.2791 -15.1081
   -15.0858 -15.0641 -15.0422 -15.0159 -14.9344 -14.9084 -14.8897 -14.7989
   -14.7833 -14.7512 -14.7213 -14.6897 -14.6437 -14.6341 -14.6050 -14.5903
   -14.5817 -14.5707 -14.5274 -14.5149 -14.4994 -14.4088 -14.3956 -14.2181
   -12.6990 -12.6981 -10.5732  -6.6825  -6.4101  -4.6647  -4.6400  -4.5804
    -4.3969  -3.6367  -3.3631  -2.6884  -2.6218  -2.5588  -2.4765  -2.4491
    -2.3927  -2.3647  -2.3498  -2.3314  -2.3204  -2.2985  -2.2858  -2.2396
    -2.2301  -2.1903  -2.1607  -2.1488  -2.1347  -2.1044  -2.0919  -2.0649
    -2.0091  -1.9799  -1.9603  -1.9120  -1.8864  -1.8658  -1.8167  -1.8037
    -1.6396  -1.5004  -1.4544  -1.4035  -1.3152  -1.2919  -1.2374  -1.1867
    -1.1479  -1.1096  -1.0639  -1.0491  -1.0091  -0.9816  -0.9320  -0.9064
    -0.8890  -0.8662  -0.8434  -0.7417  -0.7293  -0.6273  -0.5232  -0.4443
    -0.3989  -0.3744  -0.3301  -0.2727  -0.1162  -0.0997  -0.0560  -0.0133
     0.0119   0.0327   0.0573   0.0840   0.1106   0.1308   0.1656   0.1894
     0.2087   0.2293   0.2908   0.3384   0.3643   0.4407   0.4615   0.5557
     0.6354   0.6887   0.7227   0.7735   0.8078   0.8909   0.8980   0.9232
     0.9865   1.0080   1.0710   1.1132   1.2096   1.2837   1.4588   1.4786
     2.1539   2.1687   2.2590   2.2639   4.1580   4.2867   4.3078   4.3239
     4.3646   4.4406   4.4631   4.5013   4.5323   4.5492

          k = 0.0380-0.0419 0.0000 ( 17876 PWs)   bands (ev):

   -55.3284 -55.2483 -55.2225 -55.1407 -55.1198 -55.0897 -55.0485 -55.0458
   -55.0453 -55.0218 -55.0200 -54.9894 -54.8970 -54.8244 -54.2078 -54.1838
   -31.6859 -31.6779 -31.6091 -31.5764 -31.5706 -31.5442 -31.5420 -31.5279
   -31.4817 -31.4704 -31.4588 -31.4099 -31.4078 -31.3906 -31.3740 -31.3608
   -31.3602 -31.3413 -31.3253 -31.3236 -31.3229 -31.3056 -31.2909 -31.2903
   -31.2767 -31.2583 -31.2563 -31.2482 -31.2439 -31.2274 -31.2209 -31.2149
   -31.2099 -31.2012 -31.1945 -31.1816 -31.1795 -31.1662 -31.0961 -31.0900
   -31.0632 -31.0277 -30.5646 -30.5318 -30.5122 -30.4232 -30.3624 -30.2951
   -21.5124 -19.7097 -16.1201 -15.7167 -15.5435 -15.4646 -15.3180 -15.2251
   -15.1509 -15.0880 -14.9846 -14.9755 -14.9553 -14.8890 -14.8513 -14.8343
   -14.7540 -14.7407 -14.7342 -14.7098 -14.6660 -14.6172 -14.5851 -14.5603
   -14.5371 -14.5140 -14.4842 -14.4544 -14.4247 -14.3990 -14.1966 -14.1478
   -12.7146 -12.6364 -10.5735  -6.6829  -6.4113  -4.6656  -4.6361  -4.5822
    -4.3995  -3.6410  -3.3652  -2.9604  -2.8300  -2.7266  -2.7107  -2.6907
    -2.6207  -2.5930  -2.4546  -2.4171  -2.3942  -2.3610  -2.3121  -2.2598
    -2.2326  -2.1392  -2.1203  -2.1044  -2.0848  -2.0266  -2.0016  -1.9762
    -1.9431  -1.9062  -1.8844  -1.8625  -1.8336  -1.7891  -1.7434  -1.6981
    -1.6868  -1.6250  -1.5828  -1.4805  -1.4505  -1.4127  -1.3220  -1.2984
    -1.2271  -1.1812  -1.0342  -0.9731  -0.9278  -0.8849  -0.8651  -0.7473
    -0.6964  -0.6197  -0.5688  -0.5525  -0.5256  -0.4572  -0.4016  -0.3895
    -0.3319  -0.3134  -0.2709  -0.2474  -0.2055  -0.1885  -0.1045  -0.0614
    -0.0224   0.0011   0.0460   0.0633   0.0973   0.1242   0.1662   0.2133
     0.2358   0.3192   0.3464   0.3864   0.4174   0.4880   0.5262   0.5320
     0.5946   0.6448   0.7378   0.7928   0.8362   0.9335   0.9730   1.0077
     1.0521   1.1046   1.1278   1.2092   1.2187   1.3438   1.4008   1.6761
     2.0123   2.1019   2.2567   2.3207   4.0757   4.0995   4.1566   4.2870
     4.3460   4.3564   4.4016   4.4295   4.4517   4.4834

          k =-0.0760-0.0000 0.0000 ( 17886 PWs)   bands (ev):

   -55.3288 -55.2530 -55.2178 -55.1435 -55.1219 -55.0870 -55.0504 -55.0462
   -55.0452 -55.0257 -55.0154 -54.9854 -54.8988 -54.8226 -54.2128 -54.1788
   -31.7328 -31.7231 -31.6400 -31.6270 -31.5759 -31.5691 -31.5420 -31.5412
   -31.5165 -31.4960 -31.4853 -31.4194 -31.4088 -31.4011 -31.3658 -31.3613
   -31.3528 -31.3351 -31.3182 -31.3165 -31.3120 -31.2729 -31.2654 -31.2639
   -31.2624 -31.2575 -31.2559 -31.2393 -31.2342 -31.2326 -31.2276 -31.2074
   -31.1950 -31.1755 -31.1709 -31.1621 -31.1615 -31.1286 -31.0974 -31.0678
   -31.0370 -31.0274 -30.6183 -30.5392 -30.5069 -30.4358 -30.3495 -30.2380
   -21.5124 -19.7113 -16.1200 -15.6890 -15.6053 -15.5171 -15.3258 -15.2274
   -15.2157 -15.1235 -15.0336 -15.0306 -15.0150 -14.9681 -14.9451 -14.9218
   -14.9145 -14.7344 -14.7264 -14.7032 -14.6171 -14.5873 -14.5455 -14.5167
   -14.4862 -14.4742 -14.3957 -14.3906 -14.3745 -14.3127 -14.0995 -14.0819
   -12.7064 -12.5958 -10.5755  -6.6841  -6.4164  -4.6644  -4.6324  -4.5766
    -4.4056  -3.6357  -3.3648  -3.0860  -2.8976  -2.7464  -2.7191  -2.6714
    -2.6661  -2.6116  -2.5664  -2.5296  -2.5011  -2.4836  -2.4818  -2.4602
    -2.2948  -2.1945  -2.1676  -2.0479  -1.8724  -1.8309  -1.7969  -1.7896
    -1.7807  -1.7359  -1.7175  -1.6841  -1.6785  -1.6206  -1.5935  -1.5726
    -1.5540  -1.5420  -1.4728  -1.4444  -1.3999  -1.3914  -1.3666  -1.3316
    -1.2100  -1.1231  -1.0874  -0.9838  -0.9231  -0.8896  -0.8301  -0.8226
    -0.7908  -0.7132  -0.7061  -0.7019  -0.6633  -0.6297  -0.6055  -0.5732
    -0.5255  -0.5039  -0.4284  -0.4020  -0.3142  -0.2831  -0.1243  -0.0437
    -0.0083   0.0354   0.1648   0.1698   0.1845   0.2436   0.2522   0.3102
     0.3374   0.3613   0.4238   0.4660   0.4957   0.5440   0.5546   0.5681
     0.6326   0.6801   0.7314   0.7448   0.7834   0.8474   0.8625   0.9504
     0.9924   1.0488   1.1481   1.2713   1.4193   1.4443   1.4619   1.7822
     1.8449   1.9490   2.1403   2.2879   3.8997   3.9149   4.1596   4.1676
     4.1745   4.2376   4.2750   4.3191   4.3871   4.4094

          k =-0.0760 0.0419 0.0000 ( 17914 PWs)   bands (ev):

   -55.3284 -55.2483 -55.2226 -55.1408 -55.1198 -55.0898 -55.0483 -55.0456
   -55.0456 -55.0218 -55.0202 -54.9894 -54.8970 -54.8244 -54.2078 -54.1838
   -31.6862 -31.6790 -31.6113 -31.5741 -31.5726 -31.5443 -31.5406 -31.5281
   -31.4819 -31.4707 -31.4640 -31.4102 -31.4078 -31.3886 -31.3755 -31.3606
   -31.3545 -31.3412 -31.3259 -31.3252 -31.3236 -31.2913 -31.2849 -31.2736
   -31.2713 -31.2573 -31.2536 -31.2474 -31.2464 -31.2377 -31.2314 -31.2249
   -31.2100 -31.2011 -31.1944 -31.1880 -31.1791 -31.1663 -31.0960 -31.0944
   -31.0632 -31.0290 -30.5644 -30.5346 -30.5115 -30.4232 -30.3624 -30.2951
   -21.5124 -19.7096 -16.1156 -15.6101 -15.5132 -15.4368 -15.2344 -15.1495
   -15.1312 -15.0571 -14.9936 -14.9828 -14.9712 -14.9570 -14.9324 -14.9076
   -14.8681 -14.7596 -14.7411 -14.7361 -14.6853 -14.6165 -14.5721 -14.5648
   -14.5266 -14.5201 -14.4989 -14.4755 -14.4192 -14.3902 -14.1944 -14.1490
   -12.7125 -12.6367 -10.5749  -6.6836  -6.4137  -4.6648  -4.6360  -4.5782
    -4.4012  -3.6260  -3.3626  -2.9360  -2.7660  -2.6273  -2.4979  -2.4753
    -2.4347  -2.4019  -2.3818  -2.3563  -2.3409  -2.3050  -2.2807  -2.2537
    -2.1970  -2.1662  -2.1224  -2.0690  -2.0419  -1.9751  -1.9596  -1.9224
    -1.9074  -1.8733  -1.8295  -1.7935  -1.7750  -1.7330  -1.7097  -1.6915
    -1.6872  -1.6409  -1.6225  -1.4294  -1.3844  -1.3348  -1.3136  -1.2258
    -1.2043  -1.1440  -1.1266  -1.0250  -0.9246  -0.8743  -0.8381  -0.8133
    -0.7416  -0.7122  -0.6829  -0.6248  -0.5719  -0.5524  -0.4970  -0.4725
    -0.4653  -0.4371  -0.4028  -0.3831  -0.3681  -0.3037  -0.2757  -0.2187
    -0.1753  -0.1457  -0.1002  -0.0374   0.0097   0.0338   0.0902   0.1524
     0.1813   0.1973   0.2652   0.3432   0.4221   0.4622   0.5542   0.5919
     0.6126   0.6265   0.7088   0.7183   0.8631   0.9212   0.9601   1.0837
     1.1139   1.1350   1.2402   1.2788   1.3035   1.3092   1.4073   1.4828
     2.0266   2.1037   2.1801   2.3081   4.0794   4.0960   4.1079   4.1983
     4.2553   4.2849   4.3306   4.3844   4.5183   4.5419

          k =-0.0760-0.0839 0.0000 ( 17948 PWs)   bands (ev):

   -55.3282 -55.2401 -55.2308 -55.1377 -55.1176 -55.0929 -55.0505 -55.0459
   -55.0371 -55.0288 -55.0165 -54.9948 -54.8952 -54.8263 -54.1961 -54.1956
   -31.6422 -31.5786 -31.5688 -31.5510 -31.5420 -31.5420 -31.5363 -31.5203
   -31.4580 -31.4536 -31.4145 -31.3933 -31.3815 -31.3765 -31.3600 -31.3580
   -31.3541 -31.3525 -31.3455 -31.3396 -31.3346 -31.3326 -31.3174 -31.3153
   -31.2965 -31.2857 -31.2564 -31.2500 -31.2470 -31.2428 -31.2349 -31.2338
   -31.2269 -31.2222 -31.2183 -31.2140 -31.2115 -31.1732 -31.1546 -31.0917
   -31.0741 -31.0305 -30.5230 -30.5228 -30.4329 -30.4314 -30.3930 -30.3921
   -21.5124 -19.7079 -16.1117 -15.5353 -15.3788 -15.2077 -15.1939 -15.1145
   -15.0230 -15.0052 -14.9746 -14.9613 -14.9442 -14.9197 -14.9116 -14.8764
   -14.8136 -14.7717 -14.7485 -14.7402 -14.6932 -14.6881 -14.6846 -14.6218
   -14.6144 -14.5963 -14.5716 -14.5117 -14.5028 -14.4023 -14.3872 -14.2149
   -12.6988 -12.6979 -10.5744  -6.6830  -6.4111  -4.6653  -4.6399  -4.5794
    -4.4009  -3.6169  -3.3606  -2.6836  -2.5992  -2.5363  -2.4316  -2.3532
    -2.2995  -2.2498  -2.2288  -2.1838  -2.1627  -2.0932  -2.0585  -2.0497
    -2.0303  -2.0281  -1.9976  -1.9822  -1.9695  -1.9483  -1.9199  -1.9026
    -1.8921  -1.8711  -1.8512  -1.8254  -1.8133  -1.8034  -1.7885  -1.7725
    -1.6617  -1.6450  -1.6123  -1.4497  -1.4383  -1.3690  -1.3374  -1.3110
    -1.3074  -1.2770  -1.2619  -1.2200  -1.1146  -1.0865  -1.0372  -0.9963
    -0.9028  -0.8869  -0.8360  -0.7851  -0.7393  -0.7107  -0.6802  -0.6649
    -0.6112  -0.4729  -0.4521  -0.4070  -0.2878  -0.2146  -0.1989  -0.1864
    -0.1646  -0.1415  -0.0950  -0.0868  -0.0250  -0.0124   0.0584   0.0624
     0.0915   0.1131   0.2156   0.3377   0.4163   0.4601   0.5050   0.5544
     0.5882   0.6705   0.7468   0.8331   0.9091   0.9386   0.9524   1.0701
     1.1026   1.1552   1.2011   1.2213   1.2795   1.3153   1.3555   1.3886
     2.1731   2.1867   2.2430   2.2486   4.0514   4.3015   4.3615   4.3785
     4.3883   4.4206   4.4417   4.4930   4.5103   4.5337

     the Fermi energy is     3.8809 ev

!    total energy              =   -3006.45834588 Ry
     estimated scf accuracy    <       0.00000007 Ry
     smearing contrib. (-TS)   =      -0.02082624 Ry
     internal energy E=F+TS    =   -3006.43751965 Ry

     The total energy is F=E-TS. E is the sum of the following terms:
     one-electron contribution =  -22317.81547399 Ry
     hartree contribution      =   11258.43063415 Ry
     xc contribution           =    -501.14686085 Ry
     ewald contribution        =    8554.09210197 Ry
     electric field correction =       0.00207908 Ry

     convergence has been achieved in  84 iterations

     Forces acting on atoms (cartesian axes, Ry/au):

     atom    1 type  1   force =    -0.00038131   -0.00016383    0.09498084
     atom    2 type  1   force =    -0.00034509    0.00513268   -0.17479668
     atom    3 type  2   force =     0.00071039    0.00013209   -0.02674779
     atom    4 type  2   force =     0.00129132    0.00083475    0.05207274
     atom    5 type  2   force =    -0.01095803   -0.00256507    0.00076136
     atom    6 type  2   force =     0.01192574   -0.00381276    0.00177089
     atom    7 type  1   force =    -0.00021543    0.00039554    0.00064997
     atom    8 type  1   force =     0.00012912    0.00022053    0.00016487
     atom    9 type  2   force =     0.00025366    0.00075396   -0.00067273
     atom   10 type  2   force =    -0.00038986    0.00016270    0.00013159
     atom   11 type  2   force =     0.00043665   -0.00015353    0.00010367
     atom   12 type  2   force =    -0.00084396   -0.00015371    0.00035630
     atom   13 type  1   force =     0.00043903    0.00034987   -0.00021980
     atom   14 type  1   force =    -0.00033453   -0.00072200    0.00094455
     atom   15 type  2   force =    -0.00014298   -0.00053604   -0.00098747
     atom   16 type  2   force =    -0.00027104   -0.00000240   -0.00022860
     atom   17 type  2   force =    -0.00097770    0.00030927   -0.00000529
     atom   18 type  2   force =     0.00048186    0.00069550   -0.00006423
     atom   19 type  1   force =     0.00025217   -0.00082497    0.00022117
     atom   20 type  1   force =    -0.00024738    0.00010048    0.00042637
     atom   21 type  2   force =    -0.00000383    0.00007361    0.10302530
     atom   22 type  2   force =    -0.00002334   -0.00014379    0.00096275
     atom   23 type  2   force =    -0.07196538    0.00013715   -0.02802825
     atom   24 type  2   force =     0.07180320    0.00063535   -0.02813288
     atom   25 type  1   force =    -0.00036110    0.00026054    0.10244187
     atom   26 type  1   force =    -0.00011525   -0.00474557   -0.17504586
     atom   27 type  2   force =     0.00084975    0.00117096   -0.02486497
     atom   28 type  2   force =     0.00119761    0.00025413    0.05170202
     atom   29 type  2   force =    -0.01192211    0.00381569    0.00170697
     atom   30 type  2   force =     0.01375906    0.00146508    0.00243754
     atom   31 type  1   force =    -0.00028593   -0.00015964    0.00080060
     atom   32 type  1   force =     0.00027705    0.00027452    0.00060520
     atom   33 type  2   force =     0.00000928    0.00020551    0.00007819
     atom   34 type  2   force =    -0.00027114   -0.00032322   -0.00057960
     atom   35 type  2   force =    -0.00022755    0.00005380   -0.00047638
     atom   36 type  2   force =    -0.00038311    0.00009819   -0.00009452
     atom   37 type  1   force =    -0.00005540   -0.00034660    0.00003270
     atom   38 type  1   force =    -0.00056989    0.00028940    0.00001002
     atom   39 type  2   force =    -0.00025214   -0.00023984    0.00078747
     atom   40 type  2   force =    -0.00019682    0.00012100    0.00030055
     atom   41 type  2   force =    -0.00139802   -0.00025956   -0.00004862
     atom   42 type  2   force =     0.00107570   -0.00013455   -0.00048735
     atom   43 type  1   force =    -0.00018051    0.00054456    0.00018703
     atom   44 type  1   force =    -0.00007756    0.00010399    0.00010823
     atom   45 type  2   force =     0.00000304    0.00014071    0.10261521
     atom   46 type  2   force =    -0.07185960   -0.00062424   -0.02797634
     atom   47 type  2   force =     0.07171839   -0.00013395   -0.02804932
     atom   48 type  3   force =    -0.00032412   -0.00014914    0.00002486
     atom   49 type  2   force =    -0.00120540   -0.00077984    0.00018815
     atom   50 type  4   force =    -0.00006865   -0.00044616   -0.00020511
     atom   51 type  4   force =     0.00036075    0.00039398   -0.00067854
     atom   52 type  4   force =    -0.00020364    0.00008718   -0.00046105
     atom   53 type  4   force =    -0.00001665   -0.00039389   -0.00106634
     atom   54 type  5   force =     0.00193405   -0.00021825    0.00216325
     atom   55 type  5   force =    -0.00231492    0.00016549   -0.00215736
     atom   56 type  2   force =     0.00077688   -0.00054685    0.00050341
     atom   57 type  4   force =    -0.00029534   -0.00079882   -0.00119054

     Total force =     0.364838     Total SCF correction =     0.000589
  @ DRIVER MODE: Message from server: STATUS
  @ DRIVER MODE: Message from server: GETFORCE
  @ DRIVER MODE: Returning v,forces,stress,ensemble 

     Writing output data file ./calc.save/
  @ DRIVER MODE: Message from server: EXIT
  @ DRIVE MODE: Exiting  
 
     init_run     :     18.96s CPU     21.33s WALL (       1 calls)
     electrons    :   2578.46s CPU   2779.65s WALL (       1 calls)
     forces       :      3.06s CPU      3.21s WALL (       1 calls)

     Called by init_run:
     wfcinit      :      9.15s CPU     11.19s WALL (       1 calls)
     potinit      :      7.55s CPU      7.70s WALL (       1 calls)
     hinit0       :      1.02s CPU      1.06s WALL (       1 calls)

     Called by electrons:
     c_bands      :   2136.62s CPU   2292.29s WALL (      84 calls)
     sum_band     :    334.72s CPU    363.99s WALL (      84 calls)
     v_of_rho     :     71.52s CPU     77.44s WALL (      85 calls)
     newd         :     27.46s CPU     34.78s WALL (      85 calls)
     mix_rho      :     13.13s CPU     15.58s WALL (      84 calls)
     vdW_kernel   :      5.87s CPU      5.89s WALL (       1 calls)

     Called by c_bands:
     init_us_2    :     10.36s CPU     10.69s WALL (    1700 calls)
     cegterg      :   2104.76s CPU   2257.84s WALL (     860 calls)

     Called by *egterg:
     cdiaghg      :    307.38s CPU    338.44s WALL (    7936 calls)
     h_psi        :   1264.35s CPU   1354.53s WALL (    7952 calls)
     s_psi        :    106.09s CPU    107.84s WALL (    7952 calls)
     g_psi        :      2.66s CPU      2.68s WALL (    7082 calls)

     Called by h_psi:
     h_psi:calbec :    121.59s CPU    127.35s WALL (    7952 calls)
     vloc_psi     :   1032.86s CPU   1110.45s WALL (    7952 calls)
     add_vuspsi   :    106.28s CPU    110.32s WALL (    7952 calls)

     General routines
     calbec       :    159.85s CPU    167.03s WALL (    8832 calls)
     fft          :     43.84s CPU     45.70s WALL (    5355 calls)
     ffts         :      0.45s CPU      0.49s WALL (     169 calls)
     fftw         :   1242.96s CPU   1339.49s WALL ( 1164208 calls)
     interpolate  :      1.06s CPU      1.15s WALL (      85 calls)
     davcio       :      0.00s CPU      0.80s WALL (      10 calls)
 
     Parallel routines
 
     PWSCF        :  43m23.30s CPU  46m49.05s WALL

 
   This run was terminated on:  14:26:33  26Sep2021            

=------------------------------------------------------------------------------=
   JOB DONE.
=------------------------------------------------------------------------------=
