
     Program PWSCF v.6.7GPU starts on 23Sep2021 at  4:11:12 

     This program is part of the open-source Quantum ESPRESSO suite
     for quantum simulation of materials; please cite
         "P. Giannozzi et al., J. Phys.:Condens. Matter 21 395502 (2009);
         "P. Giannozzi et al., J. Phys.:Condens. Matter 29 465901 (2017);
         "P. Giannozzi et al., J. Chem. Phys. 152 154105 (2020);
          URL http://www.quantum-espresso.org", 
     in publications or presentations arising from this work. More details at
     http://www.quantum-espresso.org/quote

     Parallel version (MPI), running on     8 processors

     MPI processes distributed on     1 nodes
     R & G space division:  proc/nbgrp/npool/nimage =       8
     Reading input from /storage/home/hcoda1/3/ntian30/research/carbon/CxH_vib/H2O_calc/ads_slab/CH3N2HO_c/out_0015/pw.inp
Warning: card &CELL ignored
Warning: card   CELL_DYNAMICS='IPI', ignored
Warning: card / ignored

     Current dimensions of program PWSCF are:
     Max number of different atomic species (ntypx) = 10
     Max number of k-points (npk) =  40000
     Max angular momentum in pseudopotentials (lmaxx) =  3
     Presently no symmetry can be used with electric field

     Message from routine cell_base_init:
     DEPRECATED: use true lattice parameter, not A to a.u. conversion factor

     **************************************************************************
     Initializing libbeef V0.1.2 with the BEEF-vdW functional.
     Citation: Wellendorff et al., PRB 85, 235149 (2012).
     **************************************************************************


     IMPORTANT: XC functional enforced from input :
     Exchange-correlation= BEEF-VDW
                           (   1   4  43  14   2   0   0)
     Any further DFT definition will be discarded
     Please, verify this is what you really want


     Subspace diagonalization in iterative solution of the eigenvalue problem:
     one sub-group per band group will be used
     scalapack distributed-memory algorithm (size of sub-group:  2*  2 procs)

  @ DRIVER MODE: Connecting to 
 qe_1139763_2941007.sched-torque.pace.gatech.edumc1wvv_l_scratch
  using UNIX socket
  @ DRIVER MODE: Message from server: STATUS
  @ DRIVER MODE: Message from server: INIT
  @ DRIVER MODE: Receiving replica           0          -1
  @ DRIVER MODE: Receiving encoded integer          25
  @ DRIVER MODE:  SCF:  T  FORCE:  T  STRESS:  F  VC:  F  ENSEMBLE:  F
  @ DRIVER MODE:  SCF:  T  FORCE:  T  STRESS:  F  VC:  F  ENSEMBLE:  F
 
     Parallelization info
     --------------------
     sticks:   dense  smooth     PW     G-vecs:    dense   smooth      PW
     Min         409     164     47                70857    17926    2743
     Max         411     165     48                70858    17931    2751
     Sum        3275    1317    379               566857   143421   21985
 
     Using Slab Decomposition
 


     bravais-lattice index     =            0
     lattice parameter (alat)  =       1.8897  a.u.
     unit-cell volume          =    6658.9804 (a.u.)^3
     number of atoms/cell      =           55
     number of atomic types    =            5
     number of electrons       =       402.00
     number of Kohn-Sham states=          211
     kinetic-energy cutoff     =      29.3995  Ry
     charge density cutoff     =     293.9946  Ry
     scf convergence threshold =      7.3E-08
     mixing beta               =       0.0500
     number of iterations used =            8  plain     mixing
     Exchange-correlation= BEEF-VDW
                           (   1   4  43  14   2   0   0)

     celldm(1)=   1.889726  celldm(2)=   0.000000  celldm(3)=   0.000000
     celldm(4)=   0.000000  celldm(5)=   0.000000  celldm(6)=   0.000000

     crystal axes: (cart. coord. in units of alat)
               a(1) = (   6.579727   0.000000   0.000000 )  
               a(2) = (  -0.000775   5.961596   0.000000 )  
               a(3) = (   0.000000   0.000000  25.155947 )  

     reciprocal axes: (cart. coord. in units 2 pi/alat)
               b(1) = (  0.151982  0.000020  0.000000 )  
               b(2) = (  0.000000  0.167740  0.000000 )  
               b(3) = (  0.000000  0.000000  0.039752 )  


     PseudoPot. # 1 for Ti read from file:
     /storage/coda1/p-amedford6/0/shared/rich_project_chbe-medford/medford-share/data/pseudos_module/espresso/nninc/pbe/van/Ti.UPF
     MD5 check sum: 8e4df49b7f0d34bbd5052bf3f5ea0213
     Pseudo is Ultrasoft, Zval = 12.0
     Generated by new atomic code, or converted to UPF format
     Using radial grid of  851 points,  6 beta functions with: 
                l(1) =   0
                l(2) =   0
                l(3) =   1
                l(4) =   1
                l(5) =   2
                l(6) =   2
     Q(r) pseudized with  8 coefficients,  rinner =    1.000   1.000   1.000
                                                       1.000   1.000

     PseudoPot. # 2 for O  read from file:
     /storage/coda1/p-amedford6/0/shared/rich_project_chbe-medford/medford-share/data/pseudos_module/espresso/nninc/pbe/van/O.UPF
     MD5 check sum: 78c19812648e8988a0fe644b0f25305e
     Pseudo is Ultrasoft, Zval =  6.0
     Generated by new atomic code, or converted to UPF format
     Using radial grid of  737 points,  4 beta functions with: 
                l(1) =   0
                l(2) =   0
                l(3) =   1
                l(4) =   1
     Q(r) pseudized with  8 coefficients,  rinner =    0.800   0.800   0.800


     PseudoPot. # 3 for N  read from file:
     /storage/coda1/p-amedford6/0/shared/rich_project_chbe-medford/medford-share/data/pseudos_module/espresso/nninc/pbe/van/N.UPF
     MD5 check sum: 90d10febe142ad51ac9d5be1deb811c4
     Pseudo is Ultrasoft, Zval =  5.0
     Generated by new atomic code, or converted to UPF format
     Using radial grid of  729 points,  4 beta functions with: 
                l(1) =   0
                l(2) =   0
                l(3) =   1
                l(4) =   1
     Q(r) pseudized with  8 coefficients,  rinner =    0.800   0.800   0.800


     PseudoPot. # 4 for C  read from file:
     /storage/coda1/p-amedford6/0/shared/rich_project_chbe-medford/medford-share/data/pseudos_module/espresso/nninc/pbe/van/C.UPF
     MD5 check sum: 1a69bf6b8db32088f5b2163dbdb77a27
     Pseudo is Ultrasoft, Zval =  4.0
     Generated by new atomic code, or converted to UPF format
     Using radial grid of  721 points,  4 beta functions with: 
                l(1) =   0
                l(2) =   0
                l(3) =   1
                l(4) =   1
     Q(r) pseudized with  8 coefficients,  rinner =    0.800   0.800   0.800


     PseudoPot. # 5 for H  read from file:
     /storage/coda1/p-amedford6/0/shared/rich_project_chbe-medford/medford-share/data/pseudos_module/espresso/nninc/pbe/van/H.UPF
     MD5 check sum: b5ee9d7bfd3a09ee7748110bda690ff7
     Pseudo is Ultrasoft, Zval =  1.0
     Generated by new atomic code, or converted to UPF format
     Using radial grid of  615 points,  1 beta functions with: 
                l(1) =   0
     Q(r) pseudized with  8 coefficients,  rinner =    0.800

     atomic species   valence    mass     pseudopotential
        Ti1           12.00    47.86700     Ti( 1.00)
        O1             6.00    15.99900     O ( 1.00)
        N1             5.00    14.00700     N ( 1.00)
        C1             4.00    12.01100     C ( 1.00)
        H1             1.00     1.00800     H ( 1.00)

     No symmetry found



   Cartesian axes

     site n.     atom                  positions (alat units)
         1           Ti1 tau(   1) = (   0.0004258   2.9801865   6.0000000  )
         2           Ti1 tau(   2) = (   3.2906075   1.4906267   6.0002472  )
         3           O1  tau(   3) = (   0.0006271   0.0005054   7.9858123  )
         4           O1  tau(   4) = (   3.2906025   0.0005020   7.3038282  )
         5           O1  tau(   5) = (   4.5942328   1.4918067   9.2879030  )
         6           O1  tau(   6) = (   1.9868534   1.4903216   9.2879459  )
         7           Ti1 tau(   7) = (   3.2907910   2.8959150   9.1758416  )
         8           Ti1 tau(   8) = (   0.0015273   1.4827037   9.2680791  )
         9           O1  tau(   9) = (   3.2989311   0.0219330  11.3020621  )
        10           O1  tau(  10) = (   0.0116148   5.9584955  10.6183126  )
        11           O1  tau(  11) = (   1.3029919   1.4976758  12.6257209  )
        12           O1  tau(  12) = (   5.3026591   1.4951023  12.6306759  )
        13           Ti1 tau(  13) = (   0.0286689   2.8598525  12.6759356  )
        14           Ti1 tau(  14) = (   3.3054201   1.5706400  12.4108957  )
        15           O1  tau(  15) = (   0.0066217   5.9386728  14.6456674  )
        16           O1  tau(  16) = (   3.2936494   5.9217248  13.9190535  )
        17           O1  tau(  17) = (   4.5783085   1.5227378  16.0725395  )
        18           O1  tau(  18) = (   2.0661487   1.5008106  16.0935948  )
        19           Ti1 tau(  19) = (   3.3004316   2.9577776  15.6622982  )
        20           Ti1 tau(  20) = (   6.5114840   1.4532315  15.8500040  )
        21           O1  tau(  21) = (   3.2904802   0.0005063   4.7018136  )
        22           O1  tau(  22) = (   0.0101108   5.9483577  17.1703567  )
        23           O1  tau(  23) = (   1.3043587   1.4918075   6.0039043  )
        24           O1  tau(  24) = (   5.2767064   1.4903225   6.0039473  )
        25           Ti1 tau(  25) = (   0.0000382   5.9609847   6.0000000  )
        26           Ti1 tau(  26) = (   3.2902200   4.4714249   6.0002472  )
        27           O1  tau(  27) = (   0.0002396   2.9813036   7.9858123  )
        28           O1  tau(  28) = (   3.2902150   2.9813002   7.3038282  )
        29           O1  tau(  29) = (   4.5938453   4.4726049   9.2879030  )
        30           O1  tau(  30) = (   1.9864658   4.4711199   9.2879459  )
        31           Ti1 tau(  31) = (   3.2891106   5.8743827   9.1763621  )
        32           Ti1 tau(  32) = (   0.0006254   4.4649316   9.2693709  )
        33           O1  tau(  33) = (   3.2985377   2.9527140  11.2683515  )
        34           O1  tau(  34) = (   0.0092240   2.9805883  10.6323155  )
        35           O1  tau(  35) = (   1.2869011   4.4751273  12.6337776  )
        36           O1  tau(  36) = (   5.3033013   4.4751711  12.6363117  )
        37           Ti1 tau(  37) = (   6.5677423   5.8343599  12.5653580  )
        38           Ti1 tau(  38) = (   3.2861748   4.6640272  12.6826305  )
        39           O1  tau(  39) = (   0.0268303   2.9326313  14.6927244  )
        40           O1  tau(  40) = (   3.2973518   2.9805258  13.8830516  )
        41           O1  tau(  41) = (   4.5656241   4.3944478  16.1024780  )
        42           O1  tau(  42) = (   2.0389263   4.3990843  16.1000718  )
        43           Ti1 tau(  43) = (   3.2183859   5.9292641  16.3327267  )
        44           Ti1 tau(  44) = (   6.5399727   4.6159235  16.0325440  )
        45           O1  tau(  45) = (   3.2900926   2.9813045   4.7018136  )
        46           O1  tau(  46) = (   1.3039711   4.4726057   6.0039043  )
        47           O1  tau(  47) = (   5.2763189   4.4711207   6.0039473  )
        48           N1  tau(  48) = (   0.1383159   2.7169024  18.7005470  )
        49           N1  tau(  49) = (   0.0454196   2.8879789  17.5111406  )
        50           C1  tau(  50) = (   0.1807782   3.8635959  19.6428767  )
        51           H1  tau(  51) = (   6.4938760   4.8136915  19.1652781  )
        52           H1  tau(  52) = (   6.0945921   3.6282151  20.4682347  )
        53           H1  tau(  53) = (   1.2016282   3.9139503  20.0277151  )
        54           O1  tau(  54) = (   3.2907091   5.9158944  18.1602194  )
        55           H1  tau(  55) = (   3.1351319   0.7410148  18.7017648  )

     number of k points=    10  Fermi-Dirac smearing, width (Ry)=  0.0073
                       cart. coord. in units 2pi/alat
        k(    1) = (   0.0000000   0.0000000   0.0000000), wk =   0.1250000
        k(    2) = (   0.0000000   0.0419351   0.0000000), wk =   0.2500000
        k(    3) = (   0.0000000  -0.0838702   0.0000000), wk =   0.1250000
        k(    4) = (   0.0379955   0.0000049   0.0000000), wk =   0.2500000
        k(    5) = (   0.0379955   0.0419400   0.0000000), wk =   0.2500000
        k(    6) = (   0.0379955  -0.0838652   0.0000000), wk =   0.2500000
        k(    7) = (   0.0379955  -0.0419301   0.0000000), wk =   0.2500000
        k(    8) = (  -0.0759910  -0.0000099   0.0000000), wk =   0.1250000
        k(    9) = (  -0.0759910   0.0419252   0.0000000), wk =   0.2500000
        k(   10) = (  -0.0759910  -0.0838800   0.0000000), wk =   0.1250000

     Dense  grid:   566857 G-vectors     FFT dimensions: (  72,  64, 270)

     Smooth grid:   143421 G-vectors     FFT dimensions: (  45,  40, 180)

     Estimated max dynamical RAM per process >     457.63 MB

     Estimated total dynamical RAM >       3.58 GB
     Cannot read rho : file not found

     Initial potential from superposition of free atoms

     starting charge  385.99915, renormalised to  402.00000

     negative rho (up, down):  1.430E-02 0.000E+00


     %%%%%%%%%%%%%%%%%%%%%%%%%%%%%%%%%%%%%%%%%%%%%%%%%%%%%%%%%%%%%%%%%%%%%%%%
     %                                                                      %
     % You are using vdW-DF, which was implemented by the Thonhauser group. %
     % Please cite the following two papers that made this development      %
     % possible and the two reviews that describe the various versions:     %
     %                                                                      %
     %   T. Thonhauser et al., PRL 115, 136402 (2015).                      %
     %   T. Thonhauser et al., PRB 76, 125112 (2007).                       %
     %   K. Berland et al., Rep. Prog. Phys. 78, 066501 (2015).             %
     %   D.C. Langreth et al., J. Phys.: Condens. Matter 21, 084203 (2009). %
     %                                                                      %
     %                                                                      %
     % If you are calculating the stress with vdW-DF, please also cite:     %
     %                                                                      %
     %   R. Sabatini et al., J. Phys.: Condens. Matter 24, 424209 (2012).   %
     %                                                                      %
     %%%%%%%%%%%%%%%%%%%%%%%%%%%%%%%%%%%%%%%%%%%%%%%%%%%%%%%%%%%%%%%%%%%%%%%%


 
     Adding external electric field

     Computed dipole along edir(3) : 
        Dipole              -12.0462 Ry au,        -30.6184 Debye
        Dipole field         -0.0227 Ry au, 
 
        Potential amp.        2.1073 Ry
        Total length         46.3494 bohr
 
     Starting wfcs are  304 atomic wfcs
  @ DRIVER MODE: Message from server: STATUS
  @ DRIVER MODE: Message from server: POSDATA
  @ DRIVER MODE: Reading and sharing cell 
  @ DRIVER MODE: Reading and sharing positions 
  @ DRIVER MODE: Received positions 

     total cpu time spent up to now is       13.9 secs

     Self-consistent Calculation

     iteration #  1     ecut=    29.40 Ry     beta= 0.05
     Davidson diagonalization with overlap
     c_bands:  5 eigenvalues not converged
     c_bands:  3 eigenvalues not converged
     c_bands:  5 eigenvalues not converged
     c_bands:  3 eigenvalues not converged
     c_bands:  3 eigenvalues not converged
     c_bands:  2 eigenvalues not converged
     c_bands:  5 eigenvalues not converged
     c_bands:  5 eigenvalues not converged
     ethr =  1.00E-05,  avg # of iterations = 21.5

     negative rho (up, down):  9.005E-03 0.000E+00
 
     Adding external electric field

     Computed dipole along edir(3) : 
        Dipole               51.9947 Ry au,        132.1573 Debye
        Dipole field          0.0981 Ry au, 
 
        Potential amp.       -9.0957 Ry
        Total length         46.3494 bohr
 

     total cpu time spent up to now is       70.3 secs

     total energy              =   -2397.69857125 Ry
     estimated scf accuracy    <    6480.69451696 Ry

     iteration #  2     ecut=    29.40 Ry     beta= 0.05
     Davidson diagonalization with overlap
     ethr =  1.00E-02,  avg # of iterations = 22.4

     negative rho (up, down):  7.677E-04 0.000E+00
 
     Adding external electric field

     Computed dipole along edir(3) : 
        Dipole               -0.9489 Ry au,         -2.4117 Debye
        Dipole field         -0.0018 Ry au, 
 
        Potential amp.        0.1660 Ry
        Total length         46.3494 bohr
 

     total cpu time spent up to now is      168.3 secs

     total energy              =   -2469.74687502 Ry
     estimated scf accuracy    <   72661.35076762 Ry

     iteration #  3     ecut=    29.40 Ry     beta= 0.05
     Davidson diagonalization with overlap
     ethr =  1.00E-02,  avg # of iterations = 17.4

     negative rho (up, down):  8.307E-04 0.000E+00
 
     Adding external electric field

     Computed dipole along edir(3) : 
        Dipole               -3.7197 Ry au,         -9.4546 Debye
        Dipole field         -0.0070 Ry au, 
 
        Potential amp.        0.6507 Ry
        Total length         46.3494 bohr
 

     total cpu time spent up to now is      236.2 secs

     total energy              =   -2961.78304456 Ry
     estimated scf accuracy    <    5541.96601808 Ry

     iteration #  4     ecut=    29.40 Ry     beta= 0.05
     Davidson diagonalization with overlap
     ethr =  1.00E-02,  avg # of iterations = 12.2

     negative rho (up, down):  8.600E-04 0.000E+00
 
     Adding external electric field

     Computed dipole along edir(3) : 
        Dipole               -5.4144 Ry au,        -13.7621 Debye
        Dipole field         -0.0102 Ry au, 
 
        Potential amp.        0.9472 Ry
        Total length         46.3494 bohr
 

     total cpu time spent up to now is      262.0 secs

     total energy              =   -2961.76667041 Ry
     estimated scf accuracy    <    2028.60606438 Ry

     iteration #  5     ecut=    29.40 Ry     beta= 0.05
     Davidson diagonalization with overlap
     ethr =  1.00E-02,  avg # of iterations =  4.0

     negative rho (up, down):  9.284E-04 0.000E+00
 
     Adding external electric field

     Computed dipole along edir(3) : 
        Dipole               -7.3798 Ry au,        -18.7577 Debye
        Dipole field         -0.0139 Ry au, 
 
        Potential amp.        1.2910 Ry
        Total length         46.3494 bohr
 

     total cpu time spent up to now is      276.2 secs

     total energy              =   -2942.53274938 Ry
     estimated scf accuracy    <    1923.93473566 Ry

     iteration #  6     ecut=    29.40 Ry     beta= 0.05
     Davidson diagonalization with overlap
     ethr =  1.00E-02,  avg # of iterations = 12.7

     negative rho (up, down):  8.976E-04 0.000E+00
 
     Adding external electric field

     Computed dipole along edir(3) : 
        Dipole               -6.2044 Ry au,        -15.7700 Debye
        Dipole field         -0.0117 Ry au, 
 
        Potential amp.        1.0854 Ry
        Total length         46.3494 bohr
 

     total cpu time spent up to now is      307.5 secs

     total energy              =   -2976.95002757 Ry
     estimated scf accuracy    <      39.85833807 Ry

     iteration #  7     ecut=    29.40 Ry     beta= 0.05
     Davidson diagonalization with overlap
     ethr =  9.92E-03,  avg # of iterations =  1.5

     negative rho (up, down):  9.277E-04 0.000E+00
 
     Adding external electric field

     Computed dipole along edir(3) : 
        Dipole               -5.5473 Ry au,        -14.0999 Debye
        Dipole field         -0.0105 Ry au, 
 
        Potential amp.        0.9704 Ry
        Total length         46.3494 bohr
 

     total cpu time spent up to now is      325.0 secs

     total energy              =   -2976.08479851 Ry
     estimated scf accuracy    <      21.51939508 Ry

     iteration #  8     ecut=    29.40 Ry     beta= 0.05
     Davidson diagonalization with overlap
     ethr =  5.35E-03,  avg # of iterations =  1.2

     negative rho (up, down):  1.067E-03 0.000E+00
 
     Adding external electric field

     Computed dipole along edir(3) : 
        Dipole               -3.5443 Ry au,         -9.0088 Debye
        Dipole field         -0.0067 Ry au, 
 
        Potential amp.        0.6200 Ry
        Total length         46.3494 bohr
 

     total cpu time spent up to now is      337.9 secs

     total energy              =   -2973.61759659 Ry
     estimated scf accuracy    <      16.92056343 Ry

     iteration #  9     ecut=    29.40 Ry     beta= 0.05
     Davidson diagonalization with overlap
     ethr =  4.21E-03,  avg # of iterations =  4.5

     negative rho (up, down):  1.102E-03 0.000E+00
 
     Adding external electric field

     Computed dipole along edir(3) : 
        Dipole               -3.1732 Ry au,         -8.0654 Debye
        Dipole field         -0.0060 Ry au, 
 
        Potential amp.        0.5551 Ry
        Total length         46.3494 bohr
 

     total cpu time spent up to now is      352.4 secs

     total energy              =   -2974.00889607 Ry
     estimated scf accuracy    <      34.29715065 Ry

     iteration # 10     ecut=    29.40 Ry     beta= 0.05
     Davidson diagonalization with overlap
     ethr =  4.21E-03,  avg # of iterations =  2.7

     negative rho (up, down):  1.397E-03 0.000E+00
 
     Adding external electric field

     Computed dipole along edir(3) : 
        Dipole               -0.8650 Ry au,         -2.1986 Debye
        Dipole field         -0.0016 Ry au, 
 
        Potential amp.        0.1513 Ry
        Total length         46.3494 bohr
 

     total cpu time spent up to now is      366.0 secs

     total energy              =   -2976.46491517 Ry
     estimated scf accuracy    <     104.21601658 Ry

     iteration # 11     ecut=    29.40 Ry     beta= 0.05
     Davidson diagonalization with overlap
     c_bands:  3 eigenvalues not converged
     c_bands:  3 eigenvalues not converged
     ethr =  4.21E-03,  avg # of iterations = 18.0

     negative rho (up, down):  1.444E-03 0.000E+00
 
     Adding external electric field

     Computed dipole along edir(3) : 
        Dipole               -2.0225 Ry au,         -5.1407 Debye
        Dipole field         -0.0038 Ry au, 
 
        Potential amp.        0.3538 Ry
        Total length         46.3494 bohr
 

     total cpu time spent up to now is      392.7 secs

     total energy              =   -2971.31233307 Ry
     estimated scf accuracy    <    1241.82351598 Ry

     iteration # 12     ecut=    29.40 Ry     beta= 0.05
     Davidson diagonalization with overlap
     ethr =  4.21E-03,  avg # of iterations =  5.3

     negative rho (up, down):  1.400E-03 0.000E+00
 
     Adding external electric field

     Computed dipole along edir(3) : 
        Dipole               -3.6781 Ry au,         -9.3487 Debye
        Dipole field         -0.0069 Ry au, 
 
        Potential amp.        0.6434 Ry
        Total length         46.3494 bohr
 

     total cpu time spent up to now is      407.6 secs

     total energy              =   -2963.80951654 Ry
     estimated scf accuracy    <     635.84820857 Ry

     iteration # 13     ecut=    29.40 Ry     beta= 0.05
     Davidson diagonalization with overlap
     c_bands:  2 eigenvalues not converged
     c_bands:  1 eigenvalues not converged
     ethr =  4.21E-03,  avg # of iterations = 17.1

     negative rho (up, down):  1.484E-03 0.000E+00
 
     Adding external electric field

     Computed dipole along edir(3) : 
        Dipole               -2.0301 Ry au,         -5.1600 Debye
        Dipole field         -0.0038 Ry au, 
 
        Potential amp.        0.3551 Ry
        Total length         46.3494 bohr
 

     total cpu time spent up to now is      438.9 secs

     total energy              =   -2972.56257079 Ry
     estimated scf accuracy    <      12.30823952 Ry

     iteration # 14     ecut=    29.40 Ry     beta= 0.05
     Davidson diagonalization with overlap
     ethr =  3.06E-03,  avg # of iterations =  2.2

     negative rho (up, down):  1.405E-03 0.000E+00
 
     Adding external electric field

     Computed dipole along edir(3) : 
        Dipole               -2.9157 Ry au,         -7.4111 Debye
        Dipole field         -0.0055 Ry au, 
 
        Potential amp.        0.5101 Ry
        Total length         46.3494 bohr
 

     total cpu time spent up to now is      452.6 secs

     total energy              =   -2971.94850770 Ry
     estimated scf accuracy    <      51.87919941 Ry

     iteration # 15     ecut=    29.40 Ry     beta= 0.05
     Davidson diagonalization with overlap
     ethr =  3.06E-03,  avg # of iterations =  1.0

     negative rho (up, down):  1.455E-03 0.000E+00
 
     Adding external electric field

     Computed dipole along edir(3) : 
        Dipole               -3.0187 Ry au,         -7.6729 Debye
        Dipole field         -0.0057 Ry au, 
 
        Potential amp.        0.5281 Ry
        Total length         46.3494 bohr
 

     total cpu time spent up to now is      465.2 secs

     total energy              =   -2972.95353110 Ry
     estimated scf accuracy    <       1.40034412 Ry

     iteration # 16     ecut=    29.40 Ry     beta= 0.05
     Davidson diagonalization with overlap
     ethr =  3.48E-04,  avg # of iterations =  7.8

     negative rho (up, down):  1.617E-03 0.000E+00
 
     Adding external electric field

     Computed dipole along edir(3) : 
        Dipole               -2.3651 Ry au,         -6.0116 Debye
        Dipole field         -0.0045 Ry au, 
 
        Potential amp.        0.4137 Ry
        Total length         46.3494 bohr
 

     total cpu time spent up to now is      481.6 secs

     total energy              =   -2973.02556931 Ry
     estimated scf accuracy    <       6.95830118 Ry

     iteration # 17     ecut=    29.40 Ry     beta= 0.05
     Davidson diagonalization with overlap
     c_bands:  1 eigenvalues not converged
     ethr =  3.48E-04,  avg # of iterations =  4.2

     negative rho (up, down):  2.354E-03 0.000E+00
 
     Adding external electric field

     Computed dipole along edir(3) : 
        Dipole               -0.8195 Ry au,         -2.0830 Debye
        Dipole field         -0.0015 Ry au, 
 
        Potential amp.        0.1434 Ry
        Total length         46.3494 bohr
 

     total cpu time spent up to now is      496.2 secs

     total energy              =   -2973.11846442 Ry
     estimated scf accuracy    <       6.83282337 Ry

     iteration # 18     ecut=    29.40 Ry     beta= 0.05
     Davidson diagonalization with overlap
     c_bands:  2 eigenvalues not converged
     ethr =  3.48E-04,  avg # of iterations = 14.9

     negative rho (up, down):  2.294E-03 0.000E+00
 
     Adding external electric field

     Computed dipole along edir(3) : 
        Dipole               -0.9659 Ry au,         -2.4551 Debye
        Dipole field         -0.0018 Ry au, 
 
        Potential amp.        0.1690 Ry
        Total length         46.3494 bohr
 

     total cpu time spent up to now is      518.3 secs

     total energy              =   -2973.36609835 Ry
     estimated scf accuracy    <      41.93831784 Ry

     iteration # 19     ecut=    29.40 Ry     beta= 0.05
     Davidson diagonalization with overlap
     ethr =  3.48E-04,  avg # of iterations =  1.4

     negative rho (up, down):  2.051E-03 0.000E+00
 
     Adding external electric field

     Computed dipole along edir(3) : 
        Dipole               -1.4277 Ry au,         -3.6287 Debye
        Dipole field         -0.0027 Ry au, 
 
        Potential amp.        0.2497 Ry
        Total length         46.3494 bohr
 

     total cpu time spent up to now is      531.2 secs

     total energy              =   -2973.11927162 Ry
     estimated scf accuracy    <      38.64971212 Ry

     iteration # 20     ecut=    29.40 Ry     beta= 0.05
     Davidson diagonalization with overlap
     ethr =  3.48E-04,  avg # of iterations =  1.7

     negative rho (up, down):  2.038E-03 0.000E+00
 
     Adding external electric field

     Computed dipole along edir(3) : 
        Dipole               -1.8954 Ry au,         -4.8175 Debye
        Dipole field         -0.0036 Ry au, 
 
        Potential amp.        0.3316 Ry
        Total length         46.3494 bohr
 

     total cpu time spent up to now is      544.6 secs

     total energy              =   -2973.29580389 Ry
     estimated scf accuracy    <       9.79715231 Ry

     iteration # 21     ecut=    29.40 Ry     beta= 0.05
     Davidson diagonalization with overlap
     ethr =  3.48E-04,  avg # of iterations =  2.8

     negative rho (up, down):  1.678E-03 0.000E+00
 
     Adding external electric field

     Computed dipole along edir(3) : 
        Dipole               -2.3931 Ry au,         -6.0828 Debye
        Dipole field         -0.0045 Ry au, 
 
        Potential amp.        0.4186 Ry
        Total length         46.3494 bohr
 

     total cpu time spent up to now is      558.6 secs

     total energy              =   -2972.79581344 Ry
     estimated scf accuracy    <      16.03340996 Ry

     iteration # 22     ecut=    29.40 Ry     beta= 0.05
     Davidson diagonalization with overlap
     ethr =  3.48E-04,  avg # of iterations =  4.7

     negative rho (up, down):  1.680E-03 0.000E+00
 
     Adding external electric field

     Computed dipole along edir(3) : 
        Dipole               -2.0937 Ry au,         -5.3216 Debye
        Dipole field         -0.0040 Ry au, 
 
        Potential amp.        0.3663 Ry
        Total length         46.3494 bohr
 

     total cpu time spent up to now is      573.6 secs

     total energy              =   -2972.76439913 Ry
     estimated scf accuracy    <       2.69468086 Ry

     iteration # 23     ecut=    29.40 Ry     beta= 0.05
     Davidson diagonalization with overlap
     ethr =  3.48E-04,  avg # of iterations = 11.7

     negative rho (up, down):  2.462E-03 0.000E+00
 
     Adding external electric field

     Computed dipole along edir(3) : 
        Dipole               -0.2973 Ry au,         -0.7557 Debye
        Dipole field         -0.0006 Ry au, 
 
        Potential amp.        0.0520 Ry
        Total length         46.3494 bohr
 

     total cpu time spent up to now is      591.3 secs

     total energy              =   -2972.65810213 Ry
     estimated scf accuracy    <       0.82676381 Ry

     iteration # 24     ecut=    29.40 Ry     beta= 0.05
     Davidson diagonalization with overlap
     ethr =  2.06E-04,  avg # of iterations =  5.3

     negative rho (up, down):  2.899E-03 0.000E+00
 
     Adding external electric field

     Computed dipole along edir(3) : 
        Dipole               -0.0492 Ry au,         -0.1250 Debye
        Dipole field         -0.0001 Ry au, 
 
        Potential amp.        0.0086 Ry
        Total length         46.3494 bohr
 

     total cpu time spent up to now is      608.3 secs

     total energy              =   -2972.74470786 Ry
     estimated scf accuracy    <       0.38256538 Ry

     iteration # 25     ecut=    29.40 Ry     beta= 0.05
     Davidson diagonalization with overlap
     c_bands:  3 eigenvalues not converged
     ethr =  9.52E-05,  avg # of iterations =  8.6

     negative rho (up, down):  3.488E-03 0.000E+00
 
     Adding external electric field

     Computed dipole along edir(3) : 
        Dipole               -0.1846 Ry au,         -0.4692 Debye
        Dipole field         -0.0003 Ry au, 
 
        Potential amp.        0.0323 Ry
        Total length         46.3494 bohr
 

     total cpu time spent up to now is      624.4 secs

     total energy              =   -2972.73395414 Ry
     estimated scf accuracy    <       0.20725991 Ry

     iteration # 26     ecut=    29.40 Ry     beta= 0.05
     Davidson diagonalization with overlap
     c_bands:  2 eigenvalues not converged
     c_bands:  1 eigenvalues not converged
     c_bands:  1 eigenvalues not converged
     ethr =  5.16E-05,  avg # of iterations = 13.6

     negative rho (up, down):  3.491E-03 0.000E+00
 
     Adding external electric field

     Computed dipole along edir(3) : 
        Dipole               -0.0253 Ry au,         -0.0642 Debye
        Dipole field         -0.0000 Ry au, 
 
        Potential amp.        0.0044 Ry
        Total length         46.3494 bohr
 

     total cpu time spent up to now is      651.9 secs

     total energy              =   -2972.77606425 Ry
     estimated scf accuracy    <       6.70189953 Ry

     iteration # 27     ecut=    29.40 Ry     beta= 0.05
     Davidson diagonalization with overlap
     c_bands:  1 eigenvalues not converged
     ethr =  5.16E-05,  avg # of iterations =  3.3

     negative rho (up, down):  3.698E-03 0.000E+00
 
     Adding external electric field

     Computed dipole along edir(3) : 
        Dipole                0.3416 Ry au,          0.8682 Debye
        Dipole field          0.0006 Ry au, 
 
        Potential amp.       -0.0598 Ry
        Total length         46.3494 bohr
 

     total cpu time spent up to now is      665.6 secs

     total energy              =   -2972.71351984 Ry
     estimated scf accuracy    <       3.32820531 Ry

     iteration # 28     ecut=    29.40 Ry     beta= 0.05
     Davidson diagonalization with overlap
     c_bands:  1 eigenvalues not converged
     ethr =  5.16E-05,  avg # of iterations = 10.4

     negative rho (up, down):  4.445E-03 0.000E+00
 
     Adding external electric field

     Computed dipole along edir(3) : 
        Dipole                0.3889 Ry au,          0.9884 Debye
        Dipole field          0.0007 Ry au, 
 
        Potential amp.       -0.0680 Ry
        Total length         46.3494 bohr
 

     total cpu time spent up to now is      682.9 secs

     total energy              =   -2972.74830258 Ry
     estimated scf accuracy    <       0.09002013 Ry

     iteration # 29     ecut=    29.40 Ry     beta= 0.05
     Davidson diagonalization with overlap
     c_bands:  1 eigenvalues not converged
     ethr =  2.24E-05,  avg # of iterations =  6.2

     negative rho (up, down):  5.988E-03 0.000E+00
 
     Adding external electric field

     Computed dipole along edir(3) : 
        Dipole                0.3510 Ry au,          0.8923 Debye
        Dipole field          0.0007 Ry au, 
 
        Potential amp.       -0.0614 Ry
        Total length         46.3494 bohr
 

     total cpu time spent up to now is      698.1 secs

     total energy              =   -2972.76365301 Ry
     estimated scf accuracy    <       0.45932990 Ry

     iteration # 30     ecut=    29.40 Ry     beta= 0.05
     Davidson diagonalization with overlap
     ethr =  2.24E-05,  avg # of iterations =  7.1

     negative rho (up, down):  6.131E-03 0.000E+00
 
     Adding external electric field

     Computed dipole along edir(3) : 
        Dipole                0.4340 Ry au,          1.1030 Debye
        Dipole field          0.0008 Ry au, 
 
        Potential amp.       -0.0759 Ry
        Total length         46.3494 bohr
 

     total cpu time spent up to now is      714.9 secs

     total energy              =   -2972.74672519 Ry
     estimated scf accuracy    <       3.16645963 Ry

     iteration # 31     ecut=    29.40 Ry     beta= 0.05
     Davidson diagonalization with overlap
     ethr =  2.24E-05,  avg # of iterations =  2.9

     negative rho (up, down):  7.304E-03 0.000E+00
 
     Adding external electric field

     Computed dipole along edir(3) : 
        Dipole                0.6105 Ry au,          1.5517 Debye
        Dipole field          0.0012 Ry au, 
 
        Potential amp.       -0.1068 Ry
        Total length         46.3494 bohr
 

     total cpu time spent up to now is      728.9 secs

     total energy              =   -2972.74487919 Ry
     estimated scf accuracy    <       0.59559220 Ry

     iteration # 32     ecut=    29.40 Ry     beta= 0.05
     Davidson diagonalization with overlap
     c_bands:  1 eigenvalues not converged
     c_bands:  3 eigenvalues not converged
     c_bands:  3 eigenvalues not converged
     ethr =  2.24E-05,  avg # of iterations = 12.2

     negative rho (up, down):  7.588E-03 0.000E+00
 
     Adding external electric field

     Computed dipole along edir(3) : 
        Dipole                0.6701 Ry au,          1.7031 Debye
        Dipole field          0.0013 Ry au, 
 
        Potential amp.       -0.1172 Ry
        Total length         46.3494 bohr
 

     total cpu time spent up to now is      746.8 secs

     total energy              =   -2972.75044944 Ry
     estimated scf accuracy    <       0.04503152 Ry

     iteration # 33     ecut=    29.40 Ry     beta= 0.05
     Davidson diagonalization with overlap
     c_bands:  2 eigenvalues not converged
     c_bands:  1 eigenvalues not converged
     c_bands:  2 eigenvalues not converged
     ethr =  1.12E-05,  avg # of iterations = 15.8

     negative rho (up, down):  7.390E-03 0.000E+00
 
     Adding external electric field

     Computed dipole along edir(3) : 
        Dipole                0.6497 Ry au,          1.6513 Debye
        Dipole field          0.0012 Ry au, 
 
        Potential amp.       -0.1137 Ry
        Total length         46.3494 bohr
 

     total cpu time spent up to now is      766.1 secs

     total energy              =   -2972.75117043 Ry
     estimated scf accuracy    <       0.01387230 Ry

     iteration # 34     ecut=    29.40 Ry     beta= 0.05
     Davidson diagonalization with overlap
     c_bands:  3 eigenvalues not converged
     c_bands:  1 eigenvalues not converged
     c_bands:  1 eigenvalues not converged
     c_bands:  1 eigenvalues not converged
     ethr =  3.45E-06,  avg # of iterations = 14.3

     negative rho (up, down):  1.053E-02 0.000E+00
 
     Adding external electric field

     Computed dipole along edir(3) : 
        Dipole                0.6501 Ry au,          1.6523 Debye
        Dipole field          0.0012 Ry au, 
 
        Potential amp.       -0.1137 Ry
        Total length         46.3494 bohr
 

     total cpu time spent up to now is      784.6 secs

     total energy              =   -2972.75054982 Ry
     estimated scf accuracy    <       0.01517280 Ry

     iteration # 35     ecut=    29.40 Ry     beta= 0.05
     Davidson diagonalization with overlap
     c_bands:  2 eigenvalues not converged
     ethr =  3.45E-06,  avg # of iterations =  8.4

     negative rho (up, down):  1.207E-02 0.000E+00
 
     Adding external electric field

     Computed dipole along edir(3) : 
        Dipole                0.6696 Ry au,          1.7020 Debye
        Dipole field          0.0013 Ry au, 
 
        Potential amp.       -0.1171 Ry
        Total length         46.3494 bohr
 

     total cpu time spent up to now is      802.6 secs

     total energy              =   -2972.75203127 Ry
     estimated scf accuracy    <       0.00532885 Ry

     iteration # 36     ecut=    29.40 Ry     beta= 0.05
     Davidson diagonalization with overlap
     c_bands:  1 eigenvalues not converged
     c_bands:  1 eigenvalues not converged
     c_bands:  2 eigenvalues not converged
     c_bands:  1 eigenvalues not converged
     ethr =  1.33E-06,  avg # of iterations = 14.1

     negative rho (up, down):  1.208E-02 0.000E+00
 
     Adding external electric field

     Computed dipole along edir(3) : 
        Dipole                0.6623 Ry au,          1.6833 Debye
        Dipole field          0.0012 Ry au, 
 
        Potential amp.       -0.1159 Ry
        Total length         46.3494 bohr
 

     total cpu time spent up to now is      827.9 secs

     total energy              =   -2972.75368961 Ry
     estimated scf accuracy    <       0.00865251 Ry

     iteration # 37     ecut=    29.40 Ry     beta= 0.05
     Davidson diagonalization with overlap
     c_bands:  2 eigenvalues not converged
     ethr =  1.33E-06,  avg # of iterations =  4.9

     negative rho (up, down):  1.242E-02 0.000E+00
 
     Adding external electric field

     Computed dipole along edir(3) : 
        Dipole                0.6790 Ry au,          1.7259 Debye
        Dipole field          0.0013 Ry au, 
 
        Potential amp.       -0.1188 Ry
        Total length         46.3494 bohr
 

     total cpu time spent up to now is      859.0 secs

     total energy              =   -2972.75264745 Ry
     estimated scf accuracy    <       0.00966149 Ry

     iteration # 38     ecut=    29.40 Ry     beta= 0.05
     Davidson diagonalization with overlap
     ethr =  1.33E-06,  avg # of iterations =  2.2

     negative rho (up, down):  1.257E-02 0.000E+00
 
     Adding external electric field

     Computed dipole along edir(3) : 
        Dipole                0.6821 Ry au,          1.7337 Debye
        Dipole field          0.0013 Ry au, 
 
        Potential amp.       -0.1193 Ry
        Total length         46.3494 bohr
 

     total cpu time spent up to now is      872.1 secs

     total energy              =   -2972.75102133 Ry
     estimated scf accuracy    <       0.00620741 Ry

     iteration # 39     ecut=    29.40 Ry     beta= 0.05
     Davidson diagonalization with overlap
     c_bands:  1 eigenvalues not converged
     ethr =  1.33E-06,  avg # of iterations = 10.5

     negative rho (up, down):  1.220E-02 0.000E+00
 
     Adding external electric field

     Computed dipole along edir(3) : 
        Dipole                0.6714 Ry au,          1.7066 Debye
        Dipole field          0.0013 Ry au, 
 
        Potential amp.       -0.1175 Ry
        Total length         46.3494 bohr
 

     total cpu time spent up to now is      895.0 secs

     total energy              =   -2972.75213599 Ry
     estimated scf accuracy    <       0.00465856 Ry

     iteration # 40     ecut=    29.40 Ry     beta= 0.05
     Davidson diagonalization with overlap
     ethr =  1.16E-06,  avg # of iterations =  6.3

     negative rho (up, down):  1.417E-02 0.000E+00
 
     Adding external electric field

     Computed dipole along edir(3) : 
        Dipole                0.7103 Ry au,          1.8054 Debye
        Dipole field          0.0013 Ry au, 
 
        Potential amp.       -0.1243 Ry
        Total length         46.3494 bohr
 

     total cpu time spent up to now is      910.2 secs

     total energy              =   -2972.75221227 Ry
     estimated scf accuracy    <       0.00318008 Ry

     iteration # 41     ecut=    29.40 Ry     beta= 0.05
     Davidson diagonalization with overlap
     ethr =  7.91E-07,  avg # of iterations =  6.7

     negative rho (up, down):  1.477E-02 0.000E+00
 
     Adding external electric field

     Computed dipole along edir(3) : 
        Dipole                0.7010 Ry au,          1.7818 Debye
        Dipole field          0.0013 Ry au, 
 
        Potential amp.       -0.1226 Ry
        Total length         46.3494 bohr
 

     total cpu time spent up to now is      928.7 secs

     total energy              =   -2972.75280748 Ry
     estimated scf accuracy    <       0.00196801 Ry

     iteration # 42     ecut=    29.40 Ry     beta= 0.05
     Davidson diagonalization with overlap
     ethr =  4.90E-07,  avg # of iterations =  2.0

     negative rho (up, down):  1.515E-02 0.000E+00
 
     Adding external electric field

     Computed dipole along edir(3) : 
        Dipole                0.6706 Ry au,          1.7044 Debye
        Dipole field          0.0013 Ry au, 
 
        Potential amp.       -0.1173 Ry
        Total length         46.3494 bohr
 

     total cpu time spent up to now is      942.5 secs

     total energy              =   -2972.75221227 Ry
     estimated scf accuracy    <       0.00189605 Ry

     iteration # 43     ecut=    29.40 Ry     beta= 0.05
     Davidson diagonalization with overlap
     c_bands:  1 eigenvalues not converged
     ethr =  4.72E-07,  avg # of iterations =  7.5

     negative rho (up, down):  1.563E-02 0.000E+00
 
     Adding external electric field

     Computed dipole along edir(3) : 
        Dipole                0.6869 Ry au,          1.7459 Debye
        Dipole field          0.0013 Ry au, 
 
        Potential amp.       -0.1202 Ry
        Total length         46.3494 bohr
 

     total cpu time spent up to now is      962.9 secs

     total energy              =   -2972.75264958 Ry
     estimated scf accuracy    <       0.00107547 Ry

     iteration # 44     ecut=    29.40 Ry     beta= 0.05
     Davidson diagonalization with overlap
     ethr =  2.68E-07,  avg # of iterations =  5.0

     negative rho (up, down):  1.584E-02 0.000E+00
 
     Adding external electric field

     Computed dipole along edir(3) : 
        Dipole                0.6830 Ry au,          1.7359 Debye
        Dipole field          0.0013 Ry au, 
 
        Potential amp.       -0.1195 Ry
        Total length         46.3494 bohr
 

     total cpu time spent up to now is      978.0 secs

     total energy              =   -2972.75259037 Ry
     estimated scf accuracy    <       0.00042870 Ry

     iteration # 45     ecut=    29.40 Ry     beta= 0.05
     Davidson diagonalization with overlap
     ethr =  1.07E-07,  avg # of iterations =  8.9

     negative rho (up, down):  1.570E-02 0.000E+00
 
     Adding external electric field

     Computed dipole along edir(3) : 
        Dipole                0.6743 Ry au,          1.7139 Debye
        Dipole field          0.0013 Ry au, 
 
        Potential amp.       -0.1180 Ry
        Total length         46.3494 bohr
 

     total cpu time spent up to now is     1000.4 secs

     total energy              =   -2972.75268265 Ry
     estimated scf accuracy    <       0.00043813 Ry

     iteration # 46     ecut=    29.40 Ry     beta= 0.05
     Davidson diagonalization with overlap
     ethr =  1.07E-07,  avg # of iterations =  6.0

     negative rho (up, down):  1.513E-02 0.000E+00
 
     Adding external electric field

     Computed dipole along edir(3) : 
        Dipole                0.6618 Ry au,          1.6822 Debye
        Dipole field          0.0012 Ry au, 
 
        Potential amp.       -0.1158 Ry
        Total length         46.3494 bohr
 

     total cpu time spent up to now is     1015.7 secs

     total energy              =   -2972.75270628 Ry
     estimated scf accuracy    <       0.00012027 Ry

     iteration # 47     ecut=    29.40 Ry     beta= 0.05
     Davidson diagonalization with overlap
     ethr =  2.99E-08,  avg # of iterations =  5.4

     negative rho (up, down):  1.515E-02 0.000E+00
 
     Adding external electric field

     Computed dipole along edir(3) : 
        Dipole                0.6621 Ry au,          1.6830 Debye
        Dipole field          0.0012 Ry au, 
 
        Potential amp.       -0.1158 Ry
        Total length         46.3494 bohr
 

     total cpu time spent up to now is     1033.7 secs

     total energy              =   -2972.75274247 Ry
     estimated scf accuracy    <       0.00005760 Ry

     iteration # 48     ecut=    29.40 Ry     beta= 0.05
     Davidson diagonalization with overlap
     ethr =  1.43E-08,  avg # of iterations =  4.6

     negative rho (up, down):  1.510E-02 0.000E+00
 
     Adding external electric field

     Computed dipole along edir(3) : 
        Dipole                0.6609 Ry au,          1.6798 Debye
        Dipole field          0.0012 Ry au, 
 
        Potential amp.       -0.1156 Ry
        Total length         46.3494 bohr
 

     total cpu time spent up to now is     1048.7 secs

     total energy              =   -2972.75276429 Ry
     estimated scf accuracy    <       0.00005448 Ry

     iteration # 49     ecut=    29.40 Ry     beta= 0.05
     Davidson diagonalization with overlap
     ethr =  1.36E-08,  avg # of iterations =  5.5

     negative rho (up, down):  1.530E-02 0.000E+00
 
     Adding external electric field

     Computed dipole along edir(3) : 
        Dipole                0.6671 Ry au,          1.6957 Debye
        Dipole field          0.0013 Ry au, 
 
        Potential amp.       -0.1167 Ry
        Total length         46.3494 bohr
 

     total cpu time spent up to now is     1067.9 secs

     total energy              =   -2972.75276994 Ry
     estimated scf accuracy    <       0.00009247 Ry

     iteration # 50     ecut=    29.40 Ry     beta= 0.05
     Davidson diagonalization with overlap
     ethr =  1.36E-08,  avg # of iterations =  6.8

     negative rho (up, down):  1.523E-02 0.000E+00
 
     Adding external electric field

     Computed dipole along edir(3) : 
        Dipole                0.6626 Ry au,          1.6843 Debye
        Dipole field          0.0013 Ry au, 
 
        Potential amp.       -0.1159 Ry
        Total length         46.3494 bohr
 

     total cpu time spent up to now is     1094.3 secs

     total energy              =   -2972.75278244 Ry
     estimated scf accuracy    <       0.00007436 Ry

     iteration # 51     ecut=    29.40 Ry     beta= 0.05
     Davidson diagonalization with overlap
     ethr =  1.36E-08,  avg # of iterations =  6.2

     negative rho (up, down):  1.514E-02 0.000E+00
 
     Adding external electric field

     Computed dipole along edir(3) : 
        Dipole                0.6603 Ry au,          1.6784 Debye
        Dipole field          0.0012 Ry au, 
 
        Potential amp.       -0.1155 Ry
        Total length         46.3494 bohr
 

     total cpu time spent up to now is     1114.7 secs

     total energy              =   -2972.75279573 Ry
     estimated scf accuracy    <       0.00006682 Ry

     iteration # 52     ecut=    29.40 Ry     beta= 0.05
     Davidson diagonalization with overlap
     ethr =  1.36E-08,  avg # of iterations =  3.3

     negative rho (up, down):  1.496E-02 0.000E+00
 
     Adding external electric field

     Computed dipole along edir(3) : 
        Dipole                0.6570 Ry au,          1.6700 Debye
        Dipole field          0.0012 Ry au, 
 
        Potential amp.       -0.1149 Ry
        Total length         46.3494 bohr
 

     total cpu time spent up to now is     1129.1 secs

     total energy              =   -2972.75280247 Ry
     estimated scf accuracy    <       0.00002734 Ry

     iteration # 53     ecut=    29.40 Ry     beta= 0.05
     Davidson diagonalization with overlap
     ethr =  6.80E-09,  avg # of iterations =  6.2

     negative rho (up, down):  1.491E-02 0.000E+00
 
     Adding external electric field

     Computed dipole along edir(3) : 
        Dipole                0.6573 Ry au,          1.6707 Debye
        Dipole field          0.0012 Ry au, 
 
        Potential amp.       -0.1150 Ry
        Total length         46.3494 bohr
 

     total cpu time spent up to now is     1149.3 secs

     total energy              =   -2972.75281687 Ry
     estimated scf accuracy    <       0.00001495 Ry

     iteration # 54     ecut=    29.40 Ry     beta= 0.05
     Davidson diagonalization with overlap
     ethr =  3.72E-09,  avg # of iterations =  5.0

     negative rho (up, down):  1.486E-02 0.000E+00
 
     Adding external electric field

     Computed dipole along edir(3) : 
        Dipole                0.6573 Ry au,          1.6708 Debye
        Dipole field          0.0012 Ry au, 
 
        Potential amp.       -0.1150 Ry
        Total length         46.3494 bohr
 

     total cpu time spent up to now is     1165.9 secs

     total energy              =   -2972.75282823 Ry
     estimated scf accuracy    <       0.00000492 Ry

     iteration # 55     ecut=    29.40 Ry     beta= 0.05
     Davidson diagonalization with overlap
     ethr =  1.22E-09,  avg # of iterations =  6.5

     negative rho (up, down):  1.480E-02 0.000E+00
 
     Adding external electric field

     Computed dipole along edir(3) : 
        Dipole                0.6568 Ry au,          1.6693 Debye
        Dipole field          0.0012 Ry au, 
 
        Potential amp.       -0.1149 Ry
        Total length         46.3494 bohr
 

     total cpu time spent up to now is     1187.6 secs

     total energy              =   -2972.75283495 Ry
     estimated scf accuracy    <       0.00001386 Ry

     iteration # 56     ecut=    29.40 Ry     beta= 0.05
     Davidson diagonalization with overlap
     ethr =  1.22E-09,  avg # of iterations =  5.1

     negative rho (up, down):  1.478E-02 0.000E+00
 
     Adding external electric field

     Computed dipole along edir(3) : 
        Dipole                0.6566 Ry au,          1.6688 Debye
        Dipole field          0.0012 Ry au, 
 
        Potential amp.       -0.1149 Ry
        Total length         46.3494 bohr
 

     total cpu time spent up to now is     1206.8 secs

     total energy              =   -2972.75284354 Ry
     estimated scf accuracy    <       0.00000234 Ry

     iteration # 57     ecut=    29.40 Ry     beta= 0.05
     Davidson diagonalization with overlap
     ethr =  5.81E-10,  avg # of iterations =  2.6

     negative rho (up, down):  1.477E-02 0.000E+00
 
     Adding external electric field

     Computed dipole along edir(3) : 
        Dipole                0.6561 Ry au,          1.6676 Debye
        Dipole field          0.0012 Ry au, 
 
        Potential amp.       -0.1148 Ry
        Total length         46.3494 bohr
 

     total cpu time spent up to now is     1220.7 secs

     total energy              =   -2972.75285117 Ry
     estimated scf accuracy    <       0.00000187 Ry

     iteration # 58     ecut=    29.40 Ry     beta= 0.05
     Davidson diagonalization with overlap
     ethr =  4.64E-10,  avg # of iterations =  5.8

     negative rho (up, down):  1.479E-02 0.000E+00
 
     Adding external electric field

     Computed dipole along edir(3) : 
        Dipole                0.6558 Ry au,          1.6668 Debye
        Dipole field          0.0012 Ry au, 
 
        Potential amp.       -0.1147 Ry
        Total length         46.3494 bohr
 

     total cpu time spent up to now is     1238.2 secs

     total energy              =   -2972.75285735 Ry
     estimated scf accuracy    <       0.00000098 Ry

     iteration # 59     ecut=    29.40 Ry     beta= 0.05
     Davidson diagonalization with overlap
     ethr =  2.44E-10,  avg # of iterations =  5.3

     negative rho (up, down):  1.482E-02 0.000E+00
 
     Adding external electric field

     Computed dipole along edir(3) : 
        Dipole                0.6563 Ry au,          1.6681 Debye
        Dipole field          0.0012 Ry au, 
 
        Potential amp.       -0.1148 Ry
        Total length         46.3494 bohr
 

     total cpu time spent up to now is     1254.0 secs

     total energy              =   -2972.75286270 Ry
     estimated scf accuracy    <       0.00000067 Ry

     iteration # 60     ecut=    29.40 Ry     beta= 0.05
     Davidson diagonalization with overlap
     ethr =  1.67E-10,  avg # of iterations =  5.5

     negative rho (up, down):  1.482E-02 0.000E+00
 
     Adding external electric field

     Computed dipole along edir(3) : 
        Dipole                0.6562 Ry au,          1.6678 Debye
        Dipole field          0.0012 Ry au, 
 
        Potential amp.       -0.1148 Ry
        Total length         46.3494 bohr
 

     total cpu time spent up to now is     1271.5 secs

     total energy              =   -2972.75286771 Ry
     estimated scf accuracy    <       0.00000044 Ry

     iteration # 61     ecut=    29.40 Ry     beta= 0.05
     Davidson diagonalization with overlap
     ethr =  1.09E-10,  avg # of iterations =  1.8

     negative rho (up, down):  1.482E-02 0.000E+00
 
     Adding external electric field

     Computed dipole along edir(3) : 
        Dipole                0.6558 Ry au,          1.6668 Debye
        Dipole field          0.0012 Ry au, 
 
        Potential amp.       -0.1147 Ry
        Total length         46.3494 bohr
 

     total cpu time spent up to now is     1284.9 secs

     total energy              =   -2972.75287211 Ry
     estimated scf accuracy    <       0.00000033 Ry

     iteration # 62     ecut=    29.40 Ry     beta= 0.05
     Davidson diagonalization with overlap
     ethr =  8.25E-11,  avg # of iterations =  6.8

     negative rho (up, down):  1.484E-02 0.000E+00
 
     Adding external electric field

     Computed dipole along edir(3) : 
        Dipole                0.6561 Ry au,          1.6677 Debye
        Dipole field          0.0012 Ry au, 
 
        Potential amp.       -0.1148 Ry
        Total length         46.3494 bohr
 

     total cpu time spent up to now is     1306.2 secs

     total energy              =   -2972.75287605 Ry
     estimated scf accuracy    <       0.00000055 Ry

     iteration # 63     ecut=    29.40 Ry     beta= 0.05
     Davidson diagonalization with overlap
     ethr =  8.25E-11,  avg # of iterations =  5.0

     negative rho (up, down):  1.485E-02 0.000E+00
 
     Adding external electric field

     Computed dipole along edir(3) : 
        Dipole                0.6562 Ry au,          1.6679 Debye
        Dipole field          0.0012 Ry au, 
 
        Potential amp.       -0.1148 Ry
        Total length         46.3494 bohr
 

     total cpu time spent up to now is     1321.9 secs

     total energy              =   -2972.75287953 Ry
     estimated scf accuracy    <       0.00000023 Ry

     iteration # 64     ecut=    29.40 Ry     beta= 0.05
     Davidson diagonalization with overlap
     ethr =  5.76E-11,  avg # of iterations =  7.3

     negative rho (up, down):  1.485E-02 0.000E+00
 
     Adding external electric field

     Computed dipole along edir(3) : 
        Dipole                0.6562 Ry au,          1.6680 Debye
        Dipole field          0.0012 Ry au, 
 
        Potential amp.       -0.1148 Ry
        Total length         46.3494 bohr
 

     total cpu time spent up to now is     1343.3 secs

     total energy              =   -2972.75288278 Ry
     estimated scf accuracy    <       0.00000012 Ry

     iteration # 65     ecut=    29.40 Ry     beta= 0.05
     Davidson diagonalization with overlap
     ethr =  3.04E-11,  avg # of iterations =  1.9

     negative rho (up, down):  1.485E-02 0.000E+00
 
     Adding external electric field

     Computed dipole along edir(3) : 
        Dipole                0.6561 Ry au,          1.6677 Debye
        Dipole field          0.0012 Ry au, 
 
        Potential amp.       -0.1148 Ry
        Total length         46.3494 bohr
 

     total cpu time spent up to now is     1356.9 secs

     total energy              =   -2972.75288564 Ry
     estimated scf accuracy    <       0.00000010 Ry

     iteration # 66     ecut=    29.40 Ry     beta= 0.05
     Davidson diagonalization with overlap
     ethr =  2.58E-11,  avg # of iterations =  5.5

     negative rho (up, down):  1.494E-02 0.000E+00
 
     Adding external electric field

     Computed dipole along edir(3) : 
        Dipole                0.6580 Ry au,          1.6724 Debye
        Dipole field          0.0012 Ry au, 
 
        Potential amp.       -0.1151 Ry
        Total length         46.3494 bohr
 

     total cpu time spent up to now is     1375.5 secs

     End of self-consistent calculation

          k = 0.0000 0.0000 0.0000 ( 18029 PWs)   bands (ev):

   -56.1997 -56.1659 -55.7856 -55.7520 -55.5819 -55.5455 -55.4956 -55.3468
   -55.3130 -55.3111 -55.1671 -55.1532 -55.0266 -55.0026 -54.9714 -54.9374
   -32.6500 -32.4921 -32.4652 -32.3582 -32.2742 -32.2656 -32.2652 -32.0295
   -32.0044 -31.9848 -31.9328 -31.9275 -31.9249 -31.8927 -31.8444 -31.8189
   -31.7912 -31.7679 -31.7661 -31.7239 -31.7088 -31.6957 -31.6830 -31.6534
   -31.6362 -31.6230 -31.5525 -31.5318 -31.5233 -31.5191 -31.4970 -31.4634
   -31.4334 -31.4005 -31.3680 -31.3618 -31.3560 -31.3045 -31.2834 -31.2809
   -31.2558 -31.2386 -31.2385 -31.2346 -31.2139 -31.1867 -31.1021 -30.9902
   -18.8216 -16.4933 -16.4417 -16.1588 -15.9524 -15.7772 -15.6936 -15.6809
   -15.6311 -15.5101 -15.4990 -15.3866 -15.2991 -15.2232 -15.1962 -15.1937
   -15.0995 -15.0557 -15.0132 -14.9886 -14.9764 -14.9693 -14.9373 -14.8297
   -14.8217 -14.7937 -14.6952 -14.6846 -14.5803 -14.2843 -14.2685 -13.4691
   -13.3569 -11.4775  -6.8989  -4.3738  -4.1576  -4.0049  -4.0026  -3.9325
    -3.7069  -3.4944  -3.4092  -3.2467  -3.1924  -3.1137  -2.9159  -2.9061
    -2.8514  -2.7807  -2.7059  -2.6471  -2.6003  -2.5834  -2.4893  -2.4505
    -2.4298  -2.4264  -2.3943  -2.3779  -2.2533  -2.2498  -2.2194  -2.1703
    -2.1101  -2.0950  -2.0292  -2.0202  -2.0031  -1.9555  -1.9206  -1.8733
    -1.7940  -1.7843  -1.6415  -1.6276  -1.6184  -1.5382  -1.5136  -1.5047
    -1.4544  -1.2942  -1.2233  -1.1756  -1.1712  -1.0343  -1.0208  -0.9834
    -0.9024  -0.8668  -0.7781  -0.7677  -0.7575  -0.7490  -0.6652  -0.6290
    -0.6138  -0.5876  -0.4050  -0.3765  -0.3147  -0.2620  -0.1627  -0.1189
    -0.1123  -0.1034  -0.0638  -0.0078   0.0135   0.0285   0.1270   0.1522
     0.2055   0.2744   0.3091   0.3815   0.4018   0.4042   0.4156   0.4708
     0.5626   0.6552   0.6980   0.7137   0.7819   0.7959   0.9328   0.9464
     1.0530   1.0944   1.1026   1.1634   1.2840   1.5666   1.6013   1.6406
     2.7593   3.0265   3.1541   3.3108   3.4585   3.5547   3.8455   3.8921
     3.9310   3.9550   4.0079

          k = 0.0000 0.0419 0.0000 ( 17933 PWs)   bands (ev):

   -56.1947 -56.1708 -55.7806 -55.7569 -55.5815 -55.5424 -55.4985 -55.3420
   -55.3158 -55.3132 -55.1661 -55.1522 -55.0275 -55.0035 -54.9663 -54.9423
   -32.5964 -32.4877 -32.4682 -32.3447 -32.3304 -32.2791 -32.2140 -31.9924
   -31.9767 -31.9763 -31.9610 -31.9398 -31.9256 -31.8986 -31.8186 -31.7906
   -31.7881 -31.7646 -31.7586 -31.7198 -31.7080 -31.7040 -31.7017 -31.6446
   -31.6089 -31.6041 -31.5583 -31.5490 -31.5356 -31.5300 -31.5201 -31.4986
   -31.4288 -31.4000 -31.3606 -31.3521 -31.3147 -31.3102 -31.3009 -31.2841
   -31.2795 -31.2574 -31.2403 -31.2383 -31.2347 -31.1744 -31.1144 -31.0471
   -18.8202 -16.4381 -16.3698 -16.0394 -15.8480 -15.7654 -15.6947 -15.5876
   -15.5764 -15.5713 -15.4607 -15.3695 -15.3373 -15.2829 -15.2140 -15.1683
   -15.1411 -15.0993 -15.0616 -15.0103 -14.9610 -14.9415 -14.9300 -14.8765
   -14.8721 -14.7393 -14.7314 -14.7073 -14.6408 -14.3754 -14.3261 -13.4753
   -13.3975 -11.4767  -6.9070  -4.3482  -4.1559  -4.0012  -3.9275  -3.8214
    -3.5305  -3.3398  -3.2437  -3.1315  -3.0845  -2.9881  -2.8895  -2.8740
    -2.8590  -2.7185  -2.6626  -2.6222  -2.5834  -2.5670  -2.5588  -2.5155
    -2.4791  -2.4665  -2.4438  -2.4091  -2.3787  -2.3663  -2.3509  -2.3004
    -2.2419  -2.2042  -2.1479  -2.1031  -2.0525  -2.0121  -1.9028  -1.8379
    -1.7518  -1.7172  -1.6431  -1.6185  -1.5520  -1.4797  -1.4242  -1.4023
    -1.2972  -1.2214  -1.1303  -1.0690  -1.0429  -0.9979  -0.9632  -0.9159
    -0.8384  -0.8311  -0.7808  -0.7251  -0.6922  -0.6319  -0.6170  -0.5603
    -0.5345  -0.5089  -0.4672  -0.4083  -0.3582  -0.3356  -0.2632  -0.2116
    -0.1719  -0.1500  -0.0877  -0.0738  -0.0428  -0.0115   0.0798   0.0993
     0.1409   0.1973   0.2067   0.3083   0.3182   0.3554   0.3918   0.4160
     0.4531   0.5030   0.5403   0.6145   0.6645   0.7184   0.7245   0.7650
     0.8945   0.9838   1.0619   1.2660   1.3902   1.4369   1.5544   1.5758
     2.7564   3.2581   3.3007   3.4163   3.6026   3.7610   3.7683   3.8737
     3.8790   3.9714   3.9879

          k = 0.0000-0.0839 0.0000 ( 17884 PWs)   bands (ev):

   -56.1828 -56.1826 -55.7695 -55.7679 -55.5812 -55.5388 -55.5021 -55.3340
   -55.3237 -55.3135 -55.1651 -55.1512 -55.0284 -55.0044 -54.9544 -54.9542
   -32.4776 -32.4775 -32.4648 -32.4646 -32.3121 -32.3117 -32.0893 -32.0857
   -31.9636 -31.9590 -31.9584 -31.9561 -31.8668 -31.8592 -31.8298 -31.8195
   -31.7849 -31.7608 -31.7475 -31.7187 -31.7159 -31.6896 -31.6643 -31.6514
   -31.6030 -31.5925 -31.5779 -31.5661 -31.5467 -31.5402 -31.5338 -31.5040
   -31.4259 -31.3997 -31.3712 -31.3593 -31.3544 -31.2995 -31.2923 -31.2922
   -31.2881 -31.2472 -31.2379 -31.2362 -31.1830 -31.1825 -31.1447 -31.1443
   -18.8189 -16.4348 -16.0687 -16.0624 -15.7645 -15.7435 -15.6485 -15.5894
   -15.5162 -15.5011 -15.4273 -15.4270 -15.3397 -15.3271 -15.2582 -15.2558
   -15.2069 -15.1524 -15.0517 -15.0129 -15.0038 -14.9730 -14.8531 -14.8398
   -14.8184 -14.7974 -14.7758 -14.7074 -14.6581 -14.5147 -14.4082 -13.4605
   -13.4600 -11.4760  -6.9149  -4.3230  -4.1549  -3.9977  -3.9300  -3.3741
    -3.3740  -3.1113  -3.1006  -3.0155  -2.9721  -2.9241  -2.9198  -2.8926
    -2.8744  -2.8285  -2.7798  -2.7400  -2.7294  -2.6690  -2.6439  -2.5850
    -2.5810  -2.5073  -2.4732  -2.4520  -2.3765  -2.3118  -2.2819  -2.2706
    -2.2390  -2.1630  -2.1271  -2.1115  -2.0472  -1.8919  -1.8212  -1.7377
    -1.7049  -1.6278  -1.6026  -1.5852  -1.5037  -1.4427  -1.3732  -1.3609
    -1.2984  -1.2410  -1.1639  -1.0904  -1.0574  -1.0334  -0.9882  -0.9397
    -0.8946  -0.8477  -0.8095  -0.7828  -0.6893  -0.6418  -0.5514  -0.5444
    -0.4818  -0.4782  -0.4386  -0.3862  -0.3465  -0.2996  -0.2683  -0.2363
    -0.2298  -0.1412  -0.1271  -0.1042  -0.0056   0.0250   0.0422   0.0668
     0.0797   0.1106   0.1264   0.1794   0.2148   0.2612   0.3020   0.3472
     0.3593   0.3913   0.4065   0.4578   0.4929   0.5657   0.6087   0.6655
     0.8315   0.9595   1.1902   1.2655   1.4082   1.4184   1.4945   1.4992
     2.7847   3.4961   3.4999   3.6344   3.6360   3.7481   3.7483   3.8822
     3.8923   3.8986   3.9262

          k = 0.0380 0.0000 0.0000 ( 17913 PWs)   bands (ev):

   -56.1996 -56.1658 -55.7855 -55.7519 -55.5818 -55.5454 -55.4955 -55.3466
   -55.3128 -55.3110 -55.1670 -55.1531 -55.0265 -55.0025 -54.9713 -54.9373
   -32.6507 -32.4919 -32.4651 -32.3559 -32.2739 -32.2653 -32.2653 -32.0415
   -32.0042 -31.9735 -31.9275 -31.9262 -31.9193 -31.8924 -31.8464 -31.8187
   -31.7887 -31.7775 -31.7677 -31.7238 -31.7088 -31.6957 -31.6831 -31.6531
   -31.6368 -31.6147 -31.5523 -31.5302 -31.5203 -31.5159 -31.4969 -31.4638
   -31.4333 -31.4038 -31.3676 -31.3663 -31.3559 -31.3072 -31.2832 -31.2790
   -31.2557 -31.2406 -31.2388 -31.2345 -31.2138 -31.1865 -31.1020 -30.9900
   -18.8214 -16.4392 -16.3974 -16.0653 -15.8900 -15.8066 -15.7888 -15.6810
   -15.6063 -15.5411 -15.4546 -15.3787 -15.3282 -15.3008 -15.2426 -15.2082
   -15.1340 -15.1265 -15.0806 -15.0045 -14.9535 -14.9235 -14.8939 -14.8467
   -14.8261 -14.7323 -14.6978 -14.6804 -14.6222 -14.2812 -14.2679 -13.4662
   -13.3566 -11.4771  -6.8956  -4.3573  -4.1534  -4.0170  -3.9344  -3.7209
    -3.5547  -3.3710  -3.2194  -3.1883  -3.1595  -3.0803  -3.0230  -3.0157
    -2.9176  -2.7803  -2.7254  -2.6830  -2.6340  -2.5766  -2.5346  -2.4632
    -2.4317  -2.3985  -2.3879  -2.3206  -2.2657  -2.2314  -2.1301  -2.0860
    -2.0712  -2.0425  -1.9905  -1.9426  -1.8701  -1.8454  -1.8261  -1.7674
    -1.7505  -1.6919  -1.5873  -1.5499  -1.5433  -1.5322  -1.5108  -1.4776
    -1.4415  -1.4035  -1.3748  -1.2200  -1.1830  -1.0948  -1.0759  -0.9668
    -0.9398  -0.9176  -0.9009  -0.8377  -0.7837  -0.7701  -0.7406  -0.6976
    -0.6389  -0.5291  -0.5149  -0.4819  -0.3641  -0.3079  -0.2720  -0.1831
    -0.1575  -0.1416  -0.0547  -0.0152   0.0375   0.0818   0.1070   0.1535
     0.1686   0.2276   0.2413   0.2768   0.2941   0.3679   0.3840   0.4593
     0.4708   0.5216   0.6345   0.6469   0.7457   0.7873   0.8339   0.9228
     0.9373   1.0361   1.0649   1.1062   1.2547   1.4405   1.4946   1.5596
     2.7778   3.1266   3.1358   3.4472   3.4590   3.6027   3.7739   3.8158
     3.8773   4.0406   4.0430

          k = 0.0380 0.0419 0.0000 ( 17878 PWs)   bands (ev):

   -56.1946 -56.1708 -55.7805 -55.7568 -55.5815 -55.5423 -55.4985 -55.3419
   -55.3157 -55.3131 -55.1660 -55.1521 -55.0275 -55.0035 -54.9662 -54.9423
   -32.5971 -32.4875 -32.4682 -32.3428 -32.3304 -32.2788 -32.2141 -31.9960
   -31.9922 -31.9680 -31.9608 -31.9257 -31.9176 -31.8996 -31.8186 -31.7927
   -31.7861 -31.7684 -31.7643 -31.7196 -31.7071 -31.7058 -31.7018 -31.6447
   -31.6067 -31.6002 -31.5598 -31.5489 -31.5318 -31.5247 -31.5203 -31.4986
   -31.4288 -31.4028 -31.3649 -31.3522 -31.3144 -31.3100 -31.3030 -31.2831
   -31.2794 -31.2572 -31.2409 -31.2405 -31.2351 -31.1742 -31.1145 -31.0469
   -18.8201 -16.4362 -16.2808 -15.9539 -15.8019 -15.7889 -15.7146 -15.6942
   -15.5112 -15.4878 -15.4286 -15.4271 -15.3736 -15.2974 -15.2624 -15.1955
   -15.1452 -15.1160 -15.0780 -15.0060 -15.0010 -14.9548 -14.9380 -14.9164
   -14.8053 -14.7962 -14.7497 -14.6906 -14.6558 -14.3716 -14.3262 -13.4732
   -13.3977 -11.4763  -6.9048  -4.3383  -4.1643  -4.0040  -3.9238  -3.5438
    -3.3908  -3.2139  -3.0732  -3.0501  -3.0147  -2.9326  -2.9124  -2.8314
    -2.7478  -2.7340  -2.6688  -2.6402  -2.6037  -2.5905  -2.5453  -2.5242
    -2.4878  -2.4362  -2.4223  -2.3724  -2.3369  -2.3138  -2.2731  -2.2502
    -2.1839  -2.1456  -2.1003  -2.0525  -2.0140  -1.9683  -1.8811  -1.7945
    -1.7358  -1.6988  -1.6668  -1.6075  -1.5312  -1.4981  -1.4135  -1.3097
    -1.3006  -1.2789  -1.2202  -1.1950  -1.1121  -1.0580  -0.9628  -0.9481
    -0.8859  -0.8683  -0.8511  -0.7928  -0.7698  -0.7403  -0.6965  -0.6596
    -0.5903  -0.5547  -0.5198  -0.4887  -0.4619  -0.4359  -0.3588  -0.3142
    -0.2787  -0.2618  -0.2311  -0.1541  -0.1305  -0.0811  -0.0173   0.0630
     0.0917   0.1240   0.1777   0.2547   0.3022   0.3307   0.3914   0.4206
     0.4655   0.4957   0.5310   0.6320   0.6602   0.6846   0.7848   0.8609
     0.8771   0.9188   1.0178   1.2753   1.3631   1.4130   1.4787   1.5340
     2.7700   3.2468   3.3573   3.5293   3.6567   3.6652   3.7837   3.8641
     3.9175   3.9497   4.0022

          k = 0.0380-0.0839 0.0000 ( 17916 PWs)   bands (ev):

   -56.1828 -56.1826 -55.7695 -55.7680 -55.5812 -55.5388 -55.5021 -55.3340
   -55.3237 -55.3135 -55.1651 -55.1512 -55.0285 -55.0044 -54.9544 -54.9542
   -32.4777 -32.4775 -32.4655 -32.4653 -32.3113 -32.3108 -32.0895 -32.0859
   -31.9636 -31.9596 -31.9582 -31.9571 -31.8678 -31.8522 -31.8246 -31.8197
   -31.7834 -31.7608 -31.7534 -31.7212 -31.7187 -31.6896 -31.6662 -31.6540
   -31.6029 -31.5946 -31.5748 -31.5615 -31.5439 -31.5403 -31.5293 -31.5040
   -31.4258 -31.4023 -31.3714 -31.3632 -31.3541 -31.2992 -31.2931 -31.2930
   -31.2881 -31.2474 -31.2410 -31.2376 -31.1829 -31.1825 -31.1447 -31.1443
   -18.8188 -16.4337 -16.0067 -15.9998 -15.7317 -15.7170 -15.6262 -15.5996
   -15.5415 -15.4903 -15.4499 -15.4417 -15.2942 -15.2793 -15.2606 -15.2357
   -15.1944 -15.1761 -15.0871 -15.0721 -15.0228 -14.9603 -14.9436 -14.9041
   -14.8809 -14.8360 -14.7649 -14.6984 -14.6494 -14.5048 -14.4058 -13.4603
   -13.4598 -11.4757  -6.9136  -4.3189  -4.1682  -3.9943  -3.9279  -3.1683
    -3.1666  -3.0512  -2.9938  -2.9108  -2.8565  -2.8291  -2.8102  -2.8021
    -2.7718  -2.7006  -2.6561  -2.6451  -2.5942  -2.5767  -2.5451  -2.5259
    -2.5141  -2.4898  -2.4515  -2.4022  -2.3896  -2.3590  -2.2978  -2.2457
    -2.2180  -2.1768  -2.1373  -1.9482  -1.8893  -1.8681  -1.8297  -1.8128
    -1.7697  -1.6738  -1.6415  -1.5774  -1.5099  -1.4888  -1.4640  -1.4294
    -1.3857  -1.3443  -1.2748  -1.2565  -1.2323  -1.1844  -1.1170  -1.0937
    -0.9574  -0.9089  -0.8648  -0.8303  -0.7555  -0.7277  -0.6579  -0.6463
    -0.6116  -0.5717  -0.4902  -0.4822  -0.4586  -0.4402  -0.4150  -0.3653
    -0.3479  -0.3177  -0.2292  -0.1845  -0.1522  -0.1181  -0.0803  -0.0277
     0.0722   0.1169   0.1484   0.1616   0.1884   0.2317   0.3354   0.3746
     0.4177   0.4527   0.4846   0.5852   0.6137   0.6641   0.7314   0.7868
     0.8542   0.9024   1.1800   1.2101   1.4186   1.4274   1.4810   1.4848
     2.7993   3.4993   3.5033   3.6672   3.6685   3.8395   3.8496   3.8633
     3.9013   3.9182   3.9461

          k = 0.0380-0.0419 0.0000 ( 17876 PWs)   bands (ev):

   -56.1946 -56.1708 -55.7805 -55.7568 -55.5815 -55.5423 -55.4985 -55.3419
   -55.3157 -55.3131 -55.1660 -55.1521 -55.0275 -55.0035 -54.9662 -54.9423
   -32.5970 -32.4875 -32.4682 -32.3428 -32.3304 -32.2788 -32.2141 -31.9961
   -31.9922 -31.9680 -31.9607 -31.9257 -31.9175 -31.8997 -31.8185 -31.7927
   -31.7860 -31.7685 -31.7643 -31.7196 -31.7074 -31.7055 -31.7018 -31.6448
   -31.6061 -31.6007 -31.5590 -31.5489 -31.5309 -31.5256 -31.5211 -31.4986
   -31.4288 -31.4030 -31.3650 -31.3519 -31.3144 -31.3099 -31.3030 -31.2831
   -31.2794 -31.2572 -31.2408 -31.2404 -31.2353 -31.1742 -31.1145 -31.0469
   -18.8201 -16.4362 -16.2807 -15.9536 -15.8015 -15.7896 -15.7139 -15.6941
   -15.5088 -15.4909 -15.4286 -15.4264 -15.3739 -15.2975 -15.2626 -15.2019
   -15.1430 -15.1151 -15.0756 -15.0073 -15.0019 -14.9604 -14.9340 -14.9133
   -14.8079 -14.7903 -14.7471 -14.6939 -14.6564 -14.3725 -14.3259 -13.4732
   -13.3977 -11.4763  -6.9046  -4.3378  -4.1574  -4.0063  -3.9301  -3.5431
    -3.3908  -3.2132  -3.0740  -3.0506  -3.0152  -2.9292  -2.9118  -2.8326
    -2.7483  -2.7339  -2.6695  -2.6415  -2.6085  -2.5925  -2.5408  -2.5200
    -2.4902  -2.4546  -2.4272  -2.3686  -2.3365  -2.3194  -2.2789  -2.2461
    -2.1876  -2.1417  -2.1065  -2.0604  -2.0154  -1.9755  -1.8822  -1.8043
    -1.7358  -1.6868  -1.6652  -1.5513  -1.5131  -1.4960  -1.4094  -1.3111
    -1.2984  -1.2838  -1.2220  -1.1919  -1.1119  -1.0575  -0.9583  -0.9458
    -0.8825  -0.8730  -0.8473  -0.7989  -0.7697  -0.7417  -0.6815  -0.6548
    -0.6040  -0.5615  -0.5129  -0.4880  -0.4434  -0.4358  -0.3706  -0.3319
    -0.2760  -0.2499  -0.2313  -0.1682  -0.1367  -0.0747  -0.0231   0.0604
     0.0978   0.1257   0.1546   0.2491   0.2800   0.3223   0.3926   0.4195
     0.4634   0.4949   0.5341   0.6456   0.6597   0.6924   0.8061   0.8374
     0.8788   0.9217   1.0166   1.2753   1.3635   1.4132   1.4785   1.5346
     2.7758   3.2471   3.3573   3.5294   3.6567   3.6641   3.7785   3.8642
     3.9082   3.9488   4.0017

          k =-0.0760-0.0000 0.0000 ( 17886 PWs)   bands (ev):

   -56.1996 -56.1658 -55.7854 -55.7519 -55.5818 -55.5454 -55.4955 -55.3466
   -55.3128 -55.3110 -55.1670 -55.1530 -55.0265 -55.0025 -54.9712 -54.9373
   -32.6515 -32.4918 -32.4650 -32.3536 -32.2739 -32.2656 -32.2654 -32.0514
   -32.0041 -31.9605 -31.9275 -31.9274 -31.9088 -31.8923 -31.8485 -31.8185
   -31.7905 -31.7865 -31.7676 -31.7240 -31.7086 -31.6962 -31.6833 -31.6531
   -31.6376 -31.6060 -31.5522 -31.5296 -31.5164 -31.5134 -31.4968 -31.4645
   -31.4333 -31.4080 -31.3716 -31.3673 -31.3560 -31.3099 -31.2832 -31.2779
   -31.2557 -31.2427 -31.2393 -31.2345 -31.2139 -31.1864 -31.1019 -30.9900
   -18.8212 -16.4368 -16.2558 -15.9477 -15.9091 -15.8719 -15.7502 -15.6792
   -15.6259 -15.5692 -15.4597 -15.4487 -15.3000 -15.2760 -15.2521 -15.2373
   -15.2085 -15.1837 -15.1124 -15.0647 -14.9790 -14.9434 -14.8746 -14.8341
   -14.8046 -14.7503 -14.6733 -14.6580 -14.6112 -14.2783 -14.2686 -13.4635
   -13.3562 -11.4766  -6.8924  -4.3426  -4.1492  -4.0281  -3.9370  -3.5365
    -3.3334  -3.3286  -3.2008  -3.1744  -3.1182  -2.9792  -2.9312  -2.9285
    -2.8964  -2.8036  -2.7026  -2.6323  -2.5964  -2.5202  -2.4861  -2.4647
    -2.3637  -2.3466  -2.3465  -2.3118  -2.2096  -2.1534  -2.1142  -2.0737
    -2.0514  -1.9584  -1.9473  -1.9165  -1.8697  -1.8530  -1.7935  -1.7701
    -1.7369  -1.6725  -1.6617  -1.6156  -1.5600  -1.5356  -1.5097  -1.4953
    -1.3897  -1.3681  -1.3500  -1.3226  -1.2480  -1.1868  -1.1194  -1.0768
    -1.0007  -0.9329  -0.8801  -0.8461  -0.8337  -0.8106  -0.7901  -0.7087
    -0.6632  -0.6417  -0.5275  -0.4681  -0.4256  -0.3979  -0.3685  -0.2955
    -0.2779  -0.1714  -0.1262  -0.1203  -0.0854   0.0089   0.0301   0.0346
     0.1405   0.1916   0.2063   0.2579   0.2822   0.3904   0.4193   0.4446
     0.4968   0.5893   0.6072   0.6825   0.7027   0.7383   0.7822   0.7982
     0.8983   1.0505   1.0847   1.1734   1.1995   1.2402   1.3734   1.4989
     2.7981   3.1025   3.1646   3.3593   3.4585   3.5674   3.5894   3.9131
     3.9624   3.9689   4.0466

          k =-0.0760 0.0419 0.0000 ( 17914 PWs)   bands (ev):

   -56.1946 -56.1708 -55.7805 -55.7569 -55.5815 -55.5423 -55.4985 -55.3419
   -55.3157 -55.3131 -55.1661 -55.1522 -55.0275 -55.0035 -54.9663 -54.9423
   -32.5979 -32.4875 -32.4683 -32.3411 -32.3307 -32.2788 -32.2144 -32.0085
   -31.9921 -31.9611 -31.9584 -31.9257 -31.9031 -31.9010 -31.8186 -31.7949
   -31.7843 -31.7789 -31.7645 -31.7196 -31.7082 -31.7063 -31.7019 -31.6449
   -31.6074 -31.5931 -31.5606 -31.5490 -31.5282 -31.5216 -31.5202 -31.4987
   -31.4288 -31.4064 -31.3698 -31.3521 -31.3142 -31.3100 -31.3053 -31.2825
   -31.2795 -31.2573 -31.2435 -31.2411 -31.2358 -31.1742 -31.1145 -31.0470
   -18.8200 -16.4346 -16.1468 -15.8588 -15.8287 -15.8099 -15.7152 -15.6851
   -15.5470 -15.5253 -15.3990 -15.3756 -15.3554 -15.3344 -15.2334 -15.2307
   -15.1820 -15.1639 -15.1220 -15.0865 -15.0039 -14.9686 -14.9542 -14.8921
   -14.8604 -14.8064 -14.7212 -14.6718 -14.6632 -14.3690 -14.3271 -13.4713
   -13.3980 -11.4760  -6.9026  -4.3290  -4.1667  -4.0073  -3.9272  -3.3803
    -3.1240  -3.0691  -3.0341  -2.9572  -2.9342  -2.8092  -2.7617  -2.7339
    -2.6990  -2.6956  -2.6645  -2.6515  -2.5933  -2.5823  -2.5232  -2.5101
    -2.4777  -2.4379  -2.4101  -2.3521  -2.2942  -2.2548  -2.2395  -2.1475
    -2.1254  -2.0573  -2.0248  -1.9818  -1.9003  -1.8648  -1.8499  -1.8376
    -1.7924  -1.7738  -1.6149  -1.5753  -1.5428  -1.4839  -1.4565  -1.3976
    -1.3140  -1.3061  -1.2552  -1.2366  -1.1657  -1.1250  -1.0934  -1.0623
    -1.0391  -0.9665  -0.9443  -0.9066  -0.8380  -0.7827  -0.7711  -0.7231
    -0.6660  -0.6573  -0.6163  -0.5967  -0.5675  -0.5396  -0.5151  -0.4830
    -0.4360  -0.3939  -0.3508  -0.2948  -0.1555  -0.1180  -0.0902  -0.0564
     0.0356   0.0729   0.1478   0.2887   0.3211   0.3434   0.4266   0.4757
     0.4881   0.5428   0.6020   0.6157   0.7006   0.7570   0.7881   0.8369
     0.9133   0.9677   1.1273   1.1515   1.2854   1.4052   1.4059   1.5210
     2.7902   3.2493   3.3649   3.4416   3.5519   3.6951   3.7886   3.8313
     3.9729   4.0339   4.0679

          k =-0.0760-0.0839 0.0000 ( 17948 PWs)   bands (ev):

   -56.1828 -56.1827 -55.7695 -55.7680 -55.5812 -55.5388 -55.5021 -55.3340
   -55.3237 -55.3135 -55.1651 -55.1512 -55.0285 -55.0045 -54.9544 -54.9542
   -32.4777 -32.4775 -32.4661 -32.4659 -32.3103 -32.3099 -32.0898 -32.0862
   -31.9636 -31.9609 -31.9582 -31.9574 -31.8688 -31.8447 -31.8200 -31.8183
   -31.7817 -31.7609 -31.7603 -31.7269 -31.7188 -31.6897 -31.6679 -31.6563
   -31.6033 -31.5963 -31.5729 -31.5564 -31.5406 -31.5402 -31.5248 -31.5040
   -31.4256 -31.4050 -31.3713 -31.3676 -31.3540 -31.2991 -31.2938 -31.2938
   -31.2882 -31.2475 -31.2441 -31.2389 -31.1829 -31.1825 -31.1447 -31.1444
   -18.8188 -16.4326 -15.9020 -15.8929 -15.7664 -15.7613 -15.5870 -15.5740
   -15.5731 -15.4896 -15.4504 -15.4271 -15.2846 -15.2711 -15.2110 -15.1859
   -15.1694 -15.1463 -15.1362 -15.1035 -15.0933 -15.0412 -14.9842 -14.9770
   -14.9180 -14.9104 -14.7531 -14.6908 -14.6450 -14.4971 -14.4038 -13.4602
   -13.4596 -11.4755  -6.9124  -4.3152  -4.1810  -3.9913  -3.9257  -3.0673
    -3.0187  -2.9162  -2.8788  -2.7979  -2.7858  -2.6747  -2.6583  -2.6116
    -2.5954  -2.5870  -2.5420  -2.4956  -2.4853  -2.4635  -2.4366  -2.4228
    -2.4098  -2.3725  -2.3224  -2.3059  -2.3005  -2.2752  -2.1729  -2.1428
    -2.1304  -2.1222  -2.0955  -2.0710  -2.0270  -1.9554  -1.9238  -1.8856
    -1.8737  -1.8043  -1.7413  -1.6929  -1.6698  -1.6079  -1.5472  -1.5255
    -1.4430  -1.4033  -1.2894  -1.2769  -1.2583  -1.1958  -1.1734  -1.1194
    -1.0991  -1.0375  -0.9877  -0.9645  -0.9599  -0.9462  -0.8792  -0.8178
    -0.7044  -0.6621  -0.6463  -0.6115  -0.6072  -0.5777  -0.5437  -0.5070
    -0.4067  -0.3927  -0.3810  -0.3287  -0.3193  -0.2454  -0.1694  -0.0540
     0.0666   0.1435   0.1537   0.1735   0.2133   0.2951   0.3736   0.4143
     0.4594   0.5195   0.5619   0.6012   0.6669   0.8091   0.8606   0.8827
     0.9673   1.0044   1.0749   1.1624   1.4412   1.4520   1.4566   1.4574
     2.8119   3.5757   3.5782   3.6076   3.6185   3.7301   3.8133   3.8309
     3.9555   4.0133   4.0712

     the Fermi energy is     2.9629 ev

!    total energy              =   -2972.75291231 Ry
     estimated scf accuracy    <       0.00000004 Ry
     smearing contrib. (-TS)   =      -0.01284354 Ry
     internal energy E=F+TS    =   -2972.74006876 Ry

     The total energy is F=E-TS. E is the sum of the following terms:
     one-electron contribution =  -23538.71776270 Ry
     hartree contribution      =   11862.99219789 Ry
     xc contribution           =    -493.07118315 Ry
     ewald contribution        =    9196.05586218 Ry
     electric field correction =       0.00081701 Ry

     convergence has been achieved in  66 iterations

     Forces acting on atoms (cartesian axes, Ry/au):

     atom    1 type  1   force =     0.00007882   -0.00037214    0.10679284
     atom    2 type  1   force =    -0.00012538    0.00015900   -0.16546097
     atom    3 type  2   force =     0.00006923   -0.00044874   -0.03888868
     atom    4 type  2   force =     0.00000368    0.00016048    0.03537206
     atom    5 type  2   force =    -0.00262954   -0.00318053   -0.00912526
     atom    6 type  2   force =     0.00444928   -0.00251563   -0.00941112
     atom    7 type  1   force =    -0.00001086    0.00134016    0.03447744
     atom    8 type  1   force =     0.00023641    0.01555959    0.06078887
     atom    9 type  2   force =    -0.00018038   -0.00045831    0.00007358
     atom   10 type  2   force =    -0.00255703    0.00087891   -0.04253324
     atom   11 type  2   force =    -0.00099523    0.00035319    0.00039610
     atom   12 type  2   force =     0.00049116    0.00025308    0.00028991
     atom   13 type  1   force =     0.00045361    0.00068077   -0.00046074
     atom   14 type  1   force =     0.00025696   -0.00015154    0.00038252
     atom   15 type  2   force =     0.00023133    0.00065920    0.00005391
     atom   16 type  2   force =    -0.00009450   -0.00037686   -0.00073393
     atom   17 type  2   force =    -0.00015827    0.00021858    0.00010352
     atom   18 type  2   force =     0.00018423   -0.00002585   -0.00011748
     atom   19 type  1   force =     0.00021170   -0.00094326    0.00008035
     atom   20 type  1   force =     0.00019555    0.00020231   -0.00034884
     atom   21 type  2   force =     0.00003341    0.00013283    0.10037932
     atom   22 type  2   force =     0.00015621    0.00074100   -0.00003121
     atom   23 type  2   force =    -0.07679005   -0.00000836   -0.03010444
     atom   24 type  2   force =     0.07666105    0.00046132   -0.03014970
     atom   25 type  1   force =    -0.00008684   -0.00045713    0.10717257
     atom   26 type  1   force =    -0.00021261   -0.00131294   -0.16551218
     atom   27 type  2   force =     0.00010174   -0.00031992   -0.03717753
     atom   28 type  2   force =     0.00004709   -0.00000463    0.03053882
     atom   29 type  2   force =    -0.00566619    0.00365837   -0.00699478
     atom   30 type  2   force =     0.00730238    0.00400662   -0.00726791
     atom   31 type  1   force =    -0.00012069   -0.00227984    0.02267099
     atom   32 type  1   force =     0.00032446   -0.01776419    0.06125955
     atom   33 type  2   force =    -0.00017042    0.00020333   -0.00014692
     atom   34 type  2   force =    -0.00143677    0.00001318   -0.05424738
     atom   35 type  2   force =    -0.00001080   -0.00018223   -0.00020107
     atom   36 type  2   force =    -0.00030954    0.00004359   -0.00004837
     atom   37 type  1   force =     0.00013273   -0.00006005    0.00054071
     atom   38 type  1   force =     0.00033866    0.00000180    0.00007380
     atom   39 type  2   force =    -0.00012248    0.00029037   -0.00032476
     atom   40 type  2   force =     0.00001098    0.00030746    0.00051528
     atom   41 type  2   force =    -0.00027329    0.00021213   -0.00009921
     atom   42 type  2   force =     0.00024616   -0.00000080    0.00000399
     atom   43 type  1   force =     0.00021551    0.00046987    0.00029448
     atom   44 type  1   force =     0.00031751    0.00019399   -0.00022794
     atom   45 type  2   force =     0.00003555    0.00013363    0.10021739
     atom   46 type  2   force =    -0.07676491    0.00003633   -0.03008998
     atom   47 type  2   force =     0.07662591    0.00047286   -0.03010923
     atom   48 type  3   force =     0.00026064   -0.00381161   -0.00203552
     atom   49 type  3   force =     0.00034021   -0.00015026   -0.00112961
     atom   50 type  4   force =    -0.00036171    0.01687585   -0.00453272
     atom   51 type  5   force =     0.00187077   -0.00924662    0.00321923
     atom   52 type  5   force =    -0.00150776   -0.00281362    0.00171728
     atom   53 type  5   force =    -0.00002312   -0.00158961   -0.00048077
     atom   54 type  2   force =     0.00015354   -0.00014346    0.00175745
     atom   55 type  5   force =    -0.00142811   -0.00010169   -0.00118046

     Total force =     0.381303     Total SCF correction =     0.000808
  @ DRIVER MODE: Message from server: STATUS
  @ DRIVER MODE: Message from server: GETFORCE
  @ DRIVER MODE: Returning v,forces,stress,ensemble 

     Writing output data file ./calc.save/
  @ DRIVER MODE: Message from server: EXIT
  @ DRIVE MODE: Exiting  
 
     init_run     :     13.33s CPU     13.66s WALL (       1 calls)
     electrons    :   1331.94s CPU   1361.53s WALL (       1 calls)
     forces       :      2.77s CPU      2.89s WALL (       1 calls)

     Called by init_run:
     wfcinit      :      5.83s CPU      5.97s WALL (       1 calls)
     potinit      :      6.76s CPU      6.83s WALL (       1 calls)
     hinit0       :      0.37s CPU      0.38s WALL (       1 calls)

     Called by electrons:
     c_bands      :   1122.24s CPU   1138.68s WALL (      66 calls)
     sum_band     :    148.36s CPU    154.51s WALL (      66 calls)
     v_of_rho     :     45.53s CPU     47.26s WALL (      67 calls)
     newd         :     17.47s CPU     22.47s WALL (      67 calls)
     mix_rho      :      4.01s CPU      4.30s WALL (      66 calls)
     vdW_kernel   :      5.85s CPU      5.87s WALL (       1 calls)

     Called by c_bands:
     init_us_2    :      6.79s CPU      6.83s WALL (    1340 calls)
     cegterg      :   1100.12s CPU   1116.12s WALL (     672 calls)

     Called by *egterg:
     cdiaghg      :    164.24s CPU    165.27s WALL (    5442 calls)
     h_psi        :    615.39s CPU    626.27s WALL (    5454 calls)
     s_psi        :     74.66s CPU     74.89s WALL (    5454 calls)
     g_psi        :      2.13s CPU      2.14s WALL (    4772 calls)

     Called by h_psi:
     h_psi:calbec :     72.10s CPU     73.03s WALL (    5454 calls)
     vloc_psi     :    466.10s CPU    472.22s WALL (    5454 calls)
     add_vuspsi   :     74.84s CPU     76.81s WALL (    5454 calls)

     General routines
     calbec       :     96.44s CPU     97.44s WALL (    6154 calls)
     fft          :     22.97s CPU     23.11s WALL (    4221 calls)
     ffts         :      0.20s CPU      0.20s WALL (     133 calls)
     fftw         :    532.06s CPU    538.73s WALL (  930230 calls)
     interpolate  :      0.49s CPU      0.50s WALL (      67 calls)
     davcio       :      0.00s CPU      0.13s WALL (      10 calls)
 
     Parallel routines
 
     PWSCF        :  22m28.40s CPU  22m58.94s WALL

 
   This run was terminated on:   4:34:11  23Sep2021            

=------------------------------------------------------------------------------=
   JOB DONE.
=------------------------------------------------------------------------------=
