
     Program PWSCF v.6.7GPU starts on 18Oct2021 at 11:54:52 

     This program is part of the open-source Quantum ESPRESSO suite
     for quantum simulation of materials; please cite
         "P. Giannozzi et al., J. Phys.:Condens. Matter 21 395502 (2009);
         "P. Giannozzi et al., J. Phys.:Condens. Matter 29 465901 (2017);
         "P. Giannozzi et al., J. Chem. Phys. 152 154105 (2020);
          URL http://www.quantum-espresso.org", 
     in publications or presentations arising from this work. More details at
     http://www.quantum-espresso.org/quote

     Parallel version (MPI), running on     8 processors

     MPI processes distributed on     1 nodes
     R & G space division:  proc/nbgrp/npool/nimage =       8
     Reading input from /storage/home/hcoda1/3/ntian30/research/carbon/CxH_vib/Thiel_calc/ads_slab/NH2NH2HH_perslab/out_0001/pw.inp
Warning: card &CELL ignored
Warning: card   CELL_DYNAMICS='IPI', ignored
Warning: card / ignored

     Current dimensions of program PWSCF are:
     Max number of different atomic species (ntypx) = 10
     Max number of k-points (npk) =  40000
     Max angular momentum in pseudopotentials (lmaxx) =  3
     Presently no symmetry can be used with electric field

     Message from routine cell_base_init:
     DEPRECATED: use true lattice parameter, not A to a.u. conversion factor

     **************************************************************************
     Initializing libbeef V0.1.2 with the BEEF-vdW functional.
     Citation: Wellendorff et al., PRB 85, 235149 (2012).
     **************************************************************************


     IMPORTANT: XC functional enforced from input :
     Exchange-correlation= BEEF-VDW
                           (   1   4  43  14   2   0   0)
     Any further DFT definition will be discarded
     Please, verify this is what you really want


     Subspace diagonalization in iterative solution of the eigenvalue problem:
     one sub-group per band group will be used
     scalapack distributed-memory algorithm (size of sub-group:  2*  2 procs)

  @ DRIVER MODE: Connecting to 
 qe_1139763_3255137.sched-torque.pace.gatech.edurlpmbn72_scratch
  using UNIX socket
  @ DRIVER MODE: Message from server: STATUS
  @ DRIVER MODE: Message from server: INIT
  @ DRIVER MODE: Receiving replica           0          -1
  @ DRIVER MODE: Receiving encoded integer          25
  @ DRIVER MODE:  SCF:  T  FORCE:  T  STRESS:  F  VC:  F  ENSEMBLE:  F
  @ DRIVER MODE:  SCF:  T  FORCE:  T  STRESS:  F  VC:  F  ENSEMBLE:  F
 
     Parallelization info
     --------------------
     sticks:   dense  smooth     PW     G-vecs:    dense   smooth      PW
     Min         614     246     69               106272    26887    3981
     Max         615     248     70               106275    26893    3990
     Sum        4915    1977    553               850181   215109   31863
 
     Using Slab Decomposition
 


     bravais-lattice index     =            0
     lattice parameter (alat)  =       1.8897  a.u.
     unit-cell volume          =    9988.4706 (a.u.)^3
     number of atoms/cell      =           61
     number of atomic types    =            4
     number of electrons       =       442.00
     number of Kohn-Sham states=          231
     kinetic-energy cutoff     =      29.3995  Ry
     charge density cutoff     =     293.9946  Ry
     scf convergence threshold =      7.3E-08
     mixing beta               =       0.0500
     number of iterations used =            8  plain     mixing
     Exchange-correlation= BEEF-VDW
                           (   1   4  43  14   2   0   0)

     celldm(1)=   1.889726  celldm(2)=   0.000000  celldm(3)=   0.000000
     celldm(4)=   0.000000  celldm(5)=   0.000000  celldm(6)=   0.000000

     crystal axes: (cart. coord. in units of alat)
               a(1) = (   6.579727   0.000000   0.000000 )  
               a(2) = (  -0.001163   8.942395   0.000000 )  
               a(3) = (   0.000000   0.000000  25.155947 )  

     reciprocal axes: (cart. coord. in units 2 pi/alat)
               b(1) = (  0.151982  0.000020  0.000000 )  
               b(2) = (  0.000000  0.111827  0.000000 )  
               b(3) = (  0.000000  0.000000  0.039752 )  


     PseudoPot. # 1 for O  read from file:
     /storage/coda1/p-amedford6/0/shared/rich_project_chbe-medford/medford-share/data/pseudos_module/espresso/nninc/pbe/van/O.UPF
     MD5 check sum: 78c19812648e8988a0fe644b0f25305e
     Pseudo is Ultrasoft, Zval =  6.0
     Generated by new atomic code, or converted to UPF format
     Using radial grid of  737 points,  4 beta functions with: 
                l(1) =   0
                l(2) =   0
                l(3) =   1
                l(4) =   1
     Q(r) pseudized with  8 coefficients,  rinner =    0.800   0.800   0.800


     PseudoPot. # 2 for Ti read from file:
     /storage/coda1/p-amedford6/0/shared/rich_project_chbe-medford/medford-share/data/pseudos_module/espresso/nninc/pbe/van/Ti.UPF
     MD5 check sum: 8e4df49b7f0d34bbd5052bf3f5ea0213
     Pseudo is Ultrasoft, Zval = 12.0
     Generated by new atomic code, or converted to UPF format
     Using radial grid of  851 points,  6 beta functions with: 
                l(1) =   0
                l(2) =   0
                l(3) =   1
                l(4) =   1
                l(5) =   2
                l(6) =   2
     Q(r) pseudized with  8 coefficients,  rinner =    1.000   1.000   1.000
                                                       1.000   1.000

     PseudoPot. # 3 for N  read from file:
     /storage/coda1/p-amedford6/0/shared/rich_project_chbe-medford/medford-share/data/pseudos_module/espresso/nninc/pbe/van/N.UPF
     MD5 check sum: 90d10febe142ad51ac9d5be1deb811c4
     Pseudo is Ultrasoft, Zval =  5.0
     Generated by new atomic code, or converted to UPF format
     Using radial grid of  729 points,  4 beta functions with: 
                l(1) =   0
                l(2) =   0
                l(3) =   1
                l(4) =   1
     Q(r) pseudized with  8 coefficients,  rinner =    0.800   0.800   0.800


     PseudoPot. # 4 for H  read from file:
     /storage/coda1/p-amedford6/0/shared/rich_project_chbe-medford/medford-share/data/pseudos_module/espresso/nninc/pbe/van/H.UPF
     MD5 check sum: b5ee9d7bfd3a09ee7748110bda690ff7
     Pseudo is Ultrasoft, Zval =  1.0
     Generated by new atomic code, or converted to UPF format
     Using radial grid of  615 points,  1 beta functions with: 
                l(1) =   0
     Q(r) pseudized with  8 coefficients,  rinner =    0.800

     atomic species   valence    mass     pseudopotential
        O1             6.00    15.99900     O ( 1.00)
        Ti1           12.00    47.86700     Ti( 1.00)
        N1             5.00    14.00700     N ( 1.00)
        H1             1.00     1.00800     H ( 1.00)

     No symmetry found



   Cartesian axes

     site n.     atom                  positions (alat units)
         1           O1  tau(   1) = (   0.0007354   0.0005023  10.5931620  )
         2           O1  tau(   2) = (   3.2456387   0.0208629  13.8623892  )
         3           O1  tau(   3) = (   6.5569189   0.0555649  17.3369326  )
         4           O1  tau(   4) = (   0.0006271   0.0005054   7.9858123  )
         5           O1  tau(   5) = (   3.2933513   8.9300833  11.1812556  )
         6           O1  tau(   6) = (   0.0337597   0.0712708  14.6279364  )
         7           O1  tau(   7) = (   1.9868534   1.4903216   9.2879459  )
         8           O1  tau(   8) = (   5.2215124   1.6184176  12.5791628  )
         9           O1  tau(   9) = (   1.9922958   1.5902288  16.0980526  )
        10           Ti1 tau(  10) = (   0.0007404   1.4906270   9.2895810  )
        11           Ti1 tau(  11) = (   3.2860490   1.3455809  12.4359399  )
        12           Ti1 tau(  12) = (   6.5618936   1.3602716  15.8812525  )
        13           O1  tau(  13) = (   4.5942328   1.4918067   9.2879030  )
        14           O1  tau(  14) = (   1.3307156   1.5887400  12.5381291  )
        15           O1  tau(  15) = (   4.5725103   1.6118788  16.0006659  )
        16           Ti1 tau(  16) = (   3.2902859   2.9801868   9.2893338  )
        17           Ti1 tau(  17) = (   0.0046584   2.8227806  12.4510757  )
        18           Ti1 tau(  18) = (   3.2555632   2.8898243  15.6661830  )
        19           O1  tau(  19) = (   0.0003479   2.9813005  10.5931620  )
        20           O1  tau(  20) = (   3.2279248   2.9553539  13.8813459  )
        21           O1  tau(  21) = (   0.0002396   2.9813036   7.9858123  )
        22           O1  tau(  22) = (   3.2889556   2.9859946  11.1941525  )
        23           O1  tau(  23) = (   0.0559812   2.9852445  14.6488683  )
        24           O1  tau(  24) = (   1.9864658   4.4711199   9.2879459  )
        25           O1  tau(  25) = (   5.2314886   4.5920767  12.6107679  )
        26           O1  tau(  26) = (   1.9969377   4.5324570  16.1535429  )
        27           Ti1 tau(  27) = (   0.0003529   4.4714252   9.2895810  )
        28           Ti1 tau(  28) = (   3.2845268   4.3564118  12.5295435  )
        29           Ti1 tau(  29) = (   6.5676402   4.3565080  15.8255799  )
        30           O1  tau(  30) = (   4.5938453   4.4726049   9.2879030  )
        31           O1  tau(  31) = (   1.3315080   4.5776727  12.5731030  )
        32           O1  tau(  32) = (   4.5871741   4.4544688  15.9274438  )
        33           Ti1 tau(  33) = (   3.2898983   5.9609850   9.2893338  )
        34           Ti1 tau(  34) = (   6.5783773   5.8108302  12.4536689  )
        35           Ti1 tau(  35) = (   3.3162440   5.8110762  16.0333210  )
        36           O1  tau(  36) = (  -0.0000397   5.9620987  10.5931620  )
        37           O1  tau(  37) = (   3.2636778   5.9869953  13.9790019  )
        38           O1  tau(  38) = (   6.4104969   6.0475349  17.2872242  )
        39           O1  tau(  39) = (  -0.0001480   5.9621018   7.9858123  )
        40           O1  tau(  40) = (   3.2905218   5.9516507  11.2202175  )
        41           O1  tau(  41) = (   0.0617018   5.9803669  14.6637187  )
        42           O1  tau(  42) = (   1.9860782   7.4519181   9.2879459  )
        43           O1  tau(  43) = (   5.2407037   7.5572870  12.6049163  )
        44           O1  tau(  44) = (   1.9881273   7.5959696  16.0809372  )
        45           Ti1 tau(  45) = (  -0.0000347   7.4522234   9.2895810  )
        46           Ti1 tau(  46) = (   3.2912638   7.2305267  12.6172466  )
        47           Ti1 tau(  47) = (   0.0232661   7.3094817  15.9177444  )
        48           O1  tau(  48) = (   4.5934577   7.4534031   9.2879030  )
        49           O1  tau(  49) = (   1.3287160   7.5404973  12.5734398  )
        50           O1  tau(  50) = (   4.6507959   7.6754627  15.9163669  )
        51           Ti1 tau(  51) = (   3.2895107   8.9417832   9.2893338  )
        52           Ti1 tau(  52) = (   0.0077981   8.7799231  12.4640552  )
        53           Ti1 tau(  53) = (   3.2910717   8.8534038  15.6608489  )
        54           N1  tau(  54) = (   3.7526148   6.0985185  18.0019073  )
        55           H1  tau(  55) = (   3.4663780   5.3841571  18.6619304  )
        56           H1  tau(  56) = (   3.5565419   6.9988739  18.4208443  )
        57           N1  tau(  57) = (   6.5319303   3.0529623  17.4095181  )
        58           H1  tau(  58) = (   5.7013393   3.0140474  17.9904383  )
        59           H1  tau(  59) = (   0.7603229   3.1006543  18.0203722  )
        60           H1  tau(  60) = (   5.4974376   6.0468821  17.7423635  )
        61           H1  tau(  61) = (   0.7324116   0.0679216  17.9402240  )

     number of k points=    10  Fermi-Dirac smearing, width (Ry)=  0.0073
                       cart. coord. in units 2pi/alat
        k(    1) = (   0.0000000   0.0000000   0.0000000), wk =   0.1250000
        k(    2) = (   0.0000000   0.0279567   0.0000000), wk =   0.2500000
        k(    3) = (   0.0000000  -0.0559134   0.0000000), wk =   0.1250000
        k(    4) = (   0.0379955   0.0000049   0.0000000), wk =   0.2500000
        k(    5) = (   0.0379955   0.0279617   0.0000000), wk =   0.2500000
        k(    6) = (   0.0379955  -0.0559085   0.0000000), wk =   0.2500000
        k(    7) = (   0.0379955  -0.0279518   0.0000000), wk =   0.2500000
        k(    8) = (  -0.0759910  -0.0000099   0.0000000), wk =   0.1250000
        k(    9) = (  -0.0759910   0.0279468   0.0000000), wk =   0.2500000
        k(   10) = (  -0.0759910  -0.0559233   0.0000000), wk =   0.1250000

     Dense  grid:   850181 G-vectors     FFT dimensions: (  72,  96, 270)

     Smooth grid:   215109 G-vectors     FFT dimensions: (  45,  60, 180)

     Estimated max dynamical RAM per process >     706.97 MB

     Estimated total dynamical RAM >       5.52 GB
     Cannot read rho : file not found

     Initial potential from superposition of free atoms

     starting charge  423.99908, renormalised to  442.00000

     negative rho (up, down):  3.745E-02 0.000E+00


     %%%%%%%%%%%%%%%%%%%%%%%%%%%%%%%%%%%%%%%%%%%%%%%%%%%%%%%%%%%%%%%%%%%%%%%%
     %                                                                      %
     % You are using vdW-DF, which was implemented by the Thonhauser group. %
     % Please cite the following two papers that made this development      %
     % possible and the two reviews that describe the various versions:     %
     %                                                                      %
     %   T. Thonhauser et al., PRL 115, 136402 (2015).                      %
     %   T. Thonhauser et al., PRB 76, 125112 (2007).                       %
     %   K. Berland et al., Rep. Prog. Phys. 78, 066501 (2015).             %
     %   D.C. Langreth et al., J. Phys.: Condens. Matter 21, 084203 (2009). %
     %                                                                      %
     %                                                                      %
     % If you are calculating the stress with vdW-DF, please also cite:     %
     %                                                                      %
     %   R. Sabatini et al., J. Phys.: Condens. Matter 24, 424209 (2012).   %
     %                                                                      %
     %%%%%%%%%%%%%%%%%%%%%%%%%%%%%%%%%%%%%%%%%%%%%%%%%%%%%%%%%%%%%%%%%%%%%%%%


 
     Adding external electric field

     Computed dipole along edir(3) : 
        Dipole               -5.9687 Ry au,        -15.1708 Debye
        Dipole field         -0.0075 Ry au, 
 
        Potential amp.        0.6961 Ry
        Total length         46.3494 bohr
 
     Starting wfcs are  334 atomic wfcs
  @ DRIVER MODE: Message from server: STATUS
  @ DRIVER MODE: Message from server: POSDATA
  @ DRIVER MODE: Reading and sharing cell 
  @ DRIVER MODE: Reading and sharing positions 
  @ DRIVER MODE: Received positions 

     total cpu time spent up to now is       18.9 secs

     Self-consistent Calculation

     iteration #  1     ecut=    29.40 Ry     beta= 0.05
     Davidson diagonalization with overlap
     c_bands:  1 eigenvalues not converged
     c_bands:  3 eigenvalues not converged
     c_bands:  5 eigenvalues not converged
     c_bands:  2 eigenvalues not converged
     c_bands:  4 eigenvalues not converged
     c_bands:  5 eigenvalues not converged
     c_bands:  5 eigenvalues not converged
     c_bands:  3 eigenvalues not converged
     c_bands:  2 eigenvalues not converged
     c_bands:  3 eigenvalues not converged
     ethr =  1.00E-05,  avg # of iterations = 20.0

     negative rho (up, down):  3.694E-02 0.000E+00
 
     Adding external electric field

     Computed dipole along edir(3) : 
        Dipole                6.4235 Ry au,         16.3270 Debye
        Dipole field          0.0081 Ry au, 
 
        Potential amp.       -0.7491 Ry
        Total length         46.3494 bohr
 

     total cpu time spent up to now is       99.6 secs

     total energy              =   -3277.95304583 Ry
     estimated scf accuracy    <     239.38554836 Ry

     iteration #  2     ecut=    29.40 Ry     beta= 0.05
     Davidson diagonalization with overlap
     ethr =  1.00E-02,  avg # of iterations = 16.1

     negative rho (up, down):  3.528E-02 0.000E+00
 
     Adding external electric field

     Computed dipole along edir(3) : 
        Dipole               -1.5242 Ry au,         -3.8741 Debye
        Dipole field         -0.0019 Ry au, 
 
        Potential amp.        0.1778 Ry
        Total length         46.3494 bohr
 

     total cpu time spent up to now is      142.4 secs

     total energy              =   -3277.96391935 Ry
     estimated scf accuracy    <     862.49335372 Ry

     iteration #  3     ecut=    29.40 Ry     beta= 0.05
     Davidson diagonalization with overlap
     c_bands:  3 eigenvalues not converged
     ethr =  1.00E-02,  avg # of iterations = 13.2

     negative rho (up, down):  3.495E-02 0.000E+00
 
     Adding external electric field

     Computed dipole along edir(3) : 
        Dipole               -1.6053 Ry au,         -4.0802 Debye
        Dipole field         -0.0020 Ry au, 
 
        Potential amp.        0.1872 Ry
        Total length         46.3494 bohr
 

     total cpu time spent up to now is      173.7 secs

     total energy              =   -3296.59449890 Ry
     estimated scf accuracy    <      11.67093572 Ry

     iteration #  4     ecut=    29.40 Ry     beta= 0.05
     Davidson diagonalization with overlap
     ethr =  2.64E-03,  avg # of iterations =  5.0

     negative rho (up, down):  3.466E-02 0.000E+00
 
     Adding external electric field

     Computed dipole along edir(3) : 
        Dipole               -1.2934 Ry au,         -3.2875 Debye
        Dipole field         -0.0016 Ry au, 
 
        Potential amp.        0.1508 Ry
        Total length         46.3494 bohr
 

     total cpu time spent up to now is      198.5 secs

     total energy              =   -3296.76387428 Ry
     estimated scf accuracy    <       9.61175893 Ry

     iteration #  5     ecut=    29.40 Ry     beta= 0.05
     Davidson diagonalization with overlap
     ethr =  2.17E-03,  avg # of iterations =  1.5

     negative rho (up, down):  3.567E-02 0.000E+00
 
     Adding external electric field

     Computed dipole along edir(3) : 
        Dipole                0.5255 Ry au,          1.3357 Debye
        Dipole field          0.0007 Ry au, 
 
        Potential amp.       -0.0613 Ry
        Total length         46.3494 bohr
 

     total cpu time spent up to now is      219.9 secs

     total energy              =   -3293.85472746 Ry
     estimated scf accuracy    <       7.22953630 Ry

     iteration #  6     ecut=    29.40 Ry     beta= 0.05
     Davidson diagonalization with overlap
     ethr =  1.64E-03,  avg # of iterations = 13.2

     negative rho (up, down):  3.513E-02 0.000E+00
 
     Adding external electric field

     Computed dipole along edir(3) : 
        Dipole                0.4143 Ry au,          1.0531 Debye
        Dipole field          0.0005 Ry au, 
 
        Potential amp.       -0.0483 Ry
        Total length         46.3494 bohr
 

     total cpu time spent up to now is      258.5 secs

     total energy              =   -3295.99593678 Ry
     estimated scf accuracy    <       9.72882906 Ry

     iteration #  7     ecut=    29.40 Ry     beta= 0.05
     Davidson diagonalization with overlap
     ethr =  1.64E-03,  avg # of iterations =  1.3

     negative rho (up, down):  3.464E-02 0.000E+00
 
     Adding external electric field

     Computed dipole along edir(3) : 
        Dipole                0.3484 Ry au,          0.8855 Debye
        Dipole field          0.0004 Ry au, 
 
        Potential amp.       -0.0406 Ry
        Total length         46.3494 bohr
 

     total cpu time spent up to now is      279.6 secs

     total energy              =   -3295.91666652 Ry
     estimated scf accuracy    <       5.55645752 Ry

     iteration #  8     ecut=    29.40 Ry     beta= 0.05
     Davidson diagonalization with overlap
     ethr =  1.26E-03,  avg # of iterations =  1.4

     negative rho (up, down):  3.435E-02 0.000E+00
 
     Adding external electric field

     Computed dipole along edir(3) : 
        Dipole                0.6162 Ry au,          1.5663 Debye
        Dipole field          0.0008 Ry au, 
 
        Potential amp.       -0.0719 Ry
        Total length         46.3494 bohr
 

     total cpu time spent up to now is      301.1 secs

     total energy              =   -3295.57431284 Ry
     estimated scf accuracy    <       3.85382486 Ry

     iteration #  9     ecut=    29.40 Ry     beta= 0.05
     Davidson diagonalization with overlap
     ethr =  8.72E-04,  avg # of iterations =  5.3

     negative rho (up, down):  3.431E-02 0.000E+00
 
     Adding external electric field

     Computed dipole along edir(3) : 
        Dipole                0.8924 Ry au,          2.2683 Debye
        Dipole field          0.0011 Ry au, 
 
        Potential amp.       -0.1041 Ry
        Total length         46.3494 bohr
 

     total cpu time spent up to now is      325.6 secs

     total energy              =   -3295.68041021 Ry
     estimated scf accuracy    <       0.90956712 Ry

     iteration # 10     ecut=    29.40 Ry     beta= 0.05
     Davidson diagonalization with overlap
     c_bands:  5 eigenvalues not converged
     c_bands:  3 eigenvalues not converged
     c_bands:  2 eigenvalues not converged
     ethr =  2.06E-04,  avg # of iterations = 15.5

     negative rho (up, down):  3.439E-02 0.000E+00
 
     Adding external electric field

     Computed dipole along edir(3) : 
        Dipole                1.0373 Ry au,          2.6365 Debye
        Dipole field          0.0013 Ry au, 
 
        Potential amp.       -0.1210 Ry
        Total length         46.3494 bohr
 

     total cpu time spent up to now is      359.2 secs

     total energy              =   -3295.77035763 Ry
     estimated scf accuracy    <       0.51546708 Ry

     iteration # 11     ecut=    29.40 Ry     beta= 0.05
     Davidson diagonalization with overlap
     c_bands:  2 eigenvalues not converged
     c_bands:  1 eigenvalues not converged
     ethr =  1.17E-04,  avg # of iterations = 11.6

     negative rho (up, down):  3.439E-02 0.000E+00
 
     Adding external electric field

     Computed dipole along edir(3) : 
        Dipole                1.0172 Ry au,          2.5855 Debye
        Dipole field          0.0013 Ry au, 
 
        Potential amp.       -0.1186 Ry
        Total length         46.3494 bohr
 

     total cpu time spent up to now is      386.1 secs

     total energy              =   -3295.76592653 Ry
     estimated scf accuracy    <       0.38775182 Ry

     iteration # 12     ecut=    29.40 Ry     beta= 0.05
     Davidson diagonalization with overlap
     ethr =  8.77E-05,  avg # of iterations = 11.7

     negative rho (up, down):  3.515E-02 0.000E+00
 
     Adding external electric field

     Computed dipole along edir(3) : 
        Dipole                1.0763 Ry au,          2.7356 Debye
        Dipole field          0.0014 Ry au, 
 
        Potential amp.       -0.1255 Ry
        Total length         46.3494 bohr
 

     total cpu time spent up to now is      413.9 secs

     total energy              =   -3295.77073148 Ry
     estimated scf accuracy    <       0.25600834 Ry

     iteration # 13     ecut=    29.40 Ry     beta= 0.05
     Davidson diagonalization with overlap
     c_bands:  1 eigenvalues not converged
     c_bands:  4 eigenvalues not converged
     c_bands:  1 eigenvalues not converged
     c_bands:  1 eigenvalues not converged
     c_bands:  2 eigenvalues not converged
     ethr =  5.79E-05,  avg # of iterations = 17.0

     negative rho (up, down):  3.631E-02 0.000E+00
 
     Adding external electric field

     Computed dipole along edir(3) : 
        Dipole                1.6353 Ry au,          4.1564 Debye
        Dipole field          0.0021 Ry au, 
 
        Potential amp.       -0.1907 Ry
        Total length         46.3494 bohr
 

     total cpu time spent up to now is      454.5 secs

     total energy              =   -3295.71761092 Ry
     estimated scf accuracy    <       0.61305842 Ry

     iteration # 14     ecut=    29.40 Ry     beta= 0.05
     Davidson diagonalization with overlap
     c_bands:  1 eigenvalues not converged
     c_bands:  2 eigenvalues not converged
     c_bands:  2 eigenvalues not converged
     c_bands:  1 eigenvalues not converged
     c_bands:  3 eigenvalues not converged
     c_bands:  1 eigenvalues not converged
     ethr =  5.79E-05,  avg # of iterations = 19.3

     negative rho (up, down):  3.695E-02 0.000E+00
 
     Adding external electric field

     Computed dipole along edir(3) : 
        Dipole                1.6135 Ry au,          4.1012 Debye
        Dipole field          0.0020 Ry au, 
 
        Potential amp.       -0.1882 Ry
        Total length         46.3494 bohr
 

     total cpu time spent up to now is      498.7 secs

     total energy              =   -3295.78900109 Ry
     estimated scf accuracy    <       0.18948358 Ry

     iteration # 15     ecut=    29.40 Ry     beta= 0.05
     Davidson diagonalization with overlap
     ethr =  4.29E-05,  avg # of iterations =  2.4

     negative rho (up, down):  3.720E-02 0.000E+00
 
     Adding external electric field

     Computed dipole along edir(3) : 
        Dipole                1.3824 Ry au,          3.5137 Debye
        Dipole field          0.0017 Ry au, 
 
        Potential amp.       -0.1612 Ry
        Total length         46.3494 bohr
 

     total cpu time spent up to now is      521.3 secs

     total energy              =   -3295.78262689 Ry
     estimated scf accuracy    <       0.08396557 Ry

     iteration # 16     ecut=    29.40 Ry     beta= 0.05
     Davidson diagonalization with overlap
     c_bands:  2 eigenvalues not converged
     c_bands:  4 eigenvalues not converged
     c_bands:  4 eigenvalues not converged
     c_bands:  5 eigenvalues not converged
     c_bands:  2 eigenvalues not converged
     c_bands:  5 eigenvalues not converged
     c_bands:  4 eigenvalues not converged
     c_bands:  4 eigenvalues not converged
     c_bands:  3 eigenvalues not converged
     c_bands:  1 eigenvalues not converged
     ethr =  1.90E-05,  avg # of iterations = 20.0

     negative rho (up, down):  3.745E-02 0.000E+00
 
     Adding external electric field

     Computed dipole along edir(3) : 
        Dipole                1.5080 Ry au,          3.8329 Debye
        Dipole field          0.0019 Ry au, 
 
        Potential amp.       -0.1759 Ry
        Total length         46.3494 bohr
 

     total cpu time spent up to now is      568.2 secs

     total energy              =   -3295.78199358 Ry
     estimated scf accuracy    <       0.52708837 Ry

     iteration # 17     ecut=    29.40 Ry     beta= 0.05
     Davidson diagonalization with overlap
     c_bands:  2 eigenvalues not converged
     c_bands:  1 eigenvalues not converged
     ethr =  1.90E-05,  avg # of iterations = 17.8

     negative rho (up, down):  3.798E-02 0.000E+00
 
     Adding external electric field

     Computed dipole along edir(3) : 
        Dipole                1.5188 Ry au,          3.8605 Debye
        Dipole field          0.0019 Ry au, 
 
        Potential amp.       -0.1771 Ry
        Total length         46.3494 bohr
 

     total cpu time spent up to now is      604.4 secs

     total energy              =   -3295.79495941 Ry
     estimated scf accuracy    <       0.04660408 Ry

     iteration # 18     ecut=    29.40 Ry     beta= 0.05
     Davidson diagonalization with overlap
     ethr =  1.05E-05,  avg # of iterations = 10.2

     negative rho (up, down):  3.809E-02 0.000E+00
 
     Adding external electric field

     Computed dipole along edir(3) : 
        Dipole                1.5859 Ry au,          4.0310 Debye
        Dipole field          0.0020 Ry au, 
 
        Potential amp.       -0.1850 Ry
        Total length         46.3494 bohr
 

     total cpu time spent up to now is      638.2 secs

     total energy              =   -3295.80353585 Ry
     estimated scf accuracy    <       0.01861454 Ry

     iteration # 19     ecut=    29.40 Ry     beta= 0.05
     Davidson diagonalization with overlap
     c_bands:  1 eigenvalues not converged
     c_bands:  3 eigenvalues not converged
     c_bands:  2 eigenvalues not converged
     ethr =  4.21E-06,  avg # of iterations = 16.7

     negative rho (up, down):  3.786E-02 0.000E+00
 
     Adding external electric field

     Computed dipole along edir(3) : 
        Dipole                1.5904 Ry au,          4.0425 Debye
        Dipole field          0.0020 Ry au, 
 
        Potential amp.       -0.1855 Ry
        Total length         46.3494 bohr
 

     total cpu time spent up to now is      679.2 secs

     total energy              =   -3295.80381073 Ry
     estimated scf accuracy    <       0.02396826 Ry

     iteration # 20     ecut=    29.40 Ry     beta= 0.05
     Davidson diagonalization with overlap
     c_bands:  1 eigenvalues not converged
     ethr =  4.21E-06,  avg # of iterations =  4.1

     negative rho (up, down):  3.792E-02 0.000E+00
 
     Adding external electric field

     Computed dipole along edir(3) : 
        Dipole                1.5672 Ry au,          3.9833 Debye
        Dipole field          0.0020 Ry au, 
 
        Potential amp.       -0.1828 Ry
        Total length         46.3494 bohr
 

     total cpu time spent up to now is      702.0 secs

     total energy              =   -3295.80166475 Ry
     estimated scf accuracy    <       0.01342403 Ry

     iteration # 21     ecut=    29.40 Ry     beta= 0.05
     Davidson diagonalization with overlap
     ethr =  3.04E-06,  avg # of iterations = 12.8

     negative rho (up, down):  3.772E-02 0.000E+00
 
     Adding external electric field

     Computed dipole along edir(3) : 
        Dipole                1.5579 Ry au,          3.9597 Debye
        Dipole field          0.0020 Ry au, 
 
        Potential amp.       -0.1817 Ry
        Total length         46.3494 bohr
 

     total cpu time spent up to now is      740.9 secs

     total energy              =   -3295.80328076 Ry
     estimated scf accuracy    <       0.00807160 Ry

     iteration # 22     ecut=    29.40 Ry     beta= 0.05
     Davidson diagonalization with overlap
     ethr =  1.83E-06,  avg # of iterations =  7.8

     negative rho (up, down):  3.761E-02 0.000E+00
 
     Adding external electric field

     Computed dipole along edir(3) : 
        Dipole                1.5363 Ry au,          3.9048 Debye
        Dipole field          0.0019 Ry au, 
 
        Potential amp.       -0.1792 Ry
        Total length         46.3494 bohr
 

     total cpu time spent up to now is      776.4 secs

     total energy              =   -3295.80614869 Ry
     estimated scf accuracy    <       0.00637467 Ry

     iteration # 23     ecut=    29.40 Ry     beta= 0.05
     Davidson diagonalization with overlap
     ethr =  1.44E-06,  avg # of iterations =  1.0

     negative rho (up, down):  3.752E-02 0.000E+00
 
     Adding external electric field

     Computed dipole along edir(3) : 
        Dipole                1.4884 Ry au,          3.7832 Debye
        Dipole field          0.0019 Ry au, 
 
        Potential amp.       -0.1736 Ry
        Total length         46.3494 bohr
 

     total cpu time spent up to now is      797.1 secs

     total energy              =   -3295.80506537 Ry
     estimated scf accuracy    <       0.00546595 Ry

     iteration # 24     ecut=    29.40 Ry     beta= 0.05
     Davidson diagonalization with overlap
     ethr =  1.24E-06,  avg # of iterations =  6.3

     negative rho (up, down):  3.733E-02 0.000E+00
 
     Adding external electric field

     Computed dipole along edir(3) : 
        Dipole                1.4886 Ry au,          3.7836 Debye
        Dipole field          0.0019 Ry au, 
 
        Potential amp.       -0.1736 Ry
        Total length         46.3494 bohr
 

     total cpu time spent up to now is      826.1 secs

     total energy              =   -3295.80595557 Ry
     estimated scf accuracy    <       0.00042523 Ry

     iteration # 25     ecut=    29.40 Ry     beta= 0.05
     Davidson diagonalization with overlap
     c_bands:  1 eigenvalues not converged
     c_bands:  1 eigenvalues not converged
     c_bands:  1 eigenvalues not converged
     ethr =  9.62E-08,  avg # of iterations = 16.4

     negative rho (up, down):  3.716E-02 0.000E+00
 
     Adding external electric field

     Computed dipole along edir(3) : 
        Dipole                1.4811 Ry au,          3.7646 Debye
        Dipole field          0.0019 Ry au, 
 
        Potential amp.       -0.1727 Ry
        Total length         46.3494 bohr
 

     total cpu time spent up to now is      875.0 secs

     total energy              =   -3295.80631551 Ry
     estimated scf accuracy    <       0.00080702 Ry

     iteration # 26     ecut=    29.40 Ry     beta= 0.05
     Davidson diagonalization with overlap
     ethr =  9.62E-08,  avg # of iterations =  1.4

     negative rho (up, down):  3.696E-02 0.000E+00
 
     Adding external electric field

     Computed dipole along edir(3) : 
        Dipole                1.5187 Ry au,          3.8601 Debye
        Dipole field          0.0019 Ry au, 
 
        Potential amp.       -0.1771 Ry
        Total length         46.3494 bohr
 

     total cpu time spent up to now is      896.3 secs

     total energy              =   -3295.80614749 Ry
     estimated scf accuracy    <       0.00082324 Ry

     iteration # 27     ecut=    29.40 Ry     beta= 0.05
     Davidson diagonalization with overlap
     c_bands:  1 eigenvalues not converged
     ethr =  9.62E-08,  avg # of iterations = 16.1

     negative rho (up, down):  3.686E-02 0.000E+00
 
     Adding external electric field

     Computed dipole along edir(3) : 
        Dipole                1.4949 Ry au,          3.7996 Debye
        Dipole field          0.0019 Ry au, 
 
        Potential amp.       -0.1743 Ry
        Total length         46.3494 bohr
 

     total cpu time spent up to now is      945.5 secs

     total energy              =   -3295.80637265 Ry
     estimated scf accuracy    <       0.00078283 Ry

     iteration # 28     ecut=    29.40 Ry     beta= 0.05
     Davidson diagonalization with overlap
     ethr =  9.62E-08,  avg # of iterations = 13.2

     negative rho (up, down):  3.673E-02 0.000E+00
 
     Adding external electric field

     Computed dipole along edir(3) : 
        Dipole                1.5188 Ry au,          3.8605 Debye
        Dipole field          0.0019 Ry au, 
 
        Potential amp.       -0.1771 Ry
        Total length         46.3494 bohr
 

     total cpu time spent up to now is      981.1 secs

     total energy              =   -3295.80653517 Ry
     estimated scf accuracy    <       0.00025591 Ry

     iteration # 29     ecut=    29.40 Ry     beta= 0.05
     Davidson diagonalization with overlap
     ethr =  5.79E-08,  avg # of iterations =  9.4

     negative rho (up, down):  3.666E-02 0.000E+00
 
     Adding external electric field

     Computed dipole along edir(3) : 
        Dipole                1.4926 Ry au,          3.7937 Debye
        Dipole field          0.0019 Ry au, 
 
        Potential amp.       -0.1741 Ry
        Total length         46.3494 bohr
 

     total cpu time spent up to now is     1016.1 secs

     total energy              =   -3295.80664215 Ry
     estimated scf accuracy    <       0.00034111 Ry

     iteration # 30     ecut=    29.40 Ry     beta= 0.05
     Davidson diagonalization with overlap
     ethr =  5.79E-08,  avg # of iterations =  9.0

     negative rho (up, down):  3.655E-02 0.000E+00
 
     Adding external electric field

     Computed dipole along edir(3) : 
        Dipole                1.5005 Ry au,          3.8139 Debye
        Dipole field          0.0019 Ry au, 
 
        Potential amp.       -0.1750 Ry
        Total length         46.3494 bohr
 

     total cpu time spent up to now is     1049.9 secs

     total energy              =   -3295.80677690 Ry
     estimated scf accuracy    <       0.00013535 Ry

     iteration # 31     ecut=    29.40 Ry     beta= 0.05
     Davidson diagonalization with overlap
     ethr =  3.06E-08,  avg # of iterations =  5.0

     negative rho (up, down):  3.644E-02 0.000E+00
 
     Adding external electric field

     Computed dipole along edir(3) : 
        Dipole                1.5122 Ry au,          3.8436 Debye
        Dipole field          0.0019 Ry au, 
 
        Potential amp.       -0.1764 Ry
        Total length         46.3494 bohr
 

     total cpu time spent up to now is     1074.1 secs

     total energy              =   -3295.80683965 Ry
     estimated scf accuracy    <       0.00008847 Ry

     iteration # 32     ecut=    29.40 Ry     beta= 0.05
     Davidson diagonalization with overlap
     ethr =  2.00E-08,  avg # of iterations =  7.1

     negative rho (up, down):  3.637E-02 0.000E+00
 
     Adding external electric field

     Computed dipole along edir(3) : 
        Dipole                1.5081 Ry au,          3.8333 Debye
        Dipole field          0.0019 Ry au, 
 
        Potential amp.       -0.1759 Ry
        Total length         46.3494 bohr
 

     total cpu time spent up to now is     1102.8 secs

     total energy              =   -3295.80691357 Ry
     estimated scf accuracy    <       0.00004305 Ry

     iteration # 33     ecut=    29.40 Ry     beta= 0.05
     Davidson diagonalization with overlap
     ethr =  9.74E-09,  avg # of iterations =  6.4

     negative rho (up, down):  3.630E-02 0.000E+00
 
     Adding external electric field

     Computed dipole along edir(3) : 
        Dipole                1.5130 Ry au,          3.8458 Debye
        Dipole field          0.0019 Ry au, 
 
        Potential amp.       -0.1765 Ry
        Total length         46.3494 bohr
 

     total cpu time spent up to now is     1128.8 secs

     total energy              =   -3295.80697600 Ry
     estimated scf accuracy    <       0.00002426 Ry

     iteration # 34     ecut=    29.40 Ry     beta= 0.05
     Davidson diagonalization with overlap
     ethr =  5.49E-09,  avg # of iterations = 10.2

     negative rho (up, down):  3.625E-02 0.000E+00
 
     Adding external electric field

     Computed dipole along edir(3) : 
        Dipole                1.5148 Ry au,          3.8504 Debye
        Dipole field          0.0019 Ry au, 
 
        Potential amp.       -0.1767 Ry
        Total length         46.3494 bohr
 

     total cpu time spent up to now is     1160.6 secs

     total energy              =   -3295.80703919 Ry
     estimated scf accuracy    <       0.00001092 Ry

     iteration # 35     ecut=    29.40 Ry     beta= 0.05
     Davidson diagonalization with overlap
     ethr =  2.47E-09,  avg # of iterations = 10.8

     negative rho (up, down):  3.622E-02 0.000E+00
 
     Adding external electric field

     Computed dipole along edir(3) : 
        Dipole                1.5113 Ry au,          3.8413 Debye
        Dipole field          0.0019 Ry au, 
 
        Potential amp.       -0.1763 Ry
        Total length         46.3494 bohr
 

     total cpu time spent up to now is     1191.8 secs

     total energy              =   -3295.80709261 Ry
     estimated scf accuracy    <       0.00001113 Ry

     iteration # 36     ecut=    29.40 Ry     beta= 0.05
     Davidson diagonalization with overlap
     ethr =  2.47E-09,  avg # of iterations =  7.8

     negative rho (up, down):  3.617E-02 0.000E+00
 
     Adding external electric field

     Computed dipole along edir(3) : 
        Dipole                1.5126 Ry au,          3.8448 Debye
        Dipole field          0.0019 Ry au, 
 
        Potential amp.       -0.1764 Ry
        Total length         46.3494 bohr
 

     total cpu time spent up to now is     1222.3 secs

     total energy              =   -3295.80713922 Ry
     estimated scf accuracy    <       0.00000449 Ry

     iteration # 37     ecut=    29.40 Ry     beta= 0.05
     Davidson diagonalization with overlap
     ethr =  1.01E-09,  avg # of iterations =  3.1

     negative rho (up, down):  3.613E-02 0.000E+00
 
     Adding external electric field

     Computed dipole along edir(3) : 
        Dipole                1.5135 Ry au,          3.8468 Debye
        Dipole field          0.0019 Ry au, 
 
        Potential amp.       -0.1765 Ry
        Total length         46.3494 bohr
 

     total cpu time spent up to now is     1245.3 secs

     total energy              =   -3295.80717980 Ry
     estimated scf accuracy    <       0.00000326 Ry

     iteration # 38     ecut=    29.40 Ry     beta= 0.05
     Davidson diagonalization with overlap
     ethr =  7.36E-10,  avg # of iterations =  9.9

     negative rho (up, down):  3.611E-02 0.000E+00
 
     Adding external electric field

     Computed dipole along edir(3) : 
        Dipole                1.5116 Ry au,          3.8421 Debye
        Dipole field          0.0019 Ry au, 
 
        Potential amp.       -0.1763 Ry
        Total length         46.3494 bohr
 

     total cpu time spent up to now is     1274.3 secs

     total energy              =   -3295.80721733 Ry
     estimated scf accuracy    <       0.00000164 Ry

     iteration # 39     ecut=    29.40 Ry     beta= 0.05
     Davidson diagonalization with overlap
     ethr =  3.71E-10,  avg # of iterations =  8.0

     negative rho (up, down):  3.608E-02 0.000E+00
 
     Adding external electric field

     Computed dipole along edir(3) : 
        Dipole                1.5121 Ry au,          3.8434 Debye
        Dipole field          0.0019 Ry au, 
 
        Potential amp.       -0.1763 Ry
        Total length         46.3494 bohr
 

     total cpu time spent up to now is     1306.4 secs

     total energy              =   -3295.80725095 Ry
     estimated scf accuracy    <       0.00000145 Ry

     iteration # 40     ecut=    29.40 Ry     beta= 0.05
     Davidson diagonalization with overlap
     ethr =  3.29E-10,  avg # of iterations =  3.2

     negative rho (up, down):  3.605E-02 0.000E+00
 
     Adding external electric field

     Computed dipole along edir(3) : 
        Dipole                1.5137 Ry au,          3.8473 Debye
        Dipole field          0.0019 Ry au, 
 
        Potential amp.       -0.1765 Ry
        Total length         46.3494 bohr
 

     total cpu time spent up to now is     1329.3 secs

     total energy              =   -3295.80728097 Ry
     estimated scf accuracy    <       0.00000095 Ry

     iteration # 41     ecut=    29.40 Ry     beta= 0.05
     Davidson diagonalization with overlap
     ethr =  2.15E-10,  avg # of iterations = 14.0

     negative rho (up, down):  3.603E-02 0.000E+00
 
     Adding external electric field

     Computed dipole along edir(3) : 
        Dipole                1.5135 Ry au,          3.8470 Debye
        Dipole field          0.0019 Ry au, 
 
        Potential amp.       -0.1765 Ry
        Total length         46.3494 bohr
 

     total cpu time spent up to now is     1368.1 secs

     total energy              =   -3295.80730808 Ry
     estimated scf accuracy    <       0.00000084 Ry

     iteration # 42     ecut=    29.40 Ry     beta= 0.05
     Davidson diagonalization with overlap
     ethr =  1.90E-10,  avg # of iterations =  4.7

     negative rho (up, down):  3.601E-02 0.000E+00
 
     Adding external electric field

     Computed dipole along edir(3) : 
        Dipole                1.5138 Ry au,          3.8476 Debye
        Dipole field          0.0019 Ry au, 
 
        Potential amp.       -0.1765 Ry
        Total length         46.3494 bohr
 

     total cpu time spent up to now is     1391.8 secs

     total energy              =   -3295.80733254 Ry
     estimated scf accuracy    <       0.00000044 Ry

     iteration # 43     ecut=    29.40 Ry     beta= 0.05
     Davidson diagonalization with overlap
     ethr =  9.88E-11,  avg # of iterations = 10.6

     negative rho (up, down):  3.600E-02 0.000E+00
 
     Adding external electric field

     Computed dipole along edir(3) : 
        Dipole                1.5133 Ry au,          3.8463 Debye
        Dipole field          0.0019 Ry au, 
 
        Potential amp.       -0.1765 Ry
        Total length         46.3494 bohr
 

     total cpu time spent up to now is     1428.2 secs

     total energy              =   -3295.80735458 Ry
     estimated scf accuracy    <       0.00000049 Ry

     iteration # 44     ecut=    29.40 Ry     beta= 0.05
     Davidson diagonalization with overlap
     ethr =  9.88E-11,  avg # of iterations =  6.4

     negative rho (up, down):  3.598E-02 0.000E+00
 
     Adding external electric field

     Computed dipole along edir(3) : 
        Dipole                1.5133 Ry au,          3.8465 Debye
        Dipole field          0.0019 Ry au, 
 
        Potential amp.       -0.1765 Ry
        Total length         46.3494 bohr
 

     total cpu time spent up to now is     1453.9 secs

     total energy              =   -3295.80737450 Ry
     estimated scf accuracy    <       0.00000013 Ry

     iteration # 45     ecut=    29.40 Ry     beta= 0.05
     Davidson diagonalization with overlap
     ethr =  3.02E-11,  avg # of iterations =  6.0

     negative rho (up, down):  3.597E-02 0.000E+00
 
     Adding external electric field

     Computed dipole along edir(3) : 
        Dipole                1.5138 Ry au,          3.8477 Debye
        Dipole field          0.0019 Ry au, 
 
        Potential amp.       -0.1765 Ry
        Total length         46.3494 bohr
 

     total cpu time spent up to now is     1478.7 secs

     total energy              =   -3295.80739258 Ry
     estimated scf accuracy    <       0.00000012 Ry

     iteration # 46     ecut=    29.40 Ry     beta= 0.05
     Davidson diagonalization with overlap
     ethr =  2.72E-11,  avg # of iterations = 10.0

     negative rho (up, down):  3.597E-02 0.000E+00
 
     Adding external electric field

     Computed dipole along edir(3) : 
        Dipole                1.5134 Ry au,          3.8466 Debye
        Dipole field          0.0019 Ry au, 
 
        Potential amp.       -0.1765 Ry
        Total length         46.3494 bohr
 

     total cpu time spent up to now is     1515.6 secs

     total energy              =   -3295.80740875 Ry
     estimated scf accuracy    <       0.00000012 Ry

     iteration # 47     ecut=    29.40 Ry     beta= 0.05
     Davidson diagonalization with overlap
     ethr =  2.72E-11,  avg # of iterations =  5.4

     negative rho (up, down):  3.607E-02 0.000E+00
 
     Adding external electric field

     Computed dipole along edir(3) : 
        Dipole                1.5139 Ry au,          3.8480 Debye
        Dipole field          0.0019 Ry au, 
 
        Potential amp.       -0.1766 Ry
        Total length         46.3494 bohr
 

     total cpu time spent up to now is     1541.1 secs

     End of self-consistent calculation

          k = 0.0000 0.0000 0.0000 ( 26871 PWs)   bands (ev):

   -57.7232 -57.6975 -57.6872 -57.6612 -57.6517 -57.6202 -57.6027 -57.5968
   -57.5689 -57.5566 -57.5067 -57.4761 -57.4597 -57.4535 -57.4454 -56.7454
   -56.7212 -56.7167 -34.1048 -34.1011 -34.0929 -34.0839 -34.0729 -34.0557
   -34.0549 -34.0404 -34.0272 -34.0157 -33.9858 -33.9669 -33.9483 -33.9421
   -33.9344 -33.9160 -33.9117 -33.9086 -33.8908 -33.8856 -33.8646 -33.8629
   -33.8411 -33.8312 -33.8273 -33.8213 -33.8104 -33.8085 -33.8030 -33.7943
   -33.7821 -33.7801 -33.7661 -33.7295 -33.7214 -33.7171 -33.7027 -33.7016
   -33.6938 -33.6926 -33.6816 -33.6732 -33.6665 -33.6604 -33.6380 -33.0606
   -33.0595 -33.0551 -33.0435 -33.0393 -32.9715 -32.9094 -32.9041 -32.7712
   -19.3025 -18.7669 -18.5248 -18.2259 -18.0147 -17.9723 -17.9395 -17.8181
   -17.7824 -17.7584 -17.6606 -17.6489 -17.5862 -17.5328 -17.5046 -17.4561
   -17.4376 -17.3773 -17.3631 -17.3548 -17.3495 -17.3395 -17.3291 -17.2636
   -17.2368 -17.2081 -17.1693 -17.1536 -17.1470 -17.1396 -17.1173 -16.8444
   -15.5019 -15.2119 -15.1539 -15.1526 -15.0981  -6.9859  -6.8131  -6.6499
    -6.3733  -5.8588  -5.7850  -5.6358  -5.5119  -5.2197  -5.1924  -5.1407
    -5.1139  -5.0853  -5.0205  -5.0004  -4.9874  -4.9323  -4.9147  -4.8422
    -4.8196  -4.7779  -4.7542  -4.7282  -4.6834  -4.6432  -4.6159  -4.6042
    -4.5735  -4.5660  -4.5093  -4.4858  -4.4564  -4.4504  -4.4343  -4.3252
    -4.2936  -4.2378  -4.1687  -4.0910  -4.0377  -4.0299  -3.9735  -3.9537
    -3.9015  -3.8633  -3.8250  -3.8162  -3.7796  -3.7412  -3.6423  -3.6121
    -3.5866  -3.5207  -3.4993  -3.4302  -3.4127  -3.3798  -3.3378  -3.3314
    -3.2945  -3.1971  -3.1632  -3.0824  -3.0269  -2.9723  -2.9333  -2.8884
    -2.8424  -2.8092  -2.7844  -2.7025  -2.6278  -2.5419  -2.4918  -2.4791
    -2.4673  -2.4170  -2.4098  -2.4070  -2.3517  -2.3244  -2.3143  -2.2764
    -2.2253  -2.2017  -2.1396  -2.0956  -2.0592  -1.9918  -1.9763  -1.8955
    -1.8877  -1.8258  -1.7824  -1.7425  -1.6311  -1.5976  -1.5640  -1.5614
    -1.4424  -1.4062  -1.1447  -1.0031  -0.7808  -0.7498  -0.4989  -0.4501
    -0.4473  -0.1843  -0.1809  -0.0526   1.3238   1.5124   1.6466   1.7020
     1.7066   1.7400   1.8059   1.8932   1.9177   1.9659   2.0257

          k = 0.0000 0.0280 0.0000 ( 26907 PWs)   bands (ev):

   -57.7216 -57.7015 -57.6848 -57.6609 -57.6515 -57.6207 -57.6033 -57.5967
   -57.5686 -57.5565 -57.5070 -57.4742 -57.4603 -57.4577 -57.4426 -56.7432
   -56.7276 -56.7126 -34.1660 -34.1343 -34.1242 -34.0868 -34.0548 -34.0492
   -34.0390 -34.0050 -34.0013 -33.9970 -33.9801 -33.9674 -33.9616 -33.9436
   -33.9188 -33.9093 -33.8860 -33.8810 -33.8703 -33.8666 -33.8579 -33.8498
   -33.8457 -33.8397 -33.8366 -33.8332 -33.8248 -33.8134 -33.8014 -33.8002
   -33.7980 -33.7785 -33.7688 -33.7300 -33.7239 -33.7180 -33.7046 -33.7002
   -33.6975 -33.6950 -33.6905 -33.6817 -33.6690 -33.6662 -33.6465 -33.1258
   -33.0581 -33.0471 -33.0372 -32.9666 -32.9633 -32.9283 -32.8910 -32.7971
   -19.2985 -18.7651 -18.4813 -18.2069 -18.1149 -17.9679 -17.9037 -17.8758
   -17.8271 -17.6697 -17.6639 -17.6495 -17.6026 -17.5396 -17.4932 -17.4761
   -17.4408 -17.4180 -17.4097 -17.3628 -17.3120 -17.2882 -17.2828 -17.2551
   -17.2249 -17.2211 -17.2004 -17.1754 -17.1582 -17.1192 -17.0483 -16.8717
   -15.5013 -15.2137 -15.1931 -15.1103 -15.0982  -6.9827  -6.8105  -6.6460
    -6.3736  -5.7861  -5.7309  -5.5560  -5.4560  -5.3241  -5.2931  -5.2149
    -5.1113  -5.0892  -5.0761  -5.0586  -5.0139  -4.9713  -4.9239  -4.8943
    -4.8754  -4.8543  -4.7686  -4.7423  -4.7247  -4.6727  -4.6377  -4.5938
    -4.5551  -4.5369  -4.5197  -4.4880  -4.4349  -4.3903  -4.3511  -4.3035
    -4.2683  -4.2245  -4.2000  -4.1416  -4.1240  -4.1070  -4.0648  -4.0013
    -3.9223  -3.8921  -3.7881  -3.7265  -3.6991  -3.6519  -3.6123  -3.5868
    -3.5242  -3.5156  -3.4552  -3.4225  -3.3593  -3.2833  -3.2216  -3.1745
    -3.1562  -3.1073  -3.0628  -3.0306  -3.0004  -2.9485  -2.9129  -2.9000
    -2.8403  -2.7937  -2.7767  -2.7526  -2.7309  -2.6746  -2.6121  -2.5396
    -2.4581  -2.4486  -2.3976  -2.3883  -2.3341  -2.3143  -2.3066  -2.2809
    -2.2003  -2.1526  -2.1282  -2.0703  -2.0357  -1.9955  -1.9864  -1.9643
    -1.9438  -1.8923  -1.8805  -1.8128  -1.6683  -1.5765  -1.5533  -1.5434
    -1.3528  -1.3269  -1.2064  -1.0622  -0.9215  -0.7643  -0.5987  -0.4682
    -0.3649  -0.2189  -0.1231  -0.0988   1.4039   1.5694   1.6231   1.6912
     1.7183   1.7924   1.8277   1.8588   1.9457   1.9535   1.9645

          k = 0.0000-0.0559 0.0000 ( 26942 PWs)   bands (ev):

   -57.7197 -57.7052 -57.6831 -57.6606 -57.6513 -57.6212 -57.6039 -57.5966
   -57.5683 -57.5563 -57.5073 -57.4710 -57.4641 -57.4588 -57.4408 -56.7392
   -56.7338 -56.7105 -34.1903 -34.1558 -34.1440 -34.0924 -34.0582 -34.0509
   -34.0403 -34.0264 -33.9997 -33.9652 -33.9569 -33.9314 -33.9220 -33.9119
   -33.9012 -33.9000 -33.8915 -33.8802 -33.8710 -33.8678 -33.8582 -33.8556
   -33.8529 -33.8478 -33.8456 -33.8315 -33.8279 -33.8222 -33.8002 -33.7918
   -33.7777 -33.7704 -33.7671 -33.7590 -33.7313 -33.7239 -33.7183 -33.7015
   -33.6983 -33.6973 -33.6971 -33.6847 -33.6826 -33.6665 -33.6495 -33.1503
   -33.0560 -33.0506 -33.0360 -32.9530 -32.9471 -32.8855 -32.8708 -32.8655
   -19.2946 -18.7635 -18.3966 -18.2794 -18.1418 -17.9700 -17.9064 -17.8479
   -17.8194 -17.7708 -17.6698 -17.6530 -17.5741 -17.5261 -17.5044 -17.4567
   -17.4440 -17.4297 -17.4015 -17.3606 -17.3005 -17.2760 -17.2669 -17.2522
   -17.2433 -17.2198 -17.2018 -17.1929 -17.1364 -17.1303 -16.9496 -16.9432
   -15.5007 -15.2131 -15.2110 -15.0982 -15.0917  -6.9795  -6.8079  -6.6418
    -6.3738  -5.6523  -5.6181  -5.5441  -5.4254  -5.3487  -5.3377  -5.3283
    -5.2543  -5.2103  -5.1175  -5.0509  -5.0272  -4.9811  -4.9388  -4.9135
    -4.8728  -4.8413  -4.7950  -4.7520  -4.7451  -4.7000  -4.6579  -4.6214
    -4.5670  -4.5346  -4.5236  -4.5073  -4.4415  -4.4139  -4.3810  -4.3401
    -4.2798  -4.2542  -4.2049  -4.1992  -4.1208  -4.0651  -4.0083  -3.9014
    -3.8655  -3.8325  -3.7951  -3.7561  -3.7266  -3.6869  -3.6179  -3.5722
    -3.5173  -3.3862  -3.3598  -3.3010  -3.2458  -3.2174  -3.1911  -3.1311
    -3.1087  -3.0955  -3.0300  -2.9994  -2.9688  -2.9543  -2.8793  -2.8199
    -2.7715  -2.7412  -2.7208  -2.6821  -2.6622  -2.6485  -2.5921  -2.5856
    -2.5768  -2.5538  -2.4662  -2.4322  -2.3966  -2.3594  -2.3235  -2.2987
    -2.2557  -2.1876  -2.1620  -2.1382  -2.0966  -2.0645  -2.0437  -1.9561
    -1.9250  -1.8362  -1.8099  -1.7918  -1.6979  -1.6597  -1.6009  -1.3207
    -1.2750  -1.2569  -1.2508  -1.1967  -1.1524  -0.7623  -0.6950  -0.3959
    -0.3836  -0.1849  -0.1787  -0.0992   1.5057   1.5299   1.6510   1.7486
     1.7726   1.7981   1.8802   1.8820   1.8866   1.9295   1.9547

          k = 0.0380 0.0000 0.0000 ( 26897 PWs)   bands (ev):

   -57.7231 -57.6976 -57.6872 -57.6609 -57.6519 -57.6202 -57.6028 -57.5968
   -57.5689 -57.5567 -57.5066 -57.4761 -57.4597 -57.4536 -57.4456 -56.7453
   -56.7213 -56.7168 -34.1060 -34.1045 -34.0941 -34.0845 -34.0740 -34.0567
   -34.0550 -34.0406 -34.0275 -34.0195 -33.9878 -33.9523 -33.9502 -33.9467
   -33.9419 -33.9181 -33.9118 -33.8978 -33.8862 -33.8676 -33.8631 -33.8542
   -33.8381 -33.8275 -33.8238 -33.8204 -33.8136 -33.8099 -33.8082 -33.7935
   -33.7862 -33.7721 -33.7698 -33.7313 -33.7289 -33.7214 -33.7088 -33.7021
   -33.6945 -33.6938 -33.6911 -33.6710 -33.6663 -33.6611 -33.6383 -33.0628
   -33.0607 -33.0551 -33.0433 -33.0390 -32.9713 -32.9095 -32.9042 -32.7710
   -19.2981 -18.7526 -18.4611 -18.1532 -17.9765 -17.9557 -17.9093 -17.8207
   -17.7901 -17.7597 -17.7008 -17.6299 -17.5944 -17.5319 -17.5159 -17.4936
   -17.4628 -17.4543 -17.4130 -17.3846 -17.3628 -17.3561 -17.2969 -17.2744
   -17.2314 -17.2095 -17.1877 -17.1698 -17.1291 -17.0957 -17.0926 -16.9260
   -15.5001 -15.2086 -15.1543 -15.1530 -15.0987  -6.9928  -6.8287  -6.6456
    -6.3645  -5.7437  -5.5540  -5.4185  -5.3626  -5.2390  -5.2048  -5.1543
    -5.1032  -5.0761  -5.0021  -4.9584  -4.9351  -4.9101  -4.8855  -4.8472
    -4.8210  -4.8086  -4.7702  -4.6921  -4.6506  -4.6227  -4.6005  -4.5767
    -4.5495  -4.5225  -4.5023  -4.4882  -4.4578  -4.3675  -4.3444  -4.3052
    -4.2648  -4.2343  -4.1965  -4.1483  -4.0745  -4.0508  -3.9980  -3.9823
    -3.9521  -3.9154  -3.8916  -3.8422  -3.8043  -3.7267  -3.6798  -3.6077
    -3.5858  -3.5470  -3.4834  -3.4206  -3.4128  -3.3826  -3.3506  -3.3272
    -3.2091  -3.1917  -3.1558  -3.1097  -3.0617  -3.0100  -2.9594  -2.8888
    -2.8438  -2.8019  -2.7704  -2.7099  -2.6623  -2.6458  -2.6231  -2.5881
    -2.5299  -2.5202  -2.4703  -2.4319  -2.3831  -2.3293  -2.2892  -2.2813
    -2.2515  -2.2308  -2.1640  -2.1477  -2.0901  -2.0536  -1.9505  -1.8515
    -1.8437  -1.8344  -1.7985  -1.7627  -1.6954  -1.6617  -1.6015  -1.5782
    -1.3831  -1.3717  -1.1557  -1.0944  -0.7665  -0.7339  -0.5282  -0.4387
    -0.4356  -0.2316  -0.2300  -0.1426   1.3258   1.5359   1.5872   1.6331
     1.6510   1.6937   1.7513   1.7661   1.8417   1.8761   1.8883

          k = 0.0380 0.0280 0.0000 ( 26880 PWs)   bands (ev):

   -57.7216 -57.7015 -57.6847 -57.6606 -57.6517 -57.6206 -57.6034 -57.5967
   -57.5686 -57.5565 -57.5069 -57.4742 -57.4599 -57.4580 -57.4425 -56.7432
   -56.7277 -56.7125 -34.1668 -34.1352 -34.1275 -34.0872 -34.0549 -34.0494
   -34.0391 -34.0099 -34.0027 -33.9976 -33.9806 -33.9696 -33.9516 -33.9434
   -33.9098 -33.9016 -33.8810 -33.8778 -33.8697 -33.8664 -33.8547 -33.8530
   -33.8417 -33.8389 -33.8365 -33.8250 -33.8201 -33.8149 -33.8081 -33.7988
   -33.7977 -33.7780 -33.7689 -33.7334 -33.7294 -33.7241 -33.7106 -33.7027
   -33.6962 -33.6949 -33.6907 -33.6890 -33.6691 -33.6663 -33.6464 -33.1254
   -33.0611 -33.0481 -33.0358 -32.9666 -32.9633 -32.9283 -32.8909 -32.7973
   -19.2948 -18.7528 -18.4184 -18.1374 -18.0702 -17.9359 -17.8718 -17.8440
   -17.8199 -17.7439 -17.6809 -17.6452 -17.6165 -17.5586 -17.5132 -17.4911
   -17.4798 -17.4329 -17.4106 -17.3964 -17.3493 -17.3398 -17.3133 -17.2568
   -17.2370 -17.2087 -17.2017 -17.1733 -17.1410 -17.0961 -17.0071 -16.9507
   -15.4993 -15.2109 -15.1929 -15.1104 -15.0987  -6.9916  -6.8228  -6.6466
    -6.3637  -5.6778  -5.5089  -5.3632  -5.3101  -5.2827  -5.2640  -5.2323
    -5.1773  -5.1154  -5.0727  -5.0245  -4.9701  -4.9362  -4.8580  -4.8381
    -4.8287  -4.7923  -4.7614  -4.7305  -4.7108  -4.6575  -4.6294  -4.5671
    -4.5484  -4.5227  -4.5004  -4.4695  -4.4403  -4.4071  -4.3752  -4.3208
    -4.3074  -4.2637  -4.2057  -4.1346  -4.0947  -4.0807  -3.9910  -3.9625
    -3.8991  -3.8655  -3.8471  -3.7673  -3.7205  -3.6789  -3.6031  -3.5624
    -3.5294  -3.4987  -3.4435  -3.4104  -3.3689  -3.3304  -3.3147  -3.2324
    -3.2135  -3.1777  -3.1077  -3.0700  -3.0417  -2.9805  -2.9406  -2.9037
    -2.8524  -2.8281  -2.7942  -2.7495  -2.6942  -2.6560  -2.6206  -2.5937
    -2.5537  -2.4976  -2.4807  -2.4532  -2.3881  -2.3351  -2.2973  -2.2641
    -2.2556  -2.2267  -2.1981  -2.1086  -2.0983  -2.0554  -2.0300  -1.9652
    -1.9482  -1.8711  -1.8023  -1.7613  -1.7165  -1.6594  -1.6263  -1.5337
    -1.3558  -1.2424  -1.1916  -1.1465  -0.9329  -0.7419  -0.5892  -0.4698
    -0.3517  -0.2229  -0.2192  -0.1488   1.3930   1.5343   1.5742   1.6163
     1.6712   1.7216   1.7928   1.8293   1.8388   1.8740   1.9006

          k = 0.0380-0.0559 0.0000 ( 26850 PWs)   bands (ev):

   -57.7197 -57.7052 -57.6830 -57.6603 -57.6515 -57.6211 -57.6039 -57.5965
   -57.5682 -57.5563 -57.5071 -57.4710 -57.4638 -57.4590 -57.4407 -56.7392
   -56.7338 -56.7104 -34.1912 -34.1558 -34.1482 -34.0925 -34.0584 -34.0509
   -34.0402 -34.0321 -34.0000 -33.9657 -33.9452 -33.9231 -33.9192 -33.9122
   -33.9007 -33.9003 -33.8878 -33.8692 -33.8687 -33.8673 -33.8646 -33.8558
   -33.8511 -33.8406 -33.8403 -33.8302 -33.8274 -33.8216 -33.8070 -33.7916
   -33.7791 -33.7718 -33.7649 -33.7583 -33.7318 -33.7303 -33.7241 -33.7076
   -33.7007 -33.6971 -33.6970 -33.6885 -33.6840 -33.6664 -33.6494 -33.1498
   -33.0580 -33.0528 -33.0340 -32.9530 -32.9471 -32.8854 -32.8707 -32.8654
   -19.2917 -18.7526 -18.3405 -18.2182 -18.0725 -17.9054 -17.8972 -17.8345
   -17.7848 -17.7658 -17.7308 -17.6569 -17.6279 -17.5634 -17.5215 -17.5144
   -17.4519 -17.4205 -17.4160 -17.4077 -17.3342 -17.3107 -17.2902 -17.2719
   -17.2511 -17.2382 -17.2012 -17.1742 -17.1404 -17.0233 -17.0108 -16.9674
   -15.4986 -15.2115 -15.2094 -15.0988 -15.0914  -6.9851  -6.8260  -6.6441
    -6.3638  -5.5555  -5.4516  -5.4227  -5.3562  -5.3201  -5.2581  -5.2041
    -5.1714  -5.1277  -5.0811  -5.0671  -5.0622  -5.0032  -4.9000  -4.8713
    -4.8450  -4.8164  -4.7815  -4.7400  -4.7073  -4.6458  -4.6311  -4.6256
    -4.5661  -4.5402  -4.5123  -4.4870  -4.4597  -4.4173  -4.3989  -4.3672
    -4.3498  -4.3119  -4.1657  -4.1439  -4.1192  -3.9956  -3.9319  -3.9123
    -3.8509  -3.8037  -3.7419  -3.7051  -3.6515  -3.6081  -3.5905  -3.5636
    -3.5152  -3.4426  -3.4095  -3.3923  -3.3566  -3.3281  -3.2382  -3.1894
    -3.1623  -3.1389  -3.1153  -3.0857  -3.0130  -2.9876  -2.9008  -2.8715
    -2.8088  -2.7934  -2.7681  -2.7451  -2.7081  -2.6515  -2.6388  -2.6074
    -2.5761  -2.5585  -2.4966  -2.4076  -2.3912  -2.3874  -2.3579  -2.3140
    -2.2969  -2.2584  -2.2133  -2.1873  -2.1177  -2.0787  -2.0490  -1.9873
    -1.9516  -1.8628  -1.8061  -1.7755  -1.7568  -1.6899  -1.6522  -1.3387
    -1.3218  -1.2522  -1.2222  -1.1859  -1.1123  -0.7433  -0.6827  -0.3863
    -0.3745  -0.2123  -0.1862  -0.1842   1.4869   1.5005   1.6068   1.6581
     1.6717   1.7164   1.7605   1.7910   1.8463   1.8756   1.9467

          k = 0.0380-0.0280 0.0000 ( 26873 PWs)   bands (ev):

   -57.7216 -57.7015 -57.6847 -57.6606 -57.6517 -57.6206 -57.6034 -57.5967
   -57.5686 -57.5565 -57.5068 -57.4742 -57.4600 -57.4580 -57.4425 -56.7432
   -56.7277 -56.7125 -34.1668 -34.1351 -34.1275 -34.0872 -34.0549 -34.0493
   -34.0391 -34.0099 -34.0028 -33.9976 -33.9807 -33.9698 -33.9524 -33.9412
   -33.9097 -33.9045 -33.8813 -33.8787 -33.8684 -33.8664 -33.8550 -33.8528
   -33.8389 -33.8367 -33.8365 -33.8249 -33.8195 -33.8165 -33.8097 -33.8005
   -33.7977 -33.7766 -33.7686 -33.7349 -33.7293 -33.7239 -33.7100 -33.7031
   -33.6968 -33.6950 -33.6921 -33.6866 -33.6690 -33.6663 -33.6464 -33.1254
   -33.0611 -33.0481 -33.0358 -32.9666 -32.9632 -32.9283 -32.8909 -32.7972
   -19.2950 -18.7523 -18.4192 -18.1379 -18.0689 -17.9328 -17.8745 -17.8402
   -17.8211 -17.7463 -17.6834 -17.6467 -17.6197 -17.5622 -17.5083 -17.4863
   -17.4769 -17.4384 -17.3990 -17.3935 -17.3550 -17.3402 -17.3212 -17.2586
   -17.2356 -17.2065 -17.2001 -17.1747 -17.1411 -17.0950 -17.0075 -16.9508
   -15.4994 -15.2109 -15.1929 -15.1104 -15.0987  -6.9862  -6.8318  -6.6434
    -6.3646  -5.6796  -5.5121  -5.3684  -5.3071  -5.2823  -5.2430  -5.2218
    -5.1869  -5.0847  -5.0613  -5.0303  -5.0145  -4.9581  -4.8497  -4.8394
    -4.8265  -4.7986  -4.7704  -4.7317  -4.7009  -4.6602  -4.6105  -4.5875
    -4.5605  -4.5197  -4.4974  -4.4716  -4.4319  -4.4103  -4.3515  -4.3236
    -4.3101  -4.2462  -4.2023  -4.1388  -4.1010  -4.0779  -4.0129  -3.9363
    -3.8939  -3.8723  -3.8378  -3.7511  -3.7323  -3.6753  -3.6231  -3.5728
    -3.5335  -3.4816  -3.4645  -3.4175  -3.3703  -3.3066  -3.2963  -3.2580
    -3.2026  -3.1819  -3.1189  -3.0624  -3.0452  -3.0073  -2.9348  -2.9140
    -2.8703  -2.8159  -2.7839  -2.7331  -2.7031  -2.6587  -2.6258  -2.6102
    -2.5316  -2.4889  -2.4740  -2.4152  -2.3942  -2.3434  -2.2919  -2.2633
    -2.2541  -2.2141  -2.2080  -2.1499  -2.0914  -2.0541  -2.0355  -1.9862
    -1.9404  -1.8662  -1.7889  -1.7601  -1.7260  -1.6513  -1.6140  -1.5337
    -1.3496  -1.2400  -1.1971  -1.1506  -0.9339  -0.7458  -0.5890  -0.4696
    -0.3515  -0.2236  -0.2191  -0.1486   1.3934   1.5407   1.5777   1.6167
     1.6829   1.7415   1.7873   1.8102   1.8392   1.8715   1.8855

          k =-0.0760-0.0000 0.0000 ( 26902 PWs)   bands (ev):

   -57.7231 -57.6976 -57.6872 -57.6607 -57.6521 -57.6201 -57.6029 -57.5967
   -57.5689 -57.5567 -57.5065 -57.4761 -57.4596 -57.4537 -57.4457 -56.7452
   -56.7213 -56.7168 -34.1079 -34.1069 -34.0950 -34.0849 -34.0749 -34.0574
   -34.0552 -34.0409 -34.0277 -34.0231 -33.9890 -33.9570 -33.9532 -33.9445
   -33.9253 -33.9196 -33.9119 -33.8874 -33.8830 -33.8648 -33.8571 -33.8409
   -33.8398 -33.8271 -33.8204 -33.8143 -33.8096 -33.8082 -33.8027 -33.8012
   -33.7912 -33.7797 -33.7763 -33.7286 -33.7276 -33.7212 -33.7182 -33.7126
   -33.7016 -33.6937 -33.6929 -33.6693 -33.6660 -33.6622 -33.6387 -33.0661
   -33.0605 -33.0549 -33.0431 -33.0387 -32.9712 -32.9096 -32.9043 -32.7711
   -19.2940 -18.7399 -18.3764 -18.0412 -18.0020 -17.9463 -17.8739 -17.8232
   -17.7715 -17.7395 -17.7194 -17.6139 -17.5916 -17.5455 -17.5383 -17.5155
   -17.4959 -17.4916 -17.4641 -17.4199 -17.4153 -17.3875 -17.3154 -17.2988
   -17.2527 -17.1804 -17.1739 -17.1678 -17.1296 -17.0658 -17.0618 -17.0011
   -15.4984 -15.2054 -15.1547 -15.1534 -15.0993  -6.9990  -6.8401  -6.6403
    -6.3570  -5.6868  -5.2940  -5.2032  -5.1670  -5.1313  -5.1200  -5.0891
    -5.0571  -5.0058  -4.9892  -4.9303  -4.9238  -4.8963  -4.8642  -4.8433
    -4.8157  -4.7875  -4.7548  -4.7068  -4.6782  -4.6705  -4.6462  -4.6015
    -4.5848  -4.5480  -4.5369  -4.4864  -4.4675  -4.4031  -4.3508  -4.3438
    -4.3150  -4.2561  -4.1304  -4.1109  -4.0518  -4.0485  -3.9879  -3.9659
    -3.9580  -3.9023  -3.8164  -3.7836  -3.7374  -3.7095  -3.7029  -3.6508
    -3.6063  -3.5183  -3.4694  -3.4561  -3.3893  -3.3873  -3.3527  -3.3190
    -3.3157  -3.2613  -3.2122  -3.1493  -3.0867  -3.0748  -3.0227  -2.9685
    -2.8642  -2.8515  -2.8072  -2.7688  -2.7374  -2.7032  -2.6582  -2.6075
    -2.5893  -2.5247  -2.4658  -2.4566  -2.4497  -2.4297  -2.3715  -2.3178
    -2.2535  -2.2357  -2.1761  -2.1607  -2.0726  -1.9691  -1.9482  -1.9408
    -1.9306  -1.8995  -1.8416  -1.8163  -1.7100  -1.5759  -1.5440  -1.4379
    -1.3910  -1.3515  -1.3440  -1.0736  -0.7560  -0.7204  -0.5500  -0.4220
    -0.4186  -0.2792  -0.2746  -0.2050   1.3195   1.4866   1.4896   1.5507
     1.6142   1.6478   1.7214   1.7418   1.8083   1.8440   1.8494

          k =-0.0760 0.0279 0.0000 ( 26908 PWs)   bands (ev):

   -57.7216 -57.7016 -57.6847 -57.6604 -57.6519 -57.6205 -57.6035 -57.5966
   -57.5686 -57.5566 -57.5067 -57.4743 -57.4594 -57.4586 -57.4426 -56.7432
   -56.7277 -56.7125 -34.1679 -34.1365 -34.1305 -34.0875 -34.0550 -34.0495
   -34.0393 -34.0154 -34.0036 -33.9983 -33.9807 -33.9729 -33.9517 -33.9229
   -33.9097 -33.8869 -33.8813 -33.8776 -33.8697 -33.8676 -33.8607 -33.8451
   -33.8379 -33.8367 -33.8349 -33.8245 -33.8140 -33.8099 -33.8040 -33.7989
   -33.7974 -33.7878 -33.7748 -33.7363 -33.7296 -33.7284 -33.7232 -33.7026
   -33.7002 -33.6951 -33.6942 -33.6889 -33.6693 -33.6665 -33.6465 -33.1251
   -33.0642 -33.0491 -33.0347 -32.9665 -32.9632 -32.9283 -32.8910 -32.7973
   -19.2915 -18.7412 -18.3370 -18.0450 -17.9940 -17.9677 -17.8738 -17.8279
   -17.7672 -17.7466 -17.7123 -17.6546 -17.6255 -17.5692 -17.5553 -17.4929
   -17.4785 -17.4748 -17.4427 -17.4330 -17.4049 -17.3467 -17.3318 -17.3134
   -17.2429 -17.2314 -17.1756 -17.1686 -17.1347 -17.1212 -17.0222 -16.9291
   -15.4975 -15.2082 -15.1926 -15.1104 -15.0993  -6.9949  -6.8423  -6.6417
    -6.3555  -5.6246  -5.3539  -5.3046  -5.2712  -5.1933  -5.1377  -5.0814
    -5.0376  -4.9678  -4.9427  -4.9167  -4.9029  -4.8896  -4.8670  -4.8446
    -4.8237  -4.8098  -4.7817  -4.7448  -4.7071  -4.7038  -4.6672  -4.6176
    -4.5951  -4.5319  -4.4998  -4.4581  -4.4123  -4.4015  -4.3706  -4.3179
    -4.2809  -4.2406  -4.2174  -4.1642  -4.1264  -4.0341  -3.9982  -3.9557
    -3.9104  -3.8409  -3.7908  -3.7801  -3.7590  -3.6915  -3.5965  -3.5732
    -3.5414  -3.4563  -3.4093  -3.3983  -3.3806  -3.3605  -3.3246  -3.2788
    -3.2167  -3.1832  -3.1442  -3.1143  -3.1104  -3.0695  -3.0405  -2.9467
    -2.9237  -2.8762  -2.8263  -2.7880  -2.7235  -2.6822  -2.6684  -2.6552
    -2.6214  -2.5770  -2.5509  -2.5108  -2.4728  -2.4275  -2.3862  -2.3087
    -2.2730  -2.2575  -2.2149  -2.1772  -2.1372  -2.0708  -1.9879  -1.9743
    -1.9461  -1.8844  -1.8149  -1.7528  -1.7079  -1.5703  -1.4828  -1.4551
    -1.4319  -1.3544  -1.1667  -1.1467  -0.9507  -0.7259  -0.5747  -0.4707
    -0.3362  -0.3206  -0.2261  -0.1820   1.3737   1.4899   1.5086   1.5503
     1.5578   1.6768   1.7034   1.7387   1.7725   1.8722   1.8815

          k =-0.0760-0.0559 0.0000 ( 26868 PWs)   bands (ev):

   -57.7197 -57.7052 -57.6830 -57.6601 -57.6516 -57.6210 -57.6040 -57.5965
   -57.5682 -57.5563 -57.5070 -57.4711 -57.4636 -57.4592 -57.4407 -56.7392
   -56.7338 -56.7103 -34.1922 -34.1545 -34.1535 -34.0927 -34.0585 -34.0509
   -34.0402 -34.0376 -34.0001 -33.9662 -33.9314 -33.9188 -33.9130 -33.9115
   -33.9007 -33.8996 -33.8792 -33.8714 -33.8677 -33.8668 -33.8631 -33.8573
   -33.8521 -33.8449 -33.8297 -33.8248 -33.8222 -33.8176 -33.8132 -33.7919
   -33.7909 -33.7689 -33.7621 -33.7547 -33.7489 -33.7295 -33.7247 -33.7188
   -33.6992 -33.6984 -33.6970 -33.6936 -33.6842 -33.6663 -33.6493 -33.1494
   -33.0603 -33.0551 -33.0327 -32.9530 -32.9470 -32.8853 -32.8707 -32.8654
   -19.2889 -18.7425 -18.2702 -18.1334 -17.9618 -17.9199 -17.8462 -17.8332
   -17.8215 -17.7919 -17.7001 -17.6768 -17.6506 -17.5673 -17.5490 -17.4987
   -17.4549 -17.4417 -17.4240 -17.4124 -17.4043 -17.3880 -17.3537 -17.3216
   -17.2888 -17.2374 -17.1749 -17.1566 -17.1078 -17.0931 -17.0625 -16.8782
   -15.4966 -15.2099 -15.2079 -15.0994 -15.0911  -6.9906  -6.8451  -6.6425
    -6.3541  -5.5154  -5.4524  -5.3693  -5.3548  -5.2372  -5.2047  -5.0131
    -5.0027  -4.9880  -4.9558  -4.9238  -4.8879  -4.8611  -4.8369  -4.8234
    -4.8098  -4.7882  -4.7624  -4.7504  -4.7339  -4.6900  -4.6431  -4.6368
    -4.6257  -4.6033  -4.5494  -4.5041  -4.4766  -4.4239  -4.4210  -4.3402
    -4.3165  -4.2985  -4.2253  -4.2161  -4.0977  -3.9470  -3.8857  -3.8658
    -3.8413  -3.7942  -3.7845  -3.7307  -3.7080  -3.6907  -3.5560  -3.4732
    -3.4502  -3.4148  -3.3836  -3.3601  -3.3248  -3.2976  -3.2753  -3.2496
    -3.2335  -3.1806  -3.1646  -3.1211  -3.0781  -2.9972  -2.9526  -2.8966
    -2.8725  -2.8534  -2.8356  -2.8318  -2.8133  -2.7784  -2.7499  -2.6950
    -2.6852  -2.6548  -2.5824  -2.5319  -2.5005  -2.4754  -2.4332  -2.4265
    -2.2714  -2.2535  -2.2195  -2.2072  -2.1346  -2.0911  -1.9985  -1.9717
    -1.9496  -1.8780  -1.8063  -1.7624  -1.7069  -1.5096  -1.5008  -1.3818
    -1.3450  -1.2963  -1.2708  -1.2293  -1.0679  -0.7255  -0.6614  -0.3782
    -0.3670  -0.3409  -0.1855  -0.1792   1.4309   1.4548   1.5397   1.5954
     1.6147   1.6525   1.6653   1.7046   1.7248   1.7812   1.9169

     the Fermi energy is     1.3747 ev

!    total energy              =   -3295.80755792 Ry
     estimated scf accuracy    <       0.00000005 Ry
     smearing contrib. (-TS)   =      -0.03571904 Ry
     internal energy E=F+TS    =   -3295.77183888 Ry

     The total energy is F=E-TS. E is the sum of the following terms:
     one-electron contribution =  -34705.80952018 Ry
     hartree contribution      =   17418.83282746 Ry
     xc contribution           =    -543.86833857 Ry
     ewald contribution        =   14535.07030900 Ry
     electric field correction =       0.00288340 Ry

     convergence has been achieved in  47 iterations

     Forces acting on atoms (cartesian axes, Ry/au):

     atom    1 type  1   force =    -0.00168699    0.00376762    0.05472018
     atom    2 type  1   force =     0.00025131   -0.00250469   -0.00842508
     atom    3 type  1   force =     0.00044385   -0.00356502    0.00041206
     atom    4 type  1   force =     0.00004777   -0.00003180    0.10675637
     atom    5 type  1   force =    -0.00020483    0.00066904    0.00659370
     atom    6 type  1   force =     0.00002006   -0.00450961    0.00380003
     atom    7 type  1   force =     0.06649500    0.00079661   -0.02965946
     atom    8 type  1   force =     0.00660059   -0.02713306    0.00195141
     atom    9 type  1   force =     0.00660547   -0.02258027    0.00514104
     atom   10 type  2   force =    -0.00011921   -0.00450547   -0.18343300
     atom   11 type  2   force =     0.00067026    0.02087575   -0.00412463
     atom   12 type  2   force =    -0.00175316    0.02776841   -0.00665499
     atom   13 type  1   force =    -0.06655261    0.00044953   -0.02980692
     atom   14 type  1   force =    -0.00434486   -0.02770660    0.00253754
     atom   15 type  1   force =    -0.00654796   -0.02337631    0.00504559
     atom   16 type  2   force =     0.00008885    0.00068947    0.06699034
     atom   17 type  2   force =    -0.00236735    0.03351484    0.00349356
     atom   18 type  2   force =     0.00124775    0.02462246   -0.00368151
     atom   19 type  1   force =    -0.00169813    0.00674961    0.05326965
     atom   20 type  1   force =     0.00024124   -0.00117357   -0.00662223
     atom   21 type  1   force =     0.00003477    0.00109797    0.10722006
     atom   22 type  1   force =    -0.00025170   -0.00198640    0.00722916
     atom   23 type  1   force =     0.00070726   -0.00581208    0.00422475
     atom   24 type  1   force =     0.06752473    0.00137694   -0.02906505
     atom   25 type  1   force =     0.00529096   -0.03015812    0.00245077
     atom   26 type  1   force =     0.00658324   -0.02635176   -0.00437332
     atom   27 type  2   force =     0.00011959   -0.00121061   -0.18670265
     atom   28 type  2   force =     0.00008210    0.02385313   -0.00244604
     atom   29 type  2   force =    -0.00101941    0.02189399    0.00065856
     atom   30 type  1   force =    -0.06762372    0.00087245   -0.02891623
     atom   31 type  1   force =    -0.00538699   -0.02961979    0.00279352
     atom   32 type  1   force =    -0.00414448   -0.02255323    0.00266808
     atom   33 type  2   force =    -0.00005126    0.00130530    0.07476343
     atom   34 type  2   force =     0.00093983    0.03692045    0.00403079
     atom   35 type  2   force =    -0.00245736    0.03492358    0.00538573
     atom   36 type  1   force =    -0.00186612    0.00288244    0.05590305
     atom   37 type  1   force =     0.00127387    0.00405072   -0.01146439
     atom   38 type  1   force =    -0.00152273   -0.00427871    0.00540066
     atom   39 type  1   force =     0.00002230   -0.00063583    0.10722509
     atom   40 type  1   force =     0.00015759   -0.00140275    0.00716632
     atom   41 type  1   force =    -0.00026067   -0.00392138    0.00194949
     atom   42 type  1   force =     0.06785805   -0.00221675   -0.02970205
     atom   43 type  1   force =     0.00369845   -0.02636200    0.00152808
     atom   44 type  1   force =     0.00983200   -0.01778071    0.00244013
     atom   45 type  2   force =     0.00002661    0.00217373   -0.18328435
     atom   46 type  2   force =    -0.00024696    0.01477045    0.00209118
     atom   47 type  2   force =     0.00314227    0.02692016   -0.00926871
     atom   48 type  1   force =    -0.06792324   -0.00284498   -0.02985556
     atom   49 type  1   force =    -0.00376465   -0.02550151    0.00182937
     atom   50 type  1   force =    -0.00786070   -0.02377906    0.00538716
     atom   51 type  2   force =     0.00045458   -0.00349862    0.06842131
     atom   52 type  2   force =    -0.00009528    0.03119212    0.00593180
     atom   53 type  2   force =    -0.00225210    0.02596130   -0.00061004
     atom   54 type  3   force =     0.00392723   -0.00161099   -0.00543461
     atom   55 type  4   force =    -0.00232021   -0.00213300    0.00247490
     atom   56 type  4   force =    -0.00063392    0.00312621    0.00282593
     atom   57 type  3   force =     0.00130438   -0.00270649   -0.00022377
     atom   58 type  4   force =     0.00049178    0.00101752   -0.00007614
     atom   59 type  4   force =     0.00007660    0.00028714    0.00070279
     atom   60 type  4   force =    -0.00008602    0.00004334   -0.00067323
     atom   61 type  4   force =    -0.00121772   -0.00112114    0.00109034

     Total force =     0.459658     Total SCF correction =     0.000547
  @ DRIVER MODE: Message from server: STATUS
  @ DRIVER MODE: Message from server: GETFORCE
  @ DRIVER MODE: Returning v,forces,stress,ensemble 

     Writing output data file ./calc.save/
  @ DRIVER MODE: Message from server: EXIT
  @ DRIVE MODE: Exiting  
 
     init_run     :     18.19s CPU     18.63s WALL (       1 calls)
     electrons    :   1492.45s CPU   1522.23s WALL (       1 calls)
     forces       :      4.57s CPU      4.76s WALL (       1 calls)

     Called by init_run:
     wfcinit      :      9.82s CPU      9.95s WALL (       1 calls)
     potinit      :      7.31s CPU      7.42s WALL (       1 calls)
     hinit0       :      0.44s CPU      0.46s WALL (       1 calls)

     Called by electrons:
     c_bands      :   1262.34s CPU   1278.03s WALL (      47 calls)
     sum_band     :    158.96s CPU    165.44s WALL (      47 calls)
     v_of_rho     :     55.50s CPU     57.62s WALL (      48 calls)
     newd         :     19.96s CPU     25.05s WALL (      48 calls)
     mix_rho      :      2.12s CPU      2.39s WALL (      47 calls)
     vdW_kernel   :      5.84s CPU      5.86s WALL (       1 calls)

     Called by c_bands:
     init_us_2    :      9.35s CPU      9.45s WALL (     960 calls)
     cegterg      :   1236.13s CPU   1251.18s WALL (     470 calls)

     Called by *egterg:
     cdiaghg      :    174.85s CPU    175.89s WALL (    4923 calls)
     h_psi        :    684.50s CPU    693.42s WALL (    4933 calls)
     s_psi        :     94.45s CPU     94.73s WALL (    4933 calls)
     g_psi        :      2.42s CPU      2.43s WALL (    4453 calls)

     Called by h_psi:
     h_psi:calbec :     87.60s CPU     88.41s WALL (    4933 calls)
     vloc_psi     :    498.11s CPU    502.44s WALL (    4933 calls)
     add_vuspsi   :     95.02s CPU     96.39s WALL (    4933 calls)

     General routines
     calbec       :    116.64s CPU    117.52s WALL (    5443 calls)
     fft          :     31.00s CPU     31.17s WALL (    3024 calls)
     ffts         :      0.18s CPU      0.18s WALL (      95 calls)
     fftw         :    552.30s CPU    556.95s WALL (  693038 calls)
     interpolate  :      0.63s CPU      0.63s WALL (      48 calls)
     davcio       :      0.00s CPU      0.55s WALL (      10 calls)
 
     Parallel routines
 
     PWSCF        :  25m15.52s CPU  25m46.85s WALL

 
   This run was terminated on:  12:20:39  18Oct2021            

=------------------------------------------------------------------------------=
   JOB DONE.
=------------------------------------------------------------------------------=
