
     Program PWSCF v.6.7GPU starts on  9Sep2021 at  0:25: 1 

     This program is part of the open-source Quantum ESPRESSO suite
     for quantum simulation of materials; please cite
         "P. Giannozzi et al., J. Phys.:Condens. Matter 21 395502 (2009);
         "P. Giannozzi et al., J. Phys.:Condens. Matter 29 465901 (2017);
         "P. Giannozzi et al., J. Chem. Phys. 152 154105 (2020);
          URL http://www.quantum-espresso.org", 
     in publications or presentations arising from this work. More details at
     http://www.quantum-espresso.org/quote

     Parallel version (MPI), running on    10 processors

     MPI processes distributed on     1 nodes
     R & G space division:  proc/nbgrp/npool/nimage =      10
     Reading input from /storage/home/hcoda1/3/ntian30/research/carbon/CxH_vib/CH2_calc/ads_slab/CH2NNHHH_a/out_0008/pw.inp
Warning: card &CELL ignored
Warning: card   CELL_DYNAMICS='IPI', ignored
Warning: card / ignored

     Current dimensions of program PWSCF are:
     Max number of different atomic species (ntypx) = 10
     Max number of k-points (npk) =  40000
     Max angular momentum in pseudopotentials (lmaxx) =  3
     Presently no symmetry can be used with electric field

     Message from routine cell_base_init:
     DEPRECATED: use true lattice parameter, not A to a.u. conversion factor

     **************************************************************************
     Initializing libbeef V0.1.2 with the BEEF-vdW functional.
     Citation: Wellendorff et al., PRB 85, 235149 (2012).
     **************************************************************************


     IMPORTANT: XC functional enforced from input :
     Exchange-correlation= BEEF-VDW
                           (   1   4  43  14   2   0   0)
     Any further DFT definition will be discarded
     Please, verify this is what you really want


     Subspace diagonalization in iterative solution of the eigenvalue problem:
     one sub-group per band group will be used
     scalapack distributed-memory algorithm (size of sub-group:  3*  3 procs)

  @ DRIVER MODE: Connecting to 
 qe_1139763_2767390.sched-torque.pace.gatech.edun4ceg4jw_scratch
  using UNIX socket
  @ DRIVER MODE: Message from server: STATUS
  @ DRIVER MODE: Message from server: INIT
  @ DRIVER MODE: Receiving replica           0          -1
  @ DRIVER MODE: Receiving encoded integer          25
  @ DRIVER MODE:  SCF:  T  FORCE:  T  STRESS:  F  VC:  F  ENSEMBLE:  F
  @ DRIVER MODE:  SCF:  T  FORCE:  T  STRESS:  F  VC:  F  ENSEMBLE:  F
 
     Parallelization info
     --------------------
     sticks:   dense  smooth     PW     G-vecs:    dense   smooth      PW
     Min         327     131     37                56683    14340    2191
     Max         328     133     38                56694    14346    2206
     Sum        3275    1317    379               566857   143421   21985
 
     Using Slab Decomposition
 


     bravais-lattice index     =            0
     lattice parameter (alat)  =       1.8897  a.u.
     unit-cell volume          =    6658.9804 (a.u.)^3
     number of atoms/cell      =           55
     number of atomic types    =            5
     number of electrons       =       397.00
     number of Kohn-Sham states=          208
     kinetic-energy cutoff     =      29.3995  Ry
     charge density cutoff     =     293.9946  Ry
     scf convergence threshold =      7.3E-08
     mixing beta               =       0.0500
     number of iterations used =            8  plain     mixing
     Exchange-correlation= BEEF-VDW
                           (   1   4  43  14   2   0   0)

     celldm(1)=   1.889726  celldm(2)=   0.000000  celldm(3)=   0.000000
     celldm(4)=   0.000000  celldm(5)=   0.000000  celldm(6)=   0.000000

     crystal axes: (cart. coord. in units of alat)
               a(1) = (   6.579727   0.000000   0.000000 )  
               a(2) = (  -0.000775   5.961596   0.000000 )  
               a(3) = (   0.000000   0.000000  25.155947 )  

     reciprocal axes: (cart. coord. in units 2 pi/alat)
               b(1) = (  0.151982  0.000020  0.000000 )  
               b(2) = (  0.000000  0.167740  0.000000 )  
               b(3) = (  0.000000  0.000000  0.039752 )  


     PseudoPot. # 1 for Ti read from file:
     /storage/coda1/p-amedford6/0/shared/rich_project_chbe-medford/medford-share/data/pseudos_module/espresso/nninc/pbe/van/Ti.UPF
     MD5 check sum: 8e4df49b7f0d34bbd5052bf3f5ea0213
     Pseudo is Ultrasoft, Zval = 12.0
     Generated by new atomic code, or converted to UPF format
     Using radial grid of  851 points,  6 beta functions with: 
                l(1) =   0
                l(2) =   0
                l(3) =   1
                l(4) =   1
                l(5) =   2
                l(6) =   2
     Q(r) pseudized with  8 coefficients,  rinner =    1.000   1.000   1.000
                                                       1.000   1.000

     PseudoPot. # 2 for O  read from file:
     /storage/coda1/p-amedford6/0/shared/rich_project_chbe-medford/medford-share/data/pseudos_module/espresso/nninc/pbe/van/O.UPF
     MD5 check sum: 78c19812648e8988a0fe644b0f25305e
     Pseudo is Ultrasoft, Zval =  6.0
     Generated by new atomic code, or converted to UPF format
     Using radial grid of  737 points,  4 beta functions with: 
                l(1) =   0
                l(2) =   0
                l(3) =   1
                l(4) =   1
     Q(r) pseudized with  8 coefficients,  rinner =    0.800   0.800   0.800


     PseudoPot. # 3 for N  read from file:
     /storage/coda1/p-amedford6/0/shared/rich_project_chbe-medford/medford-share/data/pseudos_module/espresso/nninc/pbe/van/N.UPF
     MD5 check sum: 90d10febe142ad51ac9d5be1deb811c4
     Pseudo is Ultrasoft, Zval =  5.0
     Generated by new atomic code, or converted to UPF format
     Using radial grid of  729 points,  4 beta functions with: 
                l(1) =   0
                l(2) =   0
                l(3) =   1
                l(4) =   1
     Q(r) pseudized with  8 coefficients,  rinner =    0.800   0.800   0.800


     PseudoPot. # 4 for C  read from file:
     /storage/coda1/p-amedford6/0/shared/rich_project_chbe-medford/medford-share/data/pseudos_module/espresso/nninc/pbe/van/C.UPF
     MD5 check sum: 1a69bf6b8db32088f5b2163dbdb77a27
     Pseudo is Ultrasoft, Zval =  4.0
     Generated by new atomic code, or converted to UPF format
     Using radial grid of  721 points,  4 beta functions with: 
                l(1) =   0
                l(2) =   0
                l(3) =   1
                l(4) =   1
     Q(r) pseudized with  8 coefficients,  rinner =    0.800   0.800   0.800


     PseudoPot. # 5 for H  read from file:
     /storage/coda1/p-amedford6/0/shared/rich_project_chbe-medford/medford-share/data/pseudos_module/espresso/nninc/pbe/van/H.UPF
     MD5 check sum: b5ee9d7bfd3a09ee7748110bda690ff7
     Pseudo is Ultrasoft, Zval =  1.0
     Generated by new atomic code, or converted to UPF format
     Using radial grid of  615 points,  1 beta functions with: 
                l(1) =   0
     Q(r) pseudized with  8 coefficients,  rinner =    0.800

     atomic species   valence    mass     pseudopotential
        Ti1           12.00    47.86700     Ti( 1.00)
        O1             6.00    15.99900     O ( 1.00)
        N1             5.00    14.00700     N ( 1.00)
        C1             4.00    12.01100     C ( 1.00)
        H1             1.00     1.00800     H ( 1.00)

     No symmetry found



   Cartesian axes

     site n.     atom                  positions (alat units)
         1           Ti1 tau(   1) = (   0.0004258   2.9801865   6.0000000  )
         2           Ti1 tau(   2) = (   3.2906075   1.4906267   6.0002472  )
         3           O1  tau(   3) = (   0.0006271   0.0005054   7.9858123  )
         4           O1  tau(   4) = (   3.2906025   0.0005020   7.3038282  )
         5           O1  tau(   5) = (   4.5942328   1.4918067   9.2879030  )
         6           O1  tau(   6) = (   1.9868534   1.4903216   9.2879459  )
         7           Ti1 tau(   7) = (   3.2907910   2.8959150   9.1758416  )
         8           Ti1 tau(   8) = (   0.0015273   1.4827037   9.2680791  )
         9           O1  tau(   9) = (   3.2797308   5.9473376  11.3602069  )
        10           O1  tau(  10) = (   0.0116148   5.9584955  10.6183126  )
        11           O1  tau(  11) = (   1.2902197   1.4970218  12.6485984  )
        12           O1  tau(  12) = (   5.2825647   1.4998509  12.6204812  )
        13           Ti1 tau(  13) = (   6.5707130   2.9731531  12.5352273  )
        14           Ti1 tau(  14) = (   3.2824754   1.4851695  12.4964603  )
        15           O1  tau(  15) = (   6.5335774   0.0914421  14.6722524  )
        16           O1  tau(  16) = (   3.3157438   0.0180770  13.9903400  )
        17           O1  tau(  17) = (   4.5084513   1.5196572  16.2619966  )
        18           O1  tau(  18) = (   2.0062152   1.4815140  16.1839734  )
        19           Ti1 tau(  19) = (   3.2259906   2.9465836  15.7211513  )
        20           Ti1 tau(  20) = (   6.5090593   1.4075841  16.1508600  )
        21           O1  tau(  21) = (   3.2904802   0.0005063   4.7018136  )
        22           O1  tau(  22) = (   6.5630310   5.8123487  17.2302531  )
        23           O1  tau(  23) = (   1.3043587   1.4918075   6.0039043  )
        24           O1  tau(  24) = (   5.2767064   1.4903225   6.0039473  )
        25           Ti1 tau(  25) = (   0.0000382   5.9609847   6.0000000  )
        26           Ti1 tau(  26) = (   3.2902200   4.4714249   6.0002472  )
        27           O1  tau(  27) = (   0.0002396   2.9813036   7.9858123  )
        28           O1  tau(  28) = (   3.2902150   2.9813002   7.3038282  )
        29           O1  tau(  29) = (   4.5938453   4.4726049   9.2879030  )
        30           O1  tau(  30) = (   1.9864658   4.4711199   9.2879459  )
        31           Ti1 tau(  31) = (   3.2891106   5.8743827   9.1763621  )
        32           Ti1 tau(  32) = (   0.0006254   4.4649316   9.2693709  )
        33           O1  tau(  33) = (   3.2783824   2.9878764  11.3535400  )
        34           O1  tau(  34) = (   0.0092240   2.9805883  10.6323155  )
        35           O1  tau(  35) = (   1.2857266   4.4729298  12.7006550  )
        36           O1  tau(  36) = (   5.2845514   4.4687958  12.6640455  )
        37           Ti1 tau(  37) = (   6.5734551   0.0101047  12.5124135  )
        38           Ti1 tau(  38) = (   3.2852174   4.4611384  12.5175569  )
        39           O1  tau(  39) = (   6.5279837   2.9480221  14.9030702  )
        40           O1  tau(  40) = (   3.2956390   2.9588503  13.9390168  )
        41           O1  tau(  41) = (   4.4992944   4.4159585  16.2207858  )
        42           O1  tau(  42) = (   2.0104883   4.4624356  16.0673450  )
        43           Ti1 tau(  43) = (   3.2790961   0.0058003  15.7788240  )
        44           Ti1 tau(  44) = (   0.0606790   4.6093333  15.7554573  )
        45           O1  tau(  45) = (   3.2900926   2.9813045   4.7018136  )
        46           O1  tau(  46) = (   1.3039711   4.4726057   6.0039043  )
        47           O1  tau(  47) = (   5.2763189   4.4711207   6.0039473  )
        48           N1  tau(  48) = (   0.0403274   2.7191540  18.0026804  )
        49           C1  tau(  49) = (   0.9498849   2.4944932  18.9664025  )
        50           H1  tau(  50) = (   0.9073005   3.0183022  19.9142263  )
        51           H1  tau(  51) = (   1.7098349   1.7704235  18.7615287  )
        52           N1  tau(  52) = (   5.5765855   3.6054979  18.4816711  )
        53           H1  tau(  53) = (   5.9881759   4.5320851  18.7147717  )
        54           H1  tau(  54) = (   4.9344470   3.8465857  17.6610935  )
        55           H1  tau(  55) = (   5.0674124   3.1947177  19.2767304  )

     number of k points=    10  Fermi-Dirac smearing, width (Ry)=  0.0073
                       cart. coord. in units 2pi/alat
        k(    1) = (   0.0000000   0.0000000   0.0000000), wk =   0.1250000
        k(    2) = (   0.0000000   0.0419351   0.0000000), wk =   0.2500000
        k(    3) = (   0.0000000  -0.0838702   0.0000000), wk =   0.1250000
        k(    4) = (   0.0379955   0.0000049   0.0000000), wk =   0.2500000
        k(    5) = (   0.0379955   0.0419400   0.0000000), wk =   0.2500000
        k(    6) = (   0.0379955  -0.0838652   0.0000000), wk =   0.2500000
        k(    7) = (   0.0379955  -0.0419301   0.0000000), wk =   0.2500000
        k(    8) = (  -0.0759910  -0.0000099   0.0000000), wk =   0.1250000
        k(    9) = (  -0.0759910   0.0419252   0.0000000), wk =   0.2500000
        k(   10) = (  -0.0759910  -0.0838800   0.0000000), wk =   0.1250000

     Dense  grid:   566857 G-vectors     FFT dimensions: (  72,  64, 270)

     Smooth grid:   143421 G-vectors     FFT dimensions: (  45,  40, 180)

     Estimated max dynamical RAM per process >     363.76 MB

     Estimated total dynamical RAM >       3.55 GB
     Cannot read rho : file not found

     Initial potential from superposition of free atoms

     starting charge  380.99914, renormalised to  397.00000

     negative rho (up, down):  1.588E-02 0.000E+00


     %%%%%%%%%%%%%%%%%%%%%%%%%%%%%%%%%%%%%%%%%%%%%%%%%%%%%%%%%%%%%%%%%%%%%%%%
     %                                                                      %
     % You are using vdW-DF, which was implemented by the Thonhauser group. %
     % Please cite the following two papers that made this development      %
     % possible and the two reviews that describe the various versions:     %
     %                                                                      %
     %   T. Thonhauser et al., PRL 115, 136402 (2015).                      %
     %   T. Thonhauser et al., PRB 76, 125112 (2007).                       %
     %   K. Berland et al., Rep. Prog. Phys. 78, 066501 (2015).             %
     %   D.C. Langreth et al., J. Phys.: Condens. Matter 21, 084203 (2009). %
     %                                                                      %
     %                                                                      %
     % If you are calculating the stress with vdW-DF, please also cite:     %
     %                                                                      %
     %   R. Sabatini et al., J. Phys.: Condens. Matter 24, 424209 (2012).   %
     %                                                                      %
     %%%%%%%%%%%%%%%%%%%%%%%%%%%%%%%%%%%%%%%%%%%%%%%%%%%%%%%%%%%%%%%%%%%%%%%%


 
     Adding external electric field

     Computed dipole along edir(3) : 
        Dipole              -10.3122 Ry au,        -26.2111 Debye
        Dipole field         -0.0195 Ry au, 
 
        Potential amp.        1.8040 Ry
        Total length         46.3494 bohr
 
     Starting wfcs are  301 atomic wfcs
  @ DRIVER MODE: Message from server: STATUS
  @ DRIVER MODE: Message from server: POSDATA
  @ DRIVER MODE: Reading and sharing cell 
  @ DRIVER MODE: Reading and sharing positions 
  @ DRIVER MODE: Received positions 

     total cpu time spent up to now is       11.2 secs

     Self-consistent Calculation

     iteration #  1     ecut=    29.40 Ry     beta= 0.05
     Davidson diagonalization with overlap
     c_bands:  3 eigenvalues not converged
     c_bands:  2 eigenvalues not converged
     c_bands:  3 eigenvalues not converged
     c_bands:  2 eigenvalues not converged
     c_bands:  3 eigenvalues not converged
     c_bands:  2 eigenvalues not converged
     c_bands:  3 eigenvalues not converged
     c_bands:  2 eigenvalues not converged
     c_bands:  2 eigenvalues not converged
     c_bands:  3 eigenvalues not converged
     ethr =  1.00E-05,  avg # of iterations = 20.0

     negative rho (up, down):  1.183E-02 0.000E+00
 
     Adding external electric field

     Computed dipole along edir(3) : 
        Dipole               45.9239 Ry au,        116.7270 Debye
        Dipole field          0.0867 Ry au, 
 
        Potential amp.       -8.0337 Ry
        Total length         46.3494 bohr
 

     total cpu time spent up to now is       52.2 secs

     total energy              =   -2480.07125120 Ry
     estimated scf accuracy    <    5159.16141540 Ry

     iteration #  2     ecut=    29.40 Ry     beta= 0.05
     Davidson diagonalization with overlap
     ethr =  1.00E-02,  avg # of iterations = 22.1

     negative rho (up, down):  2.621E-03 0.000E+00
 
     Adding external electric field

     Computed dipole along edir(3) : 
        Dipole               -1.9243 Ry au,         -4.8912 Debye
        Dipole field         -0.0036 Ry au, 
 
        Potential amp.        0.3366 Ry
        Total length         46.3494 bohr
 

     total cpu time spent up to now is      126.4 secs

     total energy              =   -2456.09321192 Ry
     estimated scf accuracy    <   68078.97625378 Ry

     iteration #  3     ecut=    29.40 Ry     beta= 0.05
     Davidson diagonalization with overlap
     ethr =  1.00E-02,  avg # of iterations = 16.1

     negative rho (up, down):  2.691E-03 0.000E+00
 
     Adding external electric field

     Computed dipole along edir(3) : 
        Dipole               -4.3170 Ry au,        -10.9727 Debye
        Dipole field         -0.0081 Ry au, 
 
        Potential amp.        0.7552 Ry
        Total length         46.3494 bohr
 

     total cpu time spent up to now is      173.7 secs

     total energy              =   -2929.13419911 Ry
     estimated scf accuracy    <    4377.18182626 Ry

     iteration #  4     ecut=    29.40 Ry     beta= 0.05
     Davidson diagonalization with overlap
     ethr =  1.00E-02,  avg # of iterations = 14.9

     negative rho (up, down):  2.736E-03 0.000E+00
 
     Adding external electric field

     Computed dipole along edir(3) : 
        Dipole               -5.9088 Ry au,        -15.0186 Debye
        Dipole field         -0.0112 Ry au, 
 
        Potential amp.        1.0337 Ry
        Total length         46.3494 bohr
 

     total cpu time spent up to now is      192.8 secs

     total energy              =   -2928.98541989 Ry
     estimated scf accuracy    <    1612.73879272 Ry

     iteration #  5     ecut=    29.40 Ry     beta= 0.05
     Davidson diagonalization with overlap
     ethr =  1.00E-02,  avg # of iterations = 10.2

     negative rho (up, down):  2.817E-03 0.000E+00
 
     Adding external electric field

     Computed dipole along edir(3) : 
        Dipole               -7.0771 Ry au,        -17.9883 Debye
        Dipole field         -0.0134 Ry au, 
 
        Potential amp.        1.2380 Ry
        Total length         46.3494 bohr
 

     total cpu time spent up to now is      209.1 secs

     total energy              =   -2926.26792108 Ry
     estimated scf accuracy    <     723.57406232 Ry

     iteration #  6     ecut=    29.40 Ry     beta= 0.05
     Davidson diagonalization with overlap
     ethr =  1.00E-02,  avg # of iterations = 10.0

     negative rho (up, down):  2.593E-03 0.000E+00
 
     Adding external electric field

     Computed dipole along edir(3) : 
        Dipole               -5.9591 Ry au,        -15.1465 Debye
        Dipole field         -0.0112 Ry au, 
 
        Potential amp.        1.0425 Ry
        Total length         46.3494 bohr
 

     total cpu time spent up to now is      227.3 secs

     total energy              =   -2944.99502619 Ry
     estimated scf accuracy    <      27.34346681 Ry

     iteration #  7     ecut=    29.40 Ry     beta= 0.05
     Davidson diagonalization with overlap
     ethr =  6.89E-03,  avg # of iterations =  1.3

     negative rho (up, down):  2.582E-03 0.000E+00
 
     Adding external electric field

     Computed dipole along edir(3) : 
        Dipole               -5.9620 Ry au,        -15.1538 Debye
        Dipole field         -0.0113 Ry au, 
 
        Potential amp.        1.0430 Ry
        Total length         46.3494 bohr
 

     total cpu time spent up to now is      237.3 secs

     total energy              =   -2945.29893532 Ry
     estimated scf accuracy    <      16.62363439 Ry

     iteration #  8     ecut=    29.40 Ry     beta= 0.05
     Davidson diagonalization with overlap
     ethr =  4.19E-03,  avg # of iterations =  1.0

     negative rho (up, down):  2.543E-03 0.000E+00
 
     Adding external electric field

     Computed dipole along edir(3) : 
        Dipole               -6.3032 Ry au,        -16.0212 Debye
        Dipole field         -0.0119 Ry au, 
 
        Potential amp.        1.1027 Ry
        Total length         46.3494 bohr
 

     total cpu time spent up to now is      247.1 secs

     total energy              =   -2945.57195515 Ry
     estimated scf accuracy    <      16.60608490 Ry

     iteration #  9     ecut=    29.40 Ry     beta= 0.05
     Davidson diagonalization with overlap
     ethr =  4.18E-03,  avg # of iterations =  1.0

     negative rho (up, down):  3.134E-03 0.000E+00
 
     Adding external electric field

     Computed dipole along edir(3) : 
        Dipole               -6.0165 Ry au,        -15.2925 Debye
        Dipole field         -0.0114 Ry au, 
 
        Potential amp.        1.0525 Ry
        Total length         46.3494 bohr
 

     total cpu time spent up to now is      256.9 secs

     total energy              =   -2944.99767457 Ry
     estimated scf accuracy    <      17.43291339 Ry

     iteration # 10     ecut=    29.40 Ry     beta= 0.05
     Davidson diagonalization with overlap
     ethr =  4.18E-03,  avg # of iterations =  1.6

     negative rho (up, down):  1.875E-02 0.000E+00
 
     Adding external electric field

     Computed dipole along edir(3) : 
        Dipole               -7.2621 Ry au,        -18.4583 Debye
        Dipole field         -0.0137 Ry au, 
 
        Potential amp.        1.2704 Ry
        Total length         46.3494 bohr
 

     total cpu time spent up to now is      267.0 secs

     total energy              =   -2944.06325217 Ry
     estimated scf accuracy    <      17.01441770 Ry

     iteration # 11     ecut=    29.40 Ry     beta= 0.05
     Davidson diagonalization with overlap
     c_bands:  2 eigenvalues not converged
     ethr =  4.18E-03,  avg # of iterations =  7.0

     negative rho (up, down):  2.752E-02 0.000E+00
 
     Adding external electric field

     Computed dipole along edir(3) : 
        Dipole               -6.5064 Ry au,        -16.5375 Debye
        Dipole field         -0.0123 Ry au, 
 
        Potential amp.        1.1382 Ry
        Total length         46.3494 bohr
 

     total cpu time spent up to now is      279.0 secs

     total energy              =   -2944.63820837 Ry
     estimated scf accuracy    <      87.97401847 Ry

     iteration # 12     ecut=    29.40 Ry     beta= 0.05
     Davidson diagonalization with overlap
     ethr =  4.18E-03,  avg # of iterations =  1.1

     negative rho (up, down):  2.091E-01 0.000E+00
 
     Adding external electric field

     Computed dipole along edir(3) : 
        Dipole               -3.0850 Ry au,         -7.8413 Debye
        Dipole field         -0.0058 Ry au, 
 
        Potential amp.        0.5397 Ry
        Total length         46.3494 bohr
 

     total cpu time spent up to now is      288.8 secs

     total energy              =   -2941.48100932 Ry
     estimated scf accuracy    <      53.10214667 Ry

     iteration # 13     ecut=    29.40 Ry     beta= 0.05
     Davidson diagonalization with overlap
     ethr =  4.18E-03,  avg # of iterations = 11.6

     negative rho (up, down):  1.261E-01 0.000E+00
 
     Adding external electric field

     Computed dipole along edir(3) : 
        Dipole               -2.8813 Ry au,         -7.3235 Debye
        Dipole field         -0.0054 Ry au, 
 
        Potential amp.        0.5040 Ry
        Total length         46.3494 bohr
 

     total cpu time spent up to now is      307.7 secs

     total energy              =   -2942.12391303 Ry
     estimated scf accuracy    <     298.59553029 Ry

     iteration # 14     ecut=    29.40 Ry     beta= 0.05
     Davidson diagonalization with overlap
     ethr =  4.18E-03,  avg # of iterations =  2.2

     negative rho (up, down):  1.556E-01 0.000E+00
 
     Adding external electric field

     Computed dipole along edir(3) : 
        Dipole               -2.3745 Ry au,         -6.0353 Debye
        Dipole field         -0.0045 Ry au, 
 
        Potential amp.        0.4154 Ry
        Total length         46.3494 bohr
 

     total cpu time spent up to now is      318.4 secs

     total energy              =   -2944.75449348 Ry
     estimated scf accuracy    <      43.06806312 Ry

     iteration # 15     ecut=    29.40 Ry     beta= 0.05
     Davidson diagonalization with overlap
     ethr =  4.18E-03,  avg # of iterations =  1.8

     negative rho (up, down):  1.782E-01 0.000E+00
 
     Adding external electric field

     Computed dipole along edir(3) : 
        Dipole               -2.1009 Ry au,         -5.3399 Debye
        Dipole field         -0.0040 Ry au, 
 
        Potential amp.        0.3675 Ry
        Total length         46.3494 bohr
 

     total cpu time spent up to now is      328.6 secs

     total energy              =   -2946.19861334 Ry
     estimated scf accuracy    <      66.09770467 Ry

     iteration # 16     ecut=    29.40 Ry     beta= 0.05
     Davidson diagonalization with overlap
     ethr =  4.18E-03,  avg # of iterations =  2.9

     negative rho (up, down):  3.961E-02 0.000E+00
 
     Adding external electric field

     Computed dipole along edir(3) : 
        Dipole               -3.4512 Ry au,         -8.7720 Debye
        Dipole field         -0.0065 Ry au, 
 
        Potential amp.        0.6037 Ry
        Total length         46.3494 bohr
 

     total cpu time spent up to now is      339.2 secs

     total energy              =   -2939.25378318 Ry
     estimated scf accuracy    <      98.16003232 Ry

     iteration # 17     ecut=    29.40 Ry     beta= 0.05
     Davidson diagonalization with overlap
     ethr =  4.18E-03,  avg # of iterations =  6.3

     negative rho (up, down):  6.363E-03 0.000E+00
 
     Adding external electric field

     Computed dipole along edir(3) : 
        Dipole               -2.3622 Ry au,         -6.0040 Debye
        Dipole field         -0.0045 Ry au, 
 
        Potential amp.        0.4132 Ry
        Total length         46.3494 bohr
 

     total cpu time spent up to now is      351.4 secs

     total energy              =   -2941.26888204 Ry
     estimated scf accuracy    <      13.04209858 Ry

     iteration # 18     ecut=    29.40 Ry     beta= 0.05
     Davidson diagonalization with overlap
     ethr =  3.29E-03,  avg # of iterations =  2.7

     negative rho (up, down):  2.742E-03 0.000E+00
 
     Adding external electric field

     Computed dipole along edir(3) : 
        Dipole                1.1141 Ry au,          2.8318 Debye
        Dipole field          0.0021 Ry au, 
 
        Potential amp.       -0.1949 Ry
        Total length         46.3494 bohr
 

     total cpu time spent up to now is      362.3 secs

     total energy              =   -2940.19564669 Ry
     estimated scf accuracy    <       8.50047964 Ry

     iteration # 19     ecut=    29.40 Ry     beta= 0.05
     Davidson diagonalization with overlap
     c_bands:  2 eigenvalues not converged
     c_bands:  1 eigenvalues not converged
     c_bands:  5 eigenvalues not converged
     c_bands:  1 eigenvalues not converged
     c_bands:  1 eigenvalues not converged
     ethr =  2.14E-03,  avg # of iterations = 19.2

     negative rho (up, down):  3.050E-03 0.000E+00
 
     Adding external electric field

     Computed dipole along edir(3) : 
        Dipole               -0.2650 Ry au,         -0.6736 Debye
        Dipole field         -0.0005 Ry au, 
 
        Potential amp.        0.0464 Ry
        Total length         46.3494 bohr
 

     total cpu time spent up to now is      383.4 secs

     total energy              =   -2941.21600249 Ry
     estimated scf accuracy    <     194.38068580 Ry

     iteration # 20     ecut=    29.40 Ry     beta= 0.05
     Davidson diagonalization with overlap
     ethr =  2.14E-03,  avg # of iterations =  1.5

     negative rho (up, down):  3.251E-03 0.000E+00
 
     Adding external electric field

     Computed dipole along edir(3) : 
        Dipole               -0.0867 Ry au,         -0.2205 Debye
        Dipole field         -0.0002 Ry au, 
 
        Potential amp.        0.0152 Ry
        Total length         46.3494 bohr
 

     total cpu time spent up to now is      393.6 secs

     total energy              =   -2942.01304688 Ry
     estimated scf accuracy    <       8.19424387 Ry

     iteration # 21     ecut=    29.40 Ry     beta= 0.05
     Davidson diagonalization with overlap
     ethr =  2.06E-03,  avg # of iterations =  1.0

     negative rho (up, down):  3.569E-03 0.000E+00
 
     Adding external electric field

     Computed dipole along edir(3) : 
        Dipole               -0.3557 Ry au,         -0.9041 Debye
        Dipole field         -0.0007 Ry au, 
 
        Potential amp.        0.0622 Ry
        Total length         46.3494 bohr
 

     total cpu time spent up to now is      403.4 secs

     total energy              =   -2941.87274955 Ry
     estimated scf accuracy    <      11.55861784 Ry

     iteration # 22     ecut=    29.40 Ry     beta= 0.05
     Davidson diagonalization with overlap
     ethr =  2.06E-03,  avg # of iterations =  1.0

     negative rho (up, down):  3.937E-03 0.000E+00
 
     Adding external electric field

     Computed dipole along edir(3) : 
        Dipole               -0.2162 Ry au,         -0.5495 Debye
        Dipole field         -0.0004 Ry au, 
 
        Potential amp.        0.0378 Ry
        Total length         46.3494 bohr
 

     total cpu time spent up to now is      413.1 secs

     total energy              =   -2941.83978689 Ry
     estimated scf accuracy    <       4.25807932 Ry

     iteration # 23     ecut=    29.40 Ry     beta= 0.05
     Davidson diagonalization with overlap
     ethr =  1.07E-03,  avg # of iterations =  1.2

     negative rho (up, down):  4.697E-03 0.000E+00
 
     Adding external electric field

     Computed dipole along edir(3) : 
        Dipole                0.1746 Ry au,          0.4438 Debye
        Dipole field          0.0003 Ry au, 
 
        Potential amp.       -0.0305 Ry
        Total length         46.3494 bohr
 

     total cpu time spent up to now is      423.0 secs

     total energy              =   -2941.72848086 Ry
     estimated scf accuracy    <       4.03111675 Ry

     iteration # 24     ecut=    29.40 Ry     beta= 0.05
     Davidson diagonalization with overlap
     ethr =  1.02E-03,  avg # of iterations =  1.5

     negative rho (up, down):  5.683E-03 0.000E+00
 
     Adding external electric field

     Computed dipole along edir(3) : 
        Dipole                0.4636 Ry au,          1.1783 Debye
        Dipole field          0.0009 Ry au, 
 
        Potential amp.       -0.0811 Ry
        Total length         46.3494 bohr
 

     total cpu time spent up to now is      433.2 secs

     total energy              =   -2941.72244290 Ry
     estimated scf accuracy    <       4.04569278 Ry

     iteration # 25     ecut=    29.40 Ry     beta= 0.05
     Davidson diagonalization with overlap
     ethr =  1.02E-03,  avg # of iterations =  1.2

     negative rho (up, down):  5.772E-03 0.000E+00
 
     Adding external electric field

     Computed dipole along edir(3) : 
        Dipole                0.7192 Ry au,          1.8280 Debye
        Dipole field          0.0014 Ry au, 
 
        Potential amp.       -0.1258 Ry
        Total length         46.3494 bohr
 

     total cpu time spent up to now is      443.9 secs

     total energy              =   -2941.54879486 Ry
     estimated scf accuracy    <       3.79078751 Ry

     iteration # 26     ecut=    29.40 Ry     beta= 0.05
     Davidson diagonalization with overlap
     ethr =  9.55E-04,  avg # of iterations =  2.3

     negative rho (up, down):  7.129E-03 0.000E+00
 
     Adding external electric field

     Computed dipole along edir(3) : 
        Dipole                0.7406 Ry au,          1.8825 Debye
        Dipole field          0.0014 Ry au, 
 
        Potential amp.       -0.1296 Ry
        Total length         46.3494 bohr
 

     total cpu time spent up to now is      454.4 secs

     total energy              =   -2941.63956920 Ry
     estimated scf accuracy    <      16.04764630 Ry

     iteration # 27     ecut=    29.40 Ry     beta= 0.05
     Davidson diagonalization with overlap
     ethr =  9.55E-04,  avg # of iterations =  2.1

     negative rho (up, down):  6.542E-03 0.000E+00
 
     Adding external electric field

     Computed dipole along edir(3) : 
        Dipole                1.0655 Ry au,          2.7082 Debye
        Dipole field          0.0020 Ry au, 
 
        Potential amp.       -0.1864 Ry
        Total length         46.3494 bohr
 

     total cpu time spent up to now is      464.7 secs

     total energy              =   -2941.71577696 Ry
     estimated scf accuracy    <      17.94493729 Ry

     iteration # 28     ecut=    29.40 Ry     beta= 0.05
     Davidson diagonalization with overlap
     ethr =  9.55E-04,  avg # of iterations =  1.0

     negative rho (up, down):  8.567E-03 0.000E+00
 
     Adding external electric field

     Computed dipole along edir(3) : 
        Dipole                0.3992 Ry au,          1.0146 Debye
        Dipole field          0.0008 Ry au, 
 
        Potential amp.       -0.0698 Ry
        Total length         46.3494 bohr
 

     total cpu time spent up to now is      474.5 secs

     total energy              =   -2941.03342372 Ry
     estimated scf accuracy    <      38.94347326 Ry

     iteration # 29     ecut=    29.40 Ry     beta= 0.05
     Davidson diagonalization with overlap
     ethr =  9.55E-04,  avg # of iterations =  8.1

     negative rho (up, down):  9.009E-03 0.000E+00
 
     Adding external electric field

     Computed dipole along edir(3) : 
        Dipole                0.2392 Ry au,          0.6080 Debye
        Dipole field          0.0005 Ry au, 
 
        Potential amp.       -0.0418 Ry
        Total length         46.3494 bohr
 

     total cpu time spent up to now is      486.9 secs

     total energy              =   -2941.49491414 Ry
     estimated scf accuracy    <       1.42018848 Ry

     iteration # 30     ecut=    29.40 Ry     beta= 0.05
     Davidson diagonalization with overlap
     c_bands:  5 eigenvalues not converged
     c_bands:  1 eigenvalues not converged
     c_bands:  3 eigenvalues not converged
     c_bands:  3 eigenvalues not converged
     ethr =  3.58E-04,  avg # of iterations = 14.0

     negative rho (up, down):  6.995E-03 0.000E+00
 
     Adding external electric field

     Computed dipole along edir(3) : 
        Dipole                0.1957 Ry au,          0.4975 Debye
        Dipole field          0.0004 Ry au, 
 
        Potential amp.       -0.0342 Ry
        Total length         46.3494 bohr
 

     total cpu time spent up to now is      502.5 secs

     total energy              =   -2941.49129219 Ry
     estimated scf accuracy    <       0.56932904 Ry

     iteration # 31     ecut=    29.40 Ry     beta= 0.05
     Davidson diagonalization with overlap
     c_bands:  1 eigenvalues not converged
     c_bands:  2 eigenvalues not converged
     ethr =  1.43E-04,  avg # of iterations =  9.4

     negative rho (up, down):  8.309E-03 0.000E+00
 
     Adding external electric field

     Computed dipole along edir(3) : 
        Dipole                0.0202 Ry au,          0.0515 Debye
        Dipole field          0.0000 Ry au, 
 
        Potential amp.       -0.0035 Ry
        Total length         46.3494 bohr
 

     total cpu time spent up to now is      515.7 secs

     total energy              =   -2941.44140753 Ry
     estimated scf accuracy    <       0.74405042 Ry

     iteration # 32     ecut=    29.40 Ry     beta= 0.05
     Davidson diagonalization with overlap
     c_bands:  3 eigenvalues not converged
     c_bands:  3 eigenvalues not converged
     c_bands:  3 eigenvalues not converged
     c_bands:  5 eigenvalues not converged
     c_bands:  4 eigenvalues not converged
     c_bands:  4 eigenvalues not converged
     c_bands:  4 eigenvalues not converged
     c_bands:  3 eigenvalues not converged
     c_bands:  2 eigenvalues not converged
     ethr =  1.43E-04,  avg # of iterations = 21.2

     negative rho (up, down):  8.448E-03 0.000E+00
 
     Adding external electric field

     Computed dipole along edir(3) : 
        Dipole                0.4464 Ry au,          1.1347 Debye
        Dipole field          0.0008 Ry au, 
 
        Potential amp.       -0.0781 Ry
        Total length         46.3494 bohr
 

     total cpu time spent up to now is      537.1 secs

     total energy              =   -2941.44363288 Ry
     estimated scf accuracy    <       5.43662328 Ry

     iteration # 33     ecut=    29.40 Ry     beta= 0.05
     Davidson diagonalization with overlap
     c_bands:  3 eigenvalues not converged
     c_bands:  2 eigenvalues not converged
     c_bands:  1 eigenvalues not converged
     c_bands:  1 eigenvalues not converged
     ethr =  1.43E-04,  avg # of iterations = 14.5

     negative rho (up, down):  8.200E-03 0.000E+00
 
     Adding external electric field

     Computed dipole along edir(3) : 
        Dipole                0.6640 Ry au,          1.6876 Debye
        Dipole field          0.0013 Ry au, 
 
        Potential amp.       -0.1162 Ry
        Total length         46.3494 bohr
 

     total cpu time spent up to now is      551.9 secs

     total energy              =   -2941.48135580 Ry
     estimated scf accuracy    <       0.20035645 Ry

     iteration # 34     ecut=    29.40 Ry     beta= 0.05
     Davidson diagonalization with overlap
     c_bands:  2 eigenvalues not converged
     c_bands:  2 eigenvalues not converged
     c_bands:  2 eigenvalues not converged
     c_bands:  5 eigenvalues not converged
     c_bands:  2 eigenvalues not converged
     c_bands:  4 eigenvalues not converged
     c_bands:  4 eigenvalues not converged
     c_bands:  1 eigenvalues not converged
     ethr =  5.05E-05,  avg # of iterations = 20.7

     negative rho (up, down):  8.404E-03 0.000E+00
 
     Adding external electric field

     Computed dipole along edir(3) : 
        Dipole                0.9207 Ry au,          2.3403 Debye
        Dipole field          0.0017 Ry au, 
 
        Potential amp.       -0.1611 Ry
        Total length         46.3494 bohr
 

     total cpu time spent up to now is      572.5 secs

     total energy              =   -2941.47716366 Ry
     estimated scf accuracy    <       0.52793867 Ry

     iteration # 35     ecut=    29.40 Ry     beta= 0.05
     Davidson diagonalization with overlap
     c_bands:  5 eigenvalues not converged
     ethr =  5.05E-05,  avg # of iterations = 10.8

     negative rho (up, down):  8.862E-03 0.000E+00
 
     Adding external electric field

     Computed dipole along edir(3) : 
        Dipole                0.9998 Ry au,          2.5412 Debye
        Dipole field          0.0019 Ry au, 
 
        Potential amp.       -0.1749 Ry
        Total length         46.3494 bohr
 

     total cpu time spent up to now is      585.7 secs

     total energy              =   -2941.48500561 Ry
     estimated scf accuracy    <       0.11654858 Ry

     iteration # 36     ecut=    29.40 Ry     beta= 0.05
     Davidson diagonalization with overlap
     c_bands:  1 eigenvalues not converged
     c_bands:  2 eigenvalues not converged
     ethr =  2.94E-05,  avg # of iterations = 10.0

     negative rho (up, down):  8.707E-03 0.000E+00
 
     Adding external electric field

     Computed dipole along edir(3) : 
        Dipole                1.1307 Ry au,          2.8739 Debye
        Dipole field          0.0021 Ry au, 
 
        Potential amp.       -0.1978 Ry
        Total length         46.3494 bohr
 

     total cpu time spent up to now is      598.4 secs

     total energy              =   -2941.48013135 Ry
     estimated scf accuracy    <       0.05729271 Ry

     iteration # 37     ecut=    29.40 Ry     beta= 0.05
     Davidson diagonalization with overlap
     c_bands:  1 eigenvalues not converged
     c_bands:  1 eigenvalues not converged
     c_bands:  1 eigenvalues not converged
     c_bands:  1 eigenvalues not converged
     c_bands:  1 eigenvalues not converged
     ethr =  1.44E-05,  avg # of iterations = 16.9

     negative rho (up, down):  8.348E-03 0.000E+00
 
     Adding external electric field

     Computed dipole along edir(3) : 
        Dipole                1.0882 Ry au,          2.7659 Debye
        Dipole field          0.0021 Ry au, 
 
        Potential amp.       -0.1904 Ry
        Total length         46.3494 bohr
 

     total cpu time spent up to now is      615.6 secs

     total energy              =   -2941.48431573 Ry
     estimated scf accuracy    <       0.06073686 Ry

     iteration # 38     ecut=    29.40 Ry     beta= 0.05
     Davidson diagonalization with overlap
     c_bands:  1 eigenvalues not converged
     ethr =  1.44E-05,  avg # of iterations =  6.5

     negative rho (up, down):  8.383E-03 0.000E+00
 
     Adding external electric field

     Computed dipole along edir(3) : 
        Dipole                1.1291 Ry au,          2.8699 Debye
        Dipole field          0.0021 Ry au, 
 
        Potential amp.       -0.1975 Ry
        Total length         46.3494 bohr
 

     total cpu time spent up to now is      627.3 secs

     total energy              =   -2941.48430107 Ry
     estimated scf accuracy    <       0.03835431 Ry

     iteration # 39     ecut=    29.40 Ry     beta= 0.05
     Davidson diagonalization with overlap
     c_bands:  1 eigenvalues not converged
     c_bands:  1 eigenvalues not converged
     c_bands:  1 eigenvalues not converged
     c_bands:  1 eigenvalues not converged
     ethr =  9.66E-06,  avg # of iterations = 15.4

     negative rho (up, down):  8.727E-03 0.000E+00
 
     Adding external electric field

     Computed dipole along edir(3) : 
        Dipole                1.1666 Ry au,          2.9651 Debye
        Dipole field          0.0022 Ry au, 
 
        Potential amp.       -0.2041 Ry
        Total length         46.3494 bohr
 

     total cpu time spent up to now is      642.6 secs

     total energy              =   -2941.48639306 Ry
     estimated scf accuracy    <       0.03301775 Ry

     iteration # 40     ecut=    29.40 Ry     beta= 0.05
     Davidson diagonalization with overlap
     ethr =  8.32E-06,  avg # of iterations =  9.5

     negative rho (up, down):  9.729E-03 0.000E+00
 
     Adding external electric field

     Computed dipole along edir(3) : 
        Dipole                1.2719 Ry au,          3.2328 Debye
        Dipole field          0.0024 Ry au, 
 
        Potential amp.       -0.2225 Ry
        Total length         46.3494 bohr
 

     total cpu time spent up to now is      655.0 secs

     total energy              =   -2941.48849357 Ry
     estimated scf accuracy    <       0.01514665 Ry

     iteration # 41     ecut=    29.40 Ry     beta= 0.05
     Davidson diagonalization with overlap
     c_bands:  1 eigenvalues not converged
     c_bands:  1 eigenvalues not converged
     c_bands:  1 eigenvalues not converged
     c_bands:  3 eigenvalues not converged
     c_bands:  1 eigenvalues not converged
     c_bands:  1 eigenvalues not converged
     ethr =  3.82E-06,  avg # of iterations = 20.5

     negative rho (up, down):  1.016E-02 0.000E+00
 
     Adding external electric field

     Computed dipole along edir(3) : 
        Dipole                1.2483 Ry au,          3.1729 Debye
        Dipole field          0.0024 Ry au, 
 
        Potential amp.       -0.2184 Ry
        Total length         46.3494 bohr
 

     total cpu time spent up to now is      677.6 secs

     total energy              =   -2941.48352346 Ry
     estimated scf accuracy    <       0.05323972 Ry

     iteration # 42     ecut=    29.40 Ry     beta= 0.05
     Davidson diagonalization with overlap
     c_bands:  2 eigenvalues not converged
     c_bands:  1 eigenvalues not converged
     c_bands:  3 eigenvalues not converged
     c_bands:  3 eigenvalues not converged
     c_bands:  3 eigenvalues not converged
     c_bands:  1 eigenvalues not converged
     c_bands:  2 eigenvalues not converged
     c_bands:  2 eigenvalues not converged
     ethr =  3.82E-06,  avg # of iterations = 18.9

     negative rho (up, down):  1.054E-02 0.000E+00
 
     Adding external electric field

     Computed dipole along edir(3) : 
        Dipole                1.2782 Ry au,          3.2488 Debye
        Dipole field          0.0024 Ry au, 
 
        Potential amp.       -0.2236 Ry
        Total length         46.3494 bohr
 

     total cpu time spent up to now is      698.7 secs

     total energy              =   -2941.49071825 Ry
     estimated scf accuracy    <       0.02482691 Ry

     iteration # 43     ecut=    29.40 Ry     beta= 0.05
     Davidson diagonalization with overlap
     c_bands:  3 eigenvalues not converged
     c_bands:  1 eigenvalues not converged
     c_bands:  1 eigenvalues not converged
     ethr =  3.82E-06,  avg # of iterations =  8.3

     negative rho (up, down):  1.101E-02 0.000E+00
 
     Adding external electric field

     Computed dipole along edir(3) : 
        Dipole                1.3346 Ry au,          3.3922 Debye
        Dipole field          0.0025 Ry au, 
 
        Potential amp.       -0.2335 Ry
        Total length         46.3494 bohr
 

     total cpu time spent up to now is      710.8 secs

     total energy              =   -2941.48923928 Ry
     estimated scf accuracy    <       0.01613777 Ry

     iteration # 44     ecut=    29.40 Ry     beta= 0.05
     Davidson diagonalization with overlap
     ethr =  3.82E-06,  avg # of iterations = 12.4

     negative rho (up, down):  1.165E-02 0.000E+00
 
     Adding external electric field

     Computed dipole along edir(3) : 
        Dipole                1.3338 Ry au,          3.3903 Debye
        Dipole field          0.0025 Ry au, 
 
        Potential amp.       -0.2333 Ry
        Total length         46.3494 bohr
 

     total cpu time spent up to now is      725.6 secs

     total energy              =   -2941.48953435 Ry
     estimated scf accuracy    <       0.00543411 Ry

     iteration # 45     ecut=    29.40 Ry     beta= 0.05
     Davidson diagonalization with overlap
     c_bands:  1 eigenvalues not converged
     c_bands:  2 eigenvalues not converged
     ethr =  1.37E-06,  avg # of iterations = 15.6

     negative rho (up, down):  1.183E-02 0.000E+00
 
     Adding external electric field

     Computed dipole along edir(3) : 
        Dipole                1.3243 Ry au,          3.3661 Debye
        Dipole field          0.0025 Ry au, 
 
        Potential amp.       -0.2317 Ry
        Total length         46.3494 bohr
 

     total cpu time spent up to now is      745.2 secs

     total energy              =   -2941.49031550 Ry
     estimated scf accuracy    <       0.00260351 Ry

     iteration # 46     ecut=    29.40 Ry     beta= 0.05
     Davidson diagonalization with overlap
     ethr =  6.56E-07,  avg # of iterations =  8.6

     negative rho (up, down):  1.225E-02 0.000E+00
 
     Adding external electric field

     Computed dipole along edir(3) : 
        Dipole                1.3293 Ry au,          3.3788 Debye
        Dipole field          0.0025 Ry au, 
 
        Potential amp.       -0.2325 Ry
        Total length         46.3494 bohr
 

     total cpu time spent up to now is      757.6 secs

     total energy              =   -2941.49023383 Ry
     estimated scf accuracy    <       0.00138731 Ry

     iteration # 47     ecut=    29.40 Ry     beta= 0.05
     Davidson diagonalization with overlap
     c_bands:  1 eigenvalues not converged
     c_bands:  2 eigenvalues not converged
     ethr =  3.49E-07,  avg # of iterations = 15.0

     negative rho (up, down):  1.211E-02 0.000E+00
 
     Adding external electric field

     Computed dipole along edir(3) : 
        Dipole                1.3298 Ry au,          3.3800 Debye
        Dipole field          0.0025 Ry au, 
 
        Potential amp.       -0.2326 Ry
        Total length         46.3494 bohr
 

     total cpu time spent up to now is      776.5 secs

     total energy              =   -2941.49037596 Ry
     estimated scf accuracy    <       0.00120550 Ry

     iteration # 48     ecut=    29.40 Ry     beta= 0.05
     Davidson diagonalization with overlap
     ethr =  3.04E-07,  avg # of iterations =  8.7

     negative rho (up, down):  1.234E-02 0.000E+00
 
     Adding external electric field

     Computed dipole along edir(3) : 
        Dipole                1.3439 Ry au,          3.4159 Debye
        Dipole field          0.0025 Ry au, 
 
        Potential amp.       -0.2351 Ry
        Total length         46.3494 bohr
 

     total cpu time spent up to now is      789.4 secs

     total energy              =   -2941.49045810 Ry
     estimated scf accuracy    <       0.00047586 Ry

     iteration # 49     ecut=    29.40 Ry     beta= 0.05
     Davidson diagonalization with overlap
     c_bands:  1 eigenvalues not converged
     c_bands:  1 eigenvalues not converged
     ethr =  1.20E-07,  avg # of iterations = 11.3

     negative rho (up, down):  1.304E-02 0.000E+00
 
     Adding external electric field

     Computed dipole along edir(3) : 
        Dipole                1.3591 Ry au,          3.4544 Debye
        Dipole field          0.0026 Ry au, 
 
        Potential amp.       -0.2377 Ry
        Total length         46.3494 bohr
 

     total cpu time spent up to now is      804.5 secs

     total energy              =   -2941.49050907 Ry
     estimated scf accuracy    <       0.00041821 Ry

     iteration # 50     ecut=    29.40 Ry     beta= 0.05
     Davidson diagonalization with overlap
     ethr =  1.05E-07,  avg # of iterations =  9.3

     negative rho (up, down):  1.316E-02 0.000E+00
 
     Adding external electric field

     Computed dipole along edir(3) : 
        Dipole                1.3551 Ry au,          3.4443 Debye
        Dipole field          0.0026 Ry au, 
 
        Potential amp.       -0.2371 Ry
        Total length         46.3494 bohr
 

     total cpu time spent up to now is      822.4 secs

     total energy              =   -2941.49060880 Ry
     estimated scf accuracy    <       0.00038169 Ry

     iteration # 51     ecut=    29.40 Ry     beta= 0.05
     Davidson diagonalization with overlap
     ethr =  9.61E-08,  avg # of iterations =  5.0

     negative rho (up, down):  1.328E-02 0.000E+00
 
     Adding external electric field

     Computed dipole along edir(3) : 
        Dipole                1.3572 Ry au,          3.4496 Debye
        Dipole field          0.0026 Ry au, 
 
        Potential amp.       -0.2374 Ry
        Total length         46.3494 bohr
 

     total cpu time spent up to now is      833.8 secs

     total energy              =   -2941.49061870 Ry
     estimated scf accuracy    <       0.00019104 Ry

     iteration # 52     ecut=    29.40 Ry     beta= 0.05
     Davidson diagonalization with overlap
     ethr =  4.81E-08,  avg # of iterations =  7.4

     negative rho (up, down):  1.338E-02 0.000E+00
 
     Adding external electric field

     Computed dipole along edir(3) : 
        Dipole                1.3647 Ry au,          3.4686 Debye
        Dipole field          0.0026 Ry au, 
 
        Potential amp.       -0.2387 Ry
        Total length         46.3494 bohr
 

     total cpu time spent up to now is      847.0 secs

     total energy              =   -2941.49064096 Ry
     estimated scf accuracy    <       0.00007222 Ry

     iteration # 53     ecut=    29.40 Ry     beta= 0.05
     Davidson diagonalization with overlap
     ethr =  1.82E-08,  avg # of iterations = 12.3

     negative rho (up, down):  1.337E-02 0.000E+00
 
     Adding external electric field

     Computed dipole along edir(3) : 
        Dipole                1.3588 Ry au,          3.4536 Debye
        Dipole field          0.0026 Ry au, 
 
        Potential amp.       -0.2377 Ry
        Total length         46.3494 bohr
 

     total cpu time spent up to now is      865.2 secs

     total energy              =   -2941.49064582 Ry
     estimated scf accuracy    <       0.00010615 Ry

     iteration # 54     ecut=    29.40 Ry     beta= 0.05
     Davidson diagonalization with overlap
     ethr =  1.82E-08,  avg # of iterations = 11.7

     negative rho (up, down):  1.340E-02 0.000E+00
 
     Adding external electric field

     Computed dipole along edir(3) : 
        Dipole                1.3639 Ry au,          3.4667 Debye
        Dipole field          0.0026 Ry au, 
 
        Potential amp.       -0.2386 Ry
        Total length         46.3494 bohr
 

     total cpu time spent up to now is      880.0 secs

     total energy              =   -2941.49066175 Ry
     estimated scf accuracy    <       0.00003932 Ry

     iteration # 55     ecut=    29.40 Ry     beta= 0.05
     Davidson diagonalization with overlap
     ethr =  9.90E-09,  avg # of iterations = 12.2

     negative rho (up, down):  1.344E-02 0.000E+00
 
     Adding external electric field

     Computed dipole along edir(3) : 
        Dipole                1.3628 Ry au,          3.4638 Debye
        Dipole field          0.0026 Ry au, 
 
        Potential amp.       -0.2384 Ry
        Total length         46.3494 bohr
 

     total cpu time spent up to now is      899.0 secs

     total energy              =   -2941.49067501 Ry
     estimated scf accuracy    <       0.00007600 Ry

     iteration # 56     ecut=    29.40 Ry     beta= 0.05
     Davidson diagonalization with overlap
     ethr =  9.90E-09,  avg # of iterations =  5.0

     negative rho (up, down):  1.347E-02 0.000E+00
 
     Adding external electric field

     Computed dipole along edir(3) : 
        Dipole                1.3633 Ry au,          3.4652 Debye
        Dipole field          0.0026 Ry au, 
 
        Potential amp.       -0.2385 Ry
        Total length         46.3494 bohr
 

     total cpu time spent up to now is      910.4 secs

     total energy              =   -2941.49068174 Ry
     estimated scf accuracy    <       0.00002393 Ry

     iteration # 57     ecut=    29.40 Ry     beta= 0.05
     Davidson diagonalization with overlap
     ethr =  6.03E-09,  avg # of iterations = 11.0

     negative rho (up, down):  1.350E-02 0.000E+00
 
     Adding external electric field

     Computed dipole along edir(3) : 
        Dipole                1.3628 Ry au,          3.4640 Debye
        Dipole field          0.0026 Ry au, 
 
        Potential amp.       -0.2384 Ry
        Total length         46.3494 bohr
 

     total cpu time spent up to now is      926.2 secs

     total energy              =   -2941.49069165 Ry
     estimated scf accuracy    <       0.00000853 Ry

     iteration # 58     ecut=    29.40 Ry     beta= 0.05
     Davidson diagonalization with overlap
     ethr =  2.15E-09,  avg # of iterations =  9.7

     negative rho (up, down):  1.348E-02 0.000E+00
 
     Adding external electric field

     Computed dipole along edir(3) : 
        Dipole                1.3614 Ry au,          3.4604 Debye
        Dipole field          0.0026 Ry au, 
 
        Potential amp.       -0.2382 Ry
        Total length         46.3494 bohr
 

     total cpu time spent up to now is      939.1 secs

     total energy              =   -2941.49069728 Ry
     estimated scf accuracy    <       0.00000566 Ry

     iteration # 59     ecut=    29.40 Ry     beta= 0.05
     Davidson diagonalization with overlap
     ethr =  1.43E-09,  avg # of iterations = 13.2

     negative rho (up, down):  1.349E-02 0.000E+00
 
     Adding external electric field

     Computed dipole along edir(3) : 
        Dipole                1.3623 Ry au,          3.4627 Debye
        Dipole field          0.0026 Ry au, 
 
        Potential amp.       -0.2383 Ry
        Total length         46.3494 bohr
 

     total cpu time spent up to now is      957.0 secs

     total energy              =   -2941.49070384 Ry
     estimated scf accuracy    <       0.00000386 Ry

     iteration # 60     ecut=    29.40 Ry     beta= 0.05
     Davidson diagonalization with overlap
     ethr =  9.74E-10,  avg # of iterations =  6.6

     negative rho (up, down):  1.349E-02 0.000E+00
 
     Adding external electric field

     Computed dipole along edir(3) : 
        Dipole                1.3629 Ry au,          3.4642 Debye
        Dipole field          0.0026 Ry au, 
 
        Potential amp.       -0.2384 Ry
        Total length         46.3494 bohr
 

     total cpu time spent up to now is      968.7 secs

     total energy              =   -2941.49070825 Ry
     estimated scf accuracy    <       0.00000377 Ry

     iteration # 61     ecut=    29.40 Ry     beta= 0.05
     Davidson diagonalization with overlap
     ethr =  9.50E-10,  avg # of iterations = 10.2

     negative rho (up, down):  1.348E-02 0.000E+00
 
     Adding external electric field

     Computed dipole along edir(3) : 
        Dipole                1.3612 Ry au,          3.4599 Debye
        Dipole field          0.0026 Ry au, 
 
        Potential amp.       -0.2381 Ry
        Total length         46.3494 bohr
 

     total cpu time spent up to now is      984.4 secs

     total energy              =   -2941.49071299 Ry
     estimated scf accuracy    <       0.00000178 Ry

     iteration # 62     ecut=    29.40 Ry     beta= 0.05
     Davidson diagonalization with overlap
     ethr =  4.48E-10,  avg # of iterations =  9.2

     negative rho (up, down):  1.347E-02 0.000E+00
 
     Adding external electric field

     Computed dipole along edir(3) : 
        Dipole                1.3611 Ry au,          3.4595 Debye
        Dipole field          0.0026 Ry au, 
 
        Potential amp.       -0.2381 Ry
        Total length         46.3494 bohr
 

     total cpu time spent up to now is     1000.2 secs

     total energy              =   -2941.49071735 Ry
     estimated scf accuracy    <       0.00000054 Ry

     iteration # 63     ecut=    29.40 Ry     beta= 0.05
     Davidson diagonalization with overlap
     ethr =  1.37E-10,  avg # of iterations =  9.0

     negative rho (up, down):  1.345E-02 0.000E+00
 
     Adding external electric field

     Computed dipole along edir(3) : 
        Dipole                1.3613 Ry au,          3.4600 Debye
        Dipole field          0.0026 Ry au, 
 
        Potential amp.       -0.2381 Ry
        Total length         46.3494 bohr
 

     total cpu time spent up to now is     1012.9 secs

     total energy              =   -2941.49072091 Ry
     estimated scf accuracy    <       0.00000060 Ry

     iteration # 64     ecut=    29.40 Ry     beta= 0.05
     Davidson diagonalization with overlap
     ethr =  1.37E-10,  avg # of iterations = 10.6

     negative rho (up, down):  1.345E-02 0.000E+00
 
     Adding external electric field

     Computed dipole along edir(3) : 
        Dipole                1.3608 Ry au,          3.4588 Debye
        Dipole field          0.0026 Ry au, 
 
        Potential amp.       -0.2381 Ry
        Total length         46.3494 bohr
 

     total cpu time spent up to now is     1027.2 secs

     total energy              =   -2941.49072430 Ry
     estimated scf accuracy    <       0.00000019 Ry

     iteration # 65     ecut=    29.40 Ry     beta= 0.05
     Davidson diagonalization with overlap
     c_bands:  2 eigenvalues not converged
     ethr =  4.91E-11,  avg # of iterations = 14.0

     negative rho (up, down):  1.345E-02 0.000E+00
 
     Adding external electric field

     Computed dipole along edir(3) : 
        Dipole                1.3607 Ry au,          3.4586 Debye
        Dipole field          0.0026 Ry au, 
 
        Potential amp.       -0.2380 Ry
        Total length         46.3494 bohr
 

     total cpu time spent up to now is     1044.1 secs

     total energy              =   -2941.49072730 Ry
     estimated scf accuracy    <       0.00000008 Ry

     iteration # 66     ecut=    29.40 Ry     beta= 0.05
     Davidson diagonalization with overlap
     ethr =  2.10E-11,  avg # of iterations =  7.7

     negative rho (up, down):  1.345E-02 0.000E+00
 
     Adding external electric field

     Computed dipole along edir(3) : 
        Dipole                1.3606 Ry au,          3.4583 Debye
        Dipole field          0.0026 Ry au, 
 
        Potential amp.       -0.2380 Ry
        Total length         46.3494 bohr
 

     total cpu time spent up to now is     1057.5 secs

     total energy              =   -2941.49072999 Ry
     estimated scf accuracy    <       0.00000015 Ry

     iteration # 67     ecut=    29.40 Ry     beta= 0.05
     Davidson diagonalization with overlap
     ethr =  2.10E-11,  avg # of iterations = 12.1

     negative rho (up, down):  1.349E-02 0.000E+00
 
     Adding external electric field

     Computed dipole along edir(3) : 
        Dipole                1.3624 Ry au,          3.4629 Debye
        Dipole field          0.0026 Ry au, 
 
        Potential amp.       -0.2383 Ry
        Total length         46.3494 bohr
 

     total cpu time spent up to now is     1071.9 secs

     End of self-consistent calculation

          k = 0.0000 0.0000 0.0000 ( 18029 PWs)   bands (ev):

   -55.2874 -55.2484 -55.2484 -55.2143 -55.1627 -55.1609 -55.1243 -55.0975
   -55.0803 -55.0791 -55.0628 -55.0458 -54.9600 -54.7931 -54.2667 -54.2327
   -31.8595 -31.7391 -31.6493 -31.6139 -31.5873 -31.5847 -31.5823 -31.5381
   -31.5350 -31.4952 -31.4935 -31.4926 -31.4598 -31.4578 -31.4437 -31.4222
   -31.4069 -31.4020 -31.3976 -31.3962 -31.3606 -31.3552 -31.3416 -31.3281
   -31.3053 -31.3001 -31.2937 -31.2897 -31.2773 -31.2740 -31.2644 -31.2542
   -31.2475 -31.2423 -31.2125 -31.2081 -31.2011 -31.1889 -31.1507 -31.1082
   -31.0638 -30.9348 -30.6755 -30.5828 -30.5606 -30.4920 -30.4053 -30.2943
   -19.1946 -16.1283 -15.8655 -15.7376 -15.5468 -15.4811 -15.3853 -15.2468
   -15.1955 -15.1296 -15.0857 -15.0433 -15.0323 -14.9667 -14.9095 -14.8214
   -14.8197 -14.7967 -14.7921 -14.7793 -14.7775 -14.7152 -14.7118 -14.6853
   -14.6707 -14.6605 -14.5195 -14.4358 -14.3744 -14.2301 -14.0235 -12.7694
   -12.6521  -9.1435  -7.7902  -7.0559  -5.9586  -3.8394  -3.4664  -3.2937
    -3.2448  -3.2064  -3.1821  -3.0133  -2.9312  -2.6640  -2.5933  -2.5564
    -2.5089  -2.4972  -2.4717  -2.2972  -2.2686  -2.2281  -2.1921  -2.1683
    -2.1292  -2.1021  -2.0860  -2.0564  -2.0433  -2.0408  -1.8586  -1.7846
    -1.7593  -1.7010  -1.6815  -1.6699  -1.6141  -1.5853  -1.5724  -1.5700
    -1.5443  -1.5294  -1.5057  -1.4633  -1.3675  -1.2850  -1.2374  -1.2133
    -1.0986  -1.0362  -0.9187  -0.8740  -0.8617  -0.8345  -0.7630  -0.6947
    -0.6690  -0.6332  -0.4918  -0.4869  -0.4022  -0.3914  -0.3203  -0.3019
    -0.2643  -0.2160  -0.1054  -0.0735  -0.0522   0.0026   0.0645   0.0863
     0.1669   0.2216   0.2779   0.2917   0.3719   0.4124   0.4502   0.4705
     0.5596   0.5993   0.6587   0.6652   0.7026   0.7055   0.7323   0.8187
     0.8312   0.8501   0.8912   1.0610   1.2637   1.3133   1.3332   1.6659
     1.6855   1.7559   1.9412   2.3307   2.3783   3.8139   3.8794   3.9499
     3.9643   3.9749   4.0460   4.0894   4.2814   4.3104   4.3134   4.3362

          k = 0.0000 0.0419 0.0000 ( 17933 PWs)   bands (ev):

   -55.2826 -55.2530 -55.2433 -55.2192 -55.1608 -55.1563 -55.1289 -55.0924
   -55.0821 -55.0741 -55.0678 -55.0506 -54.9592 -54.7938 -54.2617 -54.2376
   -31.8022 -31.6851 -31.5997 -31.5948 -31.5468 -31.5409 -31.5356 -31.5332
   -31.5328 -31.5171 -31.4871 -31.4839 -31.4782 -31.4589 -31.4320 -31.4292
   -31.4173 -31.3986 -31.3880 -31.3854 -31.3834 -31.3596 -31.3358 -31.3240
   -31.3212 -31.3193 -31.3091 -31.3035 -31.3007 -31.2883 -31.2697 -31.2669
   -31.2553 -31.2515 -31.2448 -31.2432 -31.2396 -31.2182 -31.1541 -31.1070
   -31.0629 -30.9692 -30.6213 -30.5793 -30.5636 -30.4794 -30.4179 -30.3515
   -19.1930 -15.9970 -15.7532 -15.6294 -15.4748 -15.3746 -15.3576 -15.2621
   -15.1853 -15.1666 -15.1367 -15.0699 -15.0496 -14.9824 -14.9298 -14.8595
   -14.8481 -14.8166 -14.7867 -14.7742 -14.7629 -14.7372 -14.7200 -14.7174
   -14.6651 -14.6424 -14.5754 -14.4914 -14.4338 -14.2722 -14.0935 -12.7730
   -12.6914  -9.1422  -7.7910  -7.0536  -5.9595  -3.8465  -3.2756  -3.1276
    -3.0936  -3.0490  -3.0048  -2.8649  -2.7134  -2.6356  -2.5214  -2.5109
    -2.4293  -2.4256  -2.3988  -2.3458  -2.3096  -2.2892  -2.2779  -2.2575
    -2.2209  -2.1983  -2.1440  -2.0771  -2.0673  -2.0388  -2.0110  -1.9993
    -1.8733  -1.8681  -1.8311  -1.8149  -1.7523  -1.7095  -1.6484  -1.5766
    -1.5675  -1.4412  -1.4169  -1.3522  -1.2807  -1.2110  -1.1779  -1.0498
    -1.0402  -0.9680  -0.9121  -0.8360  -0.7172  -0.6755  -0.6046  -0.5822
    -0.5500  -0.5266  -0.4685  -0.4525  -0.3981  -0.3276  -0.2810  -0.2545
    -0.2235  -0.2113  -0.1821  -0.1114  -0.1031  -0.0802   0.0069   0.0856
     0.1289   0.1525   0.2080   0.2134   0.3188   0.3438   0.3662   0.4268
     0.4689   0.4762   0.5271   0.5454   0.5809   0.6852   0.7016   0.7624
     0.7906   0.8365   0.9314   1.0142   1.0289   1.0920   1.2029   1.3658
     1.5568   1.9404   2.0183   2.2855   2.2889   3.8496   3.9873   4.0435
     4.0561   4.1101   4.1944   4.1964   4.2267   4.2591   4.3139   4.3488

          k = 0.0000-0.0839 0.0000 ( 17884 PWs)   bands (ev):

   -55.2753 -55.2602 -55.2313 -55.2311 -55.1589 -55.1489 -55.1361 -55.0839
   -55.0814 -55.0787 -55.0627 -55.0620 -54.9584 -54.7945 -54.2496 -54.2495
   -31.6685 -31.6555 -31.5814 -31.5527 -31.5526 -31.5499 -31.5234 -31.5233
   -31.4873 -31.4775 -31.4713 -31.4592 -31.4551 -31.4511 -31.4206 -31.4123
   -31.4047 -31.3991 -31.3979 -31.3813 -31.3769 -31.3598 -31.3594 -31.3536
   -31.3535 -31.3501 -31.3488 -31.3475 -31.3249 -31.3146 -31.3127 -31.3117
   -31.3007 -31.2468 -31.2456 -31.2441 -31.2421 -31.2394 -31.1676 -31.0950
   -31.0614 -31.0123 -30.5712 -30.5712 -30.4882 -30.4881 -30.4486 -30.4486
   -19.1915 -15.6819 -15.6676 -15.5074 -15.4574 -15.3649 -15.3363 -15.3044
   -15.2055 -15.1787 -15.1385 -15.0789 -15.0610 -15.0292 -15.0118 -14.8844
   -14.8817 -14.8522 -14.8431 -14.8154 -14.7325 -14.6942 -14.6846 -14.6838
   -14.6276 -14.6252 -14.5778 -14.5758 -14.4795 -14.4276 -14.1534 -12.7542
   -12.7540  -9.1409  -7.7918  -7.0516  -5.9603  -3.8528  -2.8694  -2.8071
    -2.7885  -2.7441  -2.7383  -2.7159  -2.6989  -2.6674  -2.5843  -2.5646
    -2.5623  -2.4676  -2.4518  -2.4375  -2.4213  -2.4050  -2.3173  -2.2831
    -2.2632  -2.2394  -2.1920  -2.1605  -2.1373  -2.1129  -2.0965  -2.0274
    -1.9902  -1.9237  -1.9010  -1.8702  -1.7757  -1.7172  -1.6640  -1.5168
    -1.4155  -1.3488  -1.3001  -1.2422  -1.1956  -1.1020  -1.0544  -1.0376
    -1.0177  -0.8635  -0.7989  -0.7847  -0.7548  -0.7250  -0.6897  -0.6751
    -0.6497  -0.6335  -0.5704  -0.5414  -0.5194  -0.3952  -0.3348  -0.2215
    -0.1987  -0.1285  -0.0983  -0.0169   0.0099   0.0646   0.0915   0.1040
     0.1234   0.1550   0.1848   0.2389   0.2433   0.2779   0.3237   0.3516
     0.3745   0.3817   0.4529   0.4965   0.5024   0.5060   0.5315   0.5588
     0.6393   0.8437   0.9252   0.9311   0.9317   1.0558   1.1531   1.2874
     1.3062   2.0829   2.0835   2.2212   2.2215   3.7290   4.0064   4.0909
     4.1126   4.1463   4.2808   4.2925   4.3173   4.3893   4.4127   4.4206

          k = 0.0380 0.0000 0.0000 ( 17913 PWs)   bands (ev):

   -55.2873 -55.2483 -55.2482 -55.2142 -55.1626 -55.1609 -55.1242 -55.0971
   -55.0802 -55.0793 -55.0627 -55.0457 -54.9600 -54.7930 -54.2666 -54.2326
   -31.8596 -31.7400 -31.6547 -31.6144 -31.5914 -31.5864 -31.5826 -31.5378
   -31.5349 -31.4935 -31.4924 -31.4779 -31.4603 -31.4577 -31.4433 -31.4157
   -31.4066 -31.3979 -31.3871 -31.3786 -31.3603 -31.3592 -31.3551 -31.3278
   -31.3053 -31.2998 -31.2931 -31.2825 -31.2774 -31.2748 -31.2715 -31.2642
   -31.2484 -31.2483 -31.2108 -31.2080 -31.2007 -31.1897 -31.1513 -31.1080
   -31.0646 -30.9347 -30.6750 -30.5862 -30.5586 -30.4918 -30.4052 -30.2941
   -19.1942 -16.0562 -15.7813 -15.6812 -15.5574 -15.3918 -15.3746 -15.2907
   -15.2141 -15.1957 -15.0895 -15.0579 -15.0322 -14.9766 -14.9684 -14.9605
   -14.9599 -14.8950 -14.8688 -14.7398 -14.6902 -14.6833 -14.6660 -14.6310
   -14.5939 -14.5299 -14.5116 -14.5066 -14.4624 -14.2458 -14.0237 -12.7660
   -12.6518  -9.1382  -7.7933  -7.0447  -5.9633  -3.8678  -3.3755  -3.1410
    -3.0587  -3.0255  -2.9222  -2.9114  -2.8877  -2.8106  -2.6618  -2.6364
    -2.6037  -2.5641  -2.4474  -2.3628  -2.3318  -2.2684  -2.2121  -2.0873
    -2.0771  -2.0443  -2.0060  -1.9737  -1.9341  -1.8962  -1.8449  -1.8148
    -1.7288  -1.7025  -1.6345  -1.6293  -1.6112  -1.5839  -1.5648  -1.5328
    -1.5088  -1.4288  -1.3971  -1.3435  -1.3038  -1.2844  -1.2397  -1.1539
    -1.0888  -1.0725  -0.9279  -0.9098  -0.8730  -0.7766  -0.7549  -0.7154
    -0.7022  -0.6638  -0.6246  -0.6084  -0.4960  -0.3998  -0.3469  -0.3011
    -0.2723  -0.2072  -0.1750  -0.1529  -0.1183   0.0197   0.0406   0.0631
     0.1204   0.1934   0.2251   0.2512   0.3300   0.3480   0.3771   0.4221
     0.4582   0.4803   0.4989   0.5392   0.5796   0.6694   0.6913   0.7332
     0.7832   0.7995   0.8612   0.9395   1.0615   1.1648   1.3814   1.5470
     1.6714   1.7677   1.9102   2.2183   2.2955   3.8317   3.9070   3.9750
     4.0891   4.1126   4.1409   4.2077   4.2502   4.2811   4.3034   4.3194

          k = 0.0380 0.0419 0.0000 ( 17878 PWs)   bands (ev):

   -55.2825 -55.2530 -55.2432 -55.2192 -55.1608 -55.1562 -55.1288 -55.0920
   -55.0820 -55.0743 -55.0677 -55.0506 -54.9592 -54.7937 -54.2616 -54.2376
   -31.8023 -31.6859 -31.6013 -31.5997 -31.5477 -31.5413 -31.5387 -31.5352
   -31.5330 -31.5174 -31.4874 -31.4785 -31.4698 -31.4589 -31.4296 -31.4222
   -31.4175 -31.3983 -31.3844 -31.3770 -31.3668 -31.3597 -31.3519 -31.3235
   -31.3190 -31.3189 -31.3037 -31.3032 -31.2969 -31.2871 -31.2804 -31.2687
   -31.2573 -31.2569 -31.2509 -31.2435 -31.2418 -31.2183 -31.1546 -31.1068
   -31.0639 -30.9691 -30.6210 -30.5821 -30.5626 -30.4792 -30.4179 -30.3514
   -19.1927 -15.9302 -15.6716 -15.5809 -15.4767 -15.3622 -15.2821 -15.2629
   -15.2114 -15.1977 -15.1384 -15.0722 -15.0413 -14.9901 -14.9777 -14.9640
   -14.9352 -14.9073 -14.8191 -14.7895 -14.7329 -14.7151 -14.6902 -14.6461
   -14.6188 -14.6067 -14.5718 -14.5545 -14.5162 -14.2761 -14.0969 -12.7707
   -12.6917  -9.1369  -7.7954  -7.0475  -5.9639  -3.8518  -3.2013  -2.9777
    -2.8915  -2.8732  -2.7657  -2.7200  -2.7063  -2.6517  -2.5569  -2.5167
    -2.4614  -2.4124  -2.3638  -2.3389  -2.3187  -2.2728  -2.2244  -2.1983
    -2.1684  -2.1164  -2.0993  -2.0722  -2.0374  -1.9829  -1.9733  -1.9507
    -1.8743  -1.8518  -1.8345  -1.7956  -1.7330  -1.6708  -1.6341  -1.5783
    -1.5209  -1.4474  -1.3642  -1.3381  -1.2890  -1.2213  -1.1043  -1.0703
    -1.0069  -0.9802  -0.8804  -0.8226  -0.7713  -0.7380  -0.6850  -0.6626
    -0.6422  -0.5635  -0.5437  -0.5031  -0.4681  -0.4213  -0.3812  -0.3297
    -0.2766  -0.2437  -0.2058  -0.1772  -0.1467  -0.0674  -0.0338   0.0088
     0.0388   0.0590   0.0883   0.1016   0.1545   0.1867   0.2729   0.3072
     0.3522   0.3836   0.4436   0.4984   0.5330   0.6367   0.6907   0.7459
     0.8258   0.8689   0.8902   0.9718   1.0294   1.1349   1.1542   1.3143
     1.5115   1.9512   2.0218   2.2077   2.2705   3.7814   3.9915   4.0300
     4.0489   4.1523   4.2035   4.2363   4.2504   4.3338   4.3808   4.3954

          k = 0.0380-0.0839 0.0000 ( 17916 PWs)   bands (ev):

   -55.2753 -55.2602 -55.2314 -55.2311 -55.1589 -55.1490 -55.1361 -55.0839
   -55.0813 -55.0785 -55.0628 -55.0622 -54.9584 -54.7945 -54.2497 -54.2496
   -31.6688 -31.6557 -31.5815 -31.5535 -31.5534 -31.5501 -31.5234 -31.5233
   -31.4880 -31.4872 -31.4783 -31.4757 -31.4299 -31.4270 -31.4226 -31.4123
   -31.4109 -31.4063 -31.3995 -31.3838 -31.3724 -31.3607 -31.3577 -31.3520
   -31.3518 -31.3508 -31.3344 -31.3286 -31.3270 -31.3209 -31.3145 -31.3116
   -31.2951 -31.2588 -31.2577 -31.2471 -31.2429 -31.2419 -31.1678 -31.0951
   -31.0631 -31.0122 -30.5723 -30.5723 -30.4882 -30.4881 -30.4487 -30.4486
   -19.1912 -15.6368 -15.6210 -15.4552 -15.4041 -15.3578 -15.3245 -15.2686
   -15.1916 -15.1738 -15.1432 -15.0862 -15.0566 -15.0130 -14.9766 -14.9184
   -14.9052 -14.9025 -14.8468 -14.8214 -14.7693 -14.7419 -14.7139 -14.7111
   -14.6475 -14.6446 -14.6278 -14.6268 -14.4710 -14.4203 -14.1584 -12.7540
   -12.7538  -9.1357  -7.7960  -7.0457  -5.9647  -3.8579  -2.8571  -2.7684
    -2.6996  -2.5799  -2.5625  -2.5501  -2.5206  -2.5006  -2.4697  -2.4516
    -2.3830  -2.3771  -2.3668  -2.3636  -2.3371  -2.3253  -2.2687  -2.2442
    -2.1958  -2.1839  -2.1658  -2.1544  -2.1398  -2.0822  -2.0424  -1.9924
    -1.9791  -1.9646  -1.8907  -1.8548  -1.8284  -1.6136  -1.5227  -1.4871
    -1.4064  -1.3395  -1.2948  -1.2549  -1.2157  -1.2022  -1.1633  -1.1354
    -1.1209  -1.0316  -1.0029  -0.9612  -0.9577  -0.8631  -0.8289  -0.7275
    -0.6862  -0.6632  -0.6282  -0.5915  -0.5141  -0.4651  -0.3769  -0.3317
    -0.2944  -0.2477  -0.2010  -0.1268  -0.1030  -0.0919  -0.0782  -0.0657
    -0.0133   0.0788   0.0859   0.1198   0.1527   0.1919   0.2043   0.2271
     0.2517   0.4086   0.4413   0.4711   0.5053   0.6358   0.6635   0.7866
     0.7890   0.8340   0.8716   0.9573   0.9688   1.0435   1.0939   1.2800
     1.2962   2.0962   2.0969   2.2115   2.2122   3.7071   3.9661   4.0791
     4.1089   4.1395   4.2404   4.2684   4.3013   4.4015   4.4197   4.4676

          k = 0.0380-0.0419 0.0000 ( 17876 PWs)   bands (ev):

   -55.2825 -55.2530 -55.2432 -55.2192 -55.1608 -55.1562 -55.1288 -55.0920
   -55.0820 -55.0743 -55.0677 -55.0506 -54.9592 -54.7937 -54.2616 -54.2376
   -31.8023 -31.6859 -31.6014 -31.5997 -31.5476 -31.5413 -31.5387 -31.5352
   -31.5330 -31.5173 -31.4874 -31.4788 -31.4695 -31.4589 -31.4297 -31.4222
   -31.4174 -31.3983 -31.3845 -31.3777 -31.3667 -31.3599 -31.3521 -31.3235
   -31.3190 -31.3189 -31.3037 -31.3031 -31.2968 -31.2820 -31.2806 -31.2686
   -31.2612 -31.2571 -31.2509 -31.2433 -31.2418 -31.2183 -31.1542 -31.1073
   -31.0641 -30.9690 -30.6210 -30.5821 -30.5626 -30.4792 -30.4179 -30.3514
   -19.1926 -15.9316 -15.6770 -15.5852 -15.4737 -15.3611 -15.2804 -15.2588
   -15.2095 -15.1959 -15.1441 -15.0720 -15.0382 -14.9899 -14.9770 -14.9628
   -14.9354 -14.8934 -14.8191 -14.7895 -14.7330 -14.7151 -14.6908 -14.6459
   -14.6284 -14.6059 -14.5718 -14.5549 -14.5165 -14.2851 -14.0947 -12.7707
   -12.6917  -9.1369  -7.7937  -7.0426  -5.9642  -3.8737  -3.2013  -2.9788
    -2.8916  -2.8713  -2.7649  -2.7198  -2.7130  -2.6533  -2.5606  -2.5096
    -2.4524  -2.4187  -2.3585  -2.3384  -2.3279  -2.2630  -2.2159  -2.1989
    -2.1631  -2.1236  -2.0992  -2.0801  -2.0373  -2.0018  -1.9747  -1.9516
    -1.8960  -1.8501  -1.8012  -1.7779  -1.7087  -1.6833  -1.6377  -1.5613
    -1.4937  -1.4247  -1.3700  -1.3222  -1.2851  -1.2649  -1.0952  -1.0702
    -1.0083  -0.9775  -0.8814  -0.8280  -0.7755  -0.7594  -0.6899  -0.6656
    -0.6424  -0.5943  -0.5265  -0.5023  -0.4616  -0.4411  -0.3577  -0.3480
    -0.2760  -0.2347  -0.2131  -0.1685  -0.1613  -0.0896  -0.0417  -0.0104
     0.0331   0.0468   0.0947   0.1043   0.1566   0.2010   0.2706   0.2973
     0.3506   0.3906   0.4469   0.5020   0.5327   0.6508   0.6955   0.7572
     0.8253   0.8616   0.8902   0.9877   1.0537   1.1345   1.1444   1.3147
     1.5114   1.9512   2.0218   2.2075   2.2711   3.8461   3.9957   4.0373
     4.0581   4.1561   4.2108   4.2256   4.2533   4.3180   4.3806   4.3985

          k =-0.0760-0.0000 0.0000 ( 17886 PWs)   bands (ev):

   -55.2872 -55.2482 -55.2482 -55.2142 -55.1625 -55.1609 -55.1242 -55.0967
   -55.0802 -55.0796 -55.0627 -55.0457 -54.9599 -54.7930 -54.2666 -54.2326
   -31.8598 -31.7409 -31.6599 -31.6150 -31.5955 -31.5879 -31.5829 -31.5377
   -31.5349 -31.4934 -31.4924 -31.4609 -31.4578 -31.4524 -31.4432 -31.4102
   -31.4061 -31.3948 -31.3852 -31.3769 -31.3603 -31.3552 -31.3399 -31.3285
   -31.3135 -31.3058 -31.2995 -31.2929 -31.2773 -31.2754 -31.2666 -31.2643
   -31.2586 -31.2504 -31.2093 -31.2079 -31.2006 -31.1911 -31.1520 -31.1080
   -31.0656 -30.9347 -30.6746 -30.5897 -30.5572 -30.4917 -30.4051 -30.2942
   -19.1937 -15.9569 -15.7122 -15.6253 -15.5156 -15.4002 -15.3570 -15.2733
   -15.2450 -15.1732 -15.1359 -15.0961 -15.0503 -15.0440 -15.0320 -15.0072
   -14.9938 -14.9340 -14.8944 -14.7345 -14.6867 -14.6864 -14.6748 -14.6479
   -14.5992 -14.5474 -14.5324 -14.4391 -14.4245 -14.2612 -14.0238 -12.7630
   -12.6515  -9.1328  -7.7964  -7.0335  -5.9681  -3.8941  -3.3485  -3.1050
    -2.9338  -2.8986  -2.7699  -2.7640  -2.7622  -2.7446  -2.6581  -2.6362
    -2.5820  -2.5358  -2.5199  -2.3695  -2.2664  -2.1649  -2.1252  -2.0594
    -1.9640  -1.9215  -1.9131  -1.9087  -1.8560  -1.8438  -1.7784  -1.7628
    -1.7254  -1.6753  -1.6625  -1.6444  -1.6069  -1.5869  -1.5836  -1.5669
    -1.5527  -1.4959  -1.4588  -1.4281  -1.3406  -1.2397  -1.1284  -1.0767
    -0.9765  -0.9732  -0.9188  -0.9029  -0.8982  -0.8553  -0.8120  -0.7840
    -0.7405  -0.6925  -0.6221  -0.6140  -0.6030  -0.5486  -0.5078  -0.4797
    -0.2927  -0.2710  -0.2425  -0.1988  -0.1655  -0.0518  -0.0016   0.0241
     0.0836   0.1006   0.1156   0.2273   0.2617   0.2967   0.3023   0.3410
     0.3785   0.4226   0.4312   0.4699   0.5166   0.5713   0.5928   0.6943
     0.7010   0.8379   0.8583   1.0140   1.0422   1.2149   1.2706   1.4034
     1.6764   1.7891   1.8853   2.0884   2.2405   3.8270   3.8663   3.9163
     3.9607   4.0925   4.1556   4.1916   4.2513   4.3030   4.3308   4.3521

          k =-0.0760 0.0419 0.0000 ( 17914 PWs)   bands (ev):

   -55.2825 -55.2530 -55.2433 -55.2192 -55.1608 -55.1563 -55.1289 -55.0918
   -55.0820 -55.0746 -55.0676 -55.0507 -54.9592 -54.7937 -54.2616 -54.2376
   -31.8026 -31.6870 -31.6075 -31.6000 -31.5489 -31.5433 -31.5413 -31.5365
   -31.5330 -31.5175 -31.4876 -31.4785 -31.4591 -31.4518 -31.4302 -31.4177
   -31.4127 -31.3982 -31.3821 -31.3722 -31.3685 -31.3595 -31.3282 -31.3257
   -31.3189 -31.3182 -31.3169 -31.3062 -31.3034 -31.2799 -31.2791 -31.2689
   -31.2659 -31.2635 -31.2566 -31.2453 -31.2436 -31.2183 -31.1548 -31.1073
   -31.0653 -30.9691 -30.6207 -30.5850 -30.5619 -30.4792 -30.4179 -30.3514
   -19.1923 -15.8404 -15.6072 -15.5348 -15.4412 -15.3642 -15.2889 -15.2415
   -15.2234 -15.1751 -15.0844 -15.0706 -15.0619 -15.0235 -15.0087 -14.9983
   -14.9900 -14.9689 -14.9051 -14.8000 -14.7402 -14.7147 -14.7060 -14.6584
   -14.6440 -14.5954 -14.5750 -14.5311 -14.5276 -14.2891 -14.0979 -12.7686
   -12.6921  -9.1316  -7.7982  -7.0366  -5.9687  -3.8781  -3.1829  -2.9466
    -2.7138  -2.6816  -2.6153  -2.5795  -2.5598  -2.5396  -2.4842  -2.4341
    -2.4284  -2.4074  -2.3208  -2.3186  -2.2804  -2.2348  -2.2251  -2.1619
    -2.1013  -2.0798  -2.0183  -2.0142  -1.9779  -1.9211  -1.8850  -1.8619
    -1.8476  -1.8313  -1.7984  -1.7583  -1.7447  -1.6599  -1.6060  -1.5072
    -1.4614  -1.4499  -1.4370  -1.3452  -1.2808  -1.2322  -1.0644  -1.0580
    -1.0223  -0.9558  -0.9062  -0.8852  -0.8651  -0.8400  -0.7721  -0.7144
    -0.6859  -0.6607  -0.6189  -0.5962  -0.5297  -0.5185  -0.5041  -0.4966
    -0.4728  -0.4036  -0.3836  -0.3341  -0.2882  -0.2150  -0.1739  -0.0842
    -0.0795  -0.0506  -0.0063   0.0301   0.0782   0.1628   0.1691   0.2740
     0.3001   0.3628   0.4747   0.4793   0.5355   0.5694   0.6958   0.7461
     0.8591   0.9426   0.9911   1.0010   1.1015   1.1561   1.2125   1.2389
     1.3830   1.9664   2.0240   2.1300   2.2597   3.7802   3.9843   4.0288
     4.0373   4.0614   4.1421   4.2108   4.2178   4.2884   4.3353   4.4320

          k =-0.0760-0.0839 0.0000 ( 17948 PWs)   bands (ev):

   -55.2753 -55.2602 -55.2314 -55.2312 -55.1589 -55.1490 -55.1362 -55.0839
   -55.0811 -55.0783 -55.0631 -55.0624 -54.9585 -54.7946 -54.2497 -54.2496
   -31.6691 -31.6560 -31.5817 -31.5543 -31.5542 -31.5504 -31.5235 -31.5234
   -31.4959 -31.4875 -31.4829 -31.4790 -31.4245 -31.4157 -31.4156 -31.4122
   -31.4103 -31.4060 -31.3994 -31.3839 -31.3720 -31.3615 -31.3571 -31.3507
   -31.3505 -31.3482 -31.3471 -31.3313 -31.3146 -31.3117 -31.2952 -31.2926
   -31.2878 -31.2860 -31.2859 -31.2548 -31.2433 -31.2421 -31.1679 -31.0953
   -31.0647 -31.0122 -30.5733 -30.5733 -30.4881 -30.4880 -30.4487 -30.4486
   -19.1909 -15.5932 -15.5167 -15.4601 -15.3684 -15.2931 -15.2736 -15.2631
   -15.2288 -15.1618 -15.1383 -15.0741 -15.0393 -14.9948 -14.9919 -14.9760
   -14.8919 -14.8728 -14.8576 -14.8533 -14.7926 -14.7911 -14.7642 -14.7418
   -14.7352 -14.7314 -14.6317 -14.6307 -14.4636 -14.4146 -14.1632 -12.7538
   -12.7536  -9.1305  -7.8001  -7.0399  -5.9692  -3.8627  -2.8550  -2.7684
    -2.6783  -2.5222  -2.4848  -2.4754  -2.4156  -2.3268  -2.3020  -2.2899
    -2.2690  -2.2626  -2.1888  -2.1828  -2.1398  -2.1191  -2.1076  -2.1022
    -2.0674  -2.0527  -2.0399  -2.0047  -1.9964  -1.9773  -1.9450  -1.9260
    -1.9015  -1.8729  -1.8589  -1.8307  -1.7052  -1.6748  -1.6335  -1.5683
    -1.5454  -1.4801  -1.4749  -1.3646  -1.3596  -1.3463  -1.3080  -1.2941
    -1.2492  -1.1101  -1.0654  -1.0306  -1.0202  -1.0136  -0.8573  -0.8413
    -0.7730  -0.7564  -0.7421  -0.6646  -0.6245  -0.6030  -0.5268  -0.4887
    -0.4577  -0.4373  -0.2955  -0.2808  -0.2563  -0.2440  -0.2367  -0.1443
    -0.1239  -0.0881  -0.0542  -0.0161   0.0003   0.0600   0.2152   0.2398
     0.2784   0.4221   0.4359   0.5224   0.5702   0.6963   0.7611   0.7630
     0.8436   0.9142   1.0158   1.0280   1.0502   1.1335   1.1797   1.1845
     1.1856   2.1140   2.1147   2.1981   2.1986   3.6903   3.9541   4.0760
     4.0823   4.1245   4.2483   4.3307   4.3546   4.3919   4.3940   4.4727

     the Fermi energy is     3.8688 ev

!    total energy              =   -2941.49075458 Ry
     estimated scf accuracy    <       0.00000006 Ry
     smearing contrib. (-TS)   =      -0.04229311 Ry
     internal energy E=F+TS    =   -2941.44846147 Ry

     The total energy is F=E-TS. E is the sum of the following terms:
     one-electron contribution =  -23921.77147589 Ry
     hartree contribution      =   12054.04432879 Ry
     xc contribution           =    -486.85653116 Ry
     ewald contribution        =    9413.13171402 Ry
     electric field correction =       0.00350278 Ry

     convergence has been achieved in  67 iterations

     Forces acting on atoms (cartesian axes, Ry/au):

     atom    1 type  1   force =     0.00017164   -0.00016824    0.09404924
     atom    2 type  1   force =    -0.00005771   -0.00044146   -0.17754223
     atom    3 type  2   force =     0.00006633   -0.00004541   -0.02098864
     atom    4 type  2   force =     0.00001657   -0.00180225    0.05732568
     atom    5 type  2   force =    -0.01084988   -0.00091107    0.00783196
     atom    6 type  2   force =     0.01206271   -0.00034246    0.00622858
     atom    7 type  1   force =    -0.00066198    0.00290845   -0.01528819
     atom    8 type  1   force =     0.00059380    0.00232389    0.00235619
     atom    9 type  2   force =    -0.00010380    0.00013221    0.00092126
     atom   10 type  2   force =    -0.00165627   -0.00049004   -0.00378083
     atom   11 type  2   force =    -0.00004635   -0.00024082    0.00018733
     atom   12 type  2   force =    -0.00019112   -0.00040095    0.00025327
     atom   13 type  1   force =     0.00042553    0.00108699    0.00067290
     atom   14 type  1   force =     0.00020143   -0.00061979    0.00039803
     atom   15 type  2   force =    -0.00018499    0.00029044    0.00043263
     atom   16 type  2   force =    -0.00016508   -0.00024636   -0.00123581
     atom   17 type  2   force =    -0.00003190   -0.00033506   -0.00000600
     atom   18 type  2   force =    -0.00068326   -0.00041340   -0.00004726
     atom   19 type  1   force =    -0.00062170    0.00114484   -0.00018584
     atom   20 type  1   force =    -0.00040525    0.00170577   -0.00019337
     atom   21 type  2   force =     0.00010959   -0.00004147    0.10373985
     atom   22 type  2   force =     0.00009261    0.00017769    0.00012330
     atom   23 type  2   force =    -0.07062144   -0.00017928   -0.02706341
     atom   24 type  2   force =     0.07056779    0.00029584   -0.02710286
     atom   25 type  1   force =     0.00014890   -0.00023945    0.09337165
     atom   26 type  1   force =    -0.00000517   -0.00036681   -0.17776508
     atom   27 type  2   force =     0.00010936   -0.00040244   -0.01999786
     atom   28 type  2   force =     0.00003527   -0.00146545    0.05680701
     atom   29 type  2   force =    -0.01075368   -0.00066209    0.00674478
     atom   30 type  2   force =     0.01187262   -0.00016972    0.00510171
     atom   31 type  1   force =    -0.00063407    0.00411060   -0.01559197
     atom   32 type  1   force =     0.00067367   -0.00277807    0.00213980
     atom   33 type  2   force =     0.00015951   -0.00021795   -0.00058572
     atom   34 type  2   force =    -0.00109298    0.00272041   -0.00201910
     atom   35 type  2   force =     0.00009169    0.00020249    0.00007631
     atom   36 type  2   force =    -0.00033156    0.00033977   -0.00009416
     atom   37 type  1   force =     0.00046694   -0.00009574    0.00033295
     atom   38 type  1   force =     0.00009456    0.00088761    0.00017874
     atom   39 type  2   force =    -0.00005164   -0.00102619    0.00024621
     atom   40 type  2   force =    -0.00023464   -0.00043381    0.00056891
     atom   41 type  2   force =    -0.00035792   -0.00001348   -0.00028580
     atom   42 type  2   force =     0.00024765    0.00009475    0.00005863
     atom   43 type  1   force =    -0.00002531   -0.00151483    0.00103069
     atom   44 type  1   force =     0.00000045   -0.00101090   -0.00094584
     atom   45 type  2   force =     0.00009572   -0.00008221    0.10370176
     atom   46 type  2   force =    -0.07064139   -0.00009648   -0.02707238
     atom   47 type  2   force =     0.07059443    0.00028410   -0.02711005
     atom   48 type  3   force =     0.00608729   -0.00277247    0.00411560
     atom   49 type  4   force =    -0.01687948    0.00974606   -0.00288564
     atom   50 type  5   force =     0.00237692   -0.00099789   -0.00114310
     atom   51 type  5   force =     0.00683657   -0.00554267   -0.00162947
     atom   52 type  3   force =     0.00164020   -0.00039212    0.00146664
     atom   53 type  5   force =     0.00023794   -0.00152456   -0.00060406
     atom   54 type  5   force =     0.00059852   -0.00038770    0.00110702
     atom   55 type  5   force =     0.00061239    0.00041917   -0.00040394

     Total force =     0.366409     Total SCF correction =     0.000868
  @ DRIVER MODE: Message from server: STATUS
  @ DRIVER MODE: Message from server: GETFORCE
  @ DRIVER MODE: Returning v,forces,stress,ensemble 

     Writing output data file ./calc.save/
  @ DRIVER MODE: Message from server: EXIT
  @ DRIVE MODE: Exiting  
 
     init_run     :     10.78s CPU     11.01s WALL (       1 calls)
     electrons    :   1045.44s CPU   1060.61s WALL (       1 calls)
     forces       :      2.34s CPU      2.44s WALL (       1 calls)

     Called by init_run:
     wfcinit      :      4.76s CPU      4.83s WALL (       1 calls)
     potinit      :      5.37s CPU      5.43s WALL (       1 calls)
     hinit0       :      0.30s CPU      0.32s WALL (       1 calls)

     Called by electrons:
     c_bands      :    886.66s CPU    893.01s WALL (      67 calls)
     sum_band     :    108.01s CPU    111.55s WALL (      67 calls)
     v_of_rho     :     38.37s CPU     40.20s WALL (      68 calls)
     newd         :     15.43s CPU     18.85s WALL (      68 calls)
     mix_rho      :      1.45s CPU      1.48s WALL (      67 calls)
     vdW_kernel   :      4.55s CPU      4.57s WALL (       1 calls)

     Called by c_bands:
     init_us_2    :      6.12s CPU      6.16s WALL (    1360 calls)
     cegterg      :    868.52s CPU    874.54s WALL (     686 calls)

     Called by *egterg:
     cdiaghg      :    148.56s CPU    149.24s WALL (    6869 calls)
     h_psi        :    463.46s CPU    467.67s WALL (    6879 calls)
     s_psi        :     61.18s CPU     61.37s WALL (    6879 calls)
     g_psi        :      1.65s CPU      1.66s WALL (    6183 calls)

     Called by h_psi:
     h_psi:calbec :     57.88s CPU     58.20s WALL (    6879 calls)
     vloc_psi     :    341.16s CPU    344.49s WALL (    6879 calls)
     add_vuspsi   :     61.45s CPU     61.81s WALL (    6879 calls)

     General routines
     calbec       :     76.63s CPU     77.01s WALL (    7589 calls)
     fft          :     19.66s CPU     19.82s WALL (    4284 calls)
     ffts         :      0.13s CPU      0.13s WALL (     135 calls)
     fftw         :    383.75s CPU    387.47s WALL (  906370 calls)
     interpolate  :      0.41s CPU      0.41s WALL (      68 calls)
     davcio       :      0.00s CPU      0.08s WALL (      10 calls)
 
     Parallel routines
 
     PWSCF        :  17m38.83s CPU  17m54.59s WALL

 
   This run was terminated on:   0:42:56   9Sep2021            

=------------------------------------------------------------------------------=
   JOB DONE.
=------------------------------------------------------------------------------=
