
     Program PWSCF v.6.7GPU starts on 15Jul2021 at 23:48:15 

     This program is part of the open-source Quantum ESPRESSO suite
     for quantum simulation of materials; please cite
         "P. Giannozzi et al., J. Phys.:Condens. Matter 21 395502 (2009);
         "P. Giannozzi et al., J. Phys.:Condens. Matter 29 465901 (2017);
         "P. Giannozzi et al., J. Chem. Phys. 152 154105 (2020);
          URL http://www.quantum-espresso.org", 
     in publications or presentations arising from this work. More details at
     http://www.quantum-espresso.org/quote

     Parallel version (MPI), running on    16 processors

     MPI processes distributed on     1 nodes
     R & G space division:  proc/nbgrp/npool/nimage =      16
     Reading input from /storage/home/hcoda1/3/ntian30/research/carbon/15Jul_vib/ads_slab/CH3NNHH_a/out_0011/pw.inp
Warning: card &CELL ignored
Warning: card   CELL_DYNAMICS='IPI', ignored
Warning: card / ignored

     Current dimensions of program PWSCF are:
     Max number of different atomic species (ntypx) = 10
     Max number of k-points (npk) =  40000
     Max angular momentum in pseudopotentials (lmaxx) =  3
     Presently no symmetry can be used with electric field

     Message from routine cell_base_init:
     DEPRECATED: use true lattice parameter, not A to a.u. conversion factor

     **************************************************************************
     Initializing libbeef V0.1.2 with the BEEF-vdW functional.
     Citation: Wellendorff et al., PRB 85, 235149 (2012).
     **************************************************************************


     IMPORTANT: XC functional enforced from input :
     Exchange-correlation= BEEF-VDW
                           (   1   4  43  14   2   0   0)
     Any further DFT definition will be discarded
     Please, verify this is what you really want


     Subspace diagonalization in iterative solution of the eigenvalue problem:
     one sub-group per band group will be used
     scalapack distributed-memory algorithm (size of sub-group:  4*  4 procs)

  @ DRIVER MODE: Connecting to 
 qe_1139763_2351651.sched-torque.pace.gatech.eduozzggdnp_scratch
  using UNIX socket
  @ DRIVER MODE: Message from server: STATUS
  @ DRIVER MODE: Message from server: INIT
  @ DRIVER MODE: Receiving replica           0          -1
  @ DRIVER MODE: Receiving encoded integer          25
  @ DRIVER MODE:  SCF:  T  FORCE:  T  STRESS:  F  VC:  F  ENSEMBLE:  F
  @ DRIVER MODE:  SCF:  T  FORCE:  T  STRESS:  F  VC:  F  ENSEMBLE:  F
 
     Parallelization info
     --------------------
     sticks:   dense  smooth     PW     G-vecs:    dense   smooth      PW
     Min         204      82     23                35422     8962    1367
     Max         205      84     24                35435     8968    1382
     Sum        3275    1317    379               566857   143421   21985
 
     Using Slab Decomposition
 


     bravais-lattice index     =            0
     lattice parameter (alat)  =       1.8897  a.u.
     unit-cell volume          =    6658.9804 (a.u.)^3
     number of atoms/cell      =           55
     number of atomic types    =            5
     number of electrons       =       397.00
     number of Kohn-Sham states=          208
     kinetic-energy cutoff     =      29.3995  Ry
     charge density cutoff     =     293.9946  Ry
     scf convergence threshold =      7.3E-08
     mixing beta               =       0.0500
     number of iterations used =            8  plain     mixing
     Exchange-correlation= BEEF-VDW
                           (   1   4  43  14   2   0   0)

     celldm(1)=   1.889726  celldm(2)=   0.000000  celldm(3)=   0.000000
     celldm(4)=   0.000000  celldm(5)=   0.000000  celldm(6)=   0.000000

     crystal axes: (cart. coord. in units of alat)
               a(1) = (   6.579727   0.000000   0.000000 )  
               a(2) = (  -0.000775   5.961596   0.000000 )  
               a(3) = (   0.000000   0.000000  25.155947 )  

     reciprocal axes: (cart. coord. in units 2 pi/alat)
               b(1) = (  0.151982  0.000020  0.000000 )  
               b(2) = (  0.000000  0.167740  0.000000 )  
               b(3) = (  0.000000  0.000000  0.039752 )  


     PseudoPot. # 1 for Ti read from file:
     /storage/coda1/p-amedford6/0/shared/rich_project_chbe-medford/medford-share/data/pseudos_module/espresso/nninc/pbe/van/Ti.UPF
     MD5 check sum: 8e4df49b7f0d34bbd5052bf3f5ea0213
     Pseudo is Ultrasoft, Zval = 12.0
     Generated by new atomic code, or converted to UPF format
     Using radial grid of  851 points,  6 beta functions with: 
                l(1) =   0
                l(2) =   0
                l(3) =   1
                l(4) =   1
                l(5) =   2
                l(6) =   2
     Q(r) pseudized with  8 coefficients,  rinner =    1.000   1.000   1.000
                                                       1.000   1.000

     PseudoPot. # 2 for O  read from file:
     /storage/coda1/p-amedford6/0/shared/rich_project_chbe-medford/medford-share/data/pseudos_module/espresso/nninc/pbe/van/O.UPF
     MD5 check sum: 78c19812648e8988a0fe644b0f25305e
     Pseudo is Ultrasoft, Zval =  6.0
     Generated by new atomic code, or converted to UPF format
     Using radial grid of  737 points,  4 beta functions with: 
                l(1) =   0
                l(2) =   0
                l(3) =   1
                l(4) =   1
     Q(r) pseudized with  8 coefficients,  rinner =    0.800   0.800   0.800


     PseudoPot. # 3 for N  read from file:
     /storage/coda1/p-amedford6/0/shared/rich_project_chbe-medford/medford-share/data/pseudos_module/espresso/nninc/pbe/van/N.UPF
     MD5 check sum: 90d10febe142ad51ac9d5be1deb811c4
     Pseudo is Ultrasoft, Zval =  5.0
     Generated by new atomic code, or converted to UPF format
     Using radial grid of  729 points,  4 beta functions with: 
                l(1) =   0
                l(2) =   0
                l(3) =   1
                l(4) =   1
     Q(r) pseudized with  8 coefficients,  rinner =    0.800   0.800   0.800


     PseudoPot. # 4 for C  read from file:
     /storage/coda1/p-amedford6/0/shared/rich_project_chbe-medford/medford-share/data/pseudos_module/espresso/nninc/pbe/van/C.UPF
     MD5 check sum: 1a69bf6b8db32088f5b2163dbdb77a27
     Pseudo is Ultrasoft, Zval =  4.0
     Generated by new atomic code, or converted to UPF format
     Using radial grid of  721 points,  4 beta functions with: 
                l(1) =   0
                l(2) =   0
                l(3) =   1
                l(4) =   1
     Q(r) pseudized with  8 coefficients,  rinner =    0.800   0.800   0.800


     PseudoPot. # 5 for H  read from file:
     /storage/coda1/p-amedford6/0/shared/rich_project_chbe-medford/medford-share/data/pseudos_module/espresso/nninc/pbe/van/H.UPF
     MD5 check sum: b5ee9d7bfd3a09ee7748110bda690ff7
     Pseudo is Ultrasoft, Zval =  1.0
     Generated by new atomic code, or converted to UPF format
     Using radial grid of  615 points,  1 beta functions with: 
                l(1) =   0
     Q(r) pseudized with  8 coefficients,  rinner =    0.800

     atomic species   valence    mass     pseudopotential
        Ti1           12.00    47.86700     Ti( 1.00)
        O1             6.00    15.99900     O ( 1.00)
        N1             5.00    14.00700     N ( 1.00)
        C1             4.00    12.01100     C ( 1.00)
        H1             1.00     1.00800     H ( 1.00)

     Starting magnetic structure 
     atomic species   magnetization
        Ti1          0.000
        O1           0.000
        N1           0.000
        C1           0.025
        H1           0.000

     No symmetry found



   Cartesian axes

     site n.     atom                  positions (alat units)
         1           Ti1 tau(   1) = (   0.0004258   2.9801865   6.0000000  )
         2           Ti1 tau(   2) = (   3.2906075   1.4906267   6.0002472  )
         3           O1  tau(   3) = (   0.0006271   0.0005054   7.9858123  )
         4           O1  tau(   4) = (   3.2906025   0.0005020   7.3038282  )
         5           O1  tau(   5) = (   4.5942328   1.4918067   9.2879030  )
         6           O1  tau(   6) = (   1.9868534   1.4903216   9.2879459  )
         7           Ti1 tau(   7) = (   3.2907910   2.8959150   9.1758416  )
         8           Ti1 tau(   8) = (   0.0015273   1.4827037   9.2680791  )
         9           O1  tau(   9) = (   3.3020592   5.9599881  11.3075072  )
        10           O1  tau(  10) = (   0.0116148   5.9584955  10.6183126  )
        11           O1  tau(  11) = (   1.3218652   1.4872367  12.6142461  )
        12           O1  tau(  12) = (   5.3149618   1.4866655  12.6283206  )
        13           Ti1 tau(  13) = (   6.5343381   3.0098038  12.6530281  )
        14           Ti1 tau(  14) = (   3.2132235   1.4912063  12.4551521  )
        15           O1  tau(  15) = (   0.0515422   5.9562953  14.6829507  )
        16           O1  tau(  16) = (   3.3088797   0.0214154  13.8770011  )
        17           O1  tau(  17) = (   4.5726725   1.5412406  16.1224456  )
        18           O1  tau(  18) = (   2.0900022   1.5114086  15.9969863  )
        19           Ti1 tau(  19) = (   3.3311046   3.0200058  15.6476981  )
        20           Ti1 tau(  20) = (   0.0790784   1.4105808  15.8036947  )
        21           O1  tau(  21) = (   3.2904802   0.0005063   4.7018136  )
        22           O1  tau(  22) = (   0.0613336   0.0214447  17.2555488  )
        23           O1  tau(  23) = (   1.3043587   1.4918075   6.0039043  )
        24           O1  tau(  24) = (   5.2767064   1.4903225   6.0039473  )
        25           Ti1 tau(  25) = (   0.0000382   5.9609847   6.0000000  )
        26           Ti1 tau(  26) = (   3.2902200   4.4714249   6.0002472  )
        27           O1  tau(  27) = (   0.0002396   2.9813036   7.9858123  )
        28           O1  tau(  28) = (   3.2902150   2.9813002   7.3038282  )
        29           O1  tau(  29) = (   4.5938453   4.4726049   9.2879030  )
        30           O1  tau(  30) = (   1.9864658   4.4711199   9.2879459  )
        31           Ti1 tau(  31) = (   3.2891106   5.8743827   9.1763621  )
        32           Ti1 tau(  32) = (   0.0006254   4.4649316   9.2693709  )
        33           O1  tau(  33) = (   3.3026341   2.9893090  11.3092672  )
        34           O1  tau(  34) = (   0.0092240   2.9805883  10.6323155  )
        35           O1  tau(  35) = (   1.3182942   4.4670451  12.6271195  )
        36           O1  tau(  36) = (   5.3124783   4.4780259  12.6376329  )
        37           Ti1 tau(  37) = (   6.5365500   0.0194685  12.5464133  )
        38           Ti1 tau(  38) = (   3.2155898   4.4753301  12.4613306  )
        39           O1  tau(  39) = (   0.0167368   2.9407051  14.7244952  )
        40           O1  tau(  40) = (   3.3149560   2.9822459  13.8616979  )
        41           O1  tau(  41) = (   4.5706274   4.5128733  15.9228735  )
        42           O1  tau(  42) = (   2.1262058   4.4922812  16.0793225  )
        43           Ti1 tau(  43) = (   3.3222298   0.0210159  15.6751784  )
        44           Ti1 tau(  44) = (   6.5499002   4.5104744  16.2959303  )
        45           O1  tau(  45) = (   3.2900926   2.9813045   4.7018136  )
        46           O1  tau(  46) = (   1.3039711   4.4726057   6.0039043  )
        47           O1  tau(  47) = (   5.2763189   4.4711207   6.0039473  )
        48           N1  tau(  48) = (   0.3735289   2.9861087  17.6038306  )
        49           C1  tau(  49) = (   1.3580301   2.7301661  18.6331808  )
        50           H1  tau(  50) = (   1.5128655   3.6233449  19.2641712  )
        51           H1  tau(  51) = (   1.0354786   1.8978442  19.2795547  )
        52           H1  tau(  52) = (   2.3065860   2.4473273  18.1987077  )
        53           N1  tau(  53) = (   5.7326324   3.4596218  18.1373629  )
        54           H1  tau(  54) = (   5.8436824   4.0267099  18.9748678  )
        55           H1  tau(  55) = (   5.0375616   2.7244768  18.2555579  )

     number of k points=    10  Fermi-Dirac smearing, width (Ry)=  0.0073
                       cart. coord. in units 2pi/alat
        k(    1) = (   0.0000000   0.0000000   0.0000000), wk =   0.0625000
        k(    2) = (   0.0000000   0.0419351   0.0000000), wk =   0.1250000
        k(    3) = (   0.0000000  -0.0838702   0.0000000), wk =   0.0625000
        k(    4) = (   0.0379955   0.0000049   0.0000000), wk =   0.1250000
        k(    5) = (   0.0379955   0.0419400   0.0000000), wk =   0.1250000
        k(    6) = (   0.0379955  -0.0838652   0.0000000), wk =   0.1250000
        k(    7) = (   0.0379955  -0.0419301   0.0000000), wk =   0.1250000
        k(    8) = (  -0.0759910  -0.0000099   0.0000000), wk =   0.0625000
        k(    9) = (  -0.0759910   0.0419252   0.0000000), wk =   0.1250000
        k(   10) = (  -0.0759910  -0.0838800   0.0000000), wk =   0.0625000

     Dense  grid:   566857 G-vectors     FFT dimensions: (  72,  64, 270)

     Smooth grid:   143421 G-vectors     FFT dimensions: (  45,  40, 180)

     Estimated max dynamical RAM per process >     279.78 MB

     Estimated total dynamical RAM >       4.37 GB
     Generating pointlists ...
     new r_m :   0.7260 (alat units)  1.3719 (a.u.) for type    1
     new r_m :   0.7260 (alat units)  1.3719 (a.u.) for type    2
     new r_m :   0.4197 (alat units)  0.7932 (a.u.) for type    3
     new r_m :   0.4459 (alat units)  0.8426 (a.u.) for type    4
     new r_m :   0.4197 (alat units)  0.7932 (a.u.) for type    5
     Cannot read rho : file not found

     Initial potential from superposition of free atoms

     starting charge  380.99914, renormalised to  397.00000

     negative rho (up, down):  8.321E-03 8.324E-03


     %%%%%%%%%%%%%%%%%%%%%%%%%%%%%%%%%%%%%%%%%%%%%%%%%%%%%%%%%%%%%%%%%%%%%%%%
     %                                                                      %
     % You are using vdW-DF, which was implemented by the Thonhauser group. %
     % Please cite the following two papers that made this development      %
     % possible and the two reviews that describe the various versions:     %
     %                                                                      %
     %   T. Thonhauser et al., PRL 115, 136402 (2015).                      %
     %   T. Thonhauser et al., PRB 76, 125112 (2007).                       %
     %   K. Berland et al., Rep. Prog. Phys. 78, 066501 (2015).             %
     %   D.C. Langreth et al., J. Phys.: Condens. Matter 21, 084203 (2009). %
     %                                                                      %
     %                                                                      %
     % If you are calculating the stress with vdW-DF, please also cite:     %
     %                                                                      %
     %   R. Sabatini et al., J. Phys.: Condens. Matter 24, 424209 (2012).   %
     %                                                                      %
     %%%%%%%%%%%%%%%%%%%%%%%%%%%%%%%%%%%%%%%%%%%%%%%%%%%%%%%%%%%%%%%%%%%%%%%%


 
     Adding external electric field

     Computed dipole along edir(3) : 
        Dipole               -9.2550 Ry au,        -23.5239 Debye
        Dipole field         -0.0175 Ry au, 
 
        Potential amp.        1.6190 Ry
        Total length         46.3494 bohr
 
 
     Adding external electric field

     Computed dipole along edir(3) : 
        Dipole               -9.2550 Ry au,        -23.5239 Debye
        Dipole field         -0.0175 Ry au, 
 
        Potential amp.        1.6190 Ry
        Total length         46.3494 bohr
 
     Starting wfcs are  301 atomic wfcs
  @ DRIVER MODE: Message from server: STATUS
  @ DRIVER MODE: Message from server: POSDATA
  @ DRIVER MODE: Reading and sharing cell 
  @ DRIVER MODE: Reading and sharing positions 
  @ DRIVER MODE: Received positions 

     total cpu time spent up to now is       12.5 secs

     Self-consistent Calculation

     iteration #  1     ecut=    29.40 Ry     beta= 0.05
     Davidson diagonalization with overlap
     c_bands:  1 eigenvalues not converged
     c_bands:  2 eigenvalues not converged
     c_bands:  1 eigenvalues not converged
     c_bands:  2 eigenvalues not converged
     c_bands:  2 eigenvalues not converged
     c_bands:  2 eigenvalues not converged
     c_bands:  2 eigenvalues not converged
     c_bands:  1 eigenvalues not converged
     c_bands:  4 eigenvalues not converged
     c_bands:  1 eigenvalues not converged
     c_bands:  2 eigenvalues not converged
     c_bands:  1 eigenvalues not converged
     c_bands:  2 eigenvalues not converged
     c_bands:  2 eigenvalues not converged
     c_bands:  2 eigenvalues not converged
     c_bands:  2 eigenvalues not converged
     c_bands:  1 eigenvalues not converged
     c_bands:  4 eigenvalues not converged
     ethr =  1.00E-05,  avg # of iterations = 19.8

     negative rho (up, down):  6.412E-03 6.416E-03
 
     Adding external electric field

     Computed dipole along edir(3) : 
        Dipole               43.4197 Ry au,        110.3618 Debye
        Dipole field          0.0819 Ry au, 
 
        Potential amp.       -7.5956 Ry
        Total length         46.3494 bohr
 
 
     Adding external electric field

     Computed dipole along edir(3) : 
        Dipole               43.4197 Ry au,        110.3618 Debye
        Dipole field          0.0819 Ry au, 
 
        Potential amp.       -7.5956 Ry
        Total length         46.3494 bohr
 

     total cpu time spent up to now is       96.5 secs

     total energy              =   -2525.31886780 Ry
     estimated scf accuracy    <    4615.91768906 Ry

     total magnetization       =     0.00 Bohr mag/cell
     absolute magnetization    =     0.02 Bohr mag/cell

     iteration #  2     ecut=    29.40 Ry     beta= 0.05
     Davidson diagonalization with overlap
     ethr =  1.00E-02,  avg # of iterations = 23.4

     negative rho (up, down):  1.851E-03 1.853E-03
 
     Adding external electric field

     Computed dipole along edir(3) : 
        Dipole               -1.7774 Ry au,         -4.5178 Debye
        Dipole field         -0.0034 Ry au, 
 
        Potential amp.        0.3109 Ry
        Total length         46.3494 bohr
 
 
     Adding external electric field

     Computed dipole along edir(3) : 
        Dipole               -1.7774 Ry au,         -4.5178 Debye
        Dipole field         -0.0034 Ry au, 
 
        Potential amp.        0.3109 Ry
        Total length         46.3494 bohr
 

     total cpu time spent up to now is      208.0 secs

     total energy              =   -2478.29841819 Ry
     estimated scf accuracy    <   65059.48937937 Ry

     total magnetization       =     0.51 Bohr mag/cell
     absolute magnetization    =     0.71 Bohr mag/cell

     iteration #  3     ecut=    29.40 Ry     beta= 0.05
     Davidson diagonalization with overlap
     ethr =  1.00E-02,  avg # of iterations = 13.7

     negative rho (up, down):  1.886E-03 1.888E-03
 
     Adding external electric field

     Computed dipole along edir(3) : 
        Dipole               -4.0997 Ry au,        -10.4205 Debye
        Dipole field         -0.0077 Ry au, 
 
        Potential amp.        0.7172 Ry
        Total length         46.3494 bohr
 
 
     Adding external electric field

     Computed dipole along edir(3) : 
        Dipole               -4.0997 Ry au,        -10.4205 Debye
        Dipole field         -0.0077 Ry au, 
 
        Potential amp.        0.7172 Ry
        Total length         46.3494 bohr
 

     total cpu time spent up to now is      283.0 secs

     total energy              =   -2924.69663640 Ry
     estimated scf accuracy    <    4368.85327307 Ry

     total magnetization       =     0.46 Bohr mag/cell
     absolute magnetization    =     0.70 Bohr mag/cell

     iteration #  4     ecut=    29.40 Ry     beta= 0.05
     Davidson diagonalization with overlap
     c_bands:  3 eigenvalues not converged
     c_bands:  3 eigenvalues not converged
     ethr =  1.00E-02,  avg # of iterations = 13.9

     negative rho (up, down):  1.907E-03 1.909E-03
 
     Adding external electric field

     Computed dipole along edir(3) : 
        Dipole               -5.5765 Ry au,        -14.1740 Debye
        Dipole field         -0.0105 Ry au, 
 
        Potential amp.        0.9755 Ry
        Total length         46.3494 bohr
 
 
     Adding external electric field

     Computed dipole along edir(3) : 
        Dipole               -5.5765 Ry au,        -14.1740 Debye
        Dipole field         -0.0105 Ry au, 
 
        Potential amp.        0.9755 Ry
        Total length         46.3494 bohr
 

     total cpu time spent up to now is      316.1 secs

     total energy              =   -2929.02004412 Ry
     estimated scf accuracy    <    1447.91863019 Ry

     total magnetization       =     2.13 Bohr mag/cell
     absolute magnetization    =     2.20 Bohr mag/cell

     iteration #  5     ecut=    29.40 Ry     beta= 0.05
     Davidson diagonalization with overlap
     c_bands:  1 eigenvalues not converged
     c_bands:  5 eigenvalues not converged
     c_bands:  2 eigenvalues not converged
     ethr =  1.00E-02,  avg # of iterations = 11.5

     negative rho (up, down):  1.933E-03 1.928E-03
 
     Adding external electric field

     Computed dipole along edir(3) : 
        Dipole               -5.8365 Ry au,        -14.8349 Debye
        Dipole field         -0.0110 Ry au, 
 
        Potential amp.        1.0210 Ry
        Total length         46.3494 bohr
 
 
     Adding external electric field

     Computed dipole along edir(3) : 
        Dipole               -5.8365 Ry au,        -14.8349 Debye
        Dipole field         -0.0110 Ry au, 
 
        Potential amp.        1.0210 Ry
        Total length         46.3494 bohr
 

     total cpu time spent up to now is      339.7 secs

     total energy              =   -2936.37767247 Ry
     estimated scf accuracy    <     321.54720273 Ry

     total magnetization       =    -2.18 Bohr mag/cell
     absolute magnetization    =     2.33 Bohr mag/cell

     iteration #  6     ecut=    29.40 Ry     beta= 0.05
     Davidson diagonalization with overlap
     ethr =  1.00E-02,  avg # of iterations =  2.9

     negative rho (up, down):  1.951E-03 1.943E-03
 
     Adding external electric field

     Computed dipole along edir(3) : 
        Dipole               -6.0253 Ry au,        -15.3147 Debye
        Dipole field         -0.0114 Ry au, 
 
        Potential amp.        1.0540 Ry
        Total length         46.3494 bohr
 
 
     Adding external electric field

     Computed dipole along edir(3) : 
        Dipole               -6.0253 Ry au,        -15.3147 Debye
        Dipole field         -0.0114 Ry au, 
 
        Potential amp.        1.0540 Ry
        Total length         46.3494 bohr
 

     total cpu time spent up to now is      357.5 secs

     total energy              =   -2935.85268400 Ry
     estimated scf accuracy    <     251.74103485 Ry

     total magnetization       =    -1.29 Bohr mag/cell
     absolute magnetization    =     2.82 Bohr mag/cell

     iteration #  7     ecut=    29.40 Ry     beta= 0.05
     Davidson diagonalization with overlap
     ethr =  1.00E-02,  avg # of iterations =  3.1

     negative rho (up, down):  1.986E-03 1.964E-03
 
     Adding external electric field

     Computed dipole along edir(3) : 
        Dipole               -5.7414 Ry au,        -14.5933 Debye
        Dipole field         -0.0108 Ry au, 
 
        Potential amp.        1.0044 Ry
        Total length         46.3494 bohr
 
 
     Adding external electric field

     Computed dipole along edir(3) : 
        Dipole               -5.7414 Ry au,        -14.5933 Debye
        Dipole field         -0.0108 Ry au, 
 
        Potential amp.        1.0044 Ry
        Total length         46.3494 bohr
 

     total cpu time spent up to now is      378.2 secs

     total energy              =   -2937.77711303 Ry
     estimated scf accuracy    <     135.69482923 Ry

     total magnetization       =    -4.61 Bohr mag/cell
     absolute magnetization    =     5.83 Bohr mag/cell

     iteration #  8     ecut=    29.40 Ry     beta= 0.05
     Davidson diagonalization with overlap
     ethr =  1.00E-02,  avg # of iterations =  4.0

     negative rho (up, down):  2.021E-03 1.963E-03
 
     Adding external electric field

     Computed dipole along edir(3) : 
        Dipole               -4.4058 Ry au,        -11.1983 Debye
        Dipole field         -0.0083 Ry au, 
 
        Potential amp.        0.7707 Ry
        Total length         46.3494 bohr
 
 
     Adding external electric field

     Computed dipole along edir(3) : 
        Dipole               -4.4058 Ry au,        -11.1983 Debye
        Dipole field         -0.0083 Ry au, 
 
        Potential amp.        0.7707 Ry
        Total length         46.3494 bohr
 

     total cpu time spent up to now is      394.6 secs

     total energy              =   -2941.38618750 Ry
     estimated scf accuracy    <      28.92965586 Ry

     total magnetization       =    -4.44 Bohr mag/cell
     absolute magnetization    =     5.09 Bohr mag/cell

     iteration #  9     ecut=    29.40 Ry     beta= 0.05
     Davidson diagonalization with overlap
     ethr =  7.29E-03,  avg # of iterations =  1.6

     negative rho (up, down):  2.156E-03 2.079E-03
 
     Adding external electric field

     Computed dipole along edir(3) : 
        Dipole               -2.8832 Ry au,         -7.3284 Debye
        Dipole field         -0.0054 Ry au, 
 
        Potential amp.        0.5044 Ry
        Total length         46.3494 bohr
 
 
     Adding external electric field

     Computed dipole along edir(3) : 
        Dipole               -2.8832 Ry au,         -7.3284 Debye
        Dipole field         -0.0054 Ry au, 
 
        Potential amp.        0.5044 Ry
        Total length         46.3494 bohr
 

     total cpu time spent up to now is      408.6 secs

     total energy              =   -2940.79101799 Ry
     estimated scf accuracy    <      27.68650350 Ry

     total magnetization       =    -3.60 Bohr mag/cell
     absolute magnetization    =     4.71 Bohr mag/cell

     iteration # 10     ecut=    29.40 Ry     beta= 0.05
     Davidson diagonalization with overlap
     ethr =  6.97E-03,  avg # of iterations =  1.6

     negative rho (up, down):  2.460E-03 2.352E-03
 
     Adding external electric field

     Computed dipole along edir(3) : 
        Dipole               -0.9760 Ry au,         -2.4808 Debye
        Dipole field         -0.0018 Ry au, 
 
        Potential amp.        0.1707 Ry
        Total length         46.3494 bohr
 
 
     Adding external electric field

     Computed dipole along edir(3) : 
        Dipole               -0.9760 Ry au,         -2.4808 Debye
        Dipole field         -0.0018 Ry au, 
 
        Potential amp.        0.1707 Ry
        Total length         46.3494 bohr
 

     total cpu time spent up to now is      422.8 secs

     total energy              =   -2940.93757661 Ry
     estimated scf accuracy    <      30.28714937 Ry

     total magnetization       =    -3.56 Bohr mag/cell
     absolute magnetization    =     4.90 Bohr mag/cell

     iteration # 11     ecut=    29.40 Ry     beta= 0.05
     Davidson diagonalization with overlap
     ethr =  6.97E-03,  avg # of iterations =  3.9

     negative rho (up, down):  2.391E-03 2.260E-03
 
     Adding external electric field

     Computed dipole along edir(3) : 
        Dipole               -1.8702 Ry au,         -4.7535 Debye
        Dipole field         -0.0035 Ry au, 
 
        Potential amp.        0.3272 Ry
        Total length         46.3494 bohr
 
 
     Adding external electric field

     Computed dipole along edir(3) : 
        Dipole               -1.8702 Ry au,         -4.7535 Debye
        Dipole field         -0.0035 Ry au, 
 
        Potential amp.        0.3272 Ry
        Total length         46.3494 bohr
 

     total cpu time spent up to now is      438.9 secs

     total energy              =   -2940.00389431 Ry
     estimated scf accuracy    <     192.45768153 Ry

     total magnetization       =    -1.87 Bohr mag/cell
     absolute magnetization    =     4.69 Bohr mag/cell

     iteration # 12     ecut=    29.40 Ry     beta= 0.05
     Davidson diagonalization with overlap
     ethr =  6.97E-03,  avg # of iterations =  1.8

     negative rho (up, down):  2.335E-03 2.211E-03
 
     Adding external electric field

     Computed dipole along edir(3) : 
        Dipole               -3.4050 Ry au,         -8.6547 Debye
        Dipole field         -0.0064 Ry au, 
 
        Potential amp.        0.5957 Ry
        Total length         46.3494 bohr
 
 
     Adding external electric field

     Computed dipole along edir(3) : 
        Dipole               -3.4050 Ry au,         -8.6547 Debye
        Dipole field         -0.0064 Ry au, 
 
        Potential amp.        0.5957 Ry
        Total length         46.3494 bohr
 

     total cpu time spent up to now is      453.3 secs

     total energy              =   -2939.47166665 Ry
     estimated scf accuracy    <      26.68466833 Ry

     total magnetization       =    -3.37 Bohr mag/cell
     absolute magnetization    =     5.57 Bohr mag/cell

     iteration # 13     ecut=    29.40 Ry     beta= 0.05
     Davidson diagonalization with overlap
     ethr =  6.72E-03,  avg # of iterations =  4.8

     negative rho (up, down):  2.325E-03 2.205E-03
 
     Adding external electric field

     Computed dipole along edir(3) : 
        Dipole               -3.1990 Ry au,         -8.1311 Debye
        Dipole field         -0.0060 Ry au, 
 
        Potential amp.        0.5596 Ry
        Total length         46.3494 bohr
 
 
     Adding external electric field

     Computed dipole along edir(3) : 
        Dipole               -3.1990 Ry au,         -8.1311 Debye
        Dipole field         -0.0060 Ry au, 
 
        Potential amp.        0.5596 Ry
        Total length         46.3494 bohr
 

     total cpu time spent up to now is      470.0 secs

     total energy              =   -2941.75129968 Ry
     estimated scf accuracy    <       2.28227988 Ry

     total magnetization       =     0.16 Bohr mag/cell
     absolute magnetization    =     1.60 Bohr mag/cell

     iteration # 14     ecut=    29.40 Ry     beta= 0.05
     Davidson diagonalization with overlap
     c_bands:  1 eigenvalues not converged
     c_bands:  1 eigenvalues not converged
     c_bands:  1 eigenvalues not converged
     c_bands:  2 eigenvalues not converged
     c_bands:  1 eigenvalues not converged
     c_bands:  1 eigenvalues not converged
     c_bands:  2 eigenvalues not converged
     c_bands:  2 eigenvalues not converged
     c_bands:  1 eigenvalues not converged
     ethr =  5.75E-04,  avg # of iterations = 16.9

     negative rho (up, down):  2.320E-03 2.204E-03
 
     Adding external electric field

     Computed dipole along edir(3) : 
        Dipole               -3.4867 Ry au,         -8.8622 Debye
        Dipole field         -0.0066 Ry au, 
 
        Potential amp.        0.6099 Ry
        Total length         46.3494 bohr
 
 
     Adding external electric field

     Computed dipole along edir(3) : 
        Dipole               -3.4867 Ry au,         -8.8622 Debye
        Dipole field         -0.0066 Ry au, 
 
        Potential amp.        0.6099 Ry
        Total length         46.3494 bohr
 

     total cpu time spent up to now is      498.9 secs

     total energy              =   -2942.30537531 Ry
     estimated scf accuracy    <      15.44534481 Ry

     total magnetization       =     0.29 Bohr mag/cell
     absolute magnetization    =     1.34 Bohr mag/cell

     iteration # 15     ecut=    29.40 Ry     beta= 0.05
     Davidson diagonalization with overlap
     ethr =  5.75E-04,  avg # of iterations =  6.1

     negative rho (up, down):  2.321E-03 2.201E-03
 
     Adding external electric field

     Computed dipole along edir(3) : 
        Dipole               -3.4202 Ry au,         -8.6933 Debye
        Dipole field         -0.0065 Ry au, 
 
        Potential amp.        0.5983 Ry
        Total length         46.3494 bohr
 
 
     Adding external electric field

     Computed dipole along edir(3) : 
        Dipole               -3.4202 Ry au,         -8.6933 Debye
        Dipole field         -0.0065 Ry au, 
 
        Potential amp.        0.5983 Ry
        Total length         46.3494 bohr
 

     total cpu time spent up to now is      516.4 secs

     total energy              =   -2942.32608590 Ry
     estimated scf accuracy    <      30.31999262 Ry

     total magnetization       =     0.15 Bohr mag/cell
     absolute magnetization    =     1.15 Bohr mag/cell

     iteration # 16     ecut=    29.40 Ry     beta= 0.05
     Davidson diagonalization with overlap
     ethr =  5.75E-04,  avg # of iterations =  1.9

     negative rho (up, down):  2.316E-03 2.203E-03
 
     Adding external electric field

     Computed dipole along edir(3) : 
        Dipole               -3.5392 Ry au,         -8.9957 Debye
        Dipole field         -0.0067 Ry au, 
 
        Potential amp.        0.6191 Ry
        Total length         46.3494 bohr
 
 
     Adding external electric field

     Computed dipole along edir(3) : 
        Dipole               -3.5392 Ry au,         -8.9957 Debye
        Dipole field         -0.0067 Ry au, 
 
        Potential amp.        0.6191 Ry
        Total length         46.3494 bohr
 

     total cpu time spent up to now is      532.4 secs

     total energy              =   -2942.36082183 Ry
     estimated scf accuracy    <      27.45723383 Ry

     total magnetization       =     0.11 Bohr mag/cell
     absolute magnetization    =     1.09 Bohr mag/cell

     iteration # 17     ecut=    29.40 Ry     beta= 0.05
     Davidson diagonalization with overlap
     c_bands:  3 eigenvalues not converged
     ethr =  5.75E-04,  avg # of iterations =  4.2

     negative rho (up, down):  2.328E-03 2.213E-03
 
     Adding external electric field

     Computed dipole along edir(3) : 
        Dipole               -3.5067 Ry au,         -8.9130 Debye
        Dipole field         -0.0066 Ry au, 
 
        Potential amp.        0.6134 Ry
        Total length         46.3494 bohr
 
 
     Adding external electric field

     Computed dipole along edir(3) : 
        Dipole               -3.5067 Ry au,         -8.9130 Debye
        Dipole field         -0.0066 Ry au, 
 
        Potential amp.        0.6134 Ry
        Total length         46.3494 bohr
 

     total cpu time spent up to now is      548.9 secs

     total energy              =   -2942.38977788 Ry
     estimated scf accuracy    <      32.29621066 Ry

     total magnetization       =    -0.43 Bohr mag/cell
     absolute magnetization    =     0.85 Bohr mag/cell

     iteration # 18     ecut=    29.40 Ry     beta= 0.05
     Davidson diagonalization with overlap
     ethr =  5.75E-04,  avg # of iterations =  1.1

     negative rho (up, down):  2.451E-03 2.319E-03
 
     Adding external electric field

     Computed dipole along edir(3) : 
        Dipole               -2.0801 Ry au,         -5.2871 Debye
        Dipole field         -0.0039 Ry au, 
 
        Potential amp.        0.3639 Ry
        Total length         46.3494 bohr
 
 
     Adding external electric field

     Computed dipole along edir(3) : 
        Dipole               -2.0801 Ry au,         -5.2871 Debye
        Dipole field         -0.0039 Ry au, 
 
        Potential amp.        0.3639 Ry
        Total length         46.3494 bohr
 

     total cpu time spent up to now is      563.6 secs

     total energy              =   -2941.43191630 Ry
     estimated scf accuracy    <      32.99720430 Ry

     total magnetization       =    -0.43 Bohr mag/cell
     absolute magnetization    =     0.82 Bohr mag/cell

     iteration # 19     ecut=    29.40 Ry     beta= 0.05
     Davidson diagonalization with overlap
     ethr =  5.75E-04,  avg # of iterations =  3.0

     negative rho (up, down):  2.669E-03 2.508E-03
 
     Adding external electric field

     Computed dipole along edir(3) : 
        Dipole               -0.3888 Ry au,         -0.9883 Debye
        Dipole field         -0.0007 Ry au, 
 
        Potential amp.        0.0680 Ry
        Total length         46.3494 bohr
 
 
     Adding external electric field

     Computed dipole along edir(3) : 
        Dipole               -0.3888 Ry au,         -0.9883 Debye
        Dipole field         -0.0007 Ry au, 
 
        Potential amp.        0.0680 Ry
        Total length         46.3494 bohr
 

     total cpu time spent up to now is      578.9 secs

     total energy              =   -2941.63163700 Ry
     estimated scf accuracy    <       2.37657685 Ry

     total magnetization       =    -0.15 Bohr mag/cell
     absolute magnetization    =     0.75 Bohr mag/cell

     iteration # 20     ecut=    29.40 Ry     beta= 0.05
     Davidson diagonalization with overlap
     c_bands:  2 eigenvalues not converged
     c_bands:  2 eigenvalues not converged
     c_bands:  1 eigenvalues not converged
     c_bands:  1 eigenvalues not converged
     c_bands:  2 eigenvalues not converged
     c_bands:  1 eigenvalues not converged
     ethr =  5.75E-04,  avg # of iterations = 17.3

     negative rho (up, down):  2.628E-03 2.487E-03
 
     Adding external electric field

     Computed dipole along edir(3) : 
        Dipole               -0.4829 Ry au,         -1.2275 Debye
        Dipole field         -0.0009 Ry au, 
 
        Potential amp.        0.0845 Ry
        Total length         46.3494 bohr
 
 
     Adding external electric field

     Computed dipole along edir(3) : 
        Dipole               -0.4829 Ry au,         -1.2275 Debye
        Dipole field         -0.0009 Ry au, 
 
        Potential amp.        0.0845 Ry
        Total length         46.3494 bohr
 

     total cpu time spent up to now is      620.9 secs

     total energy              =   -2941.82889481 Ry
     estimated scf accuracy    <       1.71076873 Ry

     total magnetization       =    -0.02 Bohr mag/cell
     absolute magnetization    =     0.84 Bohr mag/cell

     iteration # 21     ecut=    29.40 Ry     beta= 0.05
     Davidson diagonalization with overlap
     ethr =  4.31E-04,  avg # of iterations =  2.5

     negative rho (up, down):  2.646E-03 2.588E-03
 
     Adding external electric field

     Computed dipole along edir(3) : 
        Dipole               -0.0739 Ry au,         -0.1879 Debye
        Dipole field         -0.0001 Ry au, 
 
        Potential amp.        0.0129 Ry
        Total length         46.3494 bohr
 
 
     Adding external electric field

     Computed dipole along edir(3) : 
        Dipole               -0.0739 Ry au,         -0.1879 Debye
        Dipole field         -0.0001 Ry au, 
 
        Potential amp.        0.0129 Ry
        Total length         46.3494 bohr
 

     total cpu time spent up to now is      635.6 secs

     total energy              =   -2941.55078448 Ry
     estimated scf accuracy    <       1.47581429 Ry

     total magnetization       =    -0.03 Bohr mag/cell
     absolute magnetization    =     0.86 Bohr mag/cell

     iteration # 22     ecut=    29.40 Ry     beta= 0.05
     Davidson diagonalization with overlap
     c_bands:  1 eigenvalues not converged
     c_bands:  1 eigenvalues not converged
     c_bands:  2 eigenvalues not converged
     c_bands:  5 eigenvalues not converged
     c_bands:  4 eigenvalues not converged
     c_bands:  4 eigenvalues not converged
     c_bands:  3 eigenvalues not converged
     ethr =  3.72E-04,  avg # of iterations = 19.5

     negative rho (up, down):  2.530E-03 2.430E-03
 
     Adding external electric field

     Computed dipole along edir(3) : 
        Dipole               -1.4344 Ry au,         -3.6458 Debye
        Dipole field         -0.0027 Ry au, 
 
        Potential amp.        0.2509 Ry
        Total length         46.3494 bohr
 
 
     Adding external electric field

     Computed dipole along edir(3) : 
        Dipole               -1.4344 Ry au,         -3.6458 Debye
        Dipole field         -0.0027 Ry au, 
 
        Potential amp.        0.2509 Ry
        Total length         46.3494 bohr
 

     total cpu time spent up to now is      669.4 secs

     total energy              =   -2939.61891259 Ry
     estimated scf accuracy    <      50.26178489 Ry

     total magnetization       =    -1.11 Bohr mag/cell
     absolute magnetization    =     2.38 Bohr mag/cell

     iteration # 23     ecut=    29.40 Ry     beta= 0.05
     Davidson diagonalization with overlap
     c_bands:  1 eigenvalues not converged
     c_bands:  1 eigenvalues not converged
     c_bands:  1 eigenvalues not converged
     c_bands:  1 eigenvalues not converged
     c_bands:  1 eigenvalues not converged
     c_bands:  1 eigenvalues not converged
     ethr =  3.72E-04,  avg # of iterations = 16.4

     negative rho (up, down):  2.647E-03 2.581E-03
 
     Adding external electric field

     Computed dipole along edir(3) : 
        Dipole               -0.7401 Ry au,         -1.8811 Debye
        Dipole field         -0.0014 Ry au, 
 
        Potential amp.        0.1295 Ry
        Total length         46.3494 bohr
 
 
     Adding external electric field

     Computed dipole along edir(3) : 
        Dipole               -0.7401 Ry au,         -1.8811 Debye
        Dipole field         -0.0014 Ry au, 
 
        Potential amp.        0.1295 Ry
        Total length         46.3494 bohr
 

     total cpu time spent up to now is      701.5 secs

     total energy              =   -2941.65609313 Ry
     estimated scf accuracy    <       1.01532724 Ry

     total magnetization       =    -0.18 Bohr mag/cell
     absolute magnetization    =     0.73 Bohr mag/cell

     iteration # 24     ecut=    29.40 Ry     beta= 0.05
     Davidson diagonalization with overlap
     ethr =  2.56E-04,  avg # of iterations =  2.8

     negative rho (up, down):  2.715E-03 2.692E-03
 
     Adding external electric field

     Computed dipole along edir(3) : 
        Dipole               -0.7539 Ry au,         -1.9162 Debye
        Dipole field         -0.0014 Ry au, 
 
        Potential amp.        0.1319 Ry
        Total length         46.3494 bohr
 
 
     Adding external electric field

     Computed dipole along edir(3) : 
        Dipole               -0.7539 Ry au,         -1.9162 Debye
        Dipole field         -0.0014 Ry au, 
 
        Potential amp.        0.1319 Ry
        Total length         46.3494 bohr
 

     total cpu time spent up to now is      717.1 secs

     total energy              =   -2941.64300193 Ry
     estimated scf accuracy    <       0.51176419 Ry

     total magnetization       =    -0.09 Bohr mag/cell
     absolute magnetization    =     0.68 Bohr mag/cell

     iteration # 25     ecut=    29.40 Ry     beta= 0.05
     Davidson diagonalization with overlap
     ethr =  1.29E-04,  avg # of iterations =  3.4

     negative rho (up, down):  2.823E-03 2.813E-03
 
     Adding external electric field

     Computed dipole along edir(3) : 
        Dipole               -0.4123 Ry au,         -1.0478 Debye
        Dipole field         -0.0008 Ry au, 
 
        Potential amp.        0.0721 Ry
        Total length         46.3494 bohr
 
 
     Adding external electric field

     Computed dipole along edir(3) : 
        Dipole               -0.4123 Ry au,         -1.0478 Debye
        Dipole field         -0.0008 Ry au, 
 
        Potential amp.        0.0721 Ry
        Total length         46.3494 bohr
 

     total cpu time spent up to now is      732.7 secs

     total energy              =   -2941.63294298 Ry
     estimated scf accuracy    <       0.68176828 Ry

     total magnetization       =    -0.19 Bohr mag/cell
     absolute magnetization    =     0.66 Bohr mag/cell

     iteration # 26     ecut=    29.40 Ry     beta= 0.05
     Davidson diagonalization with overlap
     c_bands:  3 eigenvalues not converged
     c_bands:  1 eigenvalues not converged
     ethr =  1.29E-04,  avg # of iterations =  5.0

     negative rho (up, down):  3.391E-03 3.442E-03
 
     Adding external electric field

     Computed dipole along edir(3) : 
        Dipole                0.7096 Ry au,          1.8037 Debye
        Dipole field          0.0013 Ry au, 
 
        Potential amp.       -0.1241 Ry
        Total length         46.3494 bohr
 
 
     Adding external electric field

     Computed dipole along edir(3) : 
        Dipole                0.7096 Ry au,          1.8037 Debye
        Dipole field          0.0013 Ry au, 
 
        Potential amp.       -0.1241 Ry
        Total length         46.3494 bohr
 

     total cpu time spent up to now is      750.2 secs

     total energy              =   -2941.58185649 Ry
     estimated scf accuracy    <       0.42051648 Ry

     total magnetization       =    -0.15 Bohr mag/cell
     absolute magnetization    =     0.66 Bohr mag/cell

     iteration # 27     ecut=    29.40 Ry     beta= 0.05
     Davidson diagonalization with overlap
     c_bands:  1 eigenvalues not converged
     c_bands:  2 eigenvalues not converged
     c_bands:  3 eigenvalues not converged
     c_bands:  3 eigenvalues not converged
     c_bands:  1 eigenvalues not converged
     c_bands:  1 eigenvalues not converged
     c_bands:  2 eigenvalues not converged
     ethr =  1.06E-04,  avg # of iterations = 18.9

     negative rho (up, down):  3.233E-03 3.245E-03
 
     Adding external electric field

     Computed dipole along edir(3) : 
        Dipole                0.5366 Ry au,          1.3639 Debye
        Dipole field          0.0010 Ry au, 
 
        Potential amp.       -0.0939 Ry
        Total length         46.3494 bohr
 
 
     Adding external electric field

     Computed dipole along edir(3) : 
        Dipole                0.5366 Ry au,          1.3639 Debye
        Dipole field          0.0010 Ry au, 
 
        Potential amp.       -0.0939 Ry
        Total length         46.3494 bohr
 

     total cpu time spent up to now is      783.1 secs

     total energy              =   -2941.56325329 Ry
     estimated scf accuracy    <       0.80389461 Ry

     total magnetization       =     0.06 Bohr mag/cell
     absolute magnetization    =     0.69 Bohr mag/cell

     iteration # 28     ecut=    29.40 Ry     beta= 0.05
     Davidson diagonalization with overlap
     c_bands:  2 eigenvalues not converged
     c_bands:  2 eigenvalues not converged
     c_bands:  1 eigenvalues not converged
     ethr =  1.06E-04,  avg # of iterations = 12.9

     negative rho (up, down):  3.335E-03 3.396E-03
 
     Adding external electric field

     Computed dipole along edir(3) : 
        Dipole                0.3882 Ry au,          0.9867 Debye
        Dipole field          0.0007 Ry au, 
 
        Potential amp.       -0.0679 Ry
        Total length         46.3494 bohr
 
 
     Adding external electric field

     Computed dipole along edir(3) : 
        Dipole                0.3882 Ry au,          0.9867 Debye
        Dipole field          0.0007 Ry au, 
 
        Potential amp.       -0.0679 Ry
        Total length         46.3494 bohr
 

     total cpu time spent up to now is      808.2 secs

     total energy              =   -2941.61042848 Ry
     estimated scf accuracy    <       0.28561826 Ry

     total magnetization       =    -0.01 Bohr mag/cell
     absolute magnetization    =     0.46 Bohr mag/cell

     iteration # 29     ecut=    29.40 Ry     beta= 0.05
     Davidson diagonalization with overlap
     c_bands:  3 eigenvalues not converged
     c_bands:  1 eigenvalues not converged
     c_bands:  1 eigenvalues not converged
     c_bands:  1 eigenvalues not converged
     c_bands:  1 eigenvalues not converged
     c_bands:  1 eigenvalues not converged
     c_bands:  5 eigenvalues not converged
     c_bands:  2 eigenvalues not converged
     c_bands:  2 eigenvalues not converged
     c_bands:  1 eigenvalues not converged
     c_bands:  1 eigenvalues not converged
     c_bands:  1 eigenvalues not converged
     c_bands:  1 eigenvalues not converged
     c_bands:  1 eigenvalues not converged
     c_bands:  2 eigenvalues not converged
     ethr =  7.19E-05,  avg # of iterations = 19.3

     negative rho (up, down):  3.536E-03 3.611E-03
 
     Adding external electric field

     Computed dipole along edir(3) : 
        Dipole                0.6671 Ry au,          1.6955 Debye
        Dipole field          0.0013 Ry au, 
 
        Potential amp.       -0.1167 Ry
        Total length         46.3494 bohr
 
 
     Adding external electric field

     Computed dipole along edir(3) : 
        Dipole                0.6671 Ry au,          1.6955 Debye
        Dipole field          0.0013 Ry au, 
 
        Potential amp.       -0.1167 Ry
        Total length         46.3494 bohr
 

     total cpu time spent up to now is      836.1 secs

     total energy              =   -2941.62873527 Ry
     estimated scf accuracy    <       0.17408961 Ry

     total magnetization       =    -0.09 Bohr mag/cell
     absolute magnetization    =     0.43 Bohr mag/cell

     iteration # 30     ecut=    29.40 Ry     beta= 0.05
     Davidson diagonalization with overlap
     c_bands:  1 eigenvalues not converged
     ethr =  4.39E-05,  avg # of iterations =  6.8

     negative rho (up, down):  3.516E-03 3.587E-03
 
     Adding external electric field

     Computed dipole along edir(3) : 
        Dipole                0.6599 Ry au,          1.6772 Debye
        Dipole field          0.0012 Ry au, 
 
        Potential amp.       -0.1154 Ry
        Total length         46.3494 bohr
 
 
     Adding external electric field

     Computed dipole along edir(3) : 
        Dipole                0.6599 Ry au,          1.6772 Debye
        Dipole field          0.0012 Ry au, 
 
        Potential amp.       -0.1154 Ry
        Total length         46.3494 bohr
 

     total cpu time spent up to now is      854.3 secs

     total energy              =   -2941.63214384 Ry
     estimated scf accuracy    <       0.05634801 Ry

     total magnetization       =    -0.03 Bohr mag/cell
     absolute magnetization    =     0.42 Bohr mag/cell

     iteration # 31     ecut=    29.40 Ry     beta= 0.05
     Davidson diagonalization with overlap
     c_bands:  2 eigenvalues not converged
     c_bands:  2 eigenvalues not converged
     c_bands:  1 eigenvalues not converged
     c_bands:  1 eigenvalues not converged
     c_bands:  2 eigenvalues not converged
     c_bands:  3 eigenvalues not converged
     c_bands:  3 eigenvalues not converged
     ethr =  1.42E-05,  avg # of iterations = 16.4

     negative rho (up, down):  3.918E-03 4.010E-03
 
     Adding external electric field

     Computed dipole along edir(3) : 
        Dipole                0.8919 Ry au,          2.2671 Debye
        Dipole field          0.0017 Ry au, 
 
        Potential amp.       -0.1560 Ry
        Total length         46.3494 bohr
 
 
     Adding external electric field

     Computed dipole along edir(3) : 
        Dipole                0.8919 Ry au,          2.2671 Debye
        Dipole field          0.0017 Ry au, 
 
        Potential amp.       -0.1560 Ry
        Total length         46.3494 bohr
 

     total cpu time spent up to now is      879.4 secs

     total energy              =   -2941.63352943 Ry
     estimated scf accuracy    <       0.04687966 Ry

     total magnetization       =    -0.02 Bohr mag/cell
     absolute magnetization    =     0.44 Bohr mag/cell

     iteration # 32     ecut=    29.40 Ry     beta= 0.05
     Davidson diagonalization with overlap
     c_bands:  1 eigenvalues not converged
     c_bands:  1 eigenvalues not converged
     ethr =  1.18E-05,  avg # of iterations =  9.2

     negative rho (up, down):  4.791E-03 4.903E-03
 
     Adding external electric field

     Computed dipole along edir(3) : 
        Dipole                1.2153 Ry au,          3.0889 Debye
        Dipole field          0.0023 Ry au, 
 
        Potential amp.       -0.2126 Ry
        Total length         46.3494 bohr
 
 
     Adding external electric field

     Computed dipole along edir(3) : 
        Dipole                1.2153 Ry au,          3.0889 Debye
        Dipole field          0.0023 Ry au, 
 
        Potential amp.       -0.2126 Ry
        Total length         46.3494 bohr
 

     total cpu time spent up to now is      904.5 secs

     total energy              =   -2941.63202650 Ry
     estimated scf accuracy    <       0.02756676 Ry

     total magnetization       =    -0.03 Bohr mag/cell
     absolute magnetization    =     0.40 Bohr mag/cell

     iteration # 33     ecut=    29.40 Ry     beta= 0.05
     Davidson diagonalization with overlap
     c_bands:  2 eigenvalues not converged
     c_bands:  2 eigenvalues not converged
     c_bands:  2 eigenvalues not converged
     c_bands:  3 eigenvalues not converged
     c_bands:  4 eigenvalues not converged
     c_bands:  1 eigenvalues not converged
     c_bands:  2 eigenvalues not converged
     c_bands:  1 eigenvalues not converged
     c_bands:  2 eigenvalues not converged
     c_bands:  2 eigenvalues not converged
     c_bands:  1 eigenvalues not converged
     c_bands:  2 eigenvalues not converged
     c_bands:  4 eigenvalues not converged
     c_bands:  4 eigenvalues not converged
     c_bands:  3 eigenvalues not converged
     ethr =  6.94E-06,  avg # of iterations = 19.3

     negative rho (up, down):  4.799E-03 4.916E-03
 
     Adding external electric field

     Computed dipole along edir(3) : 
        Dipole                1.1885 Ry au,          3.0208 Debye
        Dipole field          0.0022 Ry au, 
 
        Potential amp.       -0.2079 Ry
        Total length         46.3494 bohr
 
 
     Adding external electric field

     Computed dipole along edir(3) : 
        Dipole                1.1885 Ry au,          3.0208 Debye
        Dipole field          0.0022 Ry au, 
 
        Potential amp.       -0.2079 Ry
        Total length         46.3494 bohr
 

     total cpu time spent up to now is      941.5 secs

     total energy              =   -2941.63872735 Ry
     estimated scf accuracy    <       0.14418248 Ry

     total magnetization       =     0.01 Bohr mag/cell
     absolute magnetization    =     0.34 Bohr mag/cell

     iteration # 34     ecut=    29.40 Ry     beta= 0.05
     Davidson diagonalization with overlap
     c_bands:  1 eigenvalues not converged
     c_bands:  1 eigenvalues not converged
     ethr =  6.94E-06,  avg # of iterations =  7.0

     negative rho (up, down):  5.045E-03 5.160E-03
 
     Adding external electric field

     Computed dipole along edir(3) : 
        Dipole                1.0876 Ry au,          2.7644 Debye
        Dipole field          0.0021 Ry au, 
 
        Potential amp.       -0.1903 Ry
        Total length         46.3494 bohr
 
 
     Adding external electric field

     Computed dipole along edir(3) : 
        Dipole                1.0876 Ry au,          2.7644 Debye
        Dipole field          0.0021 Ry au, 
 
        Potential amp.       -0.1903 Ry
        Total length         46.3494 bohr
 

     total cpu time spent up to now is      965.5 secs

     total energy              =   -2941.63161539 Ry
     estimated scf accuracy    <       0.11784022 Ry

     total magnetization       =     0.01 Bohr mag/cell
     absolute magnetization    =     0.34 Bohr mag/cell

     iteration # 35     ecut=    29.40 Ry     beta= 0.05
     Davidson diagonalization with overlap
     c_bands:  2 eigenvalues not converged
     c_bands:  2 eigenvalues not converged
     c_bands:  2 eigenvalues not converged
     c_bands:  1 eigenvalues not converged
     c_bands:  1 eigenvalues not converged
     c_bands:  1 eigenvalues not converged
     c_bands:  1 eigenvalues not converged
     ethr =  6.94E-06,  avg # of iterations = 17.4

     negative rho (up, down):  5.706E-03 5.787E-03
 
     Adding external electric field

     Computed dipole along edir(3) : 
        Dipole                1.2507 Ry au,          3.1789 Debye
        Dipole field          0.0024 Ry au, 
 
        Potential amp.       -0.2188 Ry
        Total length         46.3494 bohr
 
 
     Adding external electric field

     Computed dipole along edir(3) : 
        Dipole                1.2507 Ry au,          3.1789 Debye
        Dipole field          0.0024 Ry au, 
 
        Potential amp.       -0.2188 Ry
        Total length         46.3494 bohr
 

     total cpu time spent up to now is      993.4 secs

     total energy              =   -2941.63255732 Ry
     estimated scf accuracy    <       0.01696353 Ry

     total magnetization       =    -0.03 Bohr mag/cell
     absolute magnetization    =     0.28 Bohr mag/cell

     iteration # 36     ecut=    29.40 Ry     beta= 0.05
     Davidson diagonalization with overlap
     c_bands:  3 eigenvalues not converged
     c_bands:  2 eigenvalues not converged
     c_bands:  3 eigenvalues not converged
     c_bands:  2 eigenvalues not converged
     c_bands:  1 eigenvalues not converged
     c_bands:  1 eigenvalues not converged
     ethr =  4.27E-06,  avg # of iterations = 15.2

     negative rho (up, down):  6.262E-03 6.347E-03
 
     Adding external electric field

     Computed dipole along edir(3) : 
        Dipole                1.1034 Ry au,          2.8045 Debye
        Dipole field          0.0021 Ry au, 
 
        Potential amp.       -0.1930 Ry
        Total length         46.3494 bohr
 
 
     Adding external electric field

     Computed dipole along edir(3) : 
        Dipole                1.1034 Ry au,          2.8045 Debye
        Dipole field          0.0021 Ry au, 
 
        Potential amp.       -0.1930 Ry
        Total length         46.3494 bohr
 

     total cpu time spent up to now is     1023.5 secs

     total energy              =   -2941.63546460 Ry
     estimated scf accuracy    <       0.08661920 Ry

     total magnetization       =    -0.01 Bohr mag/cell
     absolute magnetization    =     0.28 Bohr mag/cell

     iteration # 37     ecut=    29.40 Ry     beta= 0.05
     Davidson diagonalization with overlap
     c_bands:  3 eigenvalues not converged
     c_bands:  3 eigenvalues not converged
     ethr =  4.27E-06,  avg # of iterations = 13.4

     negative rho (up, down):  6.742E-03 6.830E-03
 
     Adding external electric field

     Computed dipole along edir(3) : 
        Dipole                1.1064 Ry au,          2.8122 Debye
        Dipole field          0.0021 Ry au, 
 
        Potential amp.       -0.1935 Ry
        Total length         46.3494 bohr
 
 
     Adding external electric field

     Computed dipole along edir(3) : 
        Dipole                1.1064 Ry au,          2.8122 Debye
        Dipole field          0.0021 Ry au, 
 
        Potential amp.       -0.1935 Ry
        Total length         46.3494 bohr
 

     total cpu time spent up to now is     1049.6 secs

     total energy              =   -2941.63457828 Ry
     estimated scf accuracy    <       0.02284176 Ry

     total magnetization       =    -0.02 Bohr mag/cell
     absolute magnetization    =     0.25 Bohr mag/cell

     iteration # 38     ecut=    29.40 Ry     beta= 0.05
     Davidson diagonalization with overlap
     ethr =  4.27E-06,  avg # of iterations =  7.6

     negative rho (up, down):  6.967E-03 7.047E-03
 
     Adding external electric field

     Computed dipole along edir(3) : 
        Dipole                1.1692 Ry au,          2.9718 Debye
        Dipole field          0.0022 Ry au, 
 
        Potential amp.       -0.2045 Ry
        Total length         46.3494 bohr
 
 
     Adding external electric field

     Computed dipole along edir(3) : 
        Dipole                1.1692 Ry au,          2.9718 Debye
        Dipole field          0.0022 Ry au, 
 
        Potential amp.       -0.2045 Ry
        Total length         46.3494 bohr
 

     total cpu time spent up to now is     1078.3 secs

     total energy              =   -2941.63666306 Ry
     estimated scf accuracy    <       0.00286337 Ry

     total magnetization       =    -0.02 Bohr mag/cell
     absolute magnetization    =     0.20 Bohr mag/cell

     iteration # 39     ecut=    29.40 Ry     beta= 0.05
     Davidson diagonalization with overlap
     c_bands:  1 eigenvalues not converged
     c_bands:  2 eigenvalues not converged
     c_bands:  1 eigenvalues not converged
     c_bands:  1 eigenvalues not converged
     ethr =  7.21E-07,  avg # of iterations = 12.9

     negative rho (up, down):  7.060E-03 7.140E-03
 
     Adding external electric field

     Computed dipole along edir(3) : 
        Dipole                1.1539 Ry au,          2.9330 Debye
        Dipole field          0.0022 Ry au, 
 
        Potential amp.       -0.2019 Ry
        Total length         46.3494 bohr
 
 
     Adding external electric field

     Computed dipole along edir(3) : 
        Dipole                1.1539 Ry au,          2.9330 Debye
        Dipole field          0.0022 Ry au, 
 
        Potential amp.       -0.2019 Ry
        Total length         46.3494 bohr
 

     total cpu time spent up to now is     1106.5 secs

     total energy              =   -2941.63727624 Ry
     estimated scf accuracy    <       0.00376079 Ry

     total magnetization       =    -0.02 Bohr mag/cell
     absolute magnetization    =     0.20 Bohr mag/cell

     iteration # 40     ecut=    29.40 Ry     beta= 0.05
     Davidson diagonalization with overlap
     ethr =  7.21E-07,  avg # of iterations =  1.9

     negative rho (up, down):  7.616E-03 7.672E-03
 
     Adding external electric field

     Computed dipole along edir(3) : 
        Dipole                1.1024 Ry au,          2.8019 Debye
        Dipole field          0.0021 Ry au, 
 
        Potential amp.       -0.1928 Ry
        Total length         46.3494 bohr
 
 
     Adding external electric field

     Computed dipole along edir(3) : 
        Dipole                1.1024 Ry au,          2.8019 Debye
        Dipole field          0.0021 Ry au, 
 
        Potential amp.       -0.1928 Ry
        Total length         46.3494 bohr
 

     total cpu time spent up to now is     1123.0 secs

     total energy              =   -2941.63700404 Ry
     estimated scf accuracy    <       0.00228008 Ry

     total magnetization       =    -0.02 Bohr mag/cell
     absolute magnetization    =     0.20 Bohr mag/cell

     iteration # 41     ecut=    29.40 Ry     beta= 0.05
     Davidson diagonalization with overlap
     c_bands:  2 eigenvalues not converged
     ethr =  5.74E-07,  avg # of iterations = 10.1

     negative rho (up, down):  7.742E-03 7.787E-03
 
     Adding external electric field

     Computed dipole along edir(3) : 
        Dipole                1.1234 Ry au,          2.8555 Debye
        Dipole field          0.0021 Ry au, 
 
        Potential amp.       -0.1965 Ry
        Total length         46.3494 bohr
 
 
     Adding external electric field

     Computed dipole along edir(3) : 
        Dipole                1.1234 Ry au,          2.8555 Debye
        Dipole field          0.0021 Ry au, 
 
        Potential amp.       -0.1965 Ry
        Total length         46.3494 bohr
 

     total cpu time spent up to now is     1146.1 secs

     total energy              =   -2941.63728918 Ry
     estimated scf accuracy    <       0.00169283 Ry

     total magnetization       =    -0.02 Bohr mag/cell
     absolute magnetization    =     0.16 Bohr mag/cell

     iteration # 42     ecut=    29.40 Ry     beta= 0.05
     Davidson diagonalization with overlap
     c_bands:  1 eigenvalues not converged
     c_bands:  1 eigenvalues not converged
     ethr =  4.26E-07,  avg # of iterations =  7.0

     negative rho (up, down):  7.865E-03 7.904E-03
 
     Adding external electric field

     Computed dipole along edir(3) : 
        Dipole                1.1400 Ry au,          2.8977 Debye
        Dipole field          0.0022 Ry au, 
 
        Potential amp.       -0.1994 Ry
        Total length         46.3494 bohr
 
 
     Adding external electric field

     Computed dipole along edir(3) : 
        Dipole                1.1400 Ry au,          2.8977 Debye
        Dipole field          0.0022 Ry au, 
 
        Potential amp.       -0.1994 Ry
        Total length         46.3494 bohr
 

     total cpu time spent up to now is     1164.5 secs

     total energy              =   -2941.63746517 Ry
     estimated scf accuracy    <       0.00031027 Ry

     total magnetization       =    -0.02 Bohr mag/cell
     absolute magnetization    =     0.15 Bohr mag/cell

     iteration # 43     ecut=    29.40 Ry     beta= 0.05
     Davidson diagonalization with overlap
     c_bands:  3 eigenvalues not converged
     c_bands:  1 eigenvalues not converged
     ethr =  7.82E-08,  avg # of iterations = 12.9

     negative rho (up, down):  7.839E-03 7.882E-03
 
     Adding external electric field

     Computed dipole along edir(3) : 
        Dipole                1.1359 Ry au,          2.8873 Debye
        Dipole field          0.0021 Ry au, 
 
        Potential amp.       -0.1987 Ry
        Total length         46.3494 bohr
 
 
     Adding external electric field

     Computed dipole along edir(3) : 
        Dipole                1.1359 Ry au,          2.8873 Debye
        Dipole field          0.0021 Ry au, 
 
        Potential amp.       -0.1987 Ry
        Total length         46.3494 bohr
 

     total cpu time spent up to now is     1193.1 secs

     total energy              =   -2941.63754205 Ry
     estimated scf accuracy    <       0.00029096 Ry

     total magnetization       =    -0.02 Bohr mag/cell
     absolute magnetization    =     0.14 Bohr mag/cell

     iteration # 44     ecut=    29.40 Ry     beta= 0.05
     Davidson diagonalization with overlap
     c_bands:  1 eigenvalues not converged
     ethr =  7.33E-08,  avg # of iterations =  3.5

     negative rho (up, down):  7.866E-03 7.910E-03
 
     Adding external electric field

     Computed dipole along edir(3) : 
        Dipole                1.1324 Ry au,          2.8782 Debye
        Dipole field          0.0021 Ry au, 
 
        Potential amp.       -0.1981 Ry
        Total length         46.3494 bohr
 
 
     Adding external electric field

     Computed dipole along edir(3) : 
        Dipole                1.1324 Ry au,          2.8782 Debye
        Dipole field          0.0021 Ry au, 
 
        Potential amp.       -0.1981 Ry
        Total length         46.3494 bohr
 

     total cpu time spent up to now is     1215.1 secs

     total energy              =   -2941.63755654 Ry
     estimated scf accuracy    <       0.00022910 Ry

     total magnetization       =    -0.02 Bohr mag/cell
     absolute magnetization    =     0.14 Bohr mag/cell

     iteration # 45     ecut=    29.40 Ry     beta= 0.05
     Davidson diagonalization with overlap
     c_bands:  2 eigenvalues not converged
     ethr =  5.77E-08,  avg # of iterations =  8.5

     negative rho (up, down):  8.183E-03 8.208E-03
 
     Adding external electric field

     Computed dipole along edir(3) : 
        Dipole                1.1325 Ry au,          2.8786 Debye
        Dipole field          0.0021 Ry au, 
 
        Potential amp.       -0.1981 Ry
        Total length         46.3494 bohr
 
 
     Adding external electric field

     Computed dipole along edir(3) : 
        Dipole                1.1325 Ry au,          2.8786 Debye
        Dipole field          0.0021 Ry au, 
 
        Potential amp.       -0.1981 Ry
        Total length         46.3494 bohr
 

     total cpu time spent up to now is     1235.4 secs

     total energy              =   -2941.63763850 Ry
     estimated scf accuracy    <       0.00015641 Ry

     total magnetization       =    -0.02 Bohr mag/cell
     absolute magnetization    =     0.14 Bohr mag/cell

     iteration # 46     ecut=    29.40 Ry     beta= 0.05
     Davidson diagonalization with overlap
     c_bands:  1 eigenvalues not converged
     ethr =  3.94E-08,  avg # of iterations =  9.2

     negative rho (up, down):  8.212E-03 8.234E-03
 
     Adding external electric field

     Computed dipole along edir(3) : 
        Dipole                1.1401 Ry au,          2.8979 Debye
        Dipole field          0.0022 Ry au, 
 
        Potential amp.       -0.1994 Ry
        Total length         46.3494 bohr
 
 
     Adding external electric field

     Computed dipole along edir(3) : 
        Dipole                1.1401 Ry au,          2.8979 Debye
        Dipole field          0.0022 Ry au, 
 
        Potential amp.       -0.1994 Ry
        Total length         46.3494 bohr
 

     total cpu time spent up to now is     1264.5 secs

     total energy              =   -2941.63766110 Ry
     estimated scf accuracy    <       0.00026516 Ry

     total magnetization       =    -0.01 Bohr mag/cell
     absolute magnetization    =     0.12 Bohr mag/cell

     iteration # 47     ecut=    29.40 Ry     beta= 0.05
     Davidson diagonalization with overlap
     ethr =  3.94E-08,  avg # of iterations =  7.2

     negative rho (up, down):  8.249E-03 8.262E-03
 
     Adding external electric field

     Computed dipole along edir(3) : 
        Dipole                1.1453 Ry au,          2.9110 Debye
        Dipole field          0.0022 Ry au, 
 
        Potential amp.       -0.2003 Ry
        Total length         46.3494 bohr
 
 
     Adding external electric field

     Computed dipole along edir(3) : 
        Dipole                1.1453 Ry au,          2.9110 Debye
        Dipole field          0.0022 Ry au, 
 
        Potential amp.       -0.2003 Ry
        Total length         46.3494 bohr
 

     total cpu time spent up to now is     1290.9 secs

     total energy              =   -2941.63769998 Ry
     estimated scf accuracy    <       0.00008146 Ry

     total magnetization       =    -0.01 Bohr mag/cell
     absolute magnetization    =     0.11 Bohr mag/cell

     iteration # 48     ecut=    29.40 Ry     beta= 0.05
     Davidson diagonalization with overlap
     ethr =  2.05E-08,  avg # of iterations = 13.5

     negative rho (up, down):  8.360E-03 8.366E-03
 
     Adding external electric field

     Computed dipole along edir(3) : 
        Dipole                1.1459 Ry au,          2.9126 Debye
        Dipole field          0.0022 Ry au, 
 
        Potential amp.       -0.2005 Ry
        Total length         46.3494 bohr
 
 
     Adding external electric field

     Computed dipole along edir(3) : 
        Dipole                1.1459 Ry au,          2.9126 Debye
        Dipole field          0.0022 Ry au, 
 
        Potential amp.       -0.2005 Ry
        Total length         46.3494 bohr
 

     total cpu time spent up to now is     1324.4 secs

     total energy              =   -2941.63774783 Ry
     estimated scf accuracy    <       0.00008689 Ry

     total magnetization       =    -0.01 Bohr mag/cell
     absolute magnetization    =     0.10 Bohr mag/cell

     iteration # 49     ecut=    29.40 Ry     beta= 0.05
     Davidson diagonalization with overlap
     ethr =  2.05E-08,  avg # of iterations =  6.8

     negative rho (up, down):  8.382E-03 8.384E-03
 
     Adding external electric field

     Computed dipole along edir(3) : 
        Dipole                1.1456 Ry au,          2.9117 Debye
        Dipole field          0.0022 Ry au, 
 
        Potential amp.       -0.2004 Ry
        Total length         46.3494 bohr
 
 
     Adding external electric field

     Computed dipole along edir(3) : 
        Dipole                1.1456 Ry au,          2.9117 Debye
        Dipole field          0.0022 Ry au, 
 
        Potential amp.       -0.2004 Ry
        Total length         46.3494 bohr
 

     total cpu time spent up to now is     1342.9 secs

     total energy              =   -2941.63777271 Ry
     estimated scf accuracy    <       0.00003015 Ry

     total magnetization       =    -0.01 Bohr mag/cell
     absolute magnetization    =     0.08 Bohr mag/cell

     iteration # 50     ecut=    29.40 Ry     beta= 0.05
     Davidson diagonalization with overlap
     ethr =  7.59E-09,  avg # of iterations =  8.4

     negative rho (up, down):  8.357E-03 8.360E-03
 
     Adding external electric field

     Computed dipole along edir(3) : 
        Dipole                1.1434 Ry au,          2.9062 Debye
        Dipole field          0.0022 Ry au, 
 
        Potential amp.       -0.2000 Ry
        Total length         46.3494 bohr
 
 
     Adding external electric field

     Computed dipole along edir(3) : 
        Dipole                1.1434 Ry au,          2.9062 Debye
        Dipole field          0.0022 Ry au, 
 
        Potential amp.       -0.2000 Ry
        Total length         46.3494 bohr
 

     total cpu time spent up to now is     1364.1 secs

     total energy              =   -2941.63779166 Ry
     estimated scf accuracy    <       0.00001678 Ry

     total magnetization       =    -0.01 Bohr mag/cell
     absolute magnetization    =     0.07 Bohr mag/cell

     iteration # 51     ecut=    29.40 Ry     beta= 0.05
     Davidson diagonalization with overlap
     ethr =  4.23E-09,  avg # of iterations =  9.6

     negative rho (up, down):  8.324E-03 8.326E-03
 
     Adding external electric field

     Computed dipole along edir(3) : 
        Dipole                1.1444 Ry au,          2.9088 Debye
        Dipole field          0.0022 Ry au, 
 
        Potential amp.       -0.2002 Ry
        Total length         46.3494 bohr
 
 
     Adding external electric field

     Computed dipole along edir(3) : 
        Dipole                1.1444 Ry au,          2.9088 Debye
        Dipole field          0.0022 Ry au, 
 
        Potential amp.       -0.2002 Ry
        Total length         46.3494 bohr
 

     total cpu time spent up to now is     1387.4 secs

     total energy              =   -2941.63780763 Ry
     estimated scf accuracy    <       0.00001229 Ry

     total magnetization       =    -0.01 Bohr mag/cell
     absolute magnetization    =     0.07 Bohr mag/cell

     iteration # 52     ecut=    29.40 Ry     beta= 0.05
     Davidson diagonalization with overlap
     ethr =  3.10E-09,  avg # of iterations =  8.8

     negative rho (up, down):  8.331E-03 8.332E-03
 
     Adding external electric field

     Computed dipole along edir(3) : 
        Dipole                1.1441 Ry au,          2.9079 Debye
        Dipole field          0.0022 Ry au, 
 
        Potential amp.       -0.2001 Ry
        Total length         46.3494 bohr
 
 
     Adding external electric field

     Computed dipole along edir(3) : 
        Dipole                1.1441 Ry au,          2.9079 Debye
        Dipole field          0.0022 Ry au, 
 
        Potential amp.       -0.2001 Ry
        Total length         46.3494 bohr
 

     total cpu time spent up to now is     1410.8 secs

     total energy              =   -2941.63782434 Ry
     estimated scf accuracy    <       0.00001271 Ry

     total magnetization       =    -0.01 Bohr mag/cell
     absolute magnetization    =     0.06 Bohr mag/cell

     iteration # 53     ecut=    29.40 Ry     beta= 0.05
     Davidson diagonalization with overlap
     ethr =  3.10E-09,  avg # of iterations =  3.6

     negative rho (up, down):  8.342E-03 8.342E-03
 
     Adding external electric field

     Computed dipole along edir(3) : 
        Dipole                1.1418 Ry au,          2.9020 Debye
        Dipole field          0.0022 Ry au, 
 
        Potential amp.       -0.1997 Ry
        Total length         46.3494 bohr
 
 
     Adding external electric field

     Computed dipole along edir(3) : 
        Dipole                1.1418 Ry au,          2.9020 Debye
        Dipole field          0.0022 Ry au, 
 
        Potential amp.       -0.1997 Ry
        Total length         46.3494 bohr
 

     total cpu time spent up to now is     1426.6 secs

     total energy              =   -2941.63783661 Ry
     estimated scf accuracy    <       0.00001148 Ry

     total magnetization       =    -0.01 Bohr mag/cell
     absolute magnetization    =     0.06 Bohr mag/cell

     iteration # 54     ecut=    29.40 Ry     beta= 0.05
     Davidson diagonalization with overlap
     ethr =  2.89E-09,  avg # of iterations =  6.3

     negative rho (up, down):  8.343E-03 8.342E-03
 
     Adding external electric field

     Computed dipole along edir(3) : 
        Dipole                1.1405 Ry au,          2.8988 Debye
        Dipole field          0.0022 Ry au, 
 
        Potential amp.       -0.1995 Ry
        Total length         46.3494 bohr
 
 
     Adding external electric field

     Computed dipole along edir(3) : 
        Dipole                1.1405 Ry au,          2.8988 Debye
        Dipole field          0.0022 Ry au, 
 
        Potential amp.       -0.1995 Ry
        Total length         46.3494 bohr
 

     total cpu time spent up to now is     1447.7 secs

     total energy              =   -2941.63784798 Ry
     estimated scf accuracy    <       0.00000732 Ry

     total magnetization       =    -0.01 Bohr mag/cell
     absolute magnetization    =     0.05 Bohr mag/cell

     iteration # 55     ecut=    29.40 Ry     beta= 0.05
     Davidson diagonalization with overlap
     ethr =  1.84E-09,  avg # of iterations = 10.0

     negative rho (up, down):  8.355E-03 8.353E-03
 
     Adding external electric field

     Computed dipole along edir(3) : 
        Dipole                1.1404 Ry au,          2.8987 Debye
        Dipole field          0.0022 Ry au, 
 
        Potential amp.       -0.1995 Ry
        Total length         46.3494 bohr
 
 
     Adding external electric field

     Computed dipole along edir(3) : 
        Dipole                1.1404 Ry au,          2.8987 Debye
        Dipole field          0.0022 Ry au, 
 
        Potential amp.       -0.1995 Ry
        Total length         46.3494 bohr
 

     total cpu time spent up to now is     1476.1 secs

     total energy              =   -2941.63785868 Ry
     estimated scf accuracy    <       0.00000440 Ry

     total magnetization       =    -0.01 Bohr mag/cell
     absolute magnetization    =     0.05 Bohr mag/cell

     iteration # 56     ecut=    29.40 Ry     beta= 0.05
     Davidson diagonalization with overlap
     ethr =  1.11E-09,  avg # of iterations =  6.2

     negative rho (up, down):  8.333E-03 8.331E-03
 
     Adding external electric field

     Computed dipole along edir(3) : 
        Dipole                1.1429 Ry au,          2.9051 Debye
        Dipole field          0.0022 Ry au, 
 
        Potential amp.       -0.1999 Ry
        Total length         46.3494 bohr
 
 
     Adding external electric field

     Computed dipole along edir(3) : 
        Dipole                1.1429 Ry au,          2.9051 Debye
        Dipole field          0.0022 Ry au, 
 
        Potential amp.       -0.1999 Ry
        Total length         46.3494 bohr
 

     total cpu time spent up to now is     1493.7 secs

     total energy              =   -2941.63786693 Ry
     estimated scf accuracy    <       0.00000391 Ry

     total magnetization       =    -0.01 Bohr mag/cell
     absolute magnetization    =     0.04 Bohr mag/cell

     iteration # 57     ecut=    29.40 Ry     beta= 0.05
     Davidson diagonalization with overlap
     c_bands:  1 eigenvalues not converged
     ethr =  9.84E-10,  avg # of iterations =  9.4

     negative rho (up, down):  8.354E-03 8.351E-03
 
     Adding external electric field

     Computed dipole along edir(3) : 
        Dipole                1.1400 Ry au,          2.8975 Debye
        Dipole field          0.0022 Ry au, 
 
        Potential amp.       -0.1994 Ry
        Total length         46.3494 bohr
 
 
     Adding external electric field

     Computed dipole along edir(3) : 
        Dipole                1.1400 Ry au,          2.8975 Debye
[...]
     0.6735   0.7312   0.8008   0.8357   0.8602   1.0874   1.1294   1.4146
     1.4359   1.4941   1.6456   1.6738   1.9405   2.0141   3.5937   3.6219
     3.8908   3.9262   3.9412   3.9835   4.0111   4.0160   4.0345   4.0773

          k = 0.0380 0.0419 0.0000 ( 17878 PWs)   bands (ev):

   -55.5714 -55.5707 -55.5466 -55.5436 -55.4586 -55.4302 -55.4205 -55.3948
   -55.3688 -55.3448 -55.3247 -55.3006 -55.0330 -54.8777 -54.5347 -54.5107
   -32.0806 -32.0021 -31.9122 -31.8758 -31.8638 -31.8540 -31.8408 -31.8087
   -31.7908 -31.7898 -31.7796 -31.7724 -31.7591 -31.7424 -31.7340 -31.7292
   -31.7120 -31.6741 -31.6469 -31.6459 -31.6447 -31.6292 -31.6232 -31.6210
   -31.5992 -31.5868 -31.5634 -31.5621 -31.5560 -31.5499 -31.5402 -31.5367
   -31.5270 -31.5077 -31.4949 -31.4916 -31.4617 -31.3086 -31.2595 -31.1850
   -31.1320 -31.0442 -30.8916 -30.8584 -30.8389 -30.7503 -30.6892 -30.6223
   -17.5932 -16.1695 -15.8548 -15.6695 -15.6298 -15.6003 -15.5258 -15.4818
   -15.3960 -15.3248 -15.2249 -15.2185 -15.1893 -15.1778 -15.1530 -15.0562
   -15.0172 -15.0067 -14.9544 -14.9422 -14.9079 -14.8949 -14.8906 -14.8108
   -14.8015 -14.7758 -14.7327 -14.6688 -14.5776 -14.2959 -13.0442 -12.9659
   -12.5819  -9.1699  -6.3324  -5.1325  -4.1732  -3.5074  -3.3499  -3.1677
    -3.1056  -3.0216  -3.0144  -2.9582  -2.9388  -2.9118  -2.7762  -2.6665
    -2.6376  -2.6156  -2.5537  -2.4959  -2.4584  -2.4412  -2.4091  -2.3796
    -2.3540  -2.3022  -2.2838  -2.2755  -2.2163  -2.2011  -2.1878  -2.1253
    -2.0609  -2.0338  -1.9808  -1.8950  -1.8304  -1.7873  -1.7525  -1.7163
    -1.5891  -1.5551  -1.5130  -1.4050  -1.3773  -1.3174  -1.2789  -1.1774
    -1.1124  -1.0344  -1.0048  -0.9831  -0.9000  -0.8739  -0.8497  -0.8400
    -0.7324  -0.7095  -0.6878  -0.6576  -0.5871  -0.5255  -0.4855  -0.4672
    -0.4441  -0.3914  -0.3413  -0.3050  -0.2817  -0.2406  -0.1997  -0.1631
    -0.1519  -0.0700  -0.0304  -0.0223   0.0717   0.1164   0.1419   0.1689
     0.2202   0.2683   0.2969   0.3796   0.4673   0.5156   0.5940   0.6382
     0.6663   0.7617   0.7840   0.8321   0.8646   0.9115   1.0316   1.0966
     1.3759   1.6608   1.6827   1.7640   1.9284   1.9897   3.7384   3.8032
     3.8663   3.9237   3.9769   3.9840   4.0747   4.1162   4.1463   4.1523

          k = 0.0380-0.0839 0.0000 ( 17916 PWs)   bands (ev):

   -55.5630 -55.5593 -55.5581 -55.5520 -55.4518 -55.4371 -55.4114 -55.4040
   -55.3585 -55.3552 -55.3145 -55.3108 -55.0324 -54.8784 -54.5228 -54.5227
   -31.9440 -31.9335 -31.8702 -31.8695 -31.8544 -31.8534 -31.8460 -31.8294
   -31.7971 -31.7836 -31.7701 -31.7508 -31.7437 -31.7338 -31.7088 -31.6829
   -31.6824 -31.6804 -31.6791 -31.6707 -31.6555 -31.6484 -31.6446 -31.6380
   -31.6282 -31.6164 -31.6071 -31.6044 -31.5833 -31.5821 -31.5478 -31.5456
   -31.5371 -31.5334 -31.5083 -31.5066 -31.4138 -31.3190 -31.2591 -31.2184
   -31.1353 -31.0490 -30.8487 -30.8486 -30.7590 -30.7588 -30.7199 -30.7198
   -17.5890 -15.8576 -15.8346 -15.6094 -15.6042 -15.4859 -15.4659 -15.3871
   -15.3546 -15.3382 -15.3288 -15.2709 -15.2638 -15.1466 -15.1368 -15.0592
   -15.0305 -14.9880 -14.9772 -14.9677 -14.9638 -14.9309 -14.9185 -14.8995
   -14.8621 -14.8546 -14.7701 -14.6767 -14.5307 -14.4403 -13.0283 -13.0281
   -12.5810  -9.1700  -6.3282  -5.1295  -4.1550  -3.3716  -3.1223  -3.0756
    -2.8500  -2.8295  -2.7788  -2.7738  -2.7320  -2.6744  -2.6673  -2.6505
    -2.6381  -2.6135  -2.5961  -2.5785  -2.5533  -2.5007  -2.4268  -2.4102
    -2.3957  -2.3801  -2.3566  -2.2974  -2.2885  -2.2666  -2.2226  -2.1967
    -2.1531  -2.1082  -2.0506  -1.9893  -1.7565  -1.6899  -1.6752  -1.6352
    -1.5116  -1.4835  -1.4475  -1.4239  -1.3807  -1.3620  -1.3417  -1.2718
    -1.2351  -1.2144  -1.1941  -1.1598  -1.0298  -1.0122  -0.9000  -0.8302
    -0.7744  -0.7360  -0.6705  -0.6113  -0.5418  -0.5103  -0.4863  -0.3825
    -0.3685  -0.3445  -0.3315  -0.3093  -0.2806  -0.2447  -0.1936  -0.1719
    -0.1420  -0.1381  -0.1164  -0.0988  -0.0377   0.0114   0.0476   0.1125
     0.2054   0.2442   0.3174   0.3746   0.4700   0.5160   0.5535   0.5571
     0.5909   0.6167   0.6787   0.7695   0.8346   0.9700   1.0224   1.0925
     1.1931   1.6721   1.8294   1.8300   1.9315   1.9326   3.8485   3.8689
     3.9090   3.9287   3.9887   3.9955   4.1497   4.1650   4.1932   4.1981

          k = 0.0380-0.0419 0.0000 ( 17876 PWs)   bands (ev):

   -55.5714 -55.5707 -55.5466 -55.5436 -55.4586 -55.4302 -55.4205 -55.3948
   -55.3688 -55.3448 -55.3247 -55.3006 -55.0330 -54.8777 -54.5347 -54.5107
   -32.0806 -32.0021 -31.9121 -31.8758 -31.8638 -31.8540 -31.8408 -31.8087
   -31.7908 -31.7894 -31.7798 -31.7724 -31.7592 -31.7426 -31.7340 -31.7289
   -31.7120 -31.6748 -31.6469 -31.6458 -31.6446 -31.6281 -31.6240 -31.6210
   -31.5992 -31.5865 -31.5635 -31.5621 -31.5560 -31.5500 -31.5402 -31.5367
   -31.5269 -31.5077 -31.4949 -31.4916 -31.4622 -31.3085 -31.2595 -31.1846
   -31.1320 -31.0444 -30.8916 -30.8584 -30.8389 -30.7503 -30.6892 -30.6223
   -17.5930 -16.1698 -15.8547 -15.6716 -15.6276 -15.6023 -15.5264 -15.4810
   -15.3970 -15.3251 -15.2250 -15.2190 -15.1850 -15.1673 -15.1545 -15.0569
   -15.0264 -14.9922 -14.9707 -14.9455 -14.9153 -14.8927 -14.8873 -14.8109
   -14.8018 -14.7749 -14.7230 -14.6720 -14.5770 -14.2957 -13.0442 -12.9659
   -12.5826  -9.1695  -6.3315  -5.1348  -4.1587  -3.5072  -3.3547  -3.1714
    -3.1045  -3.0208  -3.0110  -2.9598  -2.9382  -2.9096  -2.7752  -2.6705
    -2.6376  -2.6157  -2.5544  -2.5046  -2.4625  -2.4336  -2.4016  -2.3845
    -2.3631  -2.3063  -2.2954  -2.2755  -2.2328  -2.2102  -2.1827  -2.1238
    -2.0661  -2.0433  -1.9967  -1.9024  -1.8616  -1.7797  -1.7380  -1.6895
    -1.5953  -1.5795  -1.5333  -1.4135  -1.3570  -1.3104  -1.2709  -1.1716
    -1.0768  -1.0346  -1.0141  -0.9551  -0.9070  -0.8777  -0.8590  -0.8009
    -0.7471  -0.7159  -0.6462  -0.6210  -0.5617  -0.5026  -0.4871  -0.4566
    -0.4140  -0.3810  -0.3479  -0.2941  -0.2741  -0.2294  -0.2080  -0.1687
    -0.1429  -0.0798  -0.0440  -0.0131   0.0779   0.1074   0.1328   0.1533
     0.2060   0.2827   0.3147   0.3620   0.4065   0.4875   0.5764   0.6583
     0.6711   0.7030   0.7730   0.8190   0.8538   0.8997   1.0343   1.1014
     1.3788   1.6825   1.6883   1.7638   1.9282   1.9903   3.7423   3.8057
     3.8724   3.9261   3.9676   3.9948   4.0796   4.1203   4.1524   4.1691

          k =-0.0760-0.0000 0.0000 ( 17886 PWs)   bands (ev):

   -55.5763 -55.5756 -55.5417 -55.5386 -55.4631 -55.4258 -55.4254 -55.3899
   -55.3736 -55.3399 -55.3297 -55.2957 -55.0336 -54.8771 -54.5397 -54.5057
   -32.1388 -32.0570 -31.9709 -31.8962 -31.8899 -31.8770 -31.8682 -31.8312
   -31.8159 -31.7877 -31.7636 -31.7590 -31.7563 -31.7226 -31.7179 -31.7159
   -31.7067 -31.6770 -31.6546 -31.6506 -31.6336 -31.6155 -31.5988 -31.5885
   -31.5740 -31.5727 -31.5721 -31.5677 -31.5605 -31.5481 -31.5330 -31.5076
   -31.4950 -31.4925 -31.4847 -31.4759 -31.4437 -31.3078 -31.2621 -31.1570
   -31.1300 -31.0386 -30.9452 -30.8659 -30.8335 -30.7628 -30.6764 -30.5652
   -17.5952 -16.2210 -15.8776 -15.7216 -15.6752 -15.6442 -15.5700 -15.4326
   -15.3871 -15.3425 -15.2923 -15.2794 -15.2621 -15.2472 -15.1942 -15.1660
   -15.1300 -14.9351 -14.9221 -14.9033 -14.8695 -14.8301 -14.8115 -14.7873
   -14.7232 -14.7048 -14.6599 -14.6517 -14.5549 -14.2108 -13.0361 -12.9255
   -12.5956  -9.1495  -6.3188  -5.1603  -4.1476  -3.6674  -3.3509  -3.2418
    -3.2126  -3.1514  -3.0182  -2.9664  -2.9182  -2.8276  -2.8166  -2.7920
    -2.7844  -2.7257  -2.6133  -2.5150  -2.4751  -2.3960  -2.3479  -2.3021
    -2.2135  -2.1498  -2.1303  -2.0763  -2.0708  -2.0039  -1.9721  -1.9340
    -1.9169  -1.8741  -1.8445  -1.7987  -1.7971  -1.7630  -1.7538  -1.7091
    -1.6442  -1.5749  -1.5674  -1.4509  -1.4024  -1.3021  -1.2183  -1.1720
    -1.1563  -1.1496  -1.1390  -1.1306  -1.0337  -1.0131  -0.9331  -0.9106
    -0.8725  -0.8520  -0.8050  -0.7406  -0.7327  -0.7017  -0.5679  -0.5173
    -0.4697  -0.4037  -0.3406  -0.2572  -0.2189  -0.2106  -0.1713  -0.0954
    -0.0651  -0.0246   0.0470   0.0799   0.1259   0.1367   0.1750   0.1874
     0.2336   0.2742   0.2868   0.3455   0.4369   0.4446   0.5246   0.6779
     0.6956   0.7206   0.8002   0.8966   0.9393   1.0135   1.1291   1.1705
     1.4301   1.5152   1.6212   1.6449   1.8116   1.9586   3.5966   3.6025
     3.7205   3.8575   3.9005   3.9707   4.0123   4.0588   4.0850   4.0901

          k =-0.0760 0.0419 0.0000 ( 17914 PWs)   bands (ev):

   -55.5713 -55.5707 -55.5467 -55.5436 -55.4586 -55.4303 -55.4205 -55.3949
   -55.3687 -55.3448 -55.3248 -55.3006 -55.0330 -54.8777 -54.5348 -54.5107
   -32.0809 -32.0031 -31.9180 -31.8759 -31.8638 -31.8542 -31.8420 -31.8086
   -31.7910 -31.7898 -31.7768 -31.7616 -31.7580 -31.7426 -31.7343 -31.7198
   -31.7100 -31.6958 -31.6469 -31.6458 -31.6420 -31.6290 -31.6260 -31.5994
   -31.5897 -31.5868 -31.5655 -31.5591 -31.5562 -31.5514 -31.5504 -31.5375
   -31.5367 -31.5074 -31.4977 -31.4947 -31.4611 -31.3086 -31.2613 -31.1849
   -31.1321 -31.0448 -30.8914 -30.8612 -30.8382 -30.7503 -30.6892 -30.6224
   -17.5914 -16.0999 -15.7636 -15.6343 -15.6037 -15.5679 -15.4900 -15.4777
   -15.3350 -15.3162 -15.3054 -15.2595 -15.2340 -15.2029 -15.1633 -15.1363
   -15.1205 -14.9970 -14.9877 -14.9536 -14.9418 -14.9027 -14.8567 -14.8479
   -14.8277 -14.7424 -14.7231 -14.6585 -14.5715 -14.2960 -13.0421 -12.9663
   -12.5931  -9.1499  -6.3149  -5.1542  -4.1470  -3.4965  -3.3646  -3.0758
    -2.9597  -2.9302  -2.8419  -2.7582  -2.7257  -2.6937  -2.6743  -2.6168
    -2.6119  -2.5733  -2.5498  -2.5147  -2.4739  -2.4258  -2.4153  -2.3440
    -2.3119  -2.2942  -2.2650  -2.2501  -2.2036  -2.1579  -2.1392  -2.0495
    -2.0459  -2.0041  -1.9559  -1.8747  -1.8255  -1.7077  -1.6965  -1.6662
    -1.5768  -1.5733  -1.5311  -1.4249  -1.3543  -1.3325  -1.2322  -1.1898
    -1.1248  -1.1188  -1.0684  -1.0237  -0.9877  -0.9699  -0.9004  -0.8591
    -0.8394  -0.7951  -0.7898  -0.7695  -0.7287  -0.6971  -0.6346  -0.6224
    -0.5924  -0.5470  -0.4801  -0.4016  -0.3832  -0.3380  -0.3038  -0.2809
    -0.2178  -0.1910  -0.1334  -0.0824  -0.0283   0.0260   0.1106   0.1570
     0.2583   0.2686   0.3047   0.3761   0.4378   0.5734   0.6357   0.7165
     0.7600   0.7746   0.8149   0.8844   0.9052   0.9548   1.0099   1.0335
     1.2286   1.6455   1.6976   1.7673   1.8517   1.9791   3.7239   3.7848
     3.8015   3.8882   3.9119   3.9313   4.0397   4.1112   4.1623   4.2329

          k =-0.0760-0.0839 0.0000 ( 17948 PWs)   bands (ev):

   -55.5630 -55.5593 -55.5581 -55.5520 -55.4519 -55.4371 -55.4115 -55.4040
   -55.3584 -55.3552 -55.3146 -55.3109 -55.0324 -54.8784 -54.5228 -54.5227
   -31.9443 -31.9338 -31.8710 -31.8702 -31.8544 -31.8534 -31.8461 -31.8295
   -31.8046 -31.7906 -31.7703 -31.7507 -31.7252 -31.7145 -31.7093 -31.6835
   -31.6830 -31.6793 -31.6779 -31.6709 -31.6682 -31.6555 -31.6520 -31.6492
   -31.6287 -31.6156 -31.6051 -31.6042 -31.5555 -31.5534 -31.5474 -31.5450
   -31.5376 -31.5342 -31.5295 -31.5276 -31.4135 -31.3190 -31.2605 -31.2183
   -31.1354 -31.0496 -30.8496 -30.8495 -30.7590 -30.7588 -30.7199 -30.7199
   -17.5877 -15.8240 -15.7841 -15.5291 -15.5202 -15.5175 -15.4776 -15.3538
   -15.3051 -15.2793 -15.2682 -15.2496 -15.2411 -15.1398 -15.1257 -15.1095
   -15.0991 -15.0725 -15.0294 -15.0242 -15.0156 -15.0058 -14.9942 -14.9276
   -14.8756 -14.8717 -14.7573 -14.6658 -14.5250 -14.4364 -13.0280 -13.0279
   -12.5906  -9.1503  -6.3114  -5.1484  -4.1477  -3.3828  -3.1245  -3.0769
    -2.7891  -2.7696  -2.7543  -2.6409  -2.5215  -2.5121  -2.4863  -2.4643
    -2.4302  -2.4170  -2.4070  -2.3988  -2.3808  -2.3631  -2.3524  -2.3128
    -2.2438  -2.2356  -2.2263  -2.2196  -2.2029  -2.1792  -2.1682  -2.1413
    -2.1165  -2.0814  -2.0220  -1.9921  -1.8419  -1.7986  -1.7349  -1.6985
    -1.6898  -1.6608  -1.6273  -1.6199  -1.5082  -1.4936  -1.4616  -1.3308
    -1.2708  -1.2626  -1.2301  -1.1422  -1.1033  -0.9743  -0.9603  -0.9235
    -0.8674  -0.8605  -0.8232  -0.7853  -0.7352  -0.6825  -0.6396  -0.6161
    -0.5968  -0.5265  -0.5260  -0.4783  -0.4226  -0.3517  -0.3294  -0.3218
    -0.2893  -0.2455  -0.1987  -0.1353  -0.0597  -0.0404  -0.0257   0.0735
     0.1470   0.3655   0.4128   0.5092   0.5315   0.5586   0.6191   0.6687
     0.7378   0.7528   0.7809   0.8545   0.8760   0.9683   0.9798   0.9968
     1.1746   1.6431   1.8477   1.8486   1.9165   1.9170   3.8553   3.8712
     3.8955   3.9192   4.0793   4.0832   4.0963   4.0991   4.2195   4.2503

     the Fermi energy is     3.5612 ev

!    total energy              =   -2941.63793679 Ry
     estimated scf accuracy    <       0.00000007 Ry
     smearing contrib. (-TS)   =      -0.02171599 Ry
     internal energy E=F+TS    =   -2941.61622080 Ry

     The total energy is F=E-TS. E is the sum of the following terms:
     one-electron contribution =  -24390.04101433 Ry
     hartree contribution      =   12286.94196059 Ry
     xc contribution           =    -486.94198831 Ry
     ewald contribution        =    9648.42236140 Ry
     electric field correction =       0.00245984 Ry

     total magnetization       =    -0.01 Bohr mag/cell
     absolute magnetization    =     0.02 Bohr mag/cell

     convergence has been achieved in  68 iterations

     Forces acting on atoms (cartesian axes, Ry/au):

     atom    1 type  1   force =    -0.00001106   -0.00019627    0.09686057
     atom    2 type  1   force =     0.00009239   -0.00068990   -0.17461408
     atom    3 type  2   force =     0.00018210   -0.00005943   -0.02512144
     atom    4 type  2   force =     0.00000709   -0.00124907    0.05116343
     atom    5 type  2   force =    -0.01126736   -0.00079867    0.00227060
     atom    6 type  2   force =     0.01310797   -0.00034986    0.00271412
     atom    7 type  1   force =     0.00100214    0.00021827   -0.01339309
     atom    8 type  1   force =    -0.00010174    0.01532938    0.02828066
     atom    9 type  2   force =    -0.00007195   -0.00001498    0.00009509
     atom   10 type  2   force =    -0.00233994    0.00080650   -0.01059963
     atom   11 type  2   force =     0.00035256    0.00005251   -0.00001833
     atom   12 type  2   force =    -0.00042534   -0.00006905    0.00025144
     atom   13 type  1   force =     0.00015279   -0.00018620   -0.00003398
     atom   14 type  1   force =     0.00010169   -0.00022908    0.00004610
     atom   15 type  2   force =    -0.00005500    0.00020893   -0.00012058
     atom   16 type  2   force =    -0.00019685    0.00003086   -0.00017962
     atom   17 type  2   force =    -0.00014735    0.00008326   -0.00004329
     atom   18 type  2   force =    -0.00018627   -0.00002967   -0.00029045
     atom   19 type  1   force =    -0.00028680    0.00019985    0.00000199
     atom   20 type  1   force =    -0.00003649   -0.00056256   -0.00000030
     atom   21 type  2   force =     0.00003781   -0.00009303    0.10303407
     atom   22 type  2   force =    -0.00007643    0.00034243    0.00039313
     atom   23 type  2   force =    -0.07180275   -0.00021092   -0.02780631
     atom   24 type  2   force =     0.07176077    0.00024512   -0.02786903
     atom   25 type  1   force =     0.00003056   -0.00026240    0.09646170
     atom   26 type  1   force =    -0.00000208   -0.00028997   -0.17488104
     atom   27 type  2   force =     0.00019232   -0.00025713   -0.02398317
     atom   28 type  2   force =     0.00005275   -0.00100713    0.05143465
     atom   29 type  2   force =    -0.01129594    0.00078990    0.00168463
     atom   30 type  2   force =     0.01298582    0.00111706    0.00208187
     atom   31 type  1   force =     0.00103564    0.00257305   -0.01541005
     atom   32 type  1   force =     0.00005572   -0.01663229    0.02915568
     atom   33 type  2   force =     0.00011638    0.00003023   -0.00011569
     atom   34 type  2   force =    -0.00271181    0.00093477   -0.01870476
     atom   35 type  2   force =     0.00017301   -0.00007477   -0.00009090
     atom   36 type  2   force =    -0.00036880   -0.00007265    0.00012933
     atom   37 type  1   force =    -0.00010670   -0.00019578    0.00016659
     atom   38 type  1   force =     0.00007473    0.00009170   -0.00004302
     atom   39 type  2   force =    -0.00003595    0.00043974   -0.00005170
     atom   40 type  2   force =    -0.00037862    0.00015336   -0.00011794
     atom   41 type  2   force =     0.00011264   -0.00002187   -0.00011325
     atom   42 type  2   force =    -0.00005431    0.00018071    0.00001780
     atom   43 type  1   force =     0.00015172    0.00001094   -0.00009364
     atom   44 type  1   force =    -0.00042139   -0.00039351   -0.00060770
     atom   45 type  2   force =     0.00005338   -0.00011049    0.10303780
     atom   46 type  2   force =    -0.07182556   -0.00016099   -0.02783011
     atom   47 type  2   force =     0.07176805    0.00022607   -0.02787317
     atom   48 type  3   force =    -0.00385098    0.00061383   -0.00529366
     atom   49 type  4   force =    -0.00245870    0.00050892    0.01819493
     atom   50 type  5   force =    -0.00071065   -0.00369352   -0.00396543
     atom   51 type  5   force =     0.00130910    0.00360490   -0.00461510
     atom   52 type  5   force =     0.00433755   -0.00129206   -0.00345990
     atom   53 type  3   force =     0.00152875    0.00030992    0.00016148
     atom   54 type  5   force =     0.00053967   -0.00010775    0.00124650
     atom   55 type  5   force =    -0.00008827    0.00020878   -0.00154380

     Total force =     0.367902     Total SCF correction =     0.000745
  @ DRIVER MODE: Message from server: STATUS
  @ DRIVER MODE: Message from server: GETFORCE
  @ DRIVER MODE: Returning v,forces,stress,ensemble 

     Writing output data file ./calc.save/
  @ DRIVER MODE: Message from server: EXIT
  @ DRIVE MODE: Exiting  
 
     init_run     :     11.59s CPU     11.75s WALL (       1 calls)
     electrons    :   1780.95s CPU   1804.23s WALL (       1 calls)
     forces       :      3.05s CPU      3.11s WALL (       1 calls)

     Called by init_run:
     wfcinit      :      6.67s CPU      6.74s WALL (       1 calls)
     potinit      :      3.85s CPU      3.90s WALL (       1 calls)
     hinit0       :      0.30s CPU      0.31s WALL (       1 calls)

     Called by electrons:
     c_bands      :   1541.84s CPU   1556.81s WALL (      68 calls)
     sum_band     :    180.10s CPU    182.65s WALL (      68 calls)
     v_of_rho     :     40.36s CPU     41.95s WALL (      69 calls)
     newd         :     13.18s CPU     15.54s WALL (      69 calls)
     mix_rho      :      7.85s CPU      9.45s WALL (      68 calls)
     vdW_kernel   :      3.18s CPU      3.19s WALL (       1 calls)

     Called by c_bands:
     init_us_2    :      9.54s CPU      9.57s WALL (    2760 calls)
     cegterg      :   1516.62s CPU   1531.03s WALL (    1385 calls)

     Called by *egterg:
     cdiaghg      :    370.57s CPU    372.09s WALL (   13987 calls)
     h_psi        :    716.61s CPU    727.61s WALL (   14007 calls)
     s_psi        :     87.90s CPU     88.20s WALL (   14007 calls)
     g_psi        :      2.22s CPU      2.24s WALL (   12602 calls)

     Called by h_psi:
     h_psi:calbec :     91.71s CPU     92.19s WALL (   14007 calls)
     vloc_psi     :    531.20s CPU    541.38s WALL (   14007 calls)
     add_vuspsi   :     89.52s CPU     89.84s WALL (   14007 calls)

     General routines
     calbec       :    121.69s CPU    122.27s WALL (   15447 calls)
     fft          :     25.06s CPU     25.65s WALL (    6138 calls)
     ffts         :      0.27s CPU      0.27s WALL (     274 calls)
     fftw         :    622.33s CPU    633.16s WALL ( 1897058 calls)
     interpolate  :      0.66s CPU      0.66s WALL (     138 calls)
     davcio       :      0.00s CPU      0.32s WALL (      20 calls)
 
     Parallel routines
 
     PWSCF        :  29m56.43s CPU  30m20.37s WALL

 
   This run was terminated on:   0:18:35  16Jul2021            

=------------------------------------------------------------------------------=
   JOB DONE.
=------------------------------------------------------------------------------=
