
     Program PWSCF v.6.7GPU starts on 21Sep2021 at 16:54:19 

     This program is part of the open-source Quantum ESPRESSO suite
     for quantum simulation of materials; please cite
         "P. Giannozzi et al., J. Phys.:Condens. Matter 21 395502 (2009);
         "P. Giannozzi et al., J. Phys.:Condens. Matter 29 465901 (2017);
         "P. Giannozzi et al., J. Chem. Phys. 152 154105 (2020);
          URL http://www.quantum-espresso.org", 
     in publications or presentations arising from this work. More details at
     http://www.quantum-espresso.org/quote

     Parallel version (MPI), running on    10 processors

     MPI processes distributed on     1 nodes
     R & G space division:  proc/nbgrp/npool/nimage =      10
     Reading input from /storage/home/hcoda1/3/ntian30/research/carbon/CxH_vib/CH3_calc/ads_slab/CH3ON2_a/out_0015/pw.inp
Warning: card &CELL ignored
Warning: card   CELL_DYNAMICS='IPI', ignored
Warning: card / ignored

     Current dimensions of program PWSCF are:
     Max number of different atomic species (ntypx) = 10
     Max number of k-points (npk) =  40000
     Max angular momentum in pseudopotentials (lmaxx) =  3
     Presently no symmetry can be used with electric field

     Message from routine cell_base_init:
     DEPRECATED: use true lattice parameter, not A to a.u. conversion factor

     **************************************************************************
     Initializing libbeef V0.1.2 with the BEEF-vdW functional.
     Citation: Wellendorff et al., PRB 85, 235149 (2012).
     **************************************************************************


     IMPORTANT: XC functional enforced from input :
     Exchange-correlation= BEEF-VDW
                           (   1   4  43  14   2   0   0)
     Any further DFT definition will be discarded
     Please, verify this is what you really want


     Subspace diagonalization in iterative solution of the eigenvalue problem:
     one sub-group per band group will be used
     scalapack distributed-memory algorithm (size of sub-group:  3*  3 procs)

  @ DRIVER MODE: Connecting to 
 qe_1139763_2922197.sched-torque.pace.gatech.edulhv9roij_scratch
  using UNIX socket
  @ DRIVER MODE: Message from server: STATUS
  @ DRIVER MODE: Message from server: INIT
  @ DRIVER MODE: Receiving replica           0          -1
  @ DRIVER MODE: Receiving encoded integer          25
  @ DRIVER MODE:  SCF:  T  FORCE:  T  STRESS:  F  VC:  F  ENSEMBLE:  F
  @ DRIVER MODE:  SCF:  T  FORCE:  T  STRESS:  F  VC:  F  ENSEMBLE:  F
 
     Parallelization info
     --------------------
     sticks:   dense  smooth     PW     G-vecs:    dense   smooth      PW
     Min         327     131     37                56683    14340    2191
     Max         328     133     38                56694    14346    2206
     Sum        3275    1317    379               566857   143421   21985
 
     Using Slab Decomposition
 


     bravais-lattice index     =            0
     lattice parameter (alat)  =       1.8897  a.u.
     unit-cell volume          =    6658.9804 (a.u.)^3
     number of atoms/cell      =           54
     number of atomic types    =            5
     number of electrons       =       401.00
     number of Kohn-Sham states=          210
     kinetic-energy cutoff     =      29.3995  Ry
     charge density cutoff     =     293.9946  Ry
     scf convergence threshold =      7.3E-08
     mixing beta               =       0.0500
     number of iterations used =            8  plain     mixing
     Exchange-correlation= BEEF-VDW
                           (   1   4  43  14   2   0   0)

     celldm(1)=   1.889726  celldm(2)=   0.000000  celldm(3)=   0.000000
     celldm(4)=   0.000000  celldm(5)=   0.000000  celldm(6)=   0.000000

     crystal axes: (cart. coord. in units of alat)
               a(1) = (   6.579727   0.000000   0.000000 )  
               a(2) = (  -0.000775   5.961596   0.000000 )  
               a(3) = (   0.000000   0.000000  25.155947 )  

     reciprocal axes: (cart. coord. in units 2 pi/alat)
               b(1) = (  0.151982  0.000020  0.000000 )  
               b(2) = (  0.000000  0.167740  0.000000 )  
               b(3) = (  0.000000  0.000000  0.039752 )  


     PseudoPot. # 1 for Ti read from file:
     /storage/coda1/p-amedford6/0/shared/rich_project_chbe-medford/medford-share/data/pseudos_module/espresso/nninc/pbe/van/Ti.UPF
     MD5 check sum: 8e4df49b7f0d34bbd5052bf3f5ea0213
     Pseudo is Ultrasoft, Zval = 12.0
     Generated by new atomic code, or converted to UPF format
     Using radial grid of  851 points,  6 beta functions with: 
                l(1) =   0
                l(2) =   0
                l(3) =   1
                l(4) =   1
                l(5) =   2
                l(6) =   2
     Q(r) pseudized with  8 coefficients,  rinner =    1.000   1.000   1.000
                                                       1.000   1.000

     PseudoPot. # 2 for O  read from file:
     /storage/coda1/p-amedford6/0/shared/rich_project_chbe-medford/medford-share/data/pseudos_module/espresso/nninc/pbe/van/O.UPF
     MD5 check sum: 78c19812648e8988a0fe644b0f25305e
     Pseudo is Ultrasoft, Zval =  6.0
     Generated by new atomic code, or converted to UPF format
     Using radial grid of  737 points,  4 beta functions with: 
                l(1) =   0
                l(2) =   0
                l(3) =   1
                l(4) =   1
     Q(r) pseudized with  8 coefficients,  rinner =    0.800   0.800   0.800


     PseudoPot. # 3 for C  read from file:
     /storage/coda1/p-amedford6/0/shared/rich_project_chbe-medford/medford-share/data/pseudos_module/espresso/nninc/pbe/van/C.UPF
     MD5 check sum: 1a69bf6b8db32088f5b2163dbdb77a27
     Pseudo is Ultrasoft, Zval =  4.0
     Generated by new atomic code, or converted to UPF format
     Using radial grid of  721 points,  4 beta functions with: 
                l(1) =   0
                l(2) =   0
                l(3) =   1
                l(4) =   1
     Q(r) pseudized with  8 coefficients,  rinner =    0.800   0.800   0.800


     PseudoPot. # 4 for H  read from file:
     /storage/coda1/p-amedford6/0/shared/rich_project_chbe-medford/medford-share/data/pseudos_module/espresso/nninc/pbe/van/H.UPF
     MD5 check sum: b5ee9d7bfd3a09ee7748110bda690ff7
     Pseudo is Ultrasoft, Zval =  1.0
     Generated by new atomic code, or converted to UPF format
     Using radial grid of  615 points,  1 beta functions with: 
                l(1) =   0
     Q(r) pseudized with  8 coefficients,  rinner =    0.800

     PseudoPot. # 5 for N  read from file:
     /storage/coda1/p-amedford6/0/shared/rich_project_chbe-medford/medford-share/data/pseudos_module/espresso/nninc/pbe/van/N.UPF
     MD5 check sum: 90d10febe142ad51ac9d5be1deb811c4
     Pseudo is Ultrasoft, Zval =  5.0
     Generated by new atomic code, or converted to UPF format
     Using radial grid of  729 points,  4 beta functions with: 
                l(1) =   0
                l(2) =   0
                l(3) =   1
                l(4) =   1
     Q(r) pseudized with  8 coefficients,  rinner =    0.800   0.800   0.800


     atomic species   valence    mass     pseudopotential
        Ti1           12.00    47.86700     Ti( 1.00)
        O1             6.00    15.99900     O ( 1.00)
        C1             4.00    12.01100     C ( 1.00)
        H1             1.00     1.00800     H ( 1.00)
        N1             5.00    14.00700     N ( 1.00)

     No symmetry found



   Cartesian axes

     site n.     atom                  positions (alat units)
         1           Ti1 tau(   1) = (   0.0004258   2.9801865   6.0000000  )
         2           Ti1 tau(   2) = (   3.2906075   1.4906267   6.0002472  )
         3           O1  tau(   3) = (   0.0006271   0.0005054   7.9858123  )
         4           O1  tau(   4) = (   3.2906025   0.0005020   7.3038282  )
         5           O1  tau(   5) = (   4.5942328   1.4918067   9.2879030  )
         6           O1  tau(   6) = (   1.9868534   1.4903216   9.2879459  )
         7           Ti1 tau(   7) = (   3.3204934   3.0328528   9.1574130  )
         8           Ti1 tau(   8) = (   0.0292148   1.6159158   9.3632543  )
         9           O1  tau(   9) = (   3.3070435   0.0102262  11.3480939  )
        10           O1  tau(  10) = (   0.0088878   0.0096727  10.6115680  )
        11           O1  tau(  11) = (   1.3030819   1.4981340  12.6442205  )
        12           O1  tau(  12) = (   5.3040506   1.5010416  12.6455732  )
        13           Ti1 tau(  13) = (   0.0403577   3.0063940  12.8112948  )
        14           Ti1 tau(  14) = (   3.3464846   1.5065728  12.4912112  )
        15           O1  tau(  15) = (   0.0134291   0.0009660  14.7247257  )
        16           O1  tau(  16) = (   3.3093041   0.0058478  13.9373560  )
        17           O1  tau(  17) = (   4.5500255   1.4945122  16.1009386  )
        18           O1  tau(  18) = (   2.0583445   1.4942802  16.1012567  )
        19           Ti1 tau(  19) = (   3.3037885   2.9813703  15.7231771  )
        20           Ti1 tau(  20) = (   0.0263689   1.3683668  16.1009981  )
        21           O1  tau(  21) = (   3.2904802   0.0005063   4.7018136  )
        22           O1  tau(  22) = (   0.0160251   5.9515368  17.2504238  )
        23           O1  tau(  23) = (   1.3043587   1.4918075   6.0039043  )
        24           O1  tau(  24) = (   5.2767064   1.4903225   6.0039473  )
        25           Ti1 tau(  25) = (   0.0000382   5.9609847   6.0000000  )
        26           Ti1 tau(  26) = (   3.2902200   4.4714249   6.0002472  )
        27           O1  tau(  27) = (   0.0002396   2.9813036   7.9858123  )
        28           O1  tau(  28) = (   3.2902150   2.9813002   7.3038282  )
        29           O1  tau(  29) = (   4.5938453   4.4726049   9.2879030  )
        30           O1  tau(  30) = (   1.9864658   4.4711199   9.2879459  )
        31           Ti1 tau(  31) = (   3.3068128   0.0556959   9.1539818  )
        32           Ti1 tau(  32) = (   0.0329352   4.5395830   9.2719105  )
        33           O1  tau(  33) = (   3.3067668   2.9902038  11.3487497  )
        34           O1  tau(  34) = (   0.0086428   2.9933526  10.5732881  )
        35           O1  tau(  35) = (   1.3040514   4.4849883  12.6410176  )
        36           O1  tau(  36) = (   5.3019722   4.4792838  12.6433842  )
        37           Ti1 tau(  37) = (   0.0449501   0.0247790  12.5283380  )
        38           Ti1 tau(  38) = (   3.3452221   4.4882979  12.4886840  )
        39           O1  tau(  39) = (   0.0326844   3.0101588  14.7024583  )
        40           O1  tau(  40) = (   3.3056340   2.9839048  13.9300935  )
        41           O1  tau(  41) = (   4.5482541   4.4683137  16.0944903  )
        42           O1  tau(  42) = (   2.0564524   4.4684886  16.0889558  )
        43           Ti1 tau(  43) = (   3.3155465   0.0028818  15.7289974  )
        44           Ti1 tau(  44) = (   0.0293978   4.5260084  15.9878609  )
        45           O1  tau(  45) = (   3.2900926   2.9813045   4.7018136  )
        46           O1  tau(  46) = (   1.3039711   4.4726057   6.0039043  )
        47           O1  tau(  47) = (   5.2763189   4.4711207   6.0039473  )
        48           C1  tau(  48) = (   6.0941187   3.0165090  18.6783144  )
        49           O1  tau(  49) = (   6.5649259   2.9843894  17.3344459  )
        50           H1  tau(  50) = (   5.0084317   2.8624860  18.7083625  )
        51           H1  tau(  51) = (   6.5664557   2.2147430  19.2506469  )
        52           H1  tau(  52) = (   6.3318479   3.9831036  19.1258517  )
        53           N1  tau(  53) = (   6.0286935   3.0693532  22.8641725  )
        54           N1  tau(  54) = (   5.2900788   3.1330812  22.0463807  )

     number of k points=    10  Fermi-Dirac smearing, width (Ry)=  0.0073
                       cart. coord. in units 2pi/alat
        k(    1) = (   0.0000000   0.0000000   0.0000000), wk =   0.1250000
        k(    2) = (   0.0000000   0.0419351   0.0000000), wk =   0.2500000
        k(    3) = (   0.0000000  -0.0838702   0.0000000), wk =   0.1250000
        k(    4) = (   0.0379955   0.0000049   0.0000000), wk =   0.2500000
        k(    5) = (   0.0379955   0.0419400   0.0000000), wk =   0.2500000
        k(    6) = (   0.0379955  -0.0838652   0.0000000), wk =   0.2500000
        k(    7) = (   0.0379955  -0.0419301   0.0000000), wk =   0.2500000
        k(    8) = (  -0.0759910  -0.0000099   0.0000000), wk =   0.1250000
        k(    9) = (  -0.0759910   0.0419252   0.0000000), wk =   0.2500000
        k(   10) = (  -0.0759910  -0.0838800   0.0000000), wk =   0.1250000

     Dense  grid:   566857 G-vectors     FFT dimensions: (  72,  64, 270)

     Smooth grid:   143421 G-vectors     FFT dimensions: (  45,  40, 180)

     Estimated max dynamical RAM per process >     367.12 MB

     Estimated total dynamical RAM >       3.59 GB
     Cannot read rho : file not found

     Initial potential from superposition of free atoms

     starting charge  384.99916, renormalised to  401.00000

     negative rho (up, down):  1.014E-02 0.000E+00


     %%%%%%%%%%%%%%%%%%%%%%%%%%%%%%%%%%%%%%%%%%%%%%%%%%%%%%%%%%%%%%%%%%%%%%%%
     %                                                                      %
     % You are using vdW-DF, which was implemented by the Thonhauser group. %
     % Please cite the following two papers that made this development      %
     % possible and the two reviews that describe the various versions:     %
     %                                                                      %
     %   T. Thonhauser et al., PRL 115, 136402 (2015).                      %
     %   T. Thonhauser et al., PRB 76, 125112 (2007).                       %
     %   K. Berland et al., Rep. Prog. Phys. 78, 066501 (2015).             %
     %   D.C. Langreth et al., J. Phys.: Condens. Matter 21, 084203 (2009). %
     %                                                                      %
     %                                                                      %
     % If you are calculating the stress with vdW-DF, please also cite:     %
     %                                                                      %
     %   R. Sabatini et al., J. Phys.: Condens. Matter 24, 424209 (2012).   %
     %                                                                      %
     %%%%%%%%%%%%%%%%%%%%%%%%%%%%%%%%%%%%%%%%%%%%%%%%%%%%%%%%%%%%%%%%%%%%%%%%


 
     Adding external electric field

     Computed dipole along edir(3) : 
        Dipole              -14.4684 Ry au,        -36.7751 Debye
        Dipole field         -0.0273 Ry au, 
 
        Potential amp.        2.5310 Ry
        Total length         46.3494 bohr
 
     Starting wfcs are  303 atomic wfcs
  @ DRIVER MODE: Message from server: STATUS
  @ DRIVER MODE: Message from server: POSDATA
  @ DRIVER MODE: Reading and sharing cell 
  @ DRIVER MODE: Reading and sharing positions 
  @ DRIVER MODE: Received positions 

     total cpu time spent up to now is       13.6 secs

     Self-consistent Calculation

     iteration #  1     ecut=    29.40 Ry     beta= 0.05
     Davidson diagonalization with overlap
     c_bands:  3 eigenvalues not converged
     c_bands:  3 eigenvalues not converged
     c_bands:  4 eigenvalues not converged
     c_bands:  3 eigenvalues not converged
     c_bands:  5 eigenvalues not converged
     c_bands:  3 eigenvalues not converged
     c_bands:  5 eigenvalues not converged
     c_bands:  3 eigenvalues not converged
     c_bands:  3 eigenvalues not converged
     c_bands:  1 eigenvalues not converged
     ethr =  1.00E-05,  avg # of iterations = 24.0

     negative rho (up, down):  8.343E-03 0.000E+00
 
     Adding external electric field

     Computed dipole along edir(3) : 
        Dipole               51.3646 Ry au,        130.5559 Debye
        Dipole field          0.0969 Ry au, 
 
        Potential amp.       -8.9855 Ry
        Total length         46.3494 bohr
 

     total cpu time spent up to now is       58.4 secs

     total energy              =   -2414.28332904 Ry
     estimated scf accuracy    <    6341.47461055 Ry

     iteration #  2     ecut=    29.40 Ry     beta= 0.05
     Davidson diagonalization with overlap
     ethr =  1.00E-02,  avg # of iterations = 24.3

     negative rho (up, down):  6.429E-04 0.000E+00
 
     Adding external electric field

     Computed dipole along edir(3) : 
        Dipole               -3.6553 Ry au,         -9.2910 Debye
        Dipole field         -0.0069 Ry au, 
 
        Potential amp.        0.6394 Ry
        Total length         46.3494 bohr
 

     total cpu time spent up to now is      140.1 secs

     total energy              =   -2411.25973072 Ry
     estimated scf accuracy    <   78228.01973505 Ry

     iteration #  3     ecut=    29.40 Ry     beta= 0.05
     Davidson diagonalization with overlap
     ethr =  1.00E-02,  avg # of iterations = 16.7

     negative rho (up, down):  7.016E-04 0.000E+00
 
     Adding external electric field

     Computed dipole along edir(3) : 
        Dipole               -5.5960 Ry au,        -14.2237 Debye
        Dipole field         -0.0106 Ry au, 
 
        Potential amp.        0.9789 Ry
        Total length         46.3494 bohr
 

     total cpu time spent up to now is      189.3 secs

     total energy              =   -2962.70621780 Ry
     estimated scf accuracy    <    5863.03827354 Ry

     iteration #  4     ecut=    29.40 Ry     beta= 0.05
     Davidson diagonalization with overlap
     ethr =  1.00E-02,  avg # of iterations = 14.2

     negative rho (up, down):  7.121E-04 0.000E+00
 
     Adding external electric field

     Computed dipole along edir(3) : 
        Dipole               -6.3111 Ry au,        -16.0412 Debye
        Dipole field         -0.0119 Ry au, 
 
        Potential amp.        1.1040 Ry
        Total length         46.3494 bohr
 

     total cpu time spent up to now is      210.6 secs

     total energy              =   -2965.60490283 Ry
     estimated scf accuracy    <    1980.45657071 Ry

     iteration #  5     ecut=    29.40 Ry     beta= 0.05
     Davidson diagonalization with overlap
     ethr =  1.00E-02,  avg # of iterations =  3.9

     negative rho (up, down):  7.719E-04 0.000E+00
 
     Adding external electric field

     Computed dipole along edir(3) : 
        Dipole               -7.8630 Ry au,        -19.9858 Debye
        Dipole field         -0.0148 Ry au, 
 
        Potential amp.        1.3755 Ry
        Total length         46.3494 bohr
 

     total cpu time spent up to now is      221.7 secs

     total energy              =   -2918.77510131 Ry
     estimated scf accuracy    <    1754.28664868 Ry

     iteration #  6     ecut=    29.40 Ry     beta= 0.05
     Davidson diagonalization with overlap
     ethr =  1.00E-02,  avg # of iterations =  9.0

     negative rho (up, down):  3.389E-04 0.000E+00
 
     Adding external electric field

     Computed dipole along edir(3) : 
        Dipole               -4.6446 Ry au,        -11.8054 Debye
        Dipole field         -0.0088 Ry au, 
 
        Potential amp.        0.8125 Ry
        Total length         46.3494 bohr
 

     total cpu time spent up to now is      244.6 secs

     total energy              =   -2961.40121347 Ry
     estimated scf accuracy    <     629.36628738 Ry

     iteration #  7     ecut=    29.40 Ry     beta= 0.05
     Davidson diagonalization with overlap
     c_bands:  1 eigenvalues not converged
     c_bands:  2 eigenvalues not converged
     ethr =  1.00E-02,  avg # of iterations = 12.8

     negative rho (up, down):  4.582E-04 0.000E+00
 
     Adding external electric field

     Computed dipole along edir(3) : 
        Dipole               -4.4828 Ry au,        -11.3941 Debye
        Dipole field         -0.0085 Ry au, 
 
        Potential amp.        0.7842 Ry
        Total length         46.3494 bohr
 

     total cpu time spent up to now is      258.9 secs

     total energy              =   -2974.90941701 Ry
     estimated scf accuracy    <      29.16371998 Ry

     iteration #  8     ecut=    29.40 Ry     beta= 0.05
     Davidson diagonalization with overlap
     c_bands:  1 eigenvalues not converged
     c_bands:  2 eigenvalues not converged
     c_bands:  3 eigenvalues not converged
     ethr =  7.27E-03,  avg # of iterations = 12.3

     negative rho (up, down):  9.692E-04 0.000E+00
 
     Adding external electric field

     Computed dipole along edir(3) : 
        Dipole               -5.0071 Ry au,        -12.7268 Debye
        Dipole field         -0.0094 Ry au, 
 
        Potential amp.        0.8759 Ry
        Total length         46.3494 bohr
 

     total cpu time spent up to now is      272.1 secs

     total energy              =   -2973.92000809 Ry
     estimated scf accuracy    <      19.04872968 Ry

     iteration #  9     ecut=    29.40 Ry     beta= 0.05
     Davidson diagonalization with overlap
     ethr =  4.75E-03,  avg # of iterations =  2.9

     negative rho (up, down):  2.693E-03 0.000E+00
 
     Adding external electric field

     Computed dipole along edir(3) : 
        Dipole               -4.9158 Ry au,        -12.4947 Debye
        Dipole field         -0.0093 Ry au, 
 
        Potential amp.        0.8599 Ry
        Total length         46.3494 bohr
 

     total cpu time spent up to now is      282.6 secs

     total energy              =   -2973.22392907 Ry
     estimated scf accuracy    <      25.07802546 Ry

     iteration # 10     ecut=    29.40 Ry     beta= 0.05
     Davidson diagonalization with overlap
     ethr =  4.75E-03,  avg # of iterations =  3.3

     negative rho (up, down):  5.856E-02 0.000E+00
 
     Adding external electric field

     Computed dipole along edir(3) : 
        Dipole               -1.8950 Ry au,         -4.8166 Debye
        Dipole field         -0.0036 Ry au, 
 
        Potential amp.        0.3315 Ry
        Total length         46.3494 bohr
 

     total cpu time spent up to now is      293.5 secs

     total energy              =   -2973.41466280 Ry
     estimated scf accuracy    <      33.78888236 Ry

     iteration # 11     ecut=    29.40 Ry     beta= 0.05
     Davidson diagonalization with overlap
     ethr =  4.75E-03,  avg # of iterations = 13.1

     negative rho (up, down):  4.986E-02 0.000E+00
 
     Adding external electric field

     Computed dipole along edir(3) : 
        Dipole               -1.6778 Ry au,         -4.2645 Debye
        Dipole field         -0.0032 Ry au, 
 
        Potential amp.        0.2935 Ry
        Total length         46.3494 bohr
 

     total cpu time spent up to now is      319.4 secs

     total energy              =   -2993.80236648 Ry
     estimated scf accuracy    <    3915.09899141 Ry

     iteration # 12     ecut=    29.40 Ry     beta= 0.05
     Davidson diagonalization with overlap
     ethr =  4.75E-03,  avg # of iterations =  2.9

     negative rho (up, down):  4.471E-02 0.000E+00
 
     Adding external electric field

     Computed dipole along edir(3) : 
        Dipole               -1.4433 Ry au,         -3.6685 Debye
        Dipole field         -0.0027 Ry au, 
 
        Potential amp.        0.2525 Ry
        Total length         46.3494 bohr
 

     total cpu time spent up to now is      330.0 secs

     total energy              =   -2992.81732533 Ry
     estimated scf accuracy    <    2966.02528128 Ry

     iteration # 13     ecut=    29.40 Ry     beta= 0.05
     Davidson diagonalization with overlap
     ethr =  4.75E-03,  avg # of iterations =  1.1

     negative rho (up, down):  9.819E-03 0.000E+00
 
     Adding external electric field

     Computed dipole along edir(3) : 
        Dipole               -0.3092 Ry au,         -0.7859 Debye
        Dipole field         -0.0006 Ry au, 
 
        Potential amp.        0.0541 Ry
        Total length         46.3494 bohr
 

     total cpu time spent up to now is      339.9 secs

     total energy              =   -2967.05008442 Ry
     estimated scf accuracy    <    3017.87769557 Ry

     iteration # 14     ecut=    29.40 Ry     beta= 0.05
     Davidson diagonalization with overlap
     ethr =  4.75E-03,  avg # of iterations = 12.9

     negative rho (up, down):  1.590E-03 0.000E+00
 
     Adding external electric field

     Computed dipole along edir(3) : 
        Dipole               -3.0580 Ry au,         -7.7727 Debye
        Dipole field         -0.0058 Ry au, 
 
        Potential amp.        0.5350 Ry
        Total length         46.3494 bohr
 

     total cpu time spent up to now is      360.3 secs

     total energy              =   -2963.58755644 Ry
     estimated scf accuracy    <    1293.51782015 Ry

     iteration # 15     ecut=    29.40 Ry     beta= 0.05
     Davidson diagonalization with overlap
     c_bands:  2 eigenvalues not converged
     ethr =  4.75E-03,  avg # of iterations = 11.2

     negative rho (up, down):  5.936E-03 0.000E+00
 
     Adding external electric field

     Computed dipole along edir(3) : 
        Dipole               -3.5527 Ry au,         -9.0300 Debye
        Dipole field         -0.0067 Ry au, 
 
        Potential amp.        0.6215 Ry
        Total length         46.3494 bohr
 

     total cpu time spent up to now is      376.6 secs

     total energy              =   -2973.57146140 Ry
     estimated scf accuracy    <     261.89064798 Ry

     iteration # 16     ecut=    29.40 Ry     beta= 0.05
     Davidson diagonalization with overlap
     ethr =  4.75E-03,  avg # of iterations =  1.8

     negative rho (up, down):  3.220E-03 0.000E+00
 
     Adding external electric field

     Computed dipole along edir(3) : 
        Dipole               -3.4420 Ry au,         -8.7487 Debye
        Dipole field         -0.0065 Ry au, 
 
        Potential amp.        0.6021 Ry
        Total length         46.3494 bohr
 

     total cpu time spent up to now is      386.9 secs

     total energy              =   -2967.38067530 Ry
     estimated scf accuracy    <     569.41011053 Ry

     iteration # 17     ecut=    29.40 Ry     beta= 0.05
     Davidson diagonalization with overlap
     c_bands:  5 eigenvalues not converged
     c_bands:  1 eigenvalues not converged
     ethr =  4.75E-03,  avg # of iterations =  8.2

     negative rho (up, down):  3.139E-03 0.000E+00
 
     Adding external electric field

     Computed dipole along edir(3) : 
        Dipole               -2.6716 Ry au,         -6.7904 Debye
        Dipole field         -0.0050 Ry au, 
 
        Potential amp.        0.4673 Ry
        Total length         46.3494 bohr
 

     total cpu time spent up to now is      400.6 secs

     total energy              =   -2970.00006514 Ry
     estimated scf accuracy    <      70.33916632 Ry

     iteration # 18     ecut=    29.40 Ry     beta= 0.05
     Davidson diagonalization with overlap
     ethr =  4.75E-03,  avg # of iterations =  6.2

     negative rho (up, down):  3.095E-03 0.000E+00
 
     Adding external electric field

     Computed dipole along edir(3) : 
        Dipole               -2.4555 Ry au,         -6.2412 Debye
        Dipole field         -0.0046 Ry au, 
 
        Potential amp.        0.4295 Ry
        Total length         46.3494 bohr
 

     total cpu time spent up to now is      413.8 secs

     total energy              =   -2972.09402831 Ry
     estimated scf accuracy    <       8.01228069 Ry

     iteration # 19     ecut=    29.40 Ry     beta= 0.05
     Davidson diagonalization with overlap
     c_bands:  4 eigenvalues not converged
     ethr =  2.00E-03,  avg # of iterations =  5.3

     negative rho (up, down):  5.277E-03 0.000E+00
 
     Adding external electric field

     Computed dipole along edir(3) : 
        Dipole               -2.6166 Ry au,         -6.6506 Debye
        Dipole field         -0.0049 Ry au, 
 
        Potential amp.        0.4577 Ry
        Total length         46.3494 bohr
 

     total cpu time spent up to now is      426.0 secs

     total energy              =   -2974.00989863 Ry
     estimated scf accuracy    <      13.73634817 Ry

     iteration # 20     ecut=    29.40 Ry     beta= 0.05
     Davidson diagonalization with overlap
     ethr =  2.00E-03,  avg # of iterations = 10.2

     negative rho (up, down):  6.357E-03 0.000E+00
 
     Adding external electric field

     Computed dipole along edir(3) : 
        Dipole               -2.5787 Ry au,         -6.5544 Debye
        Dipole field         -0.0049 Ry au, 
 
        Potential amp.        0.4511 Ry
        Total length         46.3494 bohr
 

     total cpu time spent up to now is      445.0 secs

     total energy              =   -2977.08809159 Ry
     estimated scf accuracy    <     370.57039125 Ry

     iteration # 21     ecut=    29.40 Ry     beta= 0.05
     Davidson diagonalization with overlap
     ethr =  2.00E-03,  avg # of iterations =  1.7

     negative rho (up, down):  4.807E-03 0.000E+00
 
     Adding external electric field

     Computed dipole along edir(3) : 
        Dipole               -2.7075 Ry au,         -6.8819 Debye
        Dipole field         -0.0051 Ry au, 
 
        Potential amp.        0.4736 Ry
        Total length         46.3494 bohr
 

     total cpu time spent up to now is      455.3 secs

     total energy              =   -2976.69929080 Ry
     estimated scf accuracy    <     315.01271049 Ry

     iteration # 22     ecut=    29.40 Ry     beta= 0.05
     Davidson diagonalization with overlap
     ethr =  2.00E-03,  avg # of iterations =  1.6

     negative rho (up, down):  4.332E-03 0.000E+00
 
     Adding external electric field

     Computed dipole along edir(3) : 
        Dipole               -3.1818 Ry au,         -8.0874 Debye
        Dipole field         -0.0060 Ry au, 
 
        Potential amp.        0.5566 Ry
        Total length         46.3494 bohr
 

     total cpu time spent up to now is      465.3 secs

     total energy              =   -2974.94003233 Ry
     estimated scf accuracy    <     307.02633952 Ry

     iteration # 23     ecut=    29.40 Ry     beta= 0.05
     Davidson diagonalization with overlap
     ethr =  2.00E-03,  avg # of iterations =  1.8

     negative rho (up, down):  1.762E-03 0.000E+00
 
     Adding external electric field

     Computed dipole along edir(3) : 
        Dipole               -3.0223 Ry au,         -7.6819 Debye
        Dipole field         -0.0057 Ry au, 
 
        Potential amp.        0.5287 Ry
        Total length         46.3494 bohr
 

     total cpu time spent up to now is      475.8 secs

     total energy              =   -2974.25717031 Ry
     estimated scf accuracy    <     192.91677383 Ry

     iteration # 24     ecut=    29.40 Ry     beta= 0.05
     Davidson diagonalization with overlap
     ethr =  2.00E-03,  avg # of iterations =  4.5

     negative rho (up, down):  1.057E-03 0.000E+00
 
     Adding external electric field

     Computed dipole along edir(3) : 
        Dipole               -2.6996 Ry au,         -6.8617 Debye
        Dipole field         -0.0051 Ry au, 
 
        Potential amp.        0.4723 Ry
        Total length         46.3494 bohr
 

     total cpu time spent up to now is      487.3 secs

     total energy              =   -2974.17422461 Ry
     estimated scf accuracy    <     158.15618879 Ry

     iteration # 25     ecut=    29.40 Ry     beta= 0.05
     Davidson diagonalization with overlap
     ethr =  2.00E-03,  avg # of iterations =  3.5

     negative rho (up, down):  1.399E-03 0.000E+00
 
     Adding external electric field

     Computed dipole along edir(3) : 
        Dipole               -2.7610 Ry au,         -7.0177 Debye
        Dipole field         -0.0052 Ry au, 
 
        Potential amp.        0.4830 Ry
        Total length         46.3494 bohr
 

     total cpu time spent up to now is      498.5 secs

     total energy              =   -2974.48104221 Ry
     estimated scf accuracy    <     128.37302310 Ry

     iteration # 26     ecut=    29.40 Ry     beta= 0.05
     Davidson diagonalization with overlap
     ethr =  2.00E-03,  avg # of iterations =  1.0

     negative rho (up, down):  1.775E-03 0.000E+00
 
     Adding external electric field

     Computed dipole along edir(3) : 
        Dipole               -2.6239 Ry au,         -6.6692 Debye
        Dipole field         -0.0050 Ry au, 
 
        Potential amp.        0.4590 Ry
        Total length         46.3494 bohr
 

     total cpu time spent up to now is      508.4 secs

     total energy              =   -2974.54620597 Ry
     estimated scf accuracy    <     126.95077165 Ry

     iteration # 27     ecut=    29.40 Ry     beta= 0.05
     Davidson diagonalization with overlap
     ethr =  2.00E-03,  avg # of iterations =  1.0

     negative rho (up, down):  2.082E-03 0.000E+00
 
     Adding external electric field

     Computed dipole along edir(3) : 
        Dipole               -1.7651 Ry au,         -4.4865 Debye
        Dipole field         -0.0033 Ry au, 
 
        Potential amp.        0.3088 Ry
        Total length         46.3494 bohr
 

     total cpu time spent up to now is      518.2 secs

     total energy              =   -2973.54521288 Ry
     estimated scf accuracy    <     137.19017791 Ry

     iteration # 28     ecut=    29.40 Ry     beta= 0.05
     Davidson diagonalization with overlap
     ethr =  2.00E-03,  avg # of iterations =  1.0

     negative rho (up, down):  2.299E-03 0.000E+00
 
     Adding external electric field

     Computed dipole along edir(3) : 
        Dipole                2.0740 Ry au,          5.2715 Debye
        Dipole field          0.0039 Ry au, 
 
        Potential amp.       -0.3628 Ry
        Total length         46.3494 bohr
 

     total cpu time spent up to now is      528.1 secs

     total energy              =   -2967.95048950 Ry
     estimated scf accuracy    <     120.37028669 Ry

     iteration # 29     ecut=    29.40 Ry     beta= 0.05
     Davidson diagonalization with overlap
     ethr =  2.00E-03,  avg # of iterations = 11.7

     negative rho (up, down):  3.877E-03 0.000E+00
 
     Adding external electric field

     Computed dipole along edir(3) : 
        Dipole                3.2153 Ry au,          8.1725 Debye
        Dipole field          0.0061 Ry au, 
 
        Potential amp.       -0.5625 Ry
        Total length         46.3494 bohr
 

     total cpu time spent up to now is      550.5 secs

     total energy              =   -2979.44031287 Ry
     estimated scf accuracy    <     116.67517885 Ry

     iteration # 30     ecut=    29.40 Ry     beta= 0.05
     Davidson diagonalization with overlap
     ethr =  2.00E-03,  avg # of iterations =  2.3

     negative rho (up, down):  7.573E-03 0.000E+00
 
     Adding external electric field

     Computed dipole along edir(3) : 
        Dipole                2.7913 Ry au,          7.0948 Debye
        Dipole field          0.0053 Ry au, 
 
        Potential amp.       -0.4883 Ry
        Total length         46.3494 bohr
 

     total cpu time spent up to now is      561.1 secs

     total energy              =   -2979.79415503 Ry
     estimated scf accuracy    <     193.98207722 Ry

     iteration # 31     ecut=    29.40 Ry     beta= 0.05
     Davidson diagonalization with overlap
     ethr =  2.00E-03,  avg # of iterations =  2.0

     negative rho (up, down):  9.489E-04 0.000E+00
 
     Adding external electric field

     Computed dipole along edir(3) : 
        Dipole               -0.7915 Ry au,         -2.0118 Debye
        Dipole field         -0.0015 Ry au, 
 
        Potential amp.        0.1385 Ry
        Total length         46.3494 bohr
 

     total cpu time spent up to now is      571.8 secs

     total energy              =   -2967.04671081 Ry
     estimated scf accuracy    <     231.92940447 Ry

     iteration # 32     ecut=    29.40 Ry     beta= 0.05
     Davidson diagonalization with overlap
     ethr =  2.00E-03,  avg # of iterations =  8.9

     negative rho (up, down):  1.249E-03 0.000E+00
 
     Adding external electric field

     Computed dipole along edir(3) : 
        Dipole               -1.4969 Ry au,         -3.8048 Debye
        Dipole field         -0.0028 Ry au, 
 
        Potential amp.        0.2619 Ry
        Total length         46.3494 bohr
 

     total cpu time spent up to now is      588.5 secs

     total energy              =   -2971.37694994 Ry
     estimated scf accuracy    <      30.17105409 Ry

     iteration # 33     ecut=    29.40 Ry     beta= 0.05
     Davidson diagonalization with overlap
     ethr =  2.00E-03,  avg # of iterations =  1.4

     negative rho (up, down):  1.562E-03 0.000E+00
 
     Adding external electric field

     Computed dipole along edir(3) : 
        Dipole               -1.4400 Ry au,         -3.6602 Debye
        Dipole field         -0.0027 Ry au, 
 
        Potential amp.        0.2519 Ry
        Total length         46.3494 bohr
 

     total cpu time spent up to now is      598.7 secs

     total energy              =   -2971.81920040 Ry
     estimated scf accuracy    <       2.35097534 Ry

     iteration # 34     ecut=    29.40 Ry     beta= 0.05
     Davidson diagonalization with overlap
     c_bands:  1 eigenvalues not converged
     ethr =  5.86E-04,  avg # of iterations = 12.0

     negative rho (up, down):  2.705E-03 0.000E+00
 
     Adding external electric field

     Computed dipole along edir(3) : 
        Dipole               -1.3319 Ry au,         -3.3854 Debye
        Dipole field         -0.0025 Ry au, 
 
        Potential amp.        0.2330 Ry
        Total length         46.3494 bohr
 

     total cpu time spent up to now is      612.3 secs

     total energy              =   -2971.62203664 Ry
     estimated scf accuracy    <       1.64297723 Ry

     iteration # 35     ecut=    29.40 Ry     beta= 0.05
     Davidson diagonalization with overlap
     ethr =  4.10E-04,  avg # of iterations = 15.3

     negative rho (up, down):  2.157E-03 0.000E+00
 
     Adding external electric field

     Computed dipole along edir(3) : 
        Dipole               -1.2822 Ry au,         -3.2591 Debye
        Dipole field         -0.0024 Ry au, 
 
        Potential amp.        0.2243 Ry
        Total length         46.3494 bohr
 

     total cpu time spent up to now is      629.5 secs

     total energy              =   -2971.72793721 Ry
     estimated scf accuracy    <       1.63639945 Ry

     iteration # 36     ecut=    29.40 Ry     beta= 0.05
     Davidson diagonalization with overlap
     ethr =  4.08E-04,  avg # of iterations =  1.6

     negative rho (up, down):  1.641E-03 0.000E+00
 
     Adding external electric field

     Computed dipole along edir(3) : 
        Dipole               -1.0434 Ry au,         -2.6522 Debye
        Dipole field         -0.0020 Ry au, 
 
        Potential amp.        0.1825 Ry
        Total length         46.3494 bohr
 

     total cpu time spent up to now is      639.8 secs

     total energy              =   -2971.58638802 Ry
     estimated scf accuracy    <       1.06082884 Ry

     iteration # 37     ecut=    29.40 Ry     beta= 0.05
     Davidson diagonalization with overlap
     c_bands:  4 eigenvalues not converged
     c_bands:  1 eigenvalues not converged
     c_bands:  1 eigenvalues not converged
     c_bands:  1 eigenvalues not converged
     c_bands:  2 eigenvalues not converged
     ethr =  2.65E-04,  avg # of iterations = 19.4

     negative rho (up, down):  1.639E-03 0.000E+00
 
     Adding external electric field

     Computed dipole along edir(3) : 
        Dipole               -1.0425 Ry au,         -2.6499 Debye
        Dipole field         -0.0020 Ry au, 
 
        Potential amp.        0.1824 Ry
        Total length         46.3494 bohr
 

     total cpu time spent up to now is      661.2 secs

     total energy              =   -2971.79932315 Ry
     estimated scf accuracy    <       0.89298400 Ry

     iteration # 38     ecut=    29.40 Ry     beta= 0.05
     Davidson diagonalization with overlap
     ethr =  2.23E-04,  avg # of iterations =  2.3

     negative rho (up, down):  1.811E-03 0.000E+00
 
     Adding external electric field

     Computed dipole along edir(3) : 
        Dipole               -1.0195 Ry au,         -2.5914 Debye
        Dipole field         -0.0019 Ry au, 
 
        Potential amp.        0.1783 Ry
        Total length         46.3494 bohr
 

     total cpu time spent up to now is      671.6 secs

     total energy              =   -2971.72965999 Ry
     estimated scf accuracy    <       0.93897337 Ry

     iteration # 39     ecut=    29.40 Ry     beta= 0.05
     Davidson diagonalization with overlap
     ethr =  2.23E-04,  avg # of iterations =  1.0

     negative rho (up, down):  2.173E-03 0.000E+00
 
     Adding external electric field

     Computed dipole along edir(3) : 
        Dipole               -0.9841 Ry au,         -2.5013 Debye
        Dipole field         -0.0019 Ry au, 
 
        Potential amp.        0.1722 Ry
        Total length         46.3494 bohr
 

     total cpu time spent up to now is      681.4 secs

     total energy              =   -2971.65033857 Ry
     estimated scf accuracy    <       0.62039989 Ry

     iteration # 40     ecut=    29.40 Ry     beta= 0.05
     Davidson diagonalization with overlap
     c_bands:  2 eigenvalues not converged
     c_bands:  1 eigenvalues not converged
     c_bands:  5 eigenvalues not converged
     c_bands:  1 eigenvalues not converged
     c_bands:  1 eigenvalues not converged
     c_bands:  1 eigenvalues not converged
     ethr =  1.55E-04,  avg # of iterations = 16.0

     negative rho (up, down):  2.506E-03 0.000E+00
 
     Adding external electric field

     Computed dipole along edir(3) : 
        Dipole               -0.7162 Ry au,         -1.8203 Debye
        Dipole field         -0.0014 Ry au, 
 
        Potential amp.        0.1253 Ry
        Total length         46.3494 bohr
 

     total cpu time spent up to now is      697.8 secs

     total energy              =   -2971.67809493 Ry
     estimated scf accuracy    <       0.36510745 Ry

     iteration # 41     ecut=    29.40 Ry     beta= 0.05
     Davidson diagonalization with overlap
     c_bands:  1 eigenvalues not converged
     ethr =  9.10E-05,  avg # of iterations =  8.5

     negative rho (up, down):  2.423E-03 0.000E+00
 
     Adding external electric field

     Computed dipole along edir(3) : 
        Dipole               -0.4937 Ry au,         -1.2548 Debye
        Dipole field         -0.0009 Ry au, 
 
        Potential amp.        0.0864 Ry
        Total length         46.3494 bohr
 

     total cpu time spent up to now is      710.5 secs

     total energy              =   -2971.67597897 Ry
     estimated scf accuracy    <       0.20010901 Ry

     iteration # 42     ecut=    29.40 Ry     beta= 0.05
     Davidson diagonalization with overlap
     c_bands:  2 eigenvalues not converged
     c_bands:  2 eigenvalues not converged
     ethr =  4.99E-05,  avg # of iterations =  9.7

     negative rho (up, down):  2.096E-03 0.000E+00
 
     Adding external electric field

     Computed dipole along edir(3) : 
        Dipole               -0.0602 Ry au,         -0.1531 Debye
        Dipole field         -0.0001 Ry au, 
 
        Potential amp.        0.0105 Ry
        Total length         46.3494 bohr
 

     total cpu time spent up to now is      723.5 secs

     total energy              =   -2971.67187800 Ry
     estimated scf accuracy    <       0.10072834 Ry

     iteration # 43     ecut=    29.40 Ry     beta= 0.05
     Davidson diagonalization with overlap
     c_bands:  1 eigenvalues not converged
     c_bands:  1 eigenvalues not converged
     c_bands:  2 eigenvalues not converged
     c_bands:  2 eigenvalues not converged
     c_bands:  2 eigenvalues not converged
     c_bands:  5 eigenvalues not converged
     c_bands:  3 eigenvalues not converged
     c_bands:  1 eigenvalues not converged
     c_bands:  1 eigenvalues not converged
     c_bands:  3 eigenvalues not converged
     ethr =  2.51E-05,  avg # of iterations = 20.0

     negative rho (up, down):  2.714E-03 0.000E+00
 
     Adding external electric field

     Computed dipole along edir(3) : 
        Dipole                0.1600 Ry au,          0.4066 Debye
        Dipole field          0.0003 Ry au, 
 
        Potential amp.       -0.0280 Ry
        Total length         46.3494 bohr
 

     total cpu time spent up to now is      749.8 secs

     total energy              =   -2971.64312134 Ry
     estimated scf accuracy    <       0.67029310 Ry

     iteration # 44     ecut=    29.40 Ry     beta= 0.05
     Davidson diagonalization with overlap
     c_bands:  1 eigenvalues not converged
     c_bands:  1 eigenvalues not converged
     c_bands:  2 eigenvalues not converged
     c_bands:  1 eigenvalues not converged
     ethr =  2.51E-05,  avg # of iterations = 17.0

     negative rho (up, down):  2.894E-03 0.000E+00
 
     Adding external electric field

     Computed dipole along edir(3) : 
        Dipole                0.1820 Ry au,          0.4627 Debye
        Dipole field          0.0003 Ry au, 
 
        Potential amp.       -0.0318 Ry
        Total length         46.3494 bohr
 

     total cpu time spent up to now is      770.4 secs

     total energy              =   -2971.67553508 Ry
     estimated scf accuracy    <       0.05247080 Ry

     iteration # 45     ecut=    29.40 Ry     beta= 0.05
     Davidson diagonalization with overlap
     c_bands:  1 eigenvalues not converged
     c_bands:  3 eigenvalues not converged
     ethr =  1.31E-05,  avg # of iterations = 13.8

     negative rho (up, down):  3.531E-03 0.000E+00
 
     Adding external electric field

     Computed dipole along edir(3) : 
        Dipole                0.4068 Ry au,          1.0339 Debye
        Dipole field          0.0008 Ry au, 
 
        Potential amp.       -0.0712 Ry
        Total length         46.3494 bohr
 

     total cpu time spent up to now is      785.9 secs

     total energy              =   -2971.67943583 Ry
     estimated scf accuracy    <       0.03262602 Ry

     iteration # 46     ecut=    29.40 Ry     beta= 0.05
     Davidson diagonalization with overlap
     c_bands:  2 eigenvalues not converged
     c_bands:  3 eigenvalues not converged
     c_bands:  2 eigenvalues not converged
     c_bands:  4 eigenvalues not converged
     c_bands:  1 eigenvalues not converged
     c_bands:  1 eigenvalues not converged
     c_bands:  1 eigenvalues not converged
     ethr =  8.14E-06,  avg # of iterations = 17.6

     negative rho (up, down):  3.953E-03 0.000E+00
 
     Adding external electric field

     Computed dipole along edir(3) : 
        Dipole                0.5248 Ry au,          1.3340 Debye
        Dipole field          0.0010 Ry au, 
 
        Potential amp.       -0.0918 Ry
        Total length         46.3494 bohr
 

     total cpu time spent up to now is      806.6 secs

     total energy              =   -2971.68277198 Ry
     estimated scf accuracy    <       0.03476146 Ry

     iteration # 47     ecut=    29.40 Ry     beta= 0.05
     Davidson diagonalization with overlap
     ethr =  8.14E-06,  avg # of iterations =  5.6

     negative rho (up, down):  3.944E-03 0.000E+00
 
     Adding external electric field

     Computed dipole along edir(3) : 
        Dipole                0.6401 Ry au,          1.6271 Debye
        Dipole field          0.0012 Ry au, 
 
        Potential amp.       -0.1120 Ry
        Total length         46.3494 bohr
 

     total cpu time spent up to now is      818.2 secs

     total energy              =   -2971.67542398 Ry
     estimated scf accuracy    <       0.03729401 Ry

     iteration # 48     ecut=    29.40 Ry     beta= 0.05
     Davidson diagonalization with overlap
     c_bands:  2 eigenvalues not converged
     c_bands:  1 eigenvalues not converged
     ethr =  8.14E-06,  avg # of iterations = 16.0

     negative rho (up, down):  5.405E-03 0.000E+00
 
     Adding external electric field

     Computed dipole along edir(3) : 
        Dipole                0.5975 Ry au,          1.5187 Debye
        Dipole field          0.0011 Ry au, 
 
        Potential amp.       -0.1045 Ry
        Total length         46.3494 bohr
 

     total cpu time spent up to now is      838.6 secs

     total energy              =   -2971.67342486 Ry
     estimated scf accuracy    <       0.05071314 Ry

     iteration # 49     ecut=    29.40 Ry     beta= 0.05
     Davidson diagonalization with overlap
     c_bands:  1 eigenvalues not converged
     c_bands:  1 eigenvalues not converged
     ethr =  8.14E-06,  avg # of iterations = 14.6

     negative rho (up, down):  6.567E-03 0.000E+00
 
     Adding external electric field

     Computed dipole along edir(3) : 
        Dipole                0.6931 Ry au,          1.7618 Debye
        Dipole field          0.0013 Ry au, 
 
        Potential amp.       -0.1213 Ry
        Total length         46.3494 bohr
 

     total cpu time spent up to now is      857.9 secs

     total energy              =   -2971.68142179 Ry
     estimated scf accuracy    <       0.01988936 Ry

     iteration # 50     ecut=    29.40 Ry     beta= 0.05
     Davidson diagonalization with overlap
     ethr =  4.96E-06,  avg # of iterations =  7.3

     negative rho (up, down):  7.596E-03 0.000E+00
 
     Adding external electric field

     Computed dipole along edir(3) : 
        Dipole                0.7189 Ry au,          1.8273 Debye
        Dipole field          0.0014 Ry au, 
 
        Potential amp.       -0.1258 Ry
        Total length         46.3494 bohr
 

     total cpu time spent up to now is      870.3 secs

     total energy              =   -2971.68282690 Ry
     estimated scf accuracy    <       0.00373586 Ry

     iteration # 51     ecut=    29.40 Ry     beta= 0.05
     Davidson diagonalization with overlap
     c_bands:  1 eigenvalues not converged
     c_bands:  1 eigenvalues not converged
     ethr =  9.32E-07,  avg # of iterations = 14.6

     negative rho (up, down):  1.049E-02 0.000E+00
 
     Adding external electric field

     Computed dipole along edir(3) : 
        Dipole                0.7480 Ry au,          1.9012 Debye
        Dipole field          0.0014 Ry au, 
 
        Potential amp.       -0.1309 Ry
        Total length         46.3494 bohr
 

     total cpu time spent up to now is      887.3 secs

     total energy              =   -2971.68334929 Ry
     estimated scf accuracy    <       0.00168485 Ry

     iteration # 52     ecut=    29.40 Ry     beta= 0.05
     Davidson diagonalization with overlap
     c_bands:  1 eigenvalues not converged
     c_bands:  1 eigenvalues not converged
     ethr =  4.20E-07,  avg # of iterations = 15.6

     negative rho (up, down):  1.031E-02 0.000E+00
 
     Adding external electric field

     Computed dipole along edir(3) : 
        Dipole                0.7908 Ry au,          2.0100 Debye
        Dipole field          0.0015 Ry au, 
 
        Potential amp.       -0.1383 Ry
        Total length         46.3494 bohr
 

     total cpu time spent up to now is      907.8 secs

     total energy              =   -2971.68244806 Ry
     estimated scf accuracy    <       0.00449600 Ry

     iteration # 53     ecut=    29.40 Ry     beta= 0.05
     Davidson diagonalization with overlap
     c_bands:  2 eigenvalues not converged
     c_bands:  2 eigenvalues not converged
     c_bands:  1 eigenvalues not converged
     c_bands:  2 eigenvalues not converged
     ethr =  4.20E-07,  avg # of iterations = 18.3

     negative rho (up, down):  1.004E-02 0.000E+00
 
     Adding external electric field

     Computed dipole along edir(3) : 
        Dipole                0.7676 Ry au,          1.9511 Debye
        Dipole field          0.0014 Ry au, 
 
        Potential amp.       -0.1343 Ry
        Total length         46.3494 bohr
 

     total cpu time spent up to now is      931.8 secs

     total energy              =   -2971.68337354 Ry
     estimated scf accuracy    <       0.00288027 Ry

     iteration # 54     ecut=    29.40 Ry     beta= 0.05
     Davidson diagonalization with overlap
     ethr =  4.20E-07,  avg # of iterations =  7.7

     negative rho (up, down):  1.038E-02 0.000E+00
 
     Adding external electric field

     Computed dipole along edir(3) : 
        Dipole                0.7685 Ry au,          1.9532 Debye
        Dipole field          0.0015 Ry au, 
 
        Potential amp.       -0.1344 Ry
        Total length         46.3494 bohr
 

     total cpu time spent up to now is      944.2 secs

     total energy              =   -2971.68342199 Ry
     estimated scf accuracy    <       0.00106448 Ry

     iteration # 55     ecut=    29.40 Ry     beta= 0.05
     Davidson diagonalization with overlap
     ethr =  2.65E-07,  avg # of iterations =  9.3

     negative rho (up, down):  1.098E-02 0.000E+00
 
     Adding external electric field

     Computed dipole along edir(3) : 
        Dipole                0.7614 Ry au,          1.9353 Debye
        Dipole field          0.0014 Ry au, 
 
        Potential amp.       -0.1332 Ry
        Total length         46.3494 bohr
 

     total cpu time spent up to now is      957.2 secs

     total energy              =   -2971.68334143 Ry
     estimated scf accuracy    <       0.00060465 Ry

     iteration # 56     ecut=    29.40 Ry     beta= 0.05
     Davidson diagonalization with overlap
     c_bands:  2 eigenvalues not converged
     ethr =  1.51E-07,  avg # of iterations = 14.2

     negative rho (up, down):  1.191E-02 0.000E+00
 
     Adding external electric field

     Computed dipole along edir(3) : 
        Dipole                0.7750 Ry au,          1.9699 Debye
        Dipole field          0.0015 Ry au, 
 
        Potential amp.       -0.1356 Ry
        Total length         46.3494 bohr
 

     total cpu time spent up to now is      977.7 secs

     total energy              =   -2971.68356817 Ry
     estimated scf accuracy    <       0.00070045 Ry

     iteration # 57     ecut=    29.40 Ry     beta= 0.05
     Davidson diagonalization with overlap
     ethr =  1.51E-07,  avg # of iterations =  1.9

     negative rho (up, down):  1.203E-02 0.000E+00
 
     Adding external electric field

     Computed dipole along edir(3) : 
        Dipole                0.7725 Ry au,          1.9634 Debye
        Dipole field          0.0015 Ry au, 
 
        Potential amp.       -0.1351 Ry
        Total length         46.3494 bohr
 

     total cpu time spent up to now is      988.3 secs

     total energy              =   -2971.68352645 Ry
     estimated scf accuracy    <       0.00043193 Ry

     iteration # 58     ecut=    29.40 Ry     beta= 0.05
     Davidson diagonalization with overlap
     ethr =  1.08E-07,  avg # of iterations =  7.2

     negative rho (up, down):  1.185E-02 0.000E+00
 
     Adding external electric field

     Computed dipole along edir(3) : 
        Dipole                0.7678 Ry au,          1.9516 Debye
        Dipole field          0.0014 Ry au, 
 
        Potential amp.       -0.1343 Ry
        Total length         46.3494 bohr
 

     total cpu time spent up to now is     1001.3 secs

     total energy              =   -2971.68357833 Ry
     estimated scf accuracy    <       0.00009456 Ry

     iteration # 59     ecut=    29.40 Ry     beta= 0.05
     Davidson diagonalization with overlap
     c_bands:  1 eigenvalues not converged
     ethr =  2.36E-08,  avg # of iterations = 10.3

     negative rho (up, down):  1.172E-02 0.000E+00
 
     Adding external electric field

     Computed dipole along edir(3) : 
        Dipole                0.7649 Ry au,          1.9442 Debye
        Dipole field          0.0014 Ry au, 
 
        Potential amp.       -0.1338 Ry
        Total length         46.3494 bohr
 

     total cpu time spent up to now is     1015.0 secs

     total energy              =   -2971.68358901 Ry
     estimated scf accuracy    <       0.00007382 Ry

     iteration # 60     ecut=    29.40 Ry     beta= 0.05
     Davidson diagonalization with overlap
     ethr =  1.84E-08,  avg # of iterations =  3.9

     negative rho (up, down):  1.201E-02 0.000E+00
 
     Adding external electric field

     Computed dipole along edir(3) : 
        Dipole                0.7675 Ry au,          1.9508 Debye
        Dipole field          0.0014 Ry au, 
 
        Potential amp.       -0.1343 Ry
        Total length         46.3494 bohr
 

     total cpu time spent up to now is     1026.3 secs

     total energy              =   -2971.68360213 Ry
     estimated scf accuracy    <       0.00005047 Ry

     iteration # 61     ecut=    29.40 Ry     beta= 0.05
     Davidson diagonalization with overlap
     c_bands:  2 eigenvalues not converged
     ethr =  1.26E-08,  avg # of iterations = 16.6

     negative rho (up, down):  1.210E-02 0.000E+00
 
     Adding external electric field

     Computed dipole along edir(3) : 
        Dipole                0.7643 Ry au,          1.9428 Debye
        Dipole field          0.0014 Ry au, 
 
        Potential amp.       -0.1337 Ry
        Total length         46.3494 bohr
 

     total cpu time spent up to now is     1049.0 secs

     total energy              =   -2971.68362056 Ry
     estimated scf accuracy    <       0.00009639 Ry

     iteration # 62     ecut=    29.40 Ry     beta= 0.05
     Davidson diagonalization with overlap
     ethr =  1.26E-08,  avg # of iterations =  6.4

     negative rho (up, down):  1.224E-02 0.000E+00
 
     Adding external electric field

     Computed dipole along edir(3) : 
        Dipole                0.7637 Ry au,          1.9411 Debye
        Dipole field          0.0014 Ry au, 
 
        Potential amp.       -0.1336 Ry
        Total length         46.3494 bohr
 

     total cpu time spent up to now is     1061.2 secs

     total energy              =   -2971.68362629 Ry
     estimated scf accuracy    <       0.00003324 Ry

     iteration # 63     ecut=    29.40 Ry     beta= 0.05
     Davidson diagonalization with overlap
     ethr =  8.29E-09,  avg # of iterations = 11.0

     negative rho (up, down):  1.215E-02 0.000E+00
 
     Adding external electric field

     Computed dipole along edir(3) : 
        Dipole                0.7614 Ry au,          1.9352 Debye
        Dipole field          0.0014 Ry au, 
 
        Potential amp.       -0.1332 Ry
        Total length         46.3494 bohr
 

     total cpu time spent up to now is     1079.7 secs

     total energy              =   -2971.68364202 Ry
     estimated scf accuracy    <       0.00001714 Ry

     iteration # 64     ecut=    29.40 Ry     beta= 0.05
     Davidson diagonalization with overlap
     ethr =  4.27E-09,  avg # of iterations =  6.7

     negative rho (up, down):  1.208E-02 0.000E+00
 
     Adding external electric field

     Computed dipole along edir(3) : 
        Dipole                0.7590 Ry au,          1.9292 Debye
        Dipole field          0.0014 Ry au, 
 
        Potential amp.       -0.1328 Ry
        Total length         46.3494 bohr
 

     total cpu time spent up to now is     1091.9 secs

     total energy              =   -2971.68365017 Ry
     estimated scf accuracy    <       0.00000597 Ry

     iteration # 65     ecut=    29.40 Ry     beta= 0.05
     Davidson diagonalization with overlap
     c_bands:  1 eigenvalues not converged
     c_bands:  2 eigenvalues not converged
     ethr =  1.49E-09,  avg # of iterations = 16.5

     negative rho (up, down):  1.211E-02 0.000E+00
 
     Adding external electric field

     Computed dipole along edir(3) : 
        Dipole                0.7596 Ry au,          1.9308 Debye
        Dipole field          0.0014 Ry au, 
 
        Potential amp.       -0.1329 Ry
        Total length         46.3494 bohr
 

     total cpu time spent up to now is     1116.4 secs

     total energy              =   -2971.68365707 Ry
     estimated scf accuracy    <       0.00002651 Ry

     iteration # 66     ecut=    29.40 Ry     beta= 0.05
     Davidson diagonalization with overlap
     ethr =  1.49E-09,  avg # of iterations =  8.7

     negative rho (up, down):  1.212E-02 0.000E+00
 
     Adding external electric field

     Computed dipole along edir(3) : 
        Dipole                0.7593 Ry au,          1.9300 Debye
        Dipole field          0.0014 Ry au, 
 
        Potential amp.       -0.1328 Ry
        Total length         46.3494 bohr
 

     total cpu time spent up to now is     1133.6 secs

     total energy              =   -2971.68366509 Ry
     estimated scf accuracy    <       0.00000295 Ry

     iteration # 67     ecut=    29.40 Ry     beta= 0.05
     Davidson diagonalization with overlap
     ethr =  7.35E-10,  avg # of iterations = 12.1

     negative rho (up, down):  1.209E-02 0.000E+00
 
     Adding external electric field

     Computed dipole along edir(3) : 
        Dipole                0.7589 Ry au,          1.9290 Debye
        Dipole field          0.0014 Ry au, 
 
        Potential amp.       -0.1328 Ry
        Total length         46.3494 bohr
 

     total cpu time spent up to now is     1152.6 secs

     total energy              =   -2971.68367127 Ry
     estimated scf accuracy    <       0.00000225 Ry

     iteration # 68     ecut=    29.40 Ry     beta= 0.05
     Davidson diagonalization with overlap
     ethr =  5.60E-10,  avg # of iterations =  9.5

     negative rho (up, down):  1.208E-02 0.000E+00
 
     Adding external electric field

     Computed dipole along edir(3) : 
        Dipole                0.7584 Ry au,          1.9275 Debye
        Dipole field          0.0014 Ry au, 
 
        Potential amp.       -0.1327 Ry
        Total length         46.3494 bohr
 

     total cpu time spent up to now is     1168.3 secs

     total energy              =   -2971.68367697 Ry
     estimated scf accuracy    <       0.00000105 Ry

     iteration # 69     ecut=    29.40 Ry     beta= 0.05
     Davidson diagonalization with overlap
     ethr =  2.62E-10,  avg # of iterations =  9.3

     negative rho (up, down):  1.207E-02 0.000E+00
 
     Adding external electric field

     Computed dipole along edir(3) : 
        Dipole                0.7579 Ry au,          1.9264 Debye
        Dipole field          0.0014 Ry au, 
 
        Potential amp.       -0.1326 Ry
        Total length         46.3494 bohr
 

     total cpu time spent up to now is     1181.3 secs

     total energy              =   -2971.68368163 Ry
     estimated scf accuracy    <       0.00000061 Ry

     iteration # 70     ecut=    29.40 Ry     beta= 0.05
     Davidson diagonalization with overlap
     ethr =  1.52E-10,  avg # of iterations =  9.4

     negative rho (up, down):  1.203E-02 0.000E+00
 
     Adding external electric field

     Computed dipole along edir(3) : 
        Dipole                0.7573 Ry au,          1.9249 Debye
        Dipole field          0.0014 Ry au, 
 
        Potential amp.       -0.1325 Ry
        Total length         46.3494 bohr
 

     total cpu time spent up to now is     1197.5 secs

     total energy              =   -2971.68368591 Ry
     estimated scf accuracy    <       0.00000052 Ry

     iteration # 71     ecut=    29.40 Ry     beta= 0.05
     Davidson diagonalization with overlap
     c_bands:  1 eigenvalues not converged
     ethr =  1.30E-10,  avg # of iterations = 10.4

     negative rho (up, down):  1.202E-02 0.000E+00
 
     Adding external electric field

     Computed dipole along edir(3) : 
        Dipole                0.7568 Ry au,          1.9237 Debye
        Dipole field          0.0014 Ry au, 
 
        Potential amp.       -0.1324 Ry
        Total length         46.3494 bohr
 

     total cpu time spent up to now is     1215.4 secs

     total energy              =   -2971.68368981 Ry
     estimated scf accuracy    <       0.00000105 Ry

     iteration # 72     ecut=    29.40 Ry     beta= 0.05
     Davidson diagonalization with overlap
     ethr =  1.30E-10,  avg # of iterations =  6.2

     negative rho (up, down):  1.201E-02 0.000E+00
 
     Adding external electric field

     Computed dipole along edir(3) : 
        Dipole                0.7567 Ry au,          1.9233 Debye
        Dipole field          0.0014 Ry au, 
 
        Potential amp.       -0.1324 Ry
        Total length         46.3494 bohr
 

     total cpu time spent up to now is     1229.0 secs

     total energy              =   -2971.68369334 Ry
     estimated scf accuracy    <       0.00000011 Ry

     iteration # 73     ecut=    29.40 Ry     beta= 0.05
     Davidson diagonalization with overlap
     c_bands:  1 eigenvalues not converged
     ethr =  2.86E-11,  avg # of iterations = 12.1

     negative rho (up, down):  1.200E-02 0.000E+00
 
     Adding external electric field

     Computed dipole along edir(3) : 
        Dipole                0.7566 Ry au,          1.9230 Debye
        Dipole field          0.0014 Ry au, 
 
        Potential amp.       -0.1323 Ry
        Total length         46.3494 bohr
 

     total cpu time spent up to now is     1247.9 secs

     total energy              =   -2971.68369650 Ry
     estimated scf accuracy    <       0.00000009 Ry

     iteration # 74     ecut=    29.40 Ry     beta= 0.05
     Davidson diagonalization with overlap
     ethr =  2.35E-11,  avg # of iterations =  2.3

     negative rho (up, down):  1.202E-02 0.000E+00
 
     Adding external electric field

     Computed dipole along edir(3) : 
        Dipole                0.7562 Ry au,          1.9221 Debye
        Dipole field          0.0014 Ry au, 
 
        Potential amp.       -0.1323 Ry
        Total length         46.3494 bohr
 

     total cpu time spent up to now is     1258.8 secs

     End of self-consistent calculation

          k = 0.0000 0.0000 0.0000 ( 18029 PWs)   bands (ev):

   -55.6081 -55.5934 -55.5714 -55.5571 -55.5027 -55.4923 -55.4687 -55.4409
   -55.4345 -55.3803 -55.3714 -55.3645 -55.3307 -55.2518 -54.6220 -54.5879
   -32.1594 -32.0759 -32.0115 -31.9573 -31.9274 -31.9079 -31.8994 -31.8766
   -31.8439 -31.8324 -31.8142 -31.8089 -31.8068 -31.7748 -31.7682 -31.7526
   -31.7465 -31.7388 -31.7271 -31.6983 -31.6971 -31.6730 -31.6704 -31.6574
   -31.6488 -31.6471 -31.6247 -31.6178 -31.6090 -31.5966 -31.5893 -31.5889
   -31.5836 -31.5668 -31.5462 -31.5388 -31.5346 -31.5087 -31.4757 -31.4683
   -31.4469 -31.4401 -31.0318 -30.9346 -30.9122 -30.8484 -30.7624 -30.6512
   -21.1870 -17.3494 -16.3457 -16.0529 -15.8906 -15.7566 -15.7262 -15.6220
   -15.4322 -15.2943 -15.2754 -15.2124 -15.1747 -15.1633 -15.1343 -15.1295
   -15.1169 -15.1140 -15.0644 -15.0328 -15.0290 -15.0111 -14.9874 -14.9258
   -14.8853 -14.8060 -14.7582 -14.7264 -14.6705 -14.6084 -14.5925 -13.1229
   -13.0047  -9.1730  -6.3537  -4.3286  -4.3097  -4.0608  -3.8219  -3.7053
    -3.5342  -3.5240  -3.4973  -3.4731  -3.4112  -3.1644  -3.1475  -3.0483
    -2.8298  -2.7715  -2.7478  -2.7328  -2.7276  -2.4847  -2.4654  -2.4350
    -2.4250  -2.4153  -2.3887  -2.3621  -2.3585  -2.3271  -2.3090  -2.2173
    -2.1372  -2.1260  -2.0199  -1.9837  -1.9573  -1.9092  -1.8790  -1.8636
    -1.8472  -1.8194  -1.8056  -1.7762  -1.7737  -1.6751  -1.5502  -1.4384
    -1.4086  -1.3710  -1.3077  -1.1026  -1.0536  -1.0223  -1.0090  -0.9512
    -0.9251  -0.9161  -0.8384  -0.8059  -0.7842  -0.6767  -0.6147  -0.5923
    -0.5651  -0.5021  -0.4700  -0.4249  -0.3469  -0.3316  -0.3184  -0.1004
    -0.0789  -0.0693  -0.0598   0.0543   0.1049   0.1631   0.1748   0.1836
     0.2139   0.2950   0.3468   0.3660   0.3863   0.4074   0.4454   0.5179
     0.5448   0.5721   0.5974   0.6254   0.7161   0.7672   0.9080   1.0381
     1.0629   1.1597   1.3054   1.4020   1.4763   1.5728   1.9911   2.0504
     3.5792   3.6069   3.6401   3.6695   3.7325   3.8463   3.9656   4.0148
     4.0378   4.0619

          k = 0.0000 0.0419 0.0000 ( 17933 PWs)   bands (ev):

   -55.6035 -55.5880 -55.5758 -55.5623 -55.5014 -55.4895 -55.4637 -55.4435
   -55.4395 -55.3790 -55.3724 -55.3597 -55.3356 -55.2529 -54.6169 -54.5928
   -32.1015 -32.0221 -31.9686 -31.9061 -31.8947 -31.8944 -31.8736 -31.8669
   -31.8317 -31.8225 -31.7984 -31.7958 -31.7912 -31.7836 -31.7698 -31.7548
   -31.7542 -31.7420 -31.7382 -31.7377 -31.6962 -31.6868 -31.6676 -31.6637
   -31.6610 -31.6342 -31.6337 -31.6290 -31.6183 -31.6132 -31.6005 -31.5947
   -31.5926 -31.5898 -31.5796 -31.5606 -31.5513 -31.5251 -31.5116 -31.5044
   -31.4749 -31.4371 -30.9778 -30.9311 -30.9152 -30.8359 -30.7748 -30.7084
   -21.1869 -17.3319 -16.2119 -15.9330 -15.7851 -15.6555 -15.6220 -15.5896
   -15.4765 -15.3743 -15.2594 -15.2340 -15.2030 -15.1938 -15.1702 -15.1158
   -15.1083 -15.0785 -15.0704 -15.0544 -15.0334 -15.0204 -14.9914 -14.9333
   -14.9178 -14.8568 -14.8135 -14.7853 -14.7410 -14.6653 -14.6613 -13.1261
   -13.0437  -9.1735  -6.3533  -4.3262  -4.3132  -3.9999  -3.8059  -3.5312
    -3.5143  -3.3663  -3.3242  -3.3224  -3.2566  -3.0478  -2.9902  -2.9177
    -2.8487  -2.7673  -2.6856  -2.6364  -2.5899  -2.5818  -2.5622  -2.5384
    -2.4969  -2.4931  -2.4483  -2.4295  -2.3701  -2.3580  -2.3436  -2.3250
    -2.3024  -2.2839  -2.1595  -2.1089  -2.0656  -2.0207  -1.9934  -1.9787
    -1.8713  -1.8565  -1.8092  -1.7249  -1.6654  -1.5357  -1.4361  -1.3603
    -1.3169  -1.2858  -1.2677  -1.1649  -0.9767  -0.9638  -0.9172  -0.8874
    -0.8015  -0.7374  -0.7031  -0.6627  -0.6483  -0.6319  -0.5567  -0.5431
    -0.5107  -0.4850  -0.4201  -0.3866  -0.3587  -0.3258  -0.2989  -0.2457
    -0.1489  -0.1080  -0.0868  -0.0661  -0.0390   0.0563   0.0895   0.1051
     0.1563   0.2149   0.2285   0.2674   0.2876   0.2957   0.3239   0.4027
     0.4720   0.5027   0.5873   0.6026   0.7111   0.7197   0.7818   0.8137
     0.8746   1.0106   1.0805   1.3544   1.5906   1.6625   1.9390   1.9630
     3.7267   3.7606   3.8260   3.8464   3.9081   3.9452   3.9507   3.9802
     4.0579   4.0898

          k = 0.0000-0.0839 0.0000 ( 17884 PWs)   bands (ev):

   -55.5966 -55.5827 -55.5762 -55.5741 -55.5002 -55.4865 -55.4523 -55.4509
   -55.4465 -55.3777 -55.3735 -55.3498 -55.3454 -55.2540 -54.6054 -54.6042
   -31.9630 -31.9576 -31.9111 -31.8982 -31.8882 -31.8832 -31.8667 -31.8623
   -31.8587 -31.7984 -31.7931 -31.7866 -31.7711 -31.7626 -31.7620 -31.7336
   -31.7300 -31.7272 -31.7252 -31.7247 -31.7185 -31.7161 -31.6931 -31.6805
   -31.6708 -31.6608 -31.6606 -31.6551 -31.6347 -31.6294 -31.6248 -31.6139
   -31.6027 -31.6023 -31.5959 -31.5935 -31.5741 -31.5719 -31.5589 -31.5128
   -31.4842 -31.4348 -30.9236 -30.9223 -30.8453 -30.8444 -30.8059 -30.8049
   -21.1869 -17.3144 -15.8781 -15.8655 -15.6609 -15.6532 -15.5318 -15.5129
   -15.4500 -15.4150 -15.4058 -15.3706 -15.3013 -15.2900 -15.1273 -15.1243
   -15.0801 -15.0318 -15.0172 -15.0108 -14.9830 -14.9801 -14.9505 -14.9423
   -14.9300 -14.9253 -14.8882 -14.8581 -14.8001 -14.7965 -14.7895 -13.1075
   -13.1053  -9.1741  -6.3529  -4.3245  -4.3169  -3.9352  -3.7992  -3.5332
    -3.0828  -3.0734  -3.0439  -2.9878  -2.9821  -2.9419  -2.9286  -2.9154
    -2.9089  -2.8808  -2.8718  -2.7272  -2.7133  -2.7074  -2.6812  -2.6320
    -2.5660  -2.5278  -2.5050  -2.4852  -2.4296  -2.4151  -2.3593  -2.3577
    -2.3409  -2.2893  -2.2400  -2.1727  -2.1507  -2.0964  -2.0558  -1.9437
    -1.9283  -1.6753  -1.6382  -1.5287  -1.4964  -1.4862  -1.3668  -1.3396
    -1.3079  -1.2521  -1.0792  -1.0456  -1.0372  -1.0085  -1.0061  -0.9684
    -0.9494  -0.8728  -0.8334  -0.8152  -0.7292  -0.6765  -0.5472  -0.4037
    -0.3957  -0.3913  -0.3071  -0.2751  -0.2472  -0.2120  -0.2012  -0.1823
    -0.1678  -0.1177  -0.0747  -0.0389  -0.0343  -0.0118   0.0021   0.0213
     0.0661   0.0948   0.1188   0.1472   0.1970   0.2109   0.2380   0.2488
     0.3157   0.3684   0.4129   0.4917   0.6183   0.6226   0.6300   0.6581
     0.9885   1.0028   1.0867   1.1376   1.7267   1.7284   1.8808   1.8829
     3.8294   3.8350   3.8527   3.8872   3.9712   3.9936   4.1217   4.1290
     4.1518   4.1769

          k = 0.0380 0.0000 0.0000 ( 17913 PWs)   bands (ev):

   -55.6080 -55.5932 -55.5713 -55.5570 -55.5025 -55.4922 -55.4687 -55.4408
   -55.4344 -55.3800 -55.3713 -55.3646 -55.3306 -55.2517 -54.6219 -54.5878
   -32.1595 -32.0768 -32.0116 -31.9624 -31.9309 -31.9078 -31.8992 -31.8766
   -31.8474 -31.8326 -31.8140 -31.8084 -31.7893 -31.7748 -31.7652 -31.7467
   -31.7384 -31.7351 -31.7209 -31.6981 -31.6970 -31.6883 -31.6728 -31.6656
   -31.6484 -31.6292 -31.6248 -31.6171 -31.6081 -31.5967 -31.5894 -31.5888
   -31.5836 -31.5707 -31.5478 -31.5444 -31.5360 -31.5078 -31.4750 -31.4676
   -31.4476 -31.4448 -31.0313 -30.9380 -30.9102 -30.8482 -30.7622 -30.6510
   -21.1870 -17.3471 -16.2771 -15.9624 -15.8128 -15.7608 -15.6392 -15.6211
   -15.4857 -15.3223 -15.2975 -15.2870 -15.2851 -15.2714 -15.2263 -15.1813
   -15.1566 -15.1245 -15.0633 -15.0388 -14.9849 -14.9277 -14.8786 -14.8518
   -14.8396 -14.8390 -14.8008 -14.7285 -14.6904 -14.6647 -14.5908 -13.1195
   -13.0044  -9.1725  -6.3543  -4.3288  -4.3095  -4.0404  -3.8213  -3.6363
    -3.5921  -3.3233  -3.2447  -3.2172  -3.2137  -3.1461  -3.0893  -3.0557
    -3.0446  -2.8170  -2.7948  -2.7108  -2.6997  -2.6808  -2.6043  -2.4847
    -2.4317  -2.4256  -2.3591  -2.2939  -2.2882  -2.2048  -2.1875  -2.1511
    -2.1288  -2.0908  -2.0158  -1.9402  -1.9325  -1.8705  -1.8541  -1.8106
    -1.7896  -1.7371  -1.6478  -1.6323  -1.5777  -1.5564  -1.5461  -1.4705
    -1.4244  -1.3653  -1.3006  -1.1941  -1.1602  -1.0822  -1.0352  -1.0026
    -0.9816  -0.9741  -0.8984  -0.8737  -0.8516  -0.7916  -0.6488  -0.6400
    -0.5260  -0.4701  -0.4473  -0.4383  -0.3881  -0.3625  -0.2295  -0.2091
    -0.1536  -0.1207  -0.0636   0.0380   0.0524   0.0940   0.1088   0.1180
     0.1673   0.1812   0.2401   0.2654   0.2895   0.3125   0.4065   0.4351
     0.5029   0.5328   0.5679   0.6211   0.6678   0.6881   0.7401   0.8351
     1.0306   1.0814   1.3084   1.3451   1.4139   1.5405   1.8746   1.9620
     3.6295   3.6910   3.8384   3.8592   3.8988   3.9140   3.9409   3.9717
     4.0411   4.0562

          k = 0.0380 0.0419 0.0000 ( 17878 PWs)   bands (ev):

   -55.6035 -55.5879 -55.5758 -55.5623 -55.5013 -55.4895 -55.4637 -55.4435
   -55.4395 -55.3788 -55.3724 -55.3597 -55.3355 -55.2529 -54.6168 -54.5928
   -32.1017 -32.0229 -31.9688 -31.9119 -31.8946 -31.8942 -31.8775 -31.8669
   -31.8317 -31.8226 -31.7988 -31.7943 -31.7853 -31.7794 -31.7701 -31.7550
   -31.7516 -31.7379 -31.7285 -31.7267 -31.6962 -31.6864 -31.6841 -31.6643
   -31.6614 -31.6336 -31.6314 -31.6221 -31.6184 -31.6121 -31.5980 -31.5972
   -31.5926 -31.5901 -31.5807 -31.5634 -31.5528 -31.5261 -31.5160 -31.5038
   -31.4748 -31.4423 -30.9774 -30.9338 -30.9142 -30.8357 -30.7749 -30.7082
   -21.1869 -17.3304 -16.1491 -15.8483 -15.7141 -15.6575 -15.5872 -15.5386
   -15.4733 -15.4181 -15.2953 -15.2799 -15.2427 -15.2140 -15.2033 -15.1942
   -15.1717 -15.0940 -15.0602 -15.0575 -15.0317 -14.9669 -14.9421 -14.9122
   -14.8977 -14.8889 -14.8544 -14.8021 -14.7413 -14.7315 -14.6603 -13.1238
   -13.0440  -9.1732  -6.3539  -4.3269  -4.3131  -3.9893  -3.8033  -3.5608
    -3.4588  -3.1610  -3.0809  -3.0656  -3.0469  -3.0394  -2.9397  -2.9154
    -2.8903  -2.7772  -2.6658  -2.6300  -2.6058  -2.5616  -2.5351  -2.4994
    -2.4701  -2.4554  -2.4060  -2.3941  -2.3628  -2.3366  -2.3255  -2.2913
    -2.2415  -2.2094  -2.1793  -2.0976  -2.0804  -2.0069  -1.9428  -1.9230
    -1.8337  -1.7991  -1.7586  -1.6405  -1.6096  -1.5355  -1.5099  -1.3773
    -1.3356  -1.2809  -1.1726  -1.0861  -1.0594  -1.0351  -0.9935  -0.9342
    -0.8829  -0.8751  -0.8306  -0.7870  -0.7184  -0.6743  -0.6285  -0.6040
    -0.5954  -0.5140  -0.4716  -0.4429  -0.3671  -0.3395  -0.3175  -0.3021
    -0.2607  -0.2179  -0.1999  -0.1605  -0.1067  -0.0794  -0.0413   0.0101
     0.0584   0.0856   0.1017   0.1709   0.2195   0.2441   0.3020   0.3931
     0.5266   0.5367   0.5811   0.6537   0.6915   0.7130   0.7784   0.8079
     0.8622   0.9569   1.0218   1.2984   1.6033   1.6668   1.8605   1.9382
     3.7378   3.8218   3.8587   3.8817   3.9460   3.9749   4.0332   4.0664
     4.0810   4.1104

          k = 0.0380-0.0839 0.0000 ( 17916 PWs)   bands (ev):

   -55.5966 -55.5827 -55.5762 -55.5741 -55.5001 -55.4865 -55.4523 -55.4509
   -55.4466 -55.3776 -55.3735 -55.3499 -55.3455 -55.2540 -54.6054 -54.6043
   -31.9633 -31.9579 -31.9114 -31.8989 -31.8884 -31.8840 -31.8668 -31.8625
   -31.8589 -31.8101 -31.7940 -31.7878 -31.7830 -31.7451 -31.7434 -31.7415
   -31.7359 -31.7240 -31.7226 -31.7188 -31.7149 -31.7023 -31.6933 -31.6810
   -31.6709 -31.6667 -31.6616 -31.6610 -31.6434 -31.6373 -31.6261 -31.6025
   -31.6022 -31.5982 -31.5939 -31.5918 -31.5749 -31.5649 -31.5613 -31.5239
   -31.4842 -31.4411 -30.9246 -30.9233 -30.8452 -30.8443 -30.8059 -30.8049
   -21.1869 -17.3137 -15.8321 -15.8272 -15.6070 -15.6005 -15.4954 -15.4679
   -15.4421 -15.3930 -15.3810 -15.3594 -15.2784 -15.2709 -15.1612 -15.1457
   -15.1200 -15.0906 -15.0638 -15.0215 -15.0058 -14.9962 -14.9859 -14.9711
   -14.9658 -14.9633 -14.8825 -14.8631 -14.8460 -14.8352 -14.7729 -13.1073
   -13.1051  -9.1739  -6.3535  -4.3254  -4.3168  -3.9351  -3.7948  -3.5322
    -3.0748  -3.0609  -3.0413  -2.8213  -2.8029  -2.7711  -2.7677  -2.7361
    -2.7071  -2.6667  -2.6616  -2.6598  -2.6495  -2.6211  -2.5970  -2.5521
    -2.5258  -2.4605  -2.4501  -2.4294  -2.3973  -2.3815  -2.3695  -2.3592
    -2.3235  -2.2805  -2.2473  -2.2197  -2.1341  -2.1223  -2.0604  -1.7608
    -1.7290  -1.7085  -1.6268  -1.5195  -1.5065  -1.4752  -1.4516  -1.4074
    -1.3773  -1.3553  -1.3324  -1.3021  -1.2315  -1.1981  -1.1555  -1.1195
    -1.0792  -0.8919  -0.8836  -0.7828  -0.7599  -0.6740  -0.6493  -0.5778
    -0.5411  -0.5129  -0.4478  -0.3948  -0.3683  -0.3437  -0.3346  -0.3038
    -0.2650  -0.2480  -0.2336  -0.1811  -0.1589  -0.1400  -0.1214  -0.0736
    -0.0677   0.0241   0.1174   0.1875   0.2116   0.2649   0.3601   0.4222
     0.4552   0.4650   0.5079   0.5352   0.5926   0.6576   0.6972   0.7484
     0.9261   0.9407   1.0735   1.1139   1.7421   1.7433   1.8706   1.8750
     3.7807   3.7955   3.8824   3.9050   3.9587   3.9704   4.1431   4.1562
     4.1808   4.2066

          k = 0.0380-0.0419 0.0000 ( 17876 PWs)   bands (ev):

   -55.6035 -55.5879 -55.5758 -55.5623 -55.5013 -55.4895 -55.4637 -55.4435
   -55.4394 -55.3788 -55.3724 -55.3597 -55.3355 -55.2529 -54.6168 -54.5928
   -32.1016 -32.0229 -31.9688 -31.9119 -31.8946 -31.8942 -31.8775 -31.8669
   -31.8317 -31.8226 -31.7986 -31.7945 -31.7855 -31.7793 -31.7700 -31.7547
   -31.7519 -31.7380 -31.7285 -31.7262 -31.6962 -31.6864 -31.6840 -31.6662
   -31.6604 -31.6335 -31.6314 -31.6216 -31.6189 -31.6121 -31.6014 -31.5942
   -31.5925 -31.5899 -31.5793 -31.5646 -31.5524 -31.5242 -31.5176 -31.5039
   -31.4749 -31.4423 -30.9774 -30.9338 -30.9142 -30.8357 -30.7749 -30.7082
   -21.1869 -17.3304 -16.1491 -15.8483 -15.7139 -15.6575 -15.5873 -15.5384
   -15.4735 -15.4179 -15.2963 -15.2829 -15.2405 -15.2139 -15.2034 -15.1951
   -15.1695 -15.0949 -15.0595 -15.0581 -15.0294 -14.9679 -14.9418 -14.9120
   -14.8978 -14.8886 -14.8545 -14.8016 -14.7415 -14.7335 -14.6596 -13.1238
   -13.0440  -9.1732  -6.3539  -4.3269  -4.3130  -3.9899  -3.8020  -3.5606
    -3.4588  -3.1606  -3.0811  -3.0658  -3.0453  -3.0390  -2.9384  -2.9120
    -2.8939  -2.7770  -2.6658  -2.6310  -2.6075  -2.5606  -2.5352  -2.5002
    -2.4679  -2.4558  -2.4044  -2.3952  -2.3625  -2.3409  -2.3217  -2.2944
    -2.2362  -2.2131  -2.1779  -2.0925  -2.0778  -2.0066  -1.9399  -1.9198
    -1.8261  -1.8083  -1.7558  -1.6341  -1.6125  -1.5382  -1.5056  -1.3789
    -1.3499  -1.2828  -1.1737  -1.0866  -1.0645  -1.0348  -1.0026  -0.9374
    -0.8846  -0.8697  -0.8327  -0.7888  -0.7198  -0.6705  -0.6261  -0.6130
    -0.6015  -0.5155  -0.4748  -0.4414  -0.3619  -0.3461  -0.3155  -0.3103
    -0.2665  -0.2248  -0.2001  -0.1621  -0.1022  -0.0783  -0.0415   0.0144
     0.0578   0.0865   0.1067   0.1744   0.2173   0.2503   0.3059   0.3926
     0.5295   0.5442   0.5898   0.6678   0.6881   0.7194   0.7755   0.7998
     0.8662   0.9588   1.0242   1.2979   1.6029   1.6671   1.8600   1.9391
     3.7419   3.8246   3.8677   3.8828   3.9355   3.9686   4.0190   4.0491
     4.0773   4.1086

          k =-0.0760-0.0000 0.0000 ( 17886 PWs)   bands (ev):

   -55.6079 -55.5931 -55.5713 -55.5570 -55.5024 -55.4922 -55.4687 -55.4408
   -55.4344 -55.3797 -55.3713 -55.3647 -55.3306 -55.2517 -54.6218 -54.5878
   -32.1597 -32.0777 -32.0119 -31.9673 -31.9344 -31.9076 -31.8991 -31.8766
   -31.8509 -31.8329 -31.8141 -31.8084 -31.7748 -31.7623 -31.7580 -31.7466
   -31.7383 -31.7195 -31.7157 -31.6992 -31.6980 -31.6969 -31.6940 -31.6732
   -31.6483 -31.6253 -31.6174 -31.6077 -31.5984 -31.5949 -31.5897 -31.5887
   -31.5838 -31.5740 -31.5725 -31.5414 -31.5391 -31.5074 -31.4745 -31.4669
   -31.4491 -31.4484 -31.0309 -30.9413 -30.9088 -30.8481 -30.7621 -30.6511
   -21.1869 -17.3449 -16.1885 -15.8786 -15.7326 -15.6872 -15.6214 -15.6009
   -15.4821 -15.3951 -15.3748 -15.3703 -15.3298 -15.3057 -15.2792 -15.2369
   -15.1801 -15.1437 -15.0561 -15.0548 -14.9310 -14.9299 -14.9260 -14.8898
   -14.8734 -14.7961 -14.7707 -14.7503 -14.6635 -14.6406 -14.5917 -13.1164
   -13.0041  -9.1721  -6.3549  -4.3293  -4.3094  -4.0242  -3.8209  -3.6379
    -3.6099  -3.2235  -3.1807  -3.1272  -3.0451  -2.9863  -2.9807  -2.9572
    -2.8735  -2.8506  -2.7952  -2.7797  -2.7328  -2.6649  -2.4864  -2.4582
    -2.4071  -2.3686  -2.3602  -2.1843  -2.1651  -2.1318  -2.1031  -2.0846
    -2.0626  -1.9883  -1.9367  -1.9232  -1.9004  -1.8591  -1.8398  -1.8300
    -1.8119  -1.7652  -1.7515  -1.7374  -1.6996  -1.6294  -1.4306  -1.3640
    -1.3405  -1.2925  -1.2488  -1.2128  -1.1873  -1.1537  -1.1279  -1.0662
    -1.0112  -0.9630  -0.9455  -0.9133  -0.8864  -0.8614  -0.7902  -0.7415
    -0.7049  -0.6781  -0.4799  -0.4055  -0.3650  -0.3489  -0.3250  -0.3078
    -0.2438  -0.1676  -0.1382  -0.0810  -0.0624  -0.0260   0.0392   0.0960
     0.1277   0.1596   0.1935   0.2015   0.2391   0.2980   0.3594   0.4045
     0.4645   0.4967   0.5345   0.5515   0.6487   0.7247   0.8355   0.8568
     0.9556   1.0675   1.1142   1.3234   1.4364   1.5148   1.7350   1.8969
     3.6340   3.6379   3.7191   3.8179   3.8574   3.8999   3.9943   4.0032
     4.0331   4.0636

          k =-0.0760 0.0419 0.0000 ( 17914 PWs)   bands (ev):

   -55.6035 -55.5879 -55.5758 -55.5623 -55.5012 -55.4896 -55.4637 -55.4435
   -55.4395 -55.3786 -55.3724 -55.3599 -55.3356 -55.2529 -54.6169 -54.5928
   -32.1020 -32.0240 -31.9691 -31.9177 -31.8946 -31.8944 -31.8816 -31.8670
   -31.8318 -31.8227 -31.7989 -31.7981 -31.7849 -31.7707 -31.7574 -31.7549
   -31.7498 -31.7380 -31.7189 -31.7081 -31.6992 -31.6960 -31.6863 -31.6831
   -31.6613 -31.6370 -31.6314 -31.6212 -31.6131 -31.6019 -31.5954 -31.5925
   -31.5905 -31.5845 -31.5804 -31.5763 -31.5675 -31.5213 -31.5195 -31.5049
   -31.4749 -31.4479 -30.9772 -30.9366 -30.9135 -30.8357 -30.7749 -30.7083
   -21.1869 -17.3290 -16.0687 -15.7640 -15.6451 -15.5848 -15.5837 -15.5127
   -15.4719 -15.3951 -15.3375 -15.3299 -15.2954 -15.2787 -15.2458 -15.2426
   -15.1634 -15.1363 -15.0662 -15.0571 -15.0320 -14.9845 -14.9729 -14.9291
   -14.9185 -14.8904 -14.8543 -14.8076 -14.7390 -14.7319 -14.6620 -13.1216
   -13.0444  -9.1729  -6.3546  -4.3277  -4.3129  -3.9821  -3.7995  -3.5802
    -3.4447  -3.0592  -3.0369  -2.9252  -2.9139  -2.8278  -2.7812  -2.7243
    -2.6788  -2.6618  -2.6509  -2.6230  -2.6078  -2.5584  -2.5563  -2.4960
    -2.4715  -2.4311  -2.3781  -2.3473  -2.3085  -2.2719  -2.2626  -2.1844
    -2.1749  -2.1632  -2.0970  -2.0747  -2.0381  -1.9855  -1.9369  -1.8965
    -1.7607  -1.7439  -1.6908  -1.6786  -1.6348  -1.6096  -1.4879  -1.3875
    -1.2763  -1.2672  -1.1589  -1.1517  -1.1326  -1.0907  -1.0711  -1.0154
    -0.9316  -0.9237  -0.9131  -0.8770  -0.8362  -0.8255  -0.8073  -0.7579
    -0.7249  -0.7002  -0.6700  -0.6252  -0.5345  -0.4711  -0.4386  -0.4271
    -0.3523  -0.3170  -0.3034  -0.2444  -0.2114  -0.1655  -0.1252  -0.0721
     0.0223   0.0585   0.0735   0.1337   0.2697   0.2776   0.3071   0.5003
     0.5122   0.5664   0.6099   0.6676   0.7544   0.7946   0.8232   0.8709
     0.9000   0.9543   0.9697   1.1402   1.6188   1.6702   1.7850   1.9228
     3.6853   3.7386   3.7936   3.8748   3.8857   3.8941   4.0360   4.0407
     4.1326   4.1745

          k =-0.0760-0.0839 0.0000 ( 17948 PWs)   bands (ev):

   -55.5966 -55.5828 -55.5762 -55.5741 -55.5001 -55.4866 -55.4523 -55.4510
   -55.4466 -55.3775 -55.3736 -55.3499 -55.3455 -55.2541 -54.6054 -54.6043
   -31.9636 -31.9581 -31.9117 -31.8995 -31.8886 -31.8848 -31.8668 -31.8627
   -31.8591 -31.8176 -31.7948 -31.7891 -31.7878 -31.7494 -31.7389 -31.7332
   -31.7233 -31.7227 -31.7190 -31.7137 -31.7104 -31.6932 -31.6884 -31.6829
   -31.6784 -31.6721 -31.6655 -31.6547 -31.6543 -31.6498 -31.6261 -31.6023
   -31.6016 -31.5990 -31.5938 -31.5767 -31.5719 -31.5608 -31.5545 -31.5440
   -31.4841 -31.4484 -30.9256 -30.9242 -30.8452 -30.8443 -30.8059 -30.8049
   -21.1869 -17.3130 -15.7828 -15.7717 -15.5279 -15.5258 -15.5234 -15.4549
   -15.3635 -15.3464 -15.3279 -15.3234 -15.2656 -15.2584 -15.2437 -15.1838
   -15.1439 -15.1248 -15.1128 -15.1103 -15.0574 -15.0532 -15.0007 -14.9784
   -14.9633 -14.9564 -14.9387 -14.9321 -14.8427 -14.8394 -14.7671 -13.1071
   -13.1048  -9.1736  -6.3542  -4.3263  -4.3167  -3.9354  -3.7910  -3.5301
    -3.0751  -3.0610  -3.0392  -2.7694  -2.7448  -2.7430  -2.6492  -2.5621
    -2.5232  -2.4860  -2.4480  -2.4448  -2.4434  -2.4245  -2.4053  -2.3933
    -2.3713  -2.3571  -2.3456  -2.2860  -2.2494  -2.2412  -2.2366  -2.2281
    -2.2005  -2.1809  -2.1594  -2.1533  -2.1432  -2.1231  -2.0298  -1.8908
    -1.8568  -1.7474  -1.7373  -1.7073  -1.6930  -1.6614  -1.6541  -1.6348
    -1.5282  -1.4589  -1.3371  -1.3246  -1.3067  -1.2549  -1.1853  -1.1123
    -1.0547  -1.0236  -1.0053  -0.9149  -0.9028  -0.8244  -0.8126  -0.7602
    -0.7241  -0.7060  -0.6139  -0.5752  -0.5622  -0.5490  -0.4789  -0.4633
    -0.4381  -0.4047  -0.3456  -0.3360  -0.2615  -0.2300  -0.1817  -0.1209
    -0.0993  -0.0471   0.0408   0.2088   0.3027   0.4025   0.4383   0.4966
     0.5095   0.6059   0.6497   0.6675   0.6736   0.7576   0.8246   0.8508
     0.9177   0.9322   0.9548   1.0179   1.7620   1.7635   1.8537   1.8639
     3.7847   3.8128   3.8329   3.8794   4.0387   4.0435   4.0625   4.0659
     4.1411   4.2031

     the Fermi energy is     3.5469 ev

!    total energy              =   -2971.68372509 Ry
     estimated scf accuracy    <       0.00000003 Ry
     smearing contrib. (-TS)   =      -0.02320952 Ry
     internal energy E=F+TS    =   -2971.66051557 Ry

     The total energy is F=E-TS. E is the sum of the following terms:
     one-electron contribution =  -22785.45039215 Ry
     hartree contribution      =   11484.69242802 Ry
     xc contribution           =    -492.26800168 Ry
     ewald contribution        =    8821.36437110 Ry
     electric field correction =       0.00107914 Ry

     convergence has been achieved in  74 iterations

     Forces acting on atoms (cartesian axes, Ry/au):

     atom    1 type  1   force =    -0.00021501   -0.00154523    0.10616743
     atom    2 type  1   force =    -0.00044926    0.00047059   -0.17978651
     atom    3 type  2   force =     0.00026776   -0.00690492   -0.03318021
     atom    4 type  2   force =     0.00053970    0.00050894    0.04562142
     atom    5 type  2   force =    -0.01840742    0.00015792    0.00400480
     atom    6 type  2   force =     0.02062145   -0.00127965    0.00459797
     atom    7 type  1   force =    -0.00033929   -0.00020107    0.00005201
     atom    8 type  1   force =    -0.00018155   -0.00126137    0.00020436
     atom    9 type  2   force =     0.00001335    0.00011345   -0.00075161
     atom   10 type  2   force =    -0.00005324    0.00002448   -0.00042123
     atom   11 type  2   force =     0.00004598    0.00007587    0.00041166
     atom   12 type  2   force =    -0.00071261    0.00015200    0.00037089
     atom   13 type  1   force =    -0.00000485    0.00042744    0.00050848
     atom   14 type  1   force =    -0.00014519    0.00087933    0.00018241
     atom   15 type  2   force =    -0.00044738   -0.00029790    0.00004090
     atom   16 type  2   force =    -0.00018757    0.00013668   -0.00072553
     atom   17 type  2   force =    -0.00037975    0.00006008    0.00014489
     atom   18 type  2   force =     0.00038498   -0.00009640   -0.00047053
     atom   19 type  1   force =    -0.00003175    0.00074735   -0.00053686
     atom   20 type  1   force =    -0.00027791    0.00010675   -0.00043287
     atom   21 type  2   force =    -0.00006612    0.00009785    0.10415426
     atom   22 type  2   force =    -0.00008534   -0.00043892   -0.00074440
     atom   23 type  2   force =    -0.06900803    0.00068108   -0.02953817
     atom   24 type  2   force =     0.06866283    0.00115597   -0.02959829
     atom   25 type  1   force =    -0.00013025    0.00146937    0.11716332
     atom   26 type  1   force =    -0.00022003   -0.00000335   -0.17987496
     atom   27 type  2   force =     0.00042482    0.00389686   -0.02757276
     atom   28 type  2   force =     0.00072639    0.00077885    0.04707275
     atom   29 type  2   force =    -0.01718765    0.00151829    0.00338710
     atom   30 type  2   force =     0.01883410    0.00099749    0.00380451
     atom   31 type  1   force =    -0.00038356    0.00043293   -0.00030557
     atom   32 type  1   force =    -0.00022674    0.00076436    0.00041059
     atom   33 type  2   force =    -0.00028188   -0.00010500   -0.00015577
     atom   34 type  2   force =    -0.00003064    0.00048029    0.00028698
     atom   35 type  2   force =    -0.00005562    0.00005823    0.00054029
     atom   36 type  2   force =    -0.00067313   -0.00005982    0.00041753
     atom   37 type  1   force =    -0.00005906   -0.00017426    0.00007036
     atom   38 type  1   force =    -0.00007508   -0.00114730    0.00007527
     atom   39 type  2   force =    -0.00021854    0.00001711    0.00047930
     atom   40 type  2   force =    -0.00022330    0.00019889    0.00071061
     atom   41 type  2   force =    -0.00093622   -0.00038654   -0.00024385
     atom   42 type  2   force =     0.00080244   -0.00015773   -0.00005216
     atom   43 type  1   force =     0.00021735   -0.00090367    0.00026898
     atom   44 type  1   force =     0.00003129    0.00113829   -0.00021734
     atom   45 type  2   force =    -0.00006057    0.00007443    0.10421252
     atom   46 type  2   force =    -0.06858871   -0.00128372   -0.02958086
     atom   47 type  2   force =     0.06834695   -0.00086237   -0.02966390
     atom   48 type  3   force =    -0.00111666   -0.00269284   -0.00035151
     atom   49 type  2   force =    -0.00008405    0.00051830    0.00011853
     atom   50 type  4   force =     0.00152837    0.00191798   -0.00034209
     atom   51 type  4   force =     0.00089445    0.00007995   -0.00024745
     atom   52 type  4   force =    -0.00066282   -0.00022539   -0.00033024
     atom   53 type  5   force =     0.00058202    0.00001477    0.00079193
     atom   54 type  5   force =    -0.00071748   -0.00012473   -0.00114741

     Total force =     0.376154     Total SCF correction =     0.000390
  @ DRIVER MODE: Message from server: STATUS
  @ DRIVER MODE: Message from server: GETFORCE
  @ DRIVER MODE: Returning v,forces,stress,ensemble 

     Writing output data file ./calc.save/
  @ DRIVER MODE: Message from server: EXIT
  @ DRIVE MODE: Exiting  
 
     init_run     :     10.74s CPU     11.81s WALL (       1 calls)
     electrons    :   1227.35s CPU   1245.14s WALL (       1 calls)
     forces       :      2.38s CPU      2.47s WALL (       1 calls)

     Called by init_run:
     wfcinit      :      4.78s CPU      4.96s WALL (       1 calls)
     potinit      :      5.33s CPU      5.49s WALL (       1 calls)
     hinit0       :      0.29s CPU      0.46s WALL (       1 calls)

     Called by electrons:
     c_bands      :   1053.52s CPU   1061.28s WALL (      74 calls)
     sum_band     :    118.54s CPU    122.52s WALL (      74 calls)
     v_of_rho     :     41.26s CPU     43.43s WALL (      75 calls)
     newd         :     16.91s CPU     20.69s WALL (      75 calls)
     mix_rho      :      1.55s CPU      1.64s WALL (      74 calls)
     vdW_kernel   :      4.55s CPU      4.61s WALL (       1 calls)

     Called by c_bands:
     init_us_2    :      6.94s CPU      6.99s WALL (    1500 calls)
     cegterg      :   1033.52s CPU   1040.95s WALL (     753 calls)

     Called by *egterg:
     cdiaghg      :    171.05s CPU    171.93s WALL (    7517 calls)
     h_psi        :    549.53s CPU    554.71s WALL (    7529 calls)
     s_psi        :     72.31s CPU     72.55s WALL (    7529 calls)
     g_psi        :      2.04s CPU      2.06s WALL (    6766 calls)

     Called by h_psi:
     h_psi:calbec :     69.33s CPU     69.67s WALL (    7529 calls)
     vloc_psi     :    403.87s CPU    408.07s WALL (    7529 calls)
     add_vuspsi   :     72.80s CPU     73.17s WALL (    7529 calls)

     General routines
     calbec       :     90.58s CPU     90.99s WALL (    8309 calls)
     fft          :     20.81s CPU     21.00s WALL (    4725 calls)
     ffts         :      0.14s CPU      0.14s WALL (     149 calls)
     fftw         :    448.42s CPU    453.03s WALL ( 1070734 calls)
     interpolate  :      0.43s CPU      0.44s WALL (      75 calls)
     davcio       :      0.00s CPU      0.07s WALL (      10 calls)
 
     Parallel routines
 
     PWSCF        :  20m41.75s CPU  21m 4.87s WALL

 
   This run was terminated on:  17:15:24  21Sep2021            

=------------------------------------------------------------------------------=
   JOB DONE.
=------------------------------------------------------------------------------=
