
     Program PWSCF v.6.7GPU starts on 23Sep2021 at  3:14:56 

     This program is part of the open-source Quantum ESPRESSO suite
     for quantum simulation of materials; please cite
         "P. Giannozzi et al., J. Phys.:Condens. Matter 21 395502 (2009);
         "P. Giannozzi et al., J. Phys.:Condens. Matter 29 465901 (2017);
         "P. Giannozzi et al., J. Chem. Phys. 152 154105 (2020);
          URL http://www.quantum-espresso.org", 
     in publications or presentations arising from this work. More details at
     http://www.quantum-espresso.org/quote

     Parallel version (MPI), running on    10 processors

     MPI processes distributed on     1 nodes
     R & G space division:  proc/nbgrp/npool/nimage =      10
     Reading input from /storage/home/hcoda1/3/ntian30/research/carbon/CxH_vib/H2O_calc/ads_slab/CH2NHHHO_a/out_0031/pw.inp
Warning: card &CELL ignored
Warning: card   CELL_DYNAMICS='IPI', ignored
Warning: card / ignored

     Current dimensions of program PWSCF are:
     Max number of different atomic species (ntypx) = 10
     Max number of k-points (npk) =  40000
     Max angular momentum in pseudopotentials (lmaxx) =  3
     Presently no symmetry can be used with electric field

     Message from routine cell_base_init:
     DEPRECATED: use true lattice parameter, not A to a.u. conversion factor

     **************************************************************************
     Initializing libbeef V0.1.2 with the BEEF-vdW functional.
     Citation: Wellendorff et al., PRB 85, 235149 (2012).
     **************************************************************************


     IMPORTANT: XC functional enforced from input :
     Exchange-correlation= BEEF-VDW
                           (   1   4  43  14   2   0   0)
     Any further DFT definition will be discarded
     Please, verify this is what you really want


     Subspace diagonalization in iterative solution of the eigenvalue problem:
     one sub-group per band group will be used
     scalapack distributed-memory algorithm (size of sub-group:  3*  3 procs)

  @ DRIVER MODE: Connecting to 
 qe_1139763_2937325.sched-torque.pace.gatech.edu167rh8vc_scratch
  using UNIX socket
  @ DRIVER MODE: Message from server: STATUS
  @ DRIVER MODE: Message from server: INIT
  @ DRIVER MODE: Receiving replica           0          -1
  @ DRIVER MODE: Receiving encoded integer          25
  @ DRIVER MODE:  SCF:  T  FORCE:  T  STRESS:  F  VC:  F  ENSEMBLE:  F
  @ DRIVER MODE:  SCF:  T  FORCE:  T  STRESS:  F  VC:  F  ENSEMBLE:  F
 
     Parallelization info
     --------------------
     sticks:   dense  smooth     PW     G-vecs:    dense   smooth      PW
     Min         327     131     37                56683    14340    2191
     Max         328     133     38                56694    14346    2206
     Sum        3275    1317    379               566857   143421   21985
 
     Using Slab Decomposition
 


     bravais-lattice index     =            0
     lattice parameter (alat)  =       1.8897  a.u.
     unit-cell volume          =    6658.9804 (a.u.)^3
     number of atoms/cell      =           55
     number of atomic types    =            5
     number of electrons       =       398.00
     number of Kohn-Sham states=          209
     kinetic-energy cutoff     =      29.3995  Ry
     charge density cutoff     =     293.9946  Ry
     scf convergence threshold =      7.3E-08
     mixing beta               =       0.0500
     number of iterations used =            8  plain     mixing
     Exchange-correlation= BEEF-VDW
                           (   1   4  43  14   2   0   0)

     celldm(1)=   1.889726  celldm(2)=   0.000000  celldm(3)=   0.000000
     celldm(4)=   0.000000  celldm(5)=   0.000000  celldm(6)=   0.000000

     crystal axes: (cart. coord. in units of alat)
               a(1) = (   6.579727   0.000000   0.000000 )  
               a(2) = (  -0.000775   5.961596   0.000000 )  
               a(3) = (   0.000000   0.000000  25.155947 )  

     reciprocal axes: (cart. coord. in units 2 pi/alat)
               b(1) = (  0.151982  0.000020  0.000000 )  
               b(2) = (  0.000000  0.167740  0.000000 )  
               b(3) = (  0.000000  0.000000  0.039752 )  


     PseudoPot. # 1 for Ti read from file:
     /storage/coda1/p-amedford6/0/shared/rich_project_chbe-medford/medford-share/data/pseudos_module/espresso/nninc/pbe/van/Ti.UPF
     MD5 check sum: 8e4df49b7f0d34bbd5052bf3f5ea0213
     Pseudo is Ultrasoft, Zval = 12.0
     Generated by new atomic code, or converted to UPF format
     Using radial grid of  851 points,  6 beta functions with: 
                l(1) =   0
                l(2) =   0
                l(3) =   1
                l(4) =   1
                l(5) =   2
                l(6) =   2
     Q(r) pseudized with  8 coefficients,  rinner =    1.000   1.000   1.000
                                                       1.000   1.000

     PseudoPot. # 2 for O  read from file:
     /storage/coda1/p-amedford6/0/shared/rich_project_chbe-medford/medford-share/data/pseudos_module/espresso/nninc/pbe/van/O.UPF
     MD5 check sum: 78c19812648e8988a0fe644b0f25305e
     Pseudo is Ultrasoft, Zval =  6.0
     Generated by new atomic code, or converted to UPF format
     Using radial grid of  737 points,  4 beta functions with: 
                l(1) =   0
                l(2) =   0
                l(3) =   1
                l(4) =   1
     Q(r) pseudized with  8 coefficients,  rinner =    0.800   0.800   0.800


     PseudoPot. # 3 for N  read from file:
     /storage/coda1/p-amedford6/0/shared/rich_project_chbe-medford/medford-share/data/pseudos_module/espresso/nninc/pbe/van/N.UPF
     MD5 check sum: 90d10febe142ad51ac9d5be1deb811c4
     Pseudo is Ultrasoft, Zval =  5.0
     Generated by new atomic code, or converted to UPF format
     Using radial grid of  729 points,  4 beta functions with: 
                l(1) =   0
                l(2) =   0
                l(3) =   1
                l(4) =   1
     Q(r) pseudized with  8 coefficients,  rinner =    0.800   0.800   0.800


     PseudoPot. # 4 for C  read from file:
     /storage/coda1/p-amedford6/0/shared/rich_project_chbe-medford/medford-share/data/pseudos_module/espresso/nninc/pbe/van/C.UPF
     MD5 check sum: 1a69bf6b8db32088f5b2163dbdb77a27
     Pseudo is Ultrasoft, Zval =  4.0
     Generated by new atomic code, or converted to UPF format
     Using radial grid of  721 points,  4 beta functions with: 
                l(1) =   0
                l(2) =   0
                l(3) =   1
                l(4) =   1
     Q(r) pseudized with  8 coefficients,  rinner =    0.800   0.800   0.800


     PseudoPot. # 5 for H  read from file:
     /storage/coda1/p-amedford6/0/shared/rich_project_chbe-medford/medford-share/data/pseudos_module/espresso/nninc/pbe/van/H.UPF
     MD5 check sum: b5ee9d7bfd3a09ee7748110bda690ff7
     Pseudo is Ultrasoft, Zval =  1.0
     Generated by new atomic code, or converted to UPF format
     Using radial grid of  615 points,  1 beta functions with: 
                l(1) =   0
     Q(r) pseudized with  8 coefficients,  rinner =    0.800

     atomic species   valence    mass     pseudopotential
        Ti1           12.00    47.86700     Ti( 1.00)
        O1             6.00    15.99900     O ( 1.00)
        N1             5.00    14.00700     N ( 1.00)
        C1             4.00    12.01100     C ( 1.00)
        H1             1.00     1.00800     H ( 1.00)

     No symmetry found



   Cartesian axes

     site n.     atom                  positions (alat units)
         1           Ti1 tau(   1) = (   0.0004258   2.9801865   6.0000000  )
         2           Ti1 tau(   2) = (   3.2906075   1.4906267   6.0002472  )
         3           O1  tau(   3) = (   0.0006271   0.0005054   7.9858123  )
         4           O1  tau(   4) = (   3.2906025   0.0005020   7.3038282  )
         5           O1  tau(   5) = (   4.5942328   1.4918067   9.2879030  )
         6           O1  tau(   6) = (   1.9868534   1.4903216   9.2879459  )
         7           Ti1 tau(   7) = (   3.2907910   2.8959150   9.1758416  )
         8           Ti1 tau(   8) = (   0.0015273   1.4827037   9.2680791  )
         9           O1  tau(   9) = (   3.3134935   5.9450930  11.3716456  )
        10           O1  tau(  10) = (   0.0116148   5.9584955  10.6183126  )
        11           O1  tau(  11) = (   1.3009377   1.4930576  12.6823270  )
        12           O1  tau(  12) = (   5.3410967   1.4903504  12.6863499  )
        13           Ti1 tau(  13) = (   0.0342001   2.9430440  12.5112676  )
        14           Ti1 tau(  14) = (   3.3297267   1.2953541  12.7310232  )
        15           O1  tau(  15) = (   0.0493764   5.9086628  14.6689690  )
        16           O1  tau(  16) = (   3.3288597   0.0714287  14.0177558  )
        17           O1  tau(  17) = (   4.6153468   1.5975901  16.1787110  )
        18           O1  tau(  18) = (   2.0592605   1.5839887  16.0909148  )
        19           Ti1 tau(  19) = (   3.3163104   3.0362344  15.7082748  )
        20           Ti1 tau(  20) = (   0.1120434   1.3330501  15.8434463  )
        21           O1  tau(  21) = (   3.2904802   0.0005063   4.7018136  )
        22           O1  tau(  22) = (   0.0690725   0.1374024  17.2087871  )
        23           O1  tau(  23) = (   1.3043587   1.4918075   6.0039043  )
        24           O1  tau(  24) = (   5.2767064   1.4903225   6.0039473  )
        25           Ti1 tau(  25) = (   0.0000382   5.9609847   6.0000000  )
        26           Ti1 tau(  26) = (   3.2902200   4.4714249   6.0002472  )
        27           O1  tau(  27) = (   0.0002396   2.9813036   7.9858123  )
        28           O1  tau(  28) = (   3.2902150   2.9813002   7.3038282  )
        29           O1  tau(  29) = (   4.5938453   4.4726049   9.2879030  )
        30           O1  tau(  30) = (   1.9864658   4.4711199   9.2879459  )
        31           Ti1 tau(  31) = (   3.2891106   5.8743827   9.1763621  )
        32           Ti1 tau(  32) = (   0.0006254   4.4649316   9.2693709  )
        33           O1  tau(  33) = (   3.3165203   3.0043058  11.3207354  )
        34           O1  tau(  34) = (   0.0092240   2.9805883  10.6323155  )
        35           O1  tau(  35) = (   1.3050136   4.4578615  12.6552238  )
        36           O1  tau(  36) = (   5.3353050   4.4620295  12.6594116  )
        37           Ti1 tau(  37) = (   0.0330755   5.9154870  12.5003292  )
        38           Ti1 tau(  38) = (   3.3291962   4.3779952  12.4454333  )
        39           O1  tau(  39) = (   0.0233967   3.0352723  14.9286183  )
        40           O1  tau(  40) = (   3.3272303   3.0068708  13.9347379  )
        41           O1  tau(  41) = (   4.5962338   4.4808180  16.1645836  )
        42           O1  tau(  42) = (   2.0526765   4.4464907  16.1857218  )
        43           Ti1 tau(  43) = (   3.4309460   0.0633718  16.3216252  )
        44           Ti1 tau(  44) = (   0.1034465   4.5521166  15.9739525  )
        45           O1  tau(  45) = (   3.2900926   2.9813045   4.7018136  )
        46           O1  tau(  46) = (   1.3039711   4.4726057   6.0039043  )
        47           O1  tau(  47) = (   5.2763189   4.4711207   6.0039473  )
        48           N1  tau(  48) = (   6.1597698   3.4535781  18.2989460  )
        49           C1  tau(  49) = (   0.6557129   3.1470513  19.0816575  )
        50           H1  tau(  50) = (   1.2037892   3.9510289  19.5415217  )
        51           H1  tau(  51) = (   1.0557295   2.1499681  19.0337936  )
        52           H1  tau(  52) = (   5.6880836   4.3337965  18.4846543  )
        53           H1  tau(  53) = (   5.4956413   2.7003945  18.1017309  )
        54           O1  tau(  54) = (   3.2744276   0.0793712  18.1757868  )
        55           H1  tau(  55) = (   2.3604784   5.9194474  18.4805682  )

     number of k points=    10  Fermi-Dirac smearing, width (Ry)=  0.0073
                       cart. coord. in units 2pi/alat
        k(    1) = (   0.0000000   0.0000000   0.0000000), wk =   0.1250000
        k(    2) = (   0.0000000   0.0419351   0.0000000), wk =   0.2500000
        k(    3) = (   0.0000000  -0.0838702   0.0000000), wk =   0.1250000
        k(    4) = (   0.0379955   0.0000049   0.0000000), wk =   0.2500000
        k(    5) = (   0.0379955   0.0419400   0.0000000), wk =   0.2500000
        k(    6) = (   0.0379955  -0.0838652   0.0000000), wk =   0.2500000
        k(    7) = (   0.0379955  -0.0419301   0.0000000), wk =   0.2500000
        k(    8) = (  -0.0759910  -0.0000099   0.0000000), wk =   0.1250000
        k(    9) = (  -0.0759910   0.0419252   0.0000000), wk =   0.2500000
        k(   10) = (  -0.0759910  -0.0838800   0.0000000), wk =   0.1250000

     Dense  grid:   566857 G-vectors     FFT dimensions: (  72,  64, 270)

     Smooth grid:   143421 G-vectors     FFT dimensions: (  45,  40, 180)

     Estimated max dynamical RAM per process >     366.66 MB

     Estimated total dynamical RAM >       3.58 GB
     Cannot read rho : file not found

     Initial potential from superposition of free atoms

     starting charge  381.99915, renormalised to  398.00000

     negative rho (up, down):  1.644E-02 0.000E+00


     %%%%%%%%%%%%%%%%%%%%%%%%%%%%%%%%%%%%%%%%%%%%%%%%%%%%%%%%%%%%%%%%%%%%%%%%
     %                                                                      %
     % You are using vdW-DF, which was implemented by the Thonhauser group. %
     % Please cite the following two papers that made this development      %
     % possible and the two reviews that describe the various versions:     %
     %                                                                      %
     %   T. Thonhauser et al., PRL 115, 136402 (2015).                      %
     %   T. Thonhauser et al., PRB 76, 125112 (2007).                       %
     %   K. Berland et al., Rep. Prog. Phys. 78, 066501 (2015).             %
     %   D.C. Langreth et al., J. Phys.: Condens. Matter 21, 084203 (2009). %
     %                                                                      %
     %                                                                      %
     % If you are calculating the stress with vdW-DF, please also cite:     %
     %                                                                      %
     %   R. Sabatini et al., J. Phys.: Condens. Matter 24, 424209 (2012).   %
     %                                                                      %
     %%%%%%%%%%%%%%%%%%%%%%%%%%%%%%%%%%%%%%%%%%%%%%%%%%%%%%%%%%%%%%%%%%%%%%%%


 
     Adding external electric field

     Computed dipole along edir(3) : 
        Dipole              -10.2322 Ry au,        -26.0075 Debye
        Dipole field         -0.0193 Ry au, 
 
        Potential amp.        1.7900 Ry
        Total length         46.3494 bohr
 
     Starting wfcs are  301 atomic wfcs
  @ DRIVER MODE: Message from server: STATUS
  @ DRIVER MODE: Message from server: POSDATA
  @ DRIVER MODE: Reading and sharing cell 
  @ DRIVER MODE: Reading and sharing positions 
  @ DRIVER MODE: Received positions 

     total cpu time spent up to now is       11.3 secs

     Self-consistent Calculation

     iteration #  1     ecut=    29.40 Ry     beta= 0.05
     Davidson diagonalization with overlap
     c_bands:  1 eigenvalues not converged
     c_bands:  3 eigenvalues not converged
     c_bands:  3 eigenvalues not converged
     c_bands:  1 eigenvalues not converged
     c_bands:  4 eigenvalues not converged
     c_bands:  4 eigenvalues not converged
     c_bands:  4 eigenvalues not converged
     c_bands:  2 eigenvalues not converged
     c_bands:  3 eigenvalues not converged
     c_bands:  4 eigenvalues not converged
     ethr =  1.00E-05,  avg # of iterations = 20.0

     negative rho (up, down):  1.173E-02 0.000E+00
 
     Adding external electric field

     Computed dipole along edir(3) : 
        Dipole               46.8057 Ry au,        118.9682 Debye
        Dipole field          0.0883 Ry au, 
 
        Potential amp.       -8.1879 Ry
        Total length         46.3494 bohr
 

     total cpu time spent up to now is       52.3 secs

     total energy              =   -2477.34995791 Ry
     estimated scf accuracy    <    5313.86405743 Ry

     iteration #  2     ecut=    29.40 Ry     beta= 0.05
     Davidson diagonalization with overlap
     ethr =  1.00E-02,  avg # of iterations = 23.7

     negative rho (up, down):  2.511E-03 0.000E+00
 
     Adding external electric field

     Computed dipole along edir(3) : 
        Dipole               -1.4639 Ry au,         -3.7209 Debye
        Dipole field         -0.0028 Ry au, 
 
        Potential amp.        0.2561 Ry
        Total length         46.3494 bohr
 

     total cpu time spent up to now is      127.3 secs

     total energy              =   -2454.50283353 Ry
     estimated scf accuracy    <   69755.68208629 Ry

     iteration #  3     ecut=    29.40 Ry     beta= 0.05
     Davidson diagonalization with overlap
     ethr =  1.00E-02,  avg # of iterations = 17.1

     negative rho (up, down):  2.583E-03 0.000E+00
 
     Adding external electric field

     Computed dipole along edir(3) : 
        Dipole               -4.0240 Ry au,        -10.2279 Debye
        Dipole field         -0.0076 Ry au, 
 
        Potential amp.        0.7039 Ry
        Total length         46.3494 bohr
 

     total cpu time spent up to now is      176.1 secs

     total energy              =   -2941.19601404 Ry
     estimated scf accuracy    <    4573.35311036 Ry

     iteration #  4     ecut=    29.40 Ry     beta= 0.05
     Davidson diagonalization with overlap
     ethr =  1.00E-02,  avg # of iterations = 12.2

     negative rho (up, down):  2.629E-03 0.000E+00
 
     Adding external electric field

     Computed dipole along edir(3) : 
        Dipole               -5.6741 Ry au,        -14.4221 Debye
        Dipole field         -0.0107 Ry au, 
 
        Potential amp.        0.9926 Ry
        Total length         46.3494 bohr
 

     total cpu time spent up to now is      194.7 secs

     total energy              =   -2940.35487952 Ry
     estimated scf accuracy    <    1837.69123311 Ry

     iteration #  5     ecut=    29.40 Ry     beta= 0.05
     Davidson diagonalization with overlap
     ethr =  1.00E-02,  avg # of iterations =  4.8

     negative rho (up, down):  2.792E-03 0.000E+00
 
     Adding external electric field

     Computed dipole along edir(3) : 
        Dipole               -8.6465 Ry au,        -21.9773 Debye
        Dipole field         -0.0163 Ry au, 
 
        Potential amp.        1.5126 Ry
        Total length         46.3494 bohr
 

     total cpu time spent up to now is      206.4 secs

     total energy              =   -2914.43505410 Ry
     estimated scf accuracy    <    1480.10054031 Ry

     iteration #  6     ecut=    29.40 Ry     beta= 0.05
     Davidson diagonalization with overlap
     ethr =  1.00E-02,  avg # of iterations = 11.2

     negative rho (up, down):  1.801E-03 0.000E+00
 
     Adding external electric field

     Computed dipole along edir(3) : 
        Dipole               -6.7294 Ry au,        -17.1044 Debye
        Dipole field         -0.0127 Ry au, 
 
        Potential amp.        1.1772 Ry
        Total length         46.3494 bohr
 

     total cpu time spent up to now is      229.6 secs

     total energy              =   -2955.39007653 Ry
     estimated scf accuracy    <     623.06719654 Ry

     iteration #  7     ecut=    29.40 Ry     beta= 0.05
     Davidson diagonalization with overlap
     ethr =  1.00E-02,  avg # of iterations =  1.6

     negative rho (up, down):  2.071E-03 0.000E+00
 
     Adding external electric field

     Computed dipole along edir(3) : 
        Dipole               -6.0979 Ry au,        -15.4993 Debye
        Dipole field         -0.0115 Ry au, 
 
        Potential amp.        1.0667 Ry
        Total length         46.3494 bohr
 

     total cpu time spent up to now is      239.9 secs

     total energy              =   -2957.73063699 Ry
     estimated scf accuracy    <      42.12902957 Ry

     iteration #  8     ecut=    29.40 Ry     beta= 0.05
     Davidson diagonalization with overlap
     ethr =  1.00E-02,  avg # of iterations =  1.0

     negative rho (up, down):  3.182E-03 0.000E+00
 
     Adding external electric field

     Computed dipole along edir(3) : 
        Dipole               -4.7563 Ry au,        -12.0892 Debye
        Dipole field         -0.0090 Ry au, 
 
        Potential amp.        0.8320 Ry
        Total length         46.3494 bohr
 

     total cpu time spent up to now is      249.6 secs

     total energy              =   -2955.62750245 Ry
     estimated scf accuracy    <      37.46370916 Ry

     iteration #  9     ecut=    29.40 Ry     beta= 0.05
     Davidson diagonalization with overlap
     ethr =  9.41E-03,  avg # of iterations =  1.7

     negative rho (up, down):  7.951E-03 0.000E+00
 
     Adding external electric field

     Computed dipole along edir(3) : 
        Dipole               -2.6500 Ry au,         -6.7357 Debye
        Dipole field         -0.0050 Ry au, 
 
        Potential amp.        0.4636 Ry
        Total length         46.3494 bohr
 

     total cpu time spent up to now is      259.8 secs

     total energy              =   -2953.52234141 Ry
     estimated scf accuracy    <      27.10408684 Ry

     iteration # 10     ecut=    29.40 Ry     beta= 0.05
     Davidson diagonalization with overlap
     ethr =  6.81E-03,  avg # of iterations = 13.4

     negative rho (up, down):  2.908E-02 0.000E+00
 
     Adding external electric field

     Computed dipole along edir(3) : 
        Dipole               -0.1689 Ry au,         -0.4294 Debye
        Dipole field         -0.0003 Ry au, 
 
        Potential amp.        0.0296 Ry
        Total length         46.3494 bohr
 

     total cpu time spent up to now is      276.7 secs

     total energy              =   -2973.75533674 Ry
     estimated scf accuracy    <     636.92552822 Ry

     iteration # 11     ecut=    29.40 Ry     beta= 0.05
     Davidson diagonalization with overlap
     ethr =  6.81E-03,  avg # of iterations = 13.6

     negative rho (up, down):  3.225E-02 0.000E+00
 
     Adding external electric field

     Computed dipole along edir(3) : 
        Dipole               -0.2319 Ry au,         -0.5894 Debye
        Dipole field         -0.0004 Ry au, 
 
        Potential amp.        0.0406 Ry
        Total length         46.3494 bohr
 

     total cpu time spent up to now is      295.7 secs

     total energy              =   -2974.08775459 Ry
     estimated scf accuracy    <    3325.20264218 Ry

     iteration # 12     ecut=    29.40 Ry     beta= 0.05
     Davidson diagonalization with overlap
     ethr =  6.81E-03,  avg # of iterations =  1.0

     negative rho (up, down):  2.710E-02 0.000E+00
 
     Adding external electric field

     Computed dipole along edir(3) : 
        Dipole               -0.4814 Ry au,         -1.2235 Debye
        Dipole field         -0.0009 Ry au, 
 
        Potential amp.        0.0842 Ry
        Total length         46.3494 bohr
 

     total cpu time spent up to now is      305.4 secs

     total energy              =   -2961.93467835 Ry
     estimated scf accuracy    <    2323.41719787 Ry

     iteration # 13     ecut=    29.40 Ry     beta= 0.05
     Davidson diagonalization with overlap
     ethr =  6.81E-03,  avg # of iterations =  2.2

     negative rho (up, down):  2.448E-02 0.000E+00
 
     Adding external electric field

     Computed dipole along edir(3) : 
        Dipole               -0.1617 Ry au,         -0.4110 Debye
        Dipole field         -0.0003 Ry au, 
 
        Potential amp.        0.0283 Ry
        Total length         46.3494 bohr
 

     total cpu time spent up to now is      316.0 secs

     total energy              =   -2959.94231996 Ry
     estimated scf accuracy    <    2189.24259548 Ry

     iteration # 14     ecut=    29.40 Ry     beta= 0.05
     Davidson diagonalization with overlap
     ethr =  6.81E-03,  avg # of iterations =  2.2

     negative rho (up, down):  5.277E-03 0.000E+00
 
     Adding external electric field

     Computed dipole along edir(3) : 
        Dipole               -2.6247 Ry au,         -6.6714 Debye
        Dipole field         -0.0050 Ry au, 
 
        Potential amp.        0.4592 Ry
        Total length         46.3494 bohr
 

     total cpu time spent up to now is      326.4 secs

     total energy              =   -2924.84754642 Ry
     estimated scf accuracy    <    2127.85526219 Ry

     iteration # 15     ecut=    29.40 Ry     beta= 0.05
     Davidson diagonalization with overlap
     ethr =  6.81E-03,  avg # of iterations = 14.7

     negative rho (up, down):  4.000E-03 0.000E+00
 
     Adding external electric field

     Computed dipole along edir(3) : 
        Dipole               -3.3102 Ry au,         -8.4138 Debye
        Dipole field         -0.0062 Ry au, 
 
        Potential amp.        0.5791 Ry
        Total length         46.3494 bohr
 

     total cpu time spent up to now is      353.4 secs

     total energy              =   -2955.73984327 Ry
     estimated scf accuracy    <      18.84210362 Ry

     iteration # 16     ecut=    29.40 Ry     beta= 0.05
     Davidson diagonalization with overlap
     ethr =  4.73E-03,  avg # of iterations =  9.6

     negative rho (up, down):  4.168E-03 0.000E+00
 
     Adding external electric field

     Computed dipole along edir(3) : 
        Dipole               -3.0901 Ry au,         -7.8543 Debye
        Dipole field         -0.0058 Ry au, 
 
        Potential amp.        0.5406 Ry
        Total length         46.3494 bohr
 

     total cpu time spent up to now is      367.6 secs

     total energy              =   -2957.32494994 Ry
     estimated scf accuracy    <     470.65393084 Ry

     iteration # 17     ecut=    29.40 Ry     beta= 0.05
     Davidson diagonalization with overlap
     ethr =  4.73E-03,  avg # of iterations =  2.2

     negative rho (up, down):  4.476E-03 0.000E+00
 
     Adding external electric field

     Computed dipole along edir(3) : 
        Dipole               -3.1208 Ry au,         -7.9324 Debye
        Dipole field         -0.0059 Ry au, 
 
        Potential amp.        0.5459 Ry
        Total length         46.3494 bohr
 

     total cpu time spent up to now is      378.1 secs

     total energy              =   -2959.05341521 Ry
     estimated scf accuracy    <     457.30911168 Ry

     iteration # 18     ecut=    29.40 Ry     beta= 0.05
     Davidson diagonalization with overlap
     ethr =  4.73E-03,  avg # of iterations =  4.3

     negative rho (up, down):  5.987E-03 0.000E+00
 
     Adding external electric field

     Computed dipole along edir(3) : 
        Dipole               -2.4277 Ry au,         -6.1706 Debye
        Dipole field         -0.0046 Ry au, 
 
        Potential amp.        0.4247 Ry
        Total length         46.3494 bohr
 

     total cpu time spent up to now is      389.1 secs

     total energy              =   -2956.16054854 Ry
     estimated scf accuracy    <     576.65433743 Ry

     iteration # 19     ecut=    29.40 Ry     beta= 0.05
     Davidson diagonalization with overlap
     ethr =  4.73E-03,  avg # of iterations =  1.2

     negative rho (up, down):  7.288E-03 0.000E+00
 
     Adding external electric field

     Computed dipole along edir(3) : 
        Dipole               -2.3062 Ry au,         -5.8617 Debye
        Dipole field         -0.0044 Ry au, 
 
        Potential amp.        0.4034 Ry
        Total length         46.3494 bohr
 

     total cpu time spent up to now is      399.1 secs

     total energy              =   -2954.61667232 Ry
     estimated scf accuracy    <     371.40644476 Ry

     iteration # 20     ecut=    29.40 Ry     beta= 0.05
     Davidson diagonalization with overlap
     ethr =  4.73E-03,  avg # of iterations =  1.1

     negative rho (up, down):  7.384E-03 0.000E+00
 
     Adding external electric field

     Computed dipole along edir(3) : 
        Dipole               -2.6380 Ry au,         -6.7052 Debye
        Dipole field         -0.0050 Ry au, 
 
        Potential amp.        0.4615 Ry
        Total length         46.3494 bohr
 

     total cpu time spent up to now is      408.9 secs

     total energy              =   -2957.06046642 Ry
     estimated scf accuracy    <      95.19370228 Ry

     iteration # 21     ecut=    29.40 Ry     beta= 0.05
     Davidson diagonalization with overlap
     ethr =  4.73E-03,  avg # of iterations =  1.5

     negative rho (up, down):  2.047E-02 0.000E+00
 
     Adding external electric field

     Computed dipole along edir(3) : 
        Dipole               -1.5604 Ry au,         -3.9662 Debye
        Dipole field         -0.0029 Ry au, 
 
        Potential amp.        0.2730 Ry
        Total length         46.3494 bohr
 

     total cpu time spent up to now is      418.9 secs

     total energy              =   -2950.84583808 Ry
     estimated scf accuracy    <     623.28688518 Ry

     iteration # 22     ecut=    29.40 Ry     beta= 0.05
     Davidson diagonalization with overlap
     ethr =  4.73E-03,  avg # of iterations =  1.5

     negative rho (up, down):  1.098E-02 0.000E+00
 
     Adding external electric field

     Computed dipole along edir(3) : 
        Dipole               -1.9439 Ry au,         -4.9409 Debye
        Dipole field         -0.0037 Ry au, 
 
        Potential amp.        0.3401 Ry
        Total length         46.3494 bohr
 

     total cpu time spent up to now is      428.8 secs

     total energy              =   -2954.10780595 Ry
     estimated scf accuracy    <      20.27185080 Ry

     iteration # 23     ecut=    29.40 Ry     beta= 0.05
     Davidson diagonalization with overlap
     ethr =  4.73E-03,  avg # of iterations =  1.1

     negative rho (up, down):  1.425E-02 0.000E+00
 
     Adding external electric field

     Computed dipole along edir(3) : 
        Dipole               -1.6080 Ry au,         -4.0872 Debye
        Dipole field         -0.0030 Ry au, 
 
        Potential amp.        0.2813 Ry
        Total length         46.3494 bohr
 

     total cpu time spent up to now is      438.7 secs

     total energy              =   -2954.17292032 Ry
     estimated scf accuracy    <      25.58318375 Ry

     iteration # 24     ecut=    29.40 Ry     beta= 0.05
     Davidson diagonalization with overlap
     ethr =  4.73E-03,  avg # of iterations =  1.0

     negative rho (up, down):  1.914E-02 0.000E+00
 
     Adding external electric field

     Computed dipole along edir(3) : 
        Dipole               -1.2020 Ry au,         -3.0553 Debye
        Dipole field         -0.0023 Ry au, 
 
        Potential amp.        0.2103 Ry
        Total length         46.3494 bohr
 

     total cpu time spent up to now is      448.4 secs

     total energy              =   -2953.91406760 Ry
     estimated scf accuracy    <      21.70568993 Ry

     iteration # 25     ecut=    29.40 Ry     beta= 0.05
     Davidson diagonalization with overlap
     ethr =  4.73E-03,  avg # of iterations =  1.0

     negative rho (up, down):  2.546E-02 0.000E+00
 
     Adding external electric field

     Computed dipole along edir(3) : 
        Dipole               -0.9797 Ry au,         -2.4901 Debye
        Dipole field         -0.0018 Ry au, 
 
        Potential amp.        0.1714 Ry
        Total length         46.3494 bohr
 

     total cpu time spent up to now is      458.2 secs

     total energy              =   -2953.59951004 Ry
     estimated scf accuracy    <      16.52670418 Ry

     iteration # 26     ecut=    29.40 Ry     beta= 0.05
     Davidson diagonalization with overlap
     ethr =  4.15E-03,  avg # of iterations =  1.2

     negative rho (up, down):  5.055E-02 0.000E+00
 
     Adding external electric field

     Computed dipole along edir(3) : 
        Dipole               -0.4913 Ry au,         -1.2487 Debye
        Dipole field         -0.0009 Ry au, 
 
        Potential amp.        0.0859 Ry
        Total length         46.3494 bohr
 

     total cpu time spent up to now is      468.1 secs

     total energy              =   -2952.97611178 Ry
     estimated scf accuracy    <      13.94329673 Ry

     iteration # 27     ecut=    29.40 Ry     beta= 0.05
     Davidson diagonalization with overlap
     ethr =  3.50E-03,  avg # of iterations = 11.4

     negative rho (up, down):  2.772E-02 0.000E+00
 
     Adding external electric field

     Computed dipole along edir(3) : 
        Dipole               -0.8564 Ry au,         -2.1768 Debye
        Dipole field         -0.0016 Ry au, 
 
        Potential amp.        0.1498 Ry
        Total length         46.3494 bohr
 

     total cpu time spent up to now is      481.9 secs

     total energy              =   -2953.92086730 Ry
     estimated scf accuracy    <       1.31664838 Ry

     iteration # 28     ecut=    29.40 Ry     beta= 0.05
     Davidson diagonalization with overlap
     c_bands:  1 eigenvalues not converged
     c_bands:  2 eigenvalues not converged
     ethr =  3.31E-04,  avg # of iterations = 14.0

     negative rho (up, down):  2.243E-02 0.000E+00
 
     Adding external electric field

     Computed dipole along edir(3) : 
        Dipole               -0.9243 Ry au,         -2.3494 Debye
        Dipole field         -0.0017 Ry au, 
 
        Potential amp.        0.1617 Ry
        Total length         46.3494 bohr
 

     total cpu time spent up to now is      497.1 secs

     total energy              =   -2953.95075367 Ry
     estimated scf accuracy    <       1.42581154 Ry

     iteration # 29     ecut=    29.40 Ry     beta= 0.05
     Davidson diagonalization with overlap
     ethr =  3.31E-04,  avg # of iterations =  1.7

     negative rho (up, down):  1.762E-02 0.000E+00
 
     Adding external electric field

     Computed dipole along edir(3) : 
        Dipole               -0.9761 Ry au,         -2.4811 Debye
        Dipole field         -0.0018 Ry au, 
 
        Potential amp.        0.1708 Ry
        Total length         46.3494 bohr
 

     total cpu time spent up to now is      507.3 secs

     total energy              =   -2953.93135056 Ry
     estimated scf accuracy    <       0.75414922 Ry

     iteration # 30     ecut=    29.40 Ry     beta= 0.05
     Davidson diagonalization with overlap
     c_bands:  1 eigenvalues not converged
     ethr =  1.89E-04,  avg # of iterations =  7.7

     negative rho (up, down):  1.147E-02 0.000E+00
 
     Adding external electric field

     Computed dipole along edir(3) : 
        Dipole               -0.8146 Ry au,         -2.0704 Debye
        Dipole field         -0.0015 Ry au, 
 
        Potential amp.        0.1425 Ry
        Total length         46.3494 bohr
 

     total cpu time spent up to now is      519.4 secs

     total energy              =   -2953.89348149 Ry
     estimated scf accuracy    <       0.54768939 Ry

     iteration # 31     ecut=    29.40 Ry     beta= 0.05
     Davidson diagonalization with overlap
     ethr =  1.38E-04,  avg # of iterations = 14.3

     negative rho (up, down):  2.132E-02 0.000E+00
 
     Adding external electric field

     Computed dipole along edir(3) : 
        Dipole               -0.4804 Ry au,         -1.2211 Debye
        Dipole field         -0.0009 Ry au, 
 
        Potential amp.        0.0840 Ry
        Total length         46.3494 bohr
 

     total cpu time spent up to now is      537.6 secs

     total energy              =   -2953.54132469 Ry
     estimated scf accuracy    <       8.13346977 Ry

     iteration # 32     ecut=    29.40 Ry     beta= 0.05
     Davidson diagonalization with overlap
     c_bands:  4 eigenvalues not converged
     c_bands:  2 eigenvalues not converged
     c_bands:  2 eigenvalues not converged
     c_bands:  5 eigenvalues not converged
     c_bands:  3 eigenvalues not converged
     c_bands:  1 eigenvalues not converged
     c_bands:  4 eigenvalues not converged
     c_bands:  4 eigenvalues not converged
     c_bands:  3 eigenvalues not converged
     ethr =  1.38E-04,  avg # of iterations = 19.8

     negative rho (up, down):  1.432E-02 0.000E+00
 
     Adding external electric field

     Computed dipole along edir(3) : 
        Dipole               -0.1007 Ry au,         -0.2560 Debye
        Dipole field         -0.0002 Ry au, 
 
        Potential amp.        0.0176 Ry
        Total length         46.3494 bohr
 

     total cpu time spent up to now is      559.6 secs

     total energy              =   -2953.85161400 Ry
     estimated scf accuracy    <       0.90004092 Ry

     iteration # 33     ecut=    29.40 Ry     beta= 0.05
     Davidson diagonalization with overlap
     c_bands:  1 eigenvalues not converged
     c_bands:  3 eigenvalues not converged
     c_bands:  2 eigenvalues not converged
     c_bands:  3 eigenvalues not converged
     ethr =  1.38E-04,  avg # of iterations = 18.0

     negative rho (up, down):  1.094E-02 0.000E+00
 
     Adding external electric field

     Computed dipole along edir(3) : 
        Dipole                0.1080 Ry au,          0.2746 Debye
        Dipole field          0.0002 Ry au, 
 
        Potential amp.       -0.0189 Ry
        Total length         46.3494 bohr
 

     total cpu time spent up to now is      576.1 secs

     total energy              =   -2953.87720914 Ry
     estimated scf accuracy    <       0.21313688 Ry

     iteration # 34     ecut=    29.40 Ry     beta= 0.05
     Davidson diagonalization with overlap
     c_bands:  2 eigenvalues not converged
     c_bands:  1 eigenvalues not converged
     c_bands:  1 eigenvalues not converged
     c_bands:  1 eigenvalues not converged
     ethr =  5.36E-05,  avg # of iterations = 16.4

     negative rho (up, down):  1.654E-02 0.000E+00
 
     Adding external electric field

     Computed dipole along edir(3) : 
        Dipole                0.3051 Ry au,          0.7754 Debye
        Dipole field          0.0006 Ry au, 
 
        Potential amp.       -0.0534 Ry
        Total length         46.3494 bohr
 

     total cpu time spent up to now is      592.4 secs

     total energy              =   -2953.80532542 Ry
     estimated scf accuracy    <       1.02363305 Ry

     iteration # 35     ecut=    29.40 Ry     beta= 0.05
     Davidson diagonalization with overlap
     c_bands:  3 eigenvalues not converged
     c_bands:  2 eigenvalues not converged
     c_bands:  3 eigenvalues not converged
     c_bands:  4 eigenvalues not converged
     c_bands:  5 eigenvalues not converged
     c_bands:  1 eigenvalues not converged
     c_bands:  1 eigenvalues not converged
     c_bands:  5 eigenvalues not converged
     ethr =  5.36E-05,  avg # of iterations = 22.1

     negative rho (up, down):  1.655E-02 0.000E+00
 
     Adding external electric field

     Computed dipole along edir(3) : 
        Dipole                0.3218 Ry au,          0.8180 Debye
        Dipole field          0.0006 Ry au, 
 
        Potential amp.       -0.0563 Ry
        Total length         46.3494 bohr
 

     total cpu time spent up to now is      615.2 secs

     total energy              =   -2953.91900002 Ry
     estimated scf accuracy    <       0.75664033 Ry

     iteration # 36     ecut=    29.40 Ry     beta= 0.05
     Davidson diagonalization with overlap
     c_bands:  1 eigenvalues not converged
     ethr =  5.36E-05,  avg # of iterations =  5.3

     negative rho (up, down):  1.634E-02 0.000E+00
 
     Adding external electric field

     Computed dipole along edir(3) : 
        Dipole                0.3671 Ry au,          0.9332 Debye
        Dipole field          0.0007 Ry au, 
 
        Potential amp.       -0.0642 Ry
        Total length         46.3494 bohr
 

     total cpu time spent up to now is      626.4 secs

     total energy              =   -2953.92159106 Ry
     estimated scf accuracy    <       0.77026737 Ry

     iteration # 37     ecut=    29.40 Ry     beta= 0.05
     Davidson diagonalization with overlap
     ethr =  5.36E-05,  avg # of iterations =  1.0

     negative rho (up, down):  1.522E-02 0.000E+00
 
     Adding external electric field

     Computed dipole along edir(3) : 
        Dipole                0.4457 Ry au,          1.1328 Debye
        Dipole field          0.0008 Ry au, 
 
        Potential amp.       -0.0780 Ry
        Total length         46.3494 bohr
 

     total cpu time spent up to now is      636.1 secs

     total energy              =   -2953.92753027 Ry
     estimated scf accuracy    <       0.83272953 Ry

     iteration # 38     ecut=    29.40 Ry     beta= 0.05
     Davidson diagonalization with overlap
     ethr =  5.36E-05,  avg # of iterations =  4.5

     negative rho (up, down):  1.149E-02 0.000E+00
 
     Adding external electric field

     Computed dipole along edir(3) : 
        Dipole                0.2844 Ry au,          0.7230 Debye
        Dipole field          0.0005 Ry au, 
 
        Potential amp.       -0.0498 Ry
        Total length         46.3494 bohr
 

     total cpu time spent up to now is      647.2 secs

     total energy              =   -2953.88020584 Ry
     estimated scf accuracy    <       0.91480952 Ry

     iteration # 39     ecut=    29.40 Ry     beta= 0.05
     Davidson diagonalization with overlap
     ethr =  5.36E-05,  avg # of iterations = 13.1

     negative rho (up, down):  1.205E-02 0.000E+00
 
     Adding external electric field

     Computed dipole along edir(3) : 
        Dipole                0.2191 Ry au,          0.5570 Debye
        Dipole field          0.0004 Ry au, 
 
        Potential amp.       -0.0383 Ry
        Total length         46.3494 bohr
 

     total cpu time spent up to now is      661.8 secs

     total energy              =   -2953.88856955 Ry
     estimated scf accuracy    <       0.42838654 Ry

     iteration # 40     ecut=    29.40 Ry     beta= 0.05
     Davidson diagonalization with overlap
     ethr =  5.36E-05,  avg # of iterations =  2.5

     negative rho (up, down):  1.209E-02 0.000E+00
 
     Adding external electric field

     Computed dipole along edir(3) : 
        Dipole                0.2434 Ry au,          0.6187 Debye
        Dipole field          0.0005 Ry au, 
 
        Potential amp.       -0.0426 Ry
        Total length         46.3494 bohr
 

     total cpu time spent up to now is      672.3 secs

     total energy              =   -2953.88301546 Ry
     estimated scf accuracy    <       0.36191996 Ry

     iteration # 41     ecut=    29.40 Ry     beta= 0.05
     Davidson diagonalization with overlap
     ethr =  5.36E-05,  avg # of iterations = 10.6

     negative rho (up, down):  1.141E-02 0.000E+00
 
     Adding external electric field

     Computed dipole along edir(3) : 
        Dipole                0.6060 Ry au,          1.5404 Debye
        Dipole field          0.0011 Ry au, 
 
        Potential amp.       -0.1060 Ry
        Total length         46.3494 bohr
 

     total cpu time spent up to now is      685.4 secs

     total energy              =   -2953.88527200 Ry
     estimated scf accuracy    <       0.24487885 Ry

     iteration # 42     ecut=    29.40 Ry     beta= 0.05
     Davidson diagonalization with overlap
     ethr =  5.36E-05,  avg # of iterations =  5.3

     negative rho (up, down):  1.232E-02 0.000E+00
 
     Adding external electric field

     Computed dipole along edir(3) : 
        Dipole                0.6733 Ry au,          1.7115 Debye
        Dipole field          0.0013 Ry au, 
 
        Potential amp.       -0.1178 Ry
        Total length         46.3494 bohr
 

     total cpu time spent up to now is      697.0 secs

     total energy              =   -2953.89838344 Ry
     estimated scf accuracy    <       0.90007497 Ry

     iteration # 43     ecut=    29.40 Ry     beta= 0.05
     Davidson diagonalization with overlap
     ethr =  5.36E-05,  avg # of iterations =  1.8

     negative rho (up, down):  9.818E-03 0.000E+00
 
     Adding external electric field

     Computed dipole along edir(3) : 
        Dipole                0.6197 Ry au,          1.5752 Debye
        Dipole field          0.0012 Ry au, 
 
        Potential amp.       -0.1084 Ry
        Total length         46.3494 bohr
 

     total cpu time spent up to now is      707.2 secs

     total energy              =   -2953.87715433 Ry
     estimated scf accuracy    <       0.94380340 Ry

     iteration # 44     ecut=    29.40 Ry     beta= 0.05
     Davidson diagonalization with overlap
     c_bands:  3 eigenvalues not converged
     c_bands:  2 eigenvalues not converged
     c_bands:  2 eigenvalues not converged
     c_bands:  2 eigenvalues not converged
     c_bands:  3 eigenvalues not converged
     ethr =  5.36E-05,  avg # of iterations = 16.0

     negative rho (up, down):  1.135E-02 0.000E+00
 
     Adding external electric field

     Computed dipole along edir(3) : 
        Dipole                0.6026 Ry au,          1.5317 Debye
        Dipole field          0.0011 Ry au, 
 
        Potential amp.       -0.1054 Ry
        Total length         46.3494 bohr
 

     total cpu time spent up to now is      722.4 secs

     total energy              =   -2953.87805530 Ry
     estimated scf accuracy    <       0.11888936 Ry

     iteration # 45     ecut=    29.40 Ry     beta= 0.05
     Davidson diagonalization with overlap
     c_bands:  1 eigenvalues not converged
     c_bands:  2 eigenvalues not converged
     c_bands:  1 eigenvalues not converged
     c_bands:  1 eigenvalues not converged
     c_bands:  1 eigenvalues not converged
     ethr =  2.99E-05,  avg # of iterations = 15.4

     negative rho (up, down):  1.165E-02 0.000E+00
 
     Adding external electric field

     Computed dipole along edir(3) : 
        Dipole                0.5252 Ry au,          1.3348 Debye
        Dipole field          0.0010 Ry au, 
 
        Potential amp.       -0.0919 Ry
        Total length         46.3494 bohr
 

     total cpu time spent up to now is      737.4 secs

     total energy              =   -2953.89310864 Ry
     estimated scf accuracy    <       0.72550687 Ry

     iteration # 46     ecut=    29.40 Ry     beta= 0.05
     Davidson diagonalization with overlap
     ethr =  2.99E-05,  avg # of iterations =  1.4

     negative rho (up, down):  1.097E-02 0.000E+00
 
     Adding external electric field

     Computed dipole along edir(3) : 
        Dipole                0.5530 Ry au,          1.4056 Debye
        Dipole field          0.0010 Ry au, 
 
        Potential amp.       -0.0967 Ry
        Total length         46.3494 bohr
 

     total cpu time spent up to now is      747.5 secs

     total energy              =   -2953.88871737 Ry
     estimated scf accuracy    <       0.75320019 Ry

     iteration # 47     ecut=    29.40 Ry     beta= 0.05
     Davidson diagonalization with overlap
     ethr =  2.99E-05,  avg # of iterations =  2.3

     negative rho (up, down):  1.094E-02 0.000E+00
 
     Adding external electric field

     Computed dipole along edir(3) : 
        Dipole                0.3749 Ry au,          0.9529 Debye
        Dipole field          0.0007 Ry au, 
 
        Potential amp.       -0.0656 Ry
        Total length         46.3494 bohr
 

     total cpu time spent up to now is      757.8 secs

     total energy              =   -2953.88184196 Ry
     estimated scf accuracy    <       0.54174481 Ry

     iteration # 48     ecut=    29.40 Ry     beta= 0.05
     Davidson diagonalization with overlap
     ethr =  2.99E-05,  avg # of iterations =  6.7

     negative rho (up, down):  1.003E-02 0.000E+00
 
     Adding external electric field

     Computed dipole along edir(3) : 
        Dipole                0.6169 Ry au,          1.5681 Debye
        Dipole field          0.0012 Ry au, 
 
        Potential amp.       -0.1079 Ry
        Total length         46.3494 bohr
 

     total cpu time spent up to now is      769.7 secs

     total energy              =   -2953.88278863 Ry
     estimated scf accuracy    <       0.17318885 Ry

     iteration # 49     ecut=    29.40 Ry     beta= 0.05
     Davidson diagonalization with overlap
     ethr =  2.99E-05,  avg # of iterations =  5.3

     negative rho (up, down):  8.739E-03 0.000E+00
 
     Adding external electric field

     Computed dipole along edir(3) : 
        Dipole                0.6272 Ry au,          1.5941 Debye
        Dipole field          0.0012 Ry au, 
 
        Potential amp.       -0.1097 Ry
        Total length         46.3494 bohr
 

     total cpu time spent up to now is      781.4 secs

     total energy              =   -2953.87465838 Ry
     estimated scf accuracy    <       0.19863314 Ry

     iteration # 50     ecut=    29.40 Ry     beta= 0.05
     Davidson diagonalization with overlap
     c_bands:  2 eigenvalues not converged
     c_bands:  3 eigenvalues not converged
     ethr =  2.99E-05,  avg # of iterations = 19.1

     negative rho (up, down):  9.511E-03 0.000E+00
 
     Adding external electric field

     Computed dipole along edir(3) : 
        Dipole                0.7445 Ry au,          1.8924 Debye
        Dipole field          0.0014 Ry au, 
 
        Potential amp.       -0.1302 Ry
        Total length         46.3494 bohr
 

     total cpu time spent up to now is      800.8 secs

     total energy              =   -2953.86187354 Ry
     estimated scf accuracy    <       0.53373438 Ry

     iteration # 51     ecut=    29.40 Ry     beta= 0.05
     Davidson diagonalization with overlap
     c_bands:  1 eigenvalues not converged
     c_bands:  1 eigenvalues not converged
     c_bands:  3 eigenvalues not converged
     c_bands:  2 eigenvalues not converged
     c_bands:  2 eigenvalues not converged
     c_bands:  1 eigenvalues not converged
     c_bands:  2 eigenvalues not converged
     ethr =  2.99E-05,  avg # of iterations = 18.8

     negative rho (up, down):  9.795E-03 0.000E+00
 
     Adding external electric field

     Computed dipole along edir(3) : 
        Dipole                0.6879 Ry au,          1.7483 Debye
        Dipole field          0.0013 Ry au, 
 
        Potential amp.       -0.1203 Ry
        Total length         46.3494 bohr
 

     total cpu time spent up to now is      818.1 secs

     total energy              =   -2953.87885893 Ry
     estimated scf accuracy    <       0.09160375 Ry

     iteration # 52     ecut=    29.40 Ry     beta= 0.05
     Davidson diagonalization with overlap
     c_bands:  1 eigenvalues not converged
     c_bands:  1 eigenvalues not converged
     ethr =  2.30E-05,  avg # of iterations = 14.0

     negative rho (up, down):  1.011E-02 0.000E+00
 
     Adding external electric field

     Computed dipole along edir(3) : 
        Dipole                0.7626 Ry au,          1.9383 Debye
        Dipole field          0.0014 Ry au, 
 
        Potential amp.       -0.1334 Ry
        Total length         46.3494 bohr
 

     total cpu time spent up to now is      832.9 secs

     total energy              =   -2953.88353671 Ry
     estimated scf accuracy    <       0.03436729 Ry

     iteration # 53     ecut=    29.40 Ry     beta= 0.05
     Davidson diagonalization with overlap
     c_bands:  2 eigenvalues not converged
     c_bands:  2 eigenvalues not converged
     ethr =  8.63E-06,  avg # of iterations = 16.4

     negative rho (up, down):  1.227E-02 0.000E+00
 
     Adding external electric field

     Computed dipole along edir(3) : 
        Dipole                0.8453 Ry au,          2.1485 Debye
        Dipole field          0.0016 Ry au, 
 
        Potential amp.       -0.1479 Ry
        Total length         46.3494 bohr
 

     total cpu time spent up to now is      848.5 secs

     total energy              =   -2953.88524921 Ry
     estimated scf accuracy    <       0.03926745 Ry

     iteration # 54     ecut=    29.40 Ry     beta= 0.05
     Davidson diagonalization with overlap
     ethr =  8.63E-06,  avg # of iterations =  2.7

     negative rho (up, down):  1.323E-02 0.000E+00
 
     Adding external electric field

     Computed dipole along edir(3) : 
        Dipole                0.8415 Ry au,          2.1388 Debye
        Dipole field          0.0016 Ry au, 
 
        Potential amp.       -0.1472 Ry
        Total length         46.3494 bohr
 

     total cpu time spent up to now is      859.1 secs

     total energy              =   -2953.88597138 Ry
     estimated scf accuracy    <       0.00285869 Ry

     iteration # 55     ecut=    29.40 Ry     beta= 0.05
     Davidson diagonalization with overlap
     c_bands:  1 eigenvalues not converged
     c_bands:  1 eigenvalues not converged
     c_bands:  1 eigenvalues not converged
     c_bands:  1 eigenvalues not converged
     ethr =  7.18E-07,  avg # of iterations = 15.8

     negative rho (up, down):  1.342E-02 0.000E+00
 
     Adding external electric field

     Computed dipole along edir(3) : 
        Dipole                0.8617 Ry au,          2.1901 Debye
        Dipole field          0.0016 Ry au, 
 
        Potential amp.       -0.1507 Ry
        Total length         46.3494 bohr
 

     total cpu time spent up to now is      878.7 secs

     total energy              =   -2953.88625201 Ry
     estimated scf accuracy    <       0.02533254 Ry

     iteration # 56     ecut=    29.40 Ry     beta= 0.05
     Davidson diagonalization with overlap
     c_bands:  1 eigenvalues not converged
     ethr =  7.18E-07,  avg # of iterations =  9.7

     negative rho (up, down):  1.364E-02 0.000E+00
 
     Adding external electric field

     Computed dipole along edir(3) : 
        Dipole                0.8482 Ry au,          2.1558 Debye
        Dipole field          0.0016 Ry au, 
 
        Potential amp.       -0.1484 Ry
        Total length         46.3494 bohr
 

     total cpu time spent up to now is      891.9 secs

     total energy              =   -2953.88612357 Ry
     estimated scf accuracy    <       0.00542839 Ry

     iteration # 57     ecut=    29.40 Ry     beta= 0.05
     Davidson diagonalization with overlap
     c_bands:  1 eigenvalues not converged
     c_bands:  1 eigenvalues not converged
     c_bands:  1 eigenvalues not converged
     ethr =  7.18E-07,  avg # of iterations = 18.0

     negative rho (up, down):  1.386E-02 0.000E+00
 
     Adding external electric field

     Computed dipole along edir(3) : 
        Dipole                0.8637 Ry au,          2.1952 Debye
        Dipole field          0.0016 Ry au, 
 
        Potential amp.       -0.1511 Ry
        Total length         46.3494 bohr
 

     total cpu time spent up to now is      910.7 secs

     total energy              =   -2953.88631386 Ry
     estimated scf accuracy    <       0.00398247 Ry

     iteration # 58     ecut=    29.40 Ry     beta= 0.05
     Davidson diagonalization with overlap
     ethr =  7.18E-07,  avg # of iterations =  8.0

     negative rho (up, down):  1.486E-02 0.000E+00
 
     Adding external electric field

     Computed dipole along edir(3) : 
        Dipole                0.8915 Ry au,          2.2661 Debye
        Dipole field          0.0017 Ry au, 
 
        Potential amp.       -0.1560 Ry
        Total length         46.3494 bohr
 

     total cpu time spent up to now is      923.2 secs

     total energy              =   -2953.88606786 Ry
     estimated scf accuracy    <       0.00237623 Ry

     iteration # 59     ecut=    29.40 Ry     beta= 0.05
     Davidson diagonalization with overlap
     c_bands:  1 eigenvalues not converged
     c_bands:  1 eigenvalues not converged
     c_bands:  2 eigenvalues not converged
     c_bands:  3 eigenvalues not converged
     c_bands:  1 eigenvalues not converged
     ethr =  5.97E-07,  avg # of iterations = 18.6

     negative rho (up, down):  1.514E-02 0.000E+00
 
     Adding external electric field

     Computed dipole along edir(3) : 
        Dipole                0.8586 Ry au,          2.1824 Debye
        Dipole field          0.0016 Ry au, 
 
        Potential amp.       -0.1502 Ry
        Total length         46.3494 bohr
 

     total cpu time spent up to now is      944.2 secs

     total energy              =   -2953.88563086 Ry
     estimated scf accuracy    <       0.01472650 Ry

     iteration # 60     ecut=    29.40 Ry     beta= 0.05
     Davidson diagonalization with overlap
     c_bands:  1 eigenvalues not converged
     ethr =  5.97E-07,  avg # of iterations = 15.8

     negative rho (up, down):  1.529E-02 0.000E+00
 
     Adding external electric field

     Computed dipole along edir(3) : 
        Dipole                0.8604 Ry au,          2.1869 Debye
        Dipole field          0.0016 Ry au, 
 
        Potential amp.       -0.1505 Ry
        Total length         46.3494 bohr
 

     total cpu time spent up to now is      964.1 secs

     total energy              =   -2953.88650471 Ry
     estimated scf accuracy    <       0.00052015 Ry

     iteration # 61     ecut=    29.40 Ry     beta= 0.05
     Davidson diagonalization with overlap
     ethr =  1.31E-07,  avg # of iterations =  9.3

     negative rho (up, down):  1.535E-02 0.000E+00
 
     Adding external electric field

     Computed dipole along edir(3) : 
        Dipole                0.8598 Ry au,          2.1854 Debye
        Dipole field          0.0016 Ry au, 
 
        Potential amp.       -0.1504 Ry
        Total length         46.3494 bohr
 

     total cpu time spent up to now is      977.2 secs

     total energy              =   -2953.88651717 Ry
     estimated scf accuracy    <       0.00018091 Ry

     iteration # 62     ecut=    29.40 Ry     beta= 0.05
     Davidson diagonalization with overlap
     ethr =  4.55E-08,  avg # of iterations = 12.9

     negative rho (up, down):  1.528E-02 0.000E+00
 
     Adding external electric field

     Computed dipole along edir(3) : 
        Dipole                0.8513 Ry au,          2.1638 Debye
        Dipole field          0.0016 Ry au, 
 
        Potential amp.       -0.1489 Ry
        Total length         46.3494 bohr
 

     total cpu time spent up to now is      995.3 secs

     total energy              =   -2953.88653409 Ry
     estimated scf accuracy    <       0.00021684 Ry

     iteration # 63     ecut=    29.40 Ry     beta= 0.05
     Davidson diagonalization with overlap
     ethr =  4.55E-08,  avg # of iterations = 10.4

     negative rho (up, down):  1.547E-02 0.000E+00
 
     Adding external electric field

     Computed dipole along edir(3) : 
        Dipole                0.8548 Ry au,          2.1728 Debye
        Dipole field          0.0016 Ry au, 
 
        Potential amp.       -0.1495 Ry
        Total length         46.3494 bohr
 

     total cpu time spent up to now is     1009.2 secs

     total energy              =   -2953.88656511 Ry
     estimated scf accuracy    <       0.00007164 Ry

     iteration # 64     ecut=    29.40 Ry     beta= 0.05
     Davidson diagonalization with overlap
     ethr =  1.80E-08,  avg # of iterations = 11.2

     negative rho (up, down):  1.559E-02 0.000E+00
 
     Adding external electric field

     Computed dipole along edir(3) : 
        Dipole                0.8512 Ry au,          2.1637 Debye
        Dipole field          0.0016 Ry au, 
 
        Potential amp.       -0.1489 Ry
        Total length         46.3494 bohr
 

     total cpu time spent up to now is     1025.6 secs

     total energy              =   -2953.88657128 Ry
     estimated scf accuracy    <       0.00010487 Ry

     iteration # 65     ecut=    29.40 Ry     beta= 0.05
     Davidson diagonalization with overlap
     ethr =  1.80E-08,  avg # of iterations = 13.0

     negative rho (up, down):  1.566E-02 0.000E+00
 
     Adding external electric field

     Computed dipole along edir(3) : 
        Dipole                0.8532 Ry au,          2.1686 Debye
        Dipole field          0.0016 Ry au, 
 
        Potential amp.       -0.1493 Ry
        Total length         46.3494 bohr
 

     total cpu time spent up to now is     1042.4 secs

     total energy              =   -2953.88659193 Ry
     estimated scf accuracy    <       0.00002508 Ry

     iteration # 66     ecut=    29.40 Ry     beta= 0.05
     Davidson diagonalization with overlap
     ethr =  6.30E-09,  avg # of iterations = 10.8

     negative rho (up, down):  1.570E-02 0.000E+00
 
     Adding external electric field

     Computed dipole along edir(3) : 
        Dipole                0.8553 Ry au,          2.1739 Debye
        Dipole field          0.0016 Ry au, 
 
        Potential amp.       -0.1496 Ry
        Total length         46.3494 bohr
 

     total cpu time spent up to now is     1056.1 secs

     total energy              =   -2953.88659842 Ry
     estimated scf accuracy    <       0.00001494 Ry

     iteration # 67     ecut=    29.40 Ry     beta= 0.05
     Davidson diagonalization with overlap
     ethr =  3.75E-09,  avg # of iterations = 13.4

     negative rho (up, down):  1.571E-02 0.000E+00
 
     Adding external electric field

     Computed dipole along edir(3) : 
        Dipole                0.8543 Ry au,          2.1714 Debye
        Dipole field          0.0016 Ry au, 
 
        Potential amp.       -0.1494 Ry
        Total length         46.3494 bohr
 

     total cpu time spent up to now is     1071.9 secs

     total energy              =   -2953.88660323 Ry
     estimated scf accuracy    <       0.00001261 Ry

     iteration # 68     ecut=    29.40 Ry     beta= 0.05
     Davidson diagonalization with overlap
     ethr =  3.17E-09,  avg # of iterations = 13.4

     negative rho (up, down):  1.573E-02 0.000E+00
 
     Adding external electric field

     Computed dipole along edir(3) : 
        Dipole                0.8562 Ry au,          2.1761 Debye
        Dipole field          0.0016 Ry au, 
 
        Potential amp.       -0.1498 Ry
        Total length         46.3494 bohr
 

     total cpu time spent up to now is     1089.5 secs

     total energy              =   -2953.88660838 Ry
     estimated scf accuracy    <       0.00001327 Ry

     iteration # 69     ecut=    29.40 Ry     beta= 0.05
     Davidson diagonalization with overlap
     ethr =  3.17E-09,  avg # of iterations =  8.5

     negative rho (up, down):  1.573E-02 0.000E+00
 
     Adding external electric field

     Computed dipole along edir(3) : 
        Dipole                0.8574 Ry au,          2.1794 Debye
        Dipole field          0.0016 Ry au, 
 
        Potential amp.       -0.1500 Ry
        Total length         46.3494 bohr
 

     total cpu time spent up to now is     1102.6 secs

     total energy              =   -2953.88661259 Ry
     estimated scf accuracy    <       0.00000249 Ry

     iteration # 70     ecut=    29.40 Ry     beta= 0.05
     Davidson diagonalization with overlap
     c_bands:  2 eigenvalues not converged
     c_bands:  1 eigenvalues not converged
     c_bands:  1 eigenvalues not converged
     ethr =  6.26E-10,  avg # of iterations = 16.4

     negative rho (up, down):  1.574E-02 0.000E+00
 
     Adding external electric field

     Computed dipole along edir(3) : 
        Dipole                0.8566 Ry au,          2.1772 Debye
        Dipole field          0.0016 Ry au, 
 
        Potential amp.       -0.1498 Ry
        Total length         46.3494 bohr
 

     total cpu time spent up to now is     1122.9 secs

     total energy              =   -2953.88661595 Ry
     estimated scf accuracy    <       0.00000560 Ry

     iteration # 71     ecut=    29.40 Ry     beta= 0.05
     Davidson diagonalization with overlap
     ethr =  6.26E-10,  avg # of iterations = 12.7

     negative rho (up, down):  1.576E-02 0.000E+00
 
     Adding external electric field

     Computed dipole along edir(3) : 
        Dipole                0.8563 Ry au,          2.1765 Debye
        Dipole field          0.0016 Ry au, 
 
        Potential amp.       -0.1498 Ry
        Total length         46.3494 bohr
 

     total cpu time spent up to now is     1138.5 secs

     total energy              =   -2953.88661921 Ry
     estimated scf accuracy    <       0.00000126 Ry

     iteration # 72     ecut=    29.40 Ry     beta= 0.05
     Davidson diagonalization with overlap
     ethr =  3.18E-10,  avg # of iterations = 11.9

     negative rho (up, down):  1.575E-02 0.000E+00
 
     Adding external electric field

     Computed dipole along edir(3) : 
        Dipole                0.8563 Ry au,          2.1765 Debye
        Dipole field          0.0016 Ry au, 
 
        Potential amp.       -0.1498 Ry
        Total length         46.3494 bohr
 

     total cpu time spent up to now is     1157.5 secs

     total energy              =   -2953.88662211 Ry
     estimated scf accuracy    <       0.00000119 Ry

     iteration # 73     ecut=    29.40 Ry     beta= 0.05
     Davidson diagonalization with overlap
     ethr =  2.98E-10,  avg # of iterations =  3.1

     negative rho (up, down):  1.574E-02 0.000E+00
 
     Adding external electric field

     Computed dipole along edir(3) : 
        Dipole                0.8565 Ry au,          2.1769 Debye
        Dipole field          0.0016 Ry au, 
 
        Potential amp.       -0.1498 Ry
        Total length         46.3494 bohr
 

     total cpu time spent up to now is     1168.5 secs

     total energy              =   -2953.88662432 Ry
     estimated scf accuracy    <       0.00000113 Ry

     iteration # 74     ecut=    29.40 Ry     beta= 0.05
     Davidson diagonalization with overlap
     ethr =  2.84E-10,  avg # of iterations =  8.6

     negative rho (up, down):  1.573E-02 0.000E+00
 
     Adding external electric field

     Computed dipole along edir(3) : 
        Dipole                0.8563 Ry au,          2.1764 Debye
        Dipole field          0.0016 Ry au, 
 
        Potential amp.       -0.1498 Ry
        Total length         46.3494 bohr
 

     total cpu time spent up to now is     1181.4 secs

     total energy              =   -2953.88662643 Ry
     estimated scf accuracy    <       0.00000053 Ry

     iteration # 75     ecut=    29.40 Ry     beta= 0.05
     Davidson diagonalization with overlap
     ethr =  1.34E-10,  avg # of iterations = 11.3

     negative rho (up, down):  1.574E-02 0.000E+00
 
     Adding external electric field

     Computed dipole along edir(3) : 
        Dipole                0.8561 Ry au,          2.1761 Debye
        Dipole field          0.0016 Ry au, 
 
        Potential amp.       -0.1498 Ry
        Total length         46.3494 bohr
 

     total cpu time spent up to now is     1196.0 secs

     total energy              =   -2953.88662838 Ry
     estimated scf accuracy    <       0.00000022 Ry

     iteration # 76     ecut=    29.40 Ry     beta= 0.05
     Davidson diagonalization with overlap
     ethr =  5.51E-11,  avg # of iterations = 11.1

     negative rho (up, down):  1.574E-02 0.000E+00
 
     Adding external electric field

     Computed dipole along edir(3) : 
        Dipole                0.8559 Ry au,          2.1756 Debye
        Dipole field          0.0016 Ry au, 
 
        Potential amp.       -0.1497 Ry
        Total length         46.3494 bohr
 

     total cpu time spent up to now is     1210.4 secs

     total energy              =   -2953.88663012 Ry
     estimated scf accuracy    <       0.00000016 Ry

     iteration # 77     ecut=    29.40 Ry     beta= 0.05
     Davidson diagonalization with overlap
     ethr =  3.91E-11,  avg # of iterations = 11.8

     negative rho (up, down):  1.574E-02 0.000E+00
 
     Adding external electric field

     Computed dipole along edir(3) : 
        Dipole                0.8544 Ry au,          2.1716 Debye
        Dipole field          0.0016 Ry au, 
 
        Potential amp.       -0.1495 Ry
        Total length         46.3494 bohr
 

     total cpu time spent up to now is     1224.5 secs

     End of self-consistent calculation

          k = 0.0000 0.0000 0.0000 ( 18029 PWs)   bands (ev):

   -55.7659 -55.7130 -55.6790 -55.5819 -55.5431 -55.5422 -55.5278 -55.5085
   -55.4997 -55.4490 -55.4487 -55.3370 -55.3076 -55.2639 -54.6916 -54.6576
   -32.1989 -32.0846 -32.0670 -32.0603 -32.0458 -32.0323 -32.0034 -31.9826
   -31.9813 -31.9588 -31.9442 -31.8658 -31.8508 -31.8504 -31.8286 -31.8217
   -31.8208 -31.7912 -31.7706 -31.7448 -31.7438 -31.7359 -31.7263 -31.7229
   -31.7213 -31.7147 -31.6863 -31.6773 -31.6693 -31.6679 -31.6603 -31.6557
   -31.6447 -31.6365 -31.6146 -31.6047 -31.5313 -31.5282 -31.5095 -31.4765
   -31.4685 -31.4602 -31.0978 -31.0110 -30.9886 -30.9153 -30.8289 -30.7171
   -16.8599 -16.6113 -16.3779 -16.2123 -15.9896 -15.9377 -15.8769 -15.7045
   -15.5894 -15.5341 -15.3493 -15.2819 -15.2532 -15.2405 -15.2361 -15.2187
   -15.2055 -15.1625 -15.1449 -15.1427 -15.1371 -15.1027 -15.0753 -15.0339
   -14.9874 -14.9514 -14.8550 -14.7999 -14.7601 -14.5159 -14.4817 -13.1901
   -13.0736  -9.7934  -7.0228  -5.3387  -4.1417  -3.7411  -3.6277  -3.6167
    -3.5560  -3.5006  -3.3281  -3.2226  -3.1408  -3.1250  -2.9729  -2.8594
    -2.8136  -2.7478  -2.7119  -2.6733  -2.6364  -2.6250  -2.5932  -2.5018
    -2.4798  -2.4654  -2.4036  -2.3787  -2.3102  -2.2879  -2.2566  -2.2433
    -2.1369  -2.0852  -2.0511  -2.0427  -2.0265  -1.9985  -1.9716  -1.9644
    -1.9370  -1.8532  -1.7994  -1.7441  -1.7171  -1.7018  -1.3985  -1.3263
    -1.2911  -1.2545  -1.1644  -1.1465  -1.1115  -1.0930  -1.0774  -1.0702
    -0.9558  -0.8874  -0.8284  -0.7987  -0.7551  -0.7225  -0.6098  -0.5571
    -0.5072  -0.4669  -0.4534  -0.4293  -0.3422  -0.3154  -0.2996  -0.1982
    -0.1554  -0.0908  -0.0206  -0.0068   0.0428   0.0719   0.1105   0.1472
     0.2052   0.2380   0.2555   0.2996   0.3386   0.3494   0.4073   0.4239
     0.5195   0.6038   0.6227   0.6928   0.7823   0.8290   0.9476   1.0104
     1.2812   1.3352   1.3484   1.5267   1.9025   1.9481   3.3643   3.4012
     3.5175   3.5306   3.6063   3.6174   3.7021   3.8576   3.9063   4.0172
     4.1600

          k = 0.0000 0.0419 0.0000 ( 17933 PWs)   bands (ev):

   -55.7655 -55.7080 -55.6839 -55.5775 -55.5472 -55.5374 -55.5281 -55.5134
   -55.4966 -55.4516 -55.4477 -55.3351 -55.3087 -55.2657 -54.6866 -54.6625
   -32.1450 -32.0558 -32.0289 -32.0211 -32.0120 -32.0043 -31.9986 -31.9807
   -31.9517 -31.9333 -31.9292 -31.8775 -31.8519 -31.8433 -31.8160 -31.8123
   -31.8076 -31.7970 -31.7846 -31.7628 -31.7555 -31.7409 -31.7375 -31.7301
   -31.7266 -31.7209 -31.7183 -31.7068 -31.6827 -31.6788 -31.6706 -31.6676
   -31.6602 -31.6485 -31.6377 -31.6086 -31.5354 -31.5302 -31.5278 -31.5050
   -31.5037 -31.4682 -31.0437 -31.0075 -30.9916 -30.9027 -30.8414 -30.7742
   -16.8509 -16.6076 -16.2599 -16.1098 -15.9212 -15.8646 -15.7732 -15.6263
   -15.5347 -15.5155 -15.4519 -15.3621 -15.2531 -15.2374 -15.2306 -15.2207
   -15.1948 -15.1944 -15.1742 -15.1513 -15.1451 -15.1054 -15.0890 -15.0584
   -15.0293 -14.9142 -14.9115 -14.8580 -14.8199 -14.6032 -14.5645 -13.1941
   -13.1131  -9.7915  -7.0170  -5.3378  -4.1659  -3.5544  -3.4601  -3.4456
    -3.4286  -3.3523  -3.3084  -3.0998  -3.0311  -2.9392  -2.8498  -2.7902
    -2.7699  -2.7408  -2.7069  -2.6843  -2.6594  -2.6271  -2.5924  -2.5716
    -2.5615  -2.5234  -2.4420  -2.4345  -2.4044  -2.3855  -2.3479  -2.3006
    -2.2673  -2.2436  -2.2195  -2.2069  -2.1736  -2.1306  -1.9778  -1.9646
    -1.9250  -1.8331  -1.7473  -1.6704  -1.5070  -1.4806  -1.4313  -1.4105
    -1.3399  -1.1889  -1.1609  -1.0568  -1.0029  -0.9681  -0.9252  -0.9179
    -0.8267  -0.7956  -0.7427  -0.6751  -0.6714  -0.6482  -0.5829  -0.5444
    -0.5411  -0.4981  -0.4771  -0.4333  -0.4134  -0.3954  -0.3143  -0.2884
    -0.2478  -0.2033  -0.1149  -0.0893  -0.0306   0.0196   0.0717   0.0985
     0.1117   0.1162   0.1435   0.2150   0.2850   0.3709   0.3807   0.4160
     0.4884   0.5372   0.5446   0.6204   0.6368   0.6681   0.7356   0.8747
     0.9515   1.2378   1.5235   1.6171   1.8578   1.8599   3.3987   3.5781
     3.6160   3.7504   3.7621   3.7946   3.8394   3.9020   3.9621   3.9945
     4.0158

          k = 0.0000-0.0839 0.0000 ( 17884 PWs)   bands (ev):

   -55.7651 -55.6960 -55.6958 -55.5712 -55.5534 -55.5284 -55.5260 -55.5247
   -55.4932 -55.4549 -55.4465 -55.3331 -55.3099 -55.2676 -54.6750 -54.6740
   -32.0316 -32.0128 -32.0126 -32.0121 -31.9889 -31.9886 -31.9842 -31.9752
   -31.9146 -31.8853 -31.8686 -31.8572 -31.8532 -31.8184 -31.8181 -31.8139
   -31.8136 -31.8117 -31.8028 -31.7904 -31.7816 -31.7803 -31.7803 -31.7574
   -31.7490 -31.7405 -31.7124 -31.7098 -31.7004 -31.7000 -31.6802 -31.6782
   -31.6734 -31.6532 -31.6378 -31.6135 -31.5941 -31.5570 -31.5292 -31.5263
   -31.5170 -31.4678 -30.9997 -30.9990 -30.9114 -30.9101 -30.8724 -30.8717
   -16.8428 -16.6047 -16.0818 -15.9099 -15.8406 -15.8099 -15.6169 -15.6036
   -15.5734 -15.5588 -15.4648 -15.4315 -15.4007 -15.3645 -15.3014 -15.2575
   -15.1600 -15.1492 -15.1178 -15.0885 -15.0857 -15.0561 -15.0534 -15.0509
   -15.0144 -14.9874 -14.9772 -14.9495 -14.8471 -14.7898 -14.6449 -13.1760
   -13.1756  -9.7896  -7.0119  -5.3368  -4.1898  -3.3184  -3.1909  -3.1465
    -3.1338  -3.0653  -3.0456  -3.0394  -3.0093  -3.0085  -2.9732  -2.8801
    -2.8608  -2.7797  -2.7425  -2.7347  -2.7114  -2.6938  -2.6797  -2.6701
    -2.6226  -2.5990  -2.5495  -2.5236  -2.4988  -2.4745  -2.4068  -2.3643
    -2.3484  -2.2798  -2.2238  -2.1179  -2.0801  -1.9861  -1.8617  -1.8322
    -1.7846  -1.7387  -1.7224  -1.5926  -1.4974  -1.4277  -1.3810  -1.3062
    -1.2450  -1.1753  -1.1640  -1.1298  -1.1220  -1.1018  -1.0751  -1.0504
    -0.9820  -0.9388  -0.8526  -0.8407  -0.7952  -0.7572  -0.4157  -0.4029
    -0.3953  -0.3746  -0.3368  -0.3294  -0.2901  -0.2760  -0.2503  -0.2019
    -0.1839  -0.1740  -0.1550  -0.1019  -0.0822  -0.0401  -0.0109   0.0253
     0.0537   0.0744   0.0927   0.1100   0.1598   0.1788   0.2493   0.2682
     0.3337   0.3944   0.4199   0.5345   0.5412   0.5543   0.6984   0.7933
     0.9819   1.0286   1.6652   1.6741   1.7932   1.7941   3.3979   3.8379
     3.8481   3.8573   3.8951   3.8985   3.9367   3.9619   3.9982   4.0422
     4.1056

          k = 0.0380 0.0000 0.0000 ( 17913 PWs)   bands (ev):

   -55.7658 -55.7129 -55.6789 -55.5818 -55.5430 -55.5420 -55.5277 -55.5084
   -55.4997 -55.4489 -55.4486 -55.3369 -55.3074 -55.2638 -54.6915 -54.6575
   -32.1998 -32.0863 -32.0688 -32.0611 -32.0460 -32.0288 -32.0032 -31.9879
   -31.9809 -31.9587 -31.9443 -31.8628 -31.8513 -31.8506 -31.8205 -31.8162
   -31.8072 -31.7911 -31.7704 -31.7429 -31.7366 -31.7326 -31.7260 -31.7232
   -31.7199 -31.7130 -31.7053 -31.6768 -31.6690 -31.6679 -31.6612 -31.6551
   -31.6459 -31.6407 -31.6145 -31.6047 -31.5355 -31.5284 -31.5093 -31.4765
   -31.4689 -31.4601 -31.0973 -31.0143 -30.9866 -30.9151 -30.8287 -30.7169
   -16.8544 -16.6093 -16.3017 -16.1368 -15.9762 -15.8805 -15.7897 -15.7256
   -15.5988 -15.5347 -15.4177 -15.4072 -15.3884 -15.3436 -15.3255 -15.2778
   -15.2147 -15.1567 -15.1401 -15.1262 -15.1128 -15.0187 -14.9796 -14.9605
   -14.9198 -14.9125 -14.9006 -14.8777 -14.8115 -14.5138 -14.4809 -13.1868
   -13.0733  -9.7949  -7.0219  -5.3392  -4.1246  -3.6217  -3.4270  -3.3754
    -3.3518  -3.3445  -3.3039  -3.1982  -3.1564  -3.1189  -3.0533  -3.0091
    -2.9574  -2.8865  -2.7973  -2.7602  -2.6663  -2.6403  -2.5363  -2.4797
    -2.3918  -2.3745  -2.3426  -2.2917  -2.2670  -2.2468  -2.1898  -2.1153
    -2.1021  -2.0728  -2.0500  -2.0428  -2.0139  -1.9878  -1.9475  -1.9055
    -1.8424  -1.7725  -1.6746  -1.6068  -1.5822  -1.4913  -1.4641  -1.3681
    -1.3198  -1.3016  -1.2524  -1.1953  -1.1478  -1.1152  -1.0793  -1.0609
    -1.0411  -0.9951  -0.9641  -0.8574  -0.8475  -0.8127  -0.6982  -0.6121
    -0.5328  -0.5100  -0.4279  -0.3761  -0.3404  -0.2791  -0.2676  -0.2442
    -0.1746  -0.1182  -0.0558  -0.0257  -0.0200   0.0125   0.0491   0.0765
     0.1039   0.1531   0.1612   0.2097   0.2237   0.3152   0.3606   0.4226
     0.4996   0.5227   0.5617   0.5879   0.6176   0.6715   0.8666   0.9778
     1.2164   1.2897   1.3470   1.4964   1.7913   1.8663   3.3771   3.4159
     3.4784   3.7082   3.7699   3.8137   3.8486   3.8537   3.8602   3.9234
     3.9754

          k = 0.0380 0.0419 0.0000 ( 17878 PWs)   bands (ev):

   -55.7654 -55.7079 -55.6839 -55.5774 -55.5471 -55.5372 -55.5280 -55.5133
   -55.4967 -55.4515 -55.4477 -55.3351 -55.3086 -55.2656 -54.6865 -54.6625
   -32.1458 -32.0572 -32.0292 -32.0186 -32.0137 -32.0045 -31.9984 -31.9804
   -31.9519 -31.9355 -31.9333 -31.8776 -31.8494 -31.8431 -31.8142 -31.8027
   -31.7978 -31.7970 -31.7842 -31.7652 -31.7446 -31.7404 -31.7329 -31.7276
   -31.7249 -31.7200 -31.7185 -31.7075 -31.6999 -31.6787 -31.6706 -31.6672
   -31.6581 -31.6529 -31.6419 -31.6086 -31.5358 -31.5331 -31.5291 -31.5049
   -31.5034 -31.4694 -31.0433 -31.0102 -30.9906 -30.9025 -30.8415 -30.7741
   -16.8478 -16.6058 -16.1964 -16.0439 -15.9201 -15.7803 -15.7022 -15.6355
   -15.5426 -15.5108 -15.4559 -15.4067 -15.3737 -15.3216 -15.3020 -15.2337
   -15.2062 -15.1961 -15.1916 -15.1732 -15.1268 -15.0505 -15.0465 -15.0049
   -14.9769 -14.9624 -14.9525 -14.9257 -14.8428 -14.6003 -14.5649 -13.1919
   -13.1134  -9.7935  -7.0173  -5.3332  -4.1408  -3.4574  -3.3480  -3.2731
    -3.2065  -3.1758  -3.1691  -3.0606  -3.0304  -2.9476  -2.8765  -2.8561
    -2.8051  -2.7203  -2.6996  -2.6690  -2.6100  -2.6005  -2.5692  -2.5368
    -2.5045  -2.4559  -2.4383  -2.4022  -2.3840  -2.3628  -2.3362  -2.3113
    -2.2711  -2.2320  -2.1958  -2.1562  -2.0904  -2.0535  -1.9624  -1.8956
    -1.8252  -1.7895  -1.7133  -1.6710  -1.5838  -1.4931  -1.4176  -1.3652
    -1.3268  -1.2213  -1.1630  -1.1194  -1.0956  -1.0472  -1.0119  -0.9623
    -0.9023  -0.8815  -0.8384  -0.7996  -0.7452  -0.7148  -0.6795  -0.6717
    -0.6044  -0.5321  -0.5050  -0.4902  -0.4467  -0.4133  -0.3837  -0.3223
    -0.3144  -0.2816  -0.2420  -0.1735  -0.1405  -0.1044  -0.0233   0.0031
     0.0416   0.0619   0.1269   0.1549   0.2571   0.3164   0.3465   0.4355
     0.4883   0.5078   0.5786   0.6037   0.6577   0.7220   0.7465   0.8517
     0.9205   1.1732   1.5336   1.6202   1.7806   1.8407   3.3871   3.5722
     3.6005   3.7752   3.8459   3.8665   3.9137   3.9575   3.9773   3.9827
     4.0182

          k = 0.0380-0.0839 0.0000 ( 17916 PWs)   bands (ev):

   -55.7651 -55.6961 -55.6958 -55.5712 -55.5534 -55.5284 -55.5259 -55.5247
   -55.4933 -55.4550 -55.4465 -55.3332 -55.3099 -55.2676 -54.6750 -54.6741
   -32.0307 -32.0135 -32.0133 -32.0130 -31.9890 -31.9887 -31.9848 -31.9742
   -31.9147 -31.8872 -31.8701 -31.8580 -31.8537 -31.8261 -31.8173 -31.8168
   -31.8161 -31.8127 -31.8035 -31.8020 -31.7799 -31.7612 -31.7552 -31.7526
   -31.7464 -31.7349 -31.7122 -31.7096 -31.7004 -31.7003 -31.6891 -31.6801
   -31.6735 -31.6634 -31.6403 -31.6130 -31.5940 -31.5568 -31.5322 -31.5283
   -31.5171 -31.4700 -31.0007 -31.0000 -30.9113 -30.9100 -30.8724 -30.8717
   -16.8418 -16.6029 -16.0663 -15.8626 -15.7877 -15.7633 -15.5577 -15.5467
   -15.5398 -15.5284 -15.4785 -15.4061 -15.3938 -15.3616 -15.3163 -15.2610
   -15.2270 -15.1967 -15.1581 -15.1338 -15.1268 -15.0815 -15.0710 -15.0591
   -15.0404 -15.0281 -15.0157 -15.0003 -14.8322 -14.7784 -14.6419 -13.1758
   -13.1754  -9.7919  -7.0134  -5.3300  -4.1590  -3.3324  -3.1780  -3.0543
    -2.9648  -2.9474  -2.8895  -2.8580  -2.8322  -2.8148  -2.8084  -2.8013
    -2.7826  -2.7355  -2.6974  -2.6621  -2.6384  -2.6140  -2.6033  -2.5941
    -2.5798  -2.5488  -2.5291  -2.4934  -2.4392  -2.4272  -2.3758  -2.3649
    -2.3248  -2.2784  -2.2682  -2.1925  -1.9713  -1.9343  -1.8627  -1.8421
    -1.7685  -1.7038  -1.6625  -1.6339  -1.5594  -1.5102  -1.4954  -1.4462
    -1.4309  -1.3948  -1.3582  -1.3501  -1.2893  -1.2157  -1.1568  -1.0481
    -1.0135  -0.9493  -0.9114  -0.8553  -0.8329  -0.7583  -0.6168  -0.5861
    -0.5351  -0.4921  -0.4682  -0.4395  -0.4100  -0.3946  -0.3725  -0.3508
    -0.3186  -0.2876  -0.2677  -0.2402  -0.1937  -0.1535  -0.1058  -0.0102
     0.0040   0.0896   0.1305   0.1869   0.2340   0.2966   0.3368   0.4040
     0.4238   0.4497   0.5327   0.5470   0.5947   0.6163   0.6987   0.7880
     0.9606   0.9796   1.6783   1.6867   1.7829   1.7839   3.3917   3.7960
     3.8303   3.8349   3.8673   3.8925   3.9381   3.9756   3.9858   4.0427
     4.0659

          k = 0.0380-0.0419 0.0000 ( 17876 PWs)   bands (ev):

   -55.7654 -55.7079 -55.6839 -55.5774 -55.5471 -55.5372 -55.5280 -55.5133
   -55.4967 -55.4515 -55.4477 -55.3351 -55.3086 -55.2656 -54.6865 -54.6625
   -32.1458 -32.0570 -32.0299 -32.0183 -32.0137 -32.0045 -31.9984 -31.9804
   -31.9519 -31.9355 -31.9334 -31.8776 -31.8494 -31.8431 -31.8142 -31.8027
   -31.7977 -31.7970 -31.7842 -31.7628 -31.7446 -31.7403 -31.7327 -31.7273
   -31.7265 -31.7206 -31.7192 -31.7075 -31.7000 -31.6787 -31.6706 -31.6686
   -31.6580 -31.6529 -31.6404 -31.6086 -31.5357 -31.5332 -31.5287 -31.5049
   -31.5037 -31.4694 -31.0433 -31.0102 -30.9906 -30.9025 -30.8415 -30.7741
   -16.8479 -16.6059 -16.1964 -16.0438 -15.9196 -15.7791 -15.7017 -15.6354
   -15.5428 -15.5109 -15.4557 -15.4059 -15.3743 -15.3237 -15.3084 -15.2337
   -15.2061 -15.1957 -15.1922 -15.1728 -15.1255 -15.0473 -15.0445 -15.0058
   -14.9755 -14.9628 -14.9532 -14.9252 -14.8431 -14.6006 -14.5647 -13.1919
   -13.1134  -9.7931  -7.0170  -5.3363  -4.1427  -3.4568  -3.3329  -3.2743
    -3.2185  -3.1814  -3.1692  -3.0626  -3.0307  -2.9415  -2.8869  -2.8595
    -2.8045  -2.7387  -2.7015  -2.6547  -2.6135  -2.6010  -2.5670  -2.5353
    -2.4992  -2.4598  -2.4262  -2.4122  -2.3799  -2.3612  -2.3421  -2.3114
    -2.2787  -2.2304  -2.1973  -2.1549  -2.0875  -2.0593  -1.9601  -1.9117
    -1.8055  -1.7895  -1.7141  -1.6724  -1.5582  -1.4718  -1.4289  -1.3643
    -1.2994  -1.2143  -1.1589  -1.1114  -1.0876  -1.0420  -1.0064  -0.9648
    -0.9327  -0.8800  -0.8390  -0.8087  -0.7617  -0.7093  -0.6785  -0.6434
    -0.6035  -0.5368  -0.5021  -0.4723  -0.4595  -0.4208  -0.3788  -0.3485
    -0.3260  -0.3021  -0.2400  -0.1501  -0.1305  -0.0999  -0.0459   0.0127
     0.0250   0.0706   0.1151   0.1592   0.2888   0.3132   0.3532   0.4324
     0.4728   0.5012   0.5577   0.6026   0.6569   0.7178   0.7414   0.8508
     0.9199   1.1733   1.5336   1.6202   1.7803   1.8413   3.4194   3.5731
     3.6013   3.7637   3.8485   3.8641   3.9182   3.9572   3.9764   3.9867
     4.0180

          k =-0.0760-0.0000 0.0000 ( 17886 PWs)   bands (ev):

   -55.7658 -55.7129 -55.6789 -55.5817 -55.5430 -55.5418 -55.5276 -55.5083
   -55.4998 -55.4489 -55.4486 -55.3369 -55.3074 -55.2638 -54.6915 -54.6575
   -32.2007 -32.0881 -32.0707 -32.0619 -32.0462 -32.0258 -32.0031 -31.9929
   -31.9805 -31.9587 -31.9444 -31.8599 -31.8522 -31.8504 -31.8205 -31.8082
   -31.7910 -31.7712 -31.7708 -31.7427 -31.7411 -31.7303 -31.7292 -31.7249
   -31.7239 -31.7173 -31.7119 -31.6767 -31.6688 -31.6679 -31.6634 -31.6547
   -31.6472 -31.6456 -31.6145 -31.6050 -31.5408 -31.5288 -31.5092 -31.4765
   -31.4692 -31.4601 -31.0970 -31.0176 -30.9853 -30.9150 -30.8286 -30.7169
   -16.8493 -16.6077 -16.1871 -16.0330 -16.0289 -15.7958 -15.6999 -15.6844
   -15.5880 -15.5462 -15.4929 -15.4902 -15.4601 -15.4261 -15.3970 -15.3921
   -15.1869 -15.1833 -15.1726 -15.1244 -15.0648 -15.0344 -15.0079 -14.9843
   -14.9657 -14.8709 -14.8433 -14.8356 -14.8120 -14.5126 -14.4804 -13.1838
   -13.0729  -9.7965  -7.0211  -5.3397  -4.1058  -3.5916  -3.3717  -3.3078
    -3.2266  -3.1744  -3.1590  -3.1266  -3.1099  -3.0168  -2.9930  -2.9760
    -2.9607  -2.9585  -2.9219  -2.6861  -2.6399  -2.5513  -2.5209  -2.3781
    -2.3323  -2.3111  -2.2564  -2.2376  -2.2098  -2.1544  -2.1430  -2.1063
    -2.0907  -2.0600  -2.0568  -2.0378  -1.9832  -1.9459  -1.9451  -1.9350
    -1.8286  -1.8184  -1.7725  -1.6499  -1.5155  -1.4346  -1.3381  -1.3215
    -1.3077  -1.2983  -1.2810  -1.2707  -1.1789  -1.1749  -1.1254  -1.1064
    -1.0680  -1.0454  -1.0035  -0.9901  -0.9098  -0.8843  -0.7945  -0.7470
    -0.5959  -0.5775  -0.5029  -0.4117  -0.3362  -0.3043  -0.2990  -0.2660
    -0.2271  -0.1830  -0.1565  -0.1346  -0.0755  -0.0354   0.0074   0.0203
     0.0643   0.0723   0.1192   0.1785   0.2407   0.2500   0.2910   0.3733
     0.3894   0.4633   0.5183   0.5708   0.6215   0.7685   0.8952   0.9424
     0.9791   1.2952   1.3680   1.4721   1.6644   1.8113   3.3787   3.4192
     3.4519   3.6841   3.7115   3.7936   3.8142   3.8489   3.9018   3.9422
     3.9567

          k =-0.0760 0.0419 0.0000 ( 17914 PWs)   bands (ev):

   -55.7654 -55.7079 -55.6839 -55.5774 -55.5471 -55.5371 -55.5280 -55.5133
   -55.4968 -55.4516 -55.4477 -55.3351 -55.3087 -55.2656 -54.6865 -54.6625
   -32.1468 -32.0587 -32.0303 -32.0165 -32.0151 -32.0049 -31.9984 -31.9802
   -31.9520 -31.9414 -31.9336 -31.8779 -31.8473 -31.8431 -31.8158 -31.7971
   -31.7954 -31.7841 -31.7714 -31.7652 -31.7412 -31.7335 -31.7330 -31.7291
   -31.7251 -31.7224 -31.7192 -31.7187 -31.7048 -31.6787 -31.6707 -31.6685
   -31.6591 -31.6564 -31.6454 -31.6086 -31.5380 -31.5351 -31.5301 -31.5050
   -31.5036 -31.4707 -31.0431 -31.0130 -30.9899 -30.9025 -30.8415 -30.7741
   -16.8449 -16.6043 -16.1158 -15.9462 -15.9392 -15.7035 -15.6139 -15.6046
   -15.5271 -15.4894 -15.4578 -15.4537 -15.4389 -15.4043 -15.3871 -15.3402
   -15.2268 -15.2178 -15.1913 -15.1621 -15.1387 -15.0592 -15.0331 -15.0263
   -15.0037 -14.9782 -14.9495 -14.9069 -14.8391 -14.5976 -14.5665 -13.1898
   -13.1137  -9.7953  -7.0175  -5.3316  -4.1159  -3.4373  -3.3547  -3.1804
    -3.0888  -2.9618  -2.9404  -2.9141  -2.8815  -2.8634  -2.7926  -2.7871
    -2.7568  -2.7240  -2.7096  -2.6732  -2.6196  -2.6080  -2.5474  -2.5205
    -2.4612  -2.4424  -2.3849  -2.3763  -2.2963  -2.2794  -2.2670  -2.2436
    -2.2210  -2.2157  -2.2003  -2.1679  -2.0994  -2.0789  -1.8510  -1.8214
    -1.8062  -1.7259  -1.6911  -1.6578  -1.5615  -1.5010  -1.4100  -1.3819
    -1.3348  -1.2964  -1.2206  -1.1967  -1.1527  -1.1093  -1.0501  -1.0261
    -0.9677  -0.9551  -0.9457  -0.9334  -0.9154  -0.8538  -0.8385  -0.7994
    -0.7399  -0.7222  -0.6630  -0.6120  -0.5645  -0.5152  -0.4697  -0.4429
    -0.4187  -0.3542  -0.3461  -0.2876  -0.2210  -0.1195  -0.0451   0.0137
     0.0714   0.0954   0.1174   0.1507   0.1899   0.2366   0.3680   0.4516
     0.4826   0.6032   0.6461   0.6524   0.7447   0.7838   0.7957   0.8267
     0.9173   0.9776   1.5471   1.6220   1.7033   1.8299   3.4074   3.5691
     3.5953   3.7215   3.7865   3.7930   3.8406   3.8972   3.9160   4.0541
     4.0782

          k =-0.0760-0.0839 0.0000 ( 17948 PWs)   bands (ev):

   -55.7651 -55.6961 -55.6958 -55.5712 -55.5534 -55.5284 -55.5259 -55.5247
   -55.4934 -55.4550 -55.4465 -55.3332 -55.3100 -55.2676 -54.6750 -54.6741
   -32.0298 -32.0143 -32.0141 -32.0138 -31.9890 -31.9887 -31.9853 -31.9732
   -31.9148 -31.8890 -31.8714 -31.8585 -31.8538 -31.8336 -31.8189 -31.8161
   -31.8156 -31.8126 -31.8089 -31.8038 -31.7785 -31.7524 -31.7436 -31.7369
   -31.7291 -31.7272 -31.7120 -31.7106 -31.7092 -31.7007 -31.7001 -31.6799
   -31.6780 -31.6736 -31.6431 -31.6125 -31.5939 -31.5566 -31.5353 -31.5303
   -31.5171 -31.4721 -31.0017 -31.0009 -30.9113 -30.9100 -30.8725 -30.8717
   -16.8408 -16.6011 -16.0508 -15.8016 -15.7093 -15.6989 -15.5668 -15.4997
   -15.4886 -15.4468 -15.4277 -15.4056 -15.3991 -15.3748 -15.3339 -15.2803
   -15.2506 -15.2239 -15.2177 -15.1781 -15.1706 -15.1519 -15.1496 -15.1280
   -15.0780 -15.0372 -15.0237 -15.0081 -14.8236 -14.7696 -14.6395 -13.1756
   -13.1751  -9.7940  -7.0148  -5.3231  -4.1261  -3.3555  -3.1749  -3.0119
    -2.9407  -2.8821  -2.7917  -2.7489  -2.7335  -2.6893  -2.6660  -2.6434
    -2.5635  -2.5487  -2.5196  -2.5083  -2.4789  -2.4641  -2.4576  -2.4479
    -2.4040  -2.3952  -2.3851  -2.3532  -2.3455  -2.3350  -2.2958  -2.2743
    -2.2646  -2.2538  -2.2050  -2.1808  -2.1026  -2.0638  -1.9665  -1.8836
    -1.8730  -1.8497  -1.8022  -1.7904  -1.7481  -1.7321  -1.6888  -1.6139
    -1.5299  -1.4625  -1.3508  -1.3079  -1.2965  -1.2375  -1.2197  -1.1634
    -1.1298  -1.0982  -1.0691  -0.9693  -0.9367  -0.8800  -0.7635  -0.6995
    -0.6871  -0.6642  -0.6537  -0.6180  -0.5975  -0.5825  -0.5515  -0.4694
    -0.4318  -0.4169  -0.4074  -0.3710  -0.2453  -0.1234  -0.0791  -0.0189
     0.0469   0.0629   0.1171   0.1568   0.3115   0.3456   0.4425   0.4574
     0.4784   0.5916   0.5990   0.6795   0.7218   0.7665   0.7949   0.8273
     0.8321   0.8717   1.6965   1.7049   1.7684   1.7685   3.3739   3.7460
     3.8480   3.8645   3.8819   3.9228   3.9367   3.9658   3.9715   4.0355
     4.0511

     the Fermi energy is     3.4063 ev

!    total energy              =   -2953.88664579 Ry
     estimated scf accuracy    <       0.00000007 Ry
     smearing contrib. (-TS)   =      -0.02907793 Ry
     internal energy E=F+TS    =   -2953.85756786 Ry

     The total energy is F=E-TS. E is the sum of the following terms:
     one-electron contribution =  -23669.71673900 Ry
     hartree contribution      =   11925.81828374 Ry
     xc contribution           =    -488.84682264 Ry
     ewald contribution        =    9278.88633250 Ry
     electric field correction =       0.00137755 Ry

     convergence has been achieved in  77 iterations

     Forces acting on atoms (cartesian axes, Ry/au):

     atom    1 type  1   force =    -0.00001710   -0.00029170    0.09377083
     atom    2 type  1   force =    -0.00009966    0.00049184   -0.17551308
     atom    3 type  2   force =     0.00011110   -0.00024352   -0.02089433
     atom    4 type  2   force =     0.00001377   -0.00197449    0.05495777
     atom    5 type  2   force =    -0.00643791   -0.00244218    0.00277902
     atom    6 type  2   force =     0.00859785   -0.00177254    0.00361736
     atom    7 type  1   force =     0.00058908   -0.00336422    0.00971243
     atom    8 type  1   force =    -0.00066579    0.00047264    0.00111307
     atom    9 type  2   force =    -0.00001233    0.00060363   -0.00097094
     atom   10 type  2   force =    -0.00024997    0.00115662   -0.00783224
     atom   11 type  2   force =    -0.00011728   -0.00001649    0.00016151
     atom   12 type  2   force =    -0.00042215   -0.00018041    0.00002492
     atom   13 type  1   force =    -0.00027673    0.00002014   -0.00040276
     atom   14 type  1   force =    -0.00062118    0.00041670    0.00041086
     atom   15 type  2   force =    -0.00006012    0.00104235   -0.00007422
     atom   16 type  2   force =    -0.00006977    0.00007214   -0.00020143
     atom   17 type  2   force =    -0.00045672    0.00058336   -0.00029693
     atom   18 type  2   force =     0.00020786    0.00068391   -0.00024329
     atom   19 type  1   force =    -0.00003327   -0.00011778    0.00055390
     atom   20 type  1   force =    -0.00012728   -0.00041337    0.00029233
     atom   21 type  2   force =     0.00001576    0.00008679    0.10329584
     atom   22 type  2   force =    -0.00005701    0.00020165   -0.00023211
     atom   23 type  2   force =    -0.07187271   -0.00017476   -0.02714774
     atom   24 type  2   force =     0.07173834    0.00029795   -0.02722718
     atom   25 type  1   force =     0.00009466   -0.00019953    0.09356307
     atom   26 type  1   force =    -0.00025363   -0.00137976   -0.17563847
     atom   27 type  2   force =     0.00015162   -0.00016162   -0.01964497
     atom   28 type  2   force =     0.00011107   -0.00028383    0.05019837
     atom   29 type  2   force =    -0.00550075    0.00259777    0.00167157
     atom   30 type  2   force =     0.00764788    0.00269055    0.00256431
     atom   31 type  1   force =     0.00070809    0.00798399   -0.00203714
     atom   32 type  1   force =    -0.00070861   -0.00207082    0.00021467
     atom   33 type  2   force =    -0.00016942   -0.00073660   -0.00011796
     atom   34 type  2   force =     0.00011497   -0.00173042   -0.00875373
     atom   35 type  2   force =    -0.00004305   -0.00011662   -0.00059223
     atom   36 type  2   force =    -0.00019136   -0.00019107   -0.00040046
     atom   37 type  1   force =     0.00044852    0.00066058   -0.00068857
     atom   38 type  1   force =    -0.00062200   -0.00052246    0.00021273
     atom   39 type  2   force =    -0.00002600    0.00012186    0.00017069
     atom   40 type  2   force =     0.00011887    0.00001813    0.00062643
     atom   41 type  2   force =    -0.00062854   -0.00022049    0.00004449
     atom   42 type  2   force =     0.00067511    0.00010549   -0.00072127
     atom   43 type  1   force =    -0.00030777    0.00039526   -0.00025205
     atom   44 type  1   force =    -0.00006471   -0.00122474    0.00036406
     atom   45 type  2   force =     0.00001790   -0.00005545    0.10307883
     atom   46 type  2   force =    -0.07188540   -0.00001930   -0.02716124
     atom   47 type  2   force =     0.07179039    0.00040420   -0.02724958
     atom   48 type  3   force =    -0.00700524   -0.00622306   -0.00253554
     atom   49 type  4   force =     0.00035487   -0.00046308    0.00048869
     atom   50 type  5   force =    -0.00049174    0.00023879    0.00011844
     atom   51 type  5   force =    -0.00000079   -0.00059864    0.00070456
     atom   52 type  5   force =     0.00051005    0.00116171   -0.00040035
     atom   53 type  5   force =     0.00697296    0.00505953    0.00213568
     atom   54 type  2   force =    -0.00129814   -0.00060365   -0.00051836
     atom   55 type  5   force =    -0.00019665    0.00022503    0.00090175

     Total force =     0.362258     Total SCF correction =     0.000771
  @ DRIVER MODE: Message from server: STATUS
  @ DRIVER MODE: Message from server: GETFORCE
  @ DRIVER MODE: Returning v,forces,stress,ensemble 

     Writing output data file ./calc.save/
  @ DRIVER MODE: Message from server: EXIT
  @ DRIVE MODE: Exiting  
 
     init_run     :     10.78s CPU     11.01s WALL (       1 calls)
     electrons    :   1194.81s CPU   1213.19s WALL (       1 calls)
     forces       :      2.34s CPU      2.43s WALL (       1 calls)

     Called by init_run:
     wfcinit      :      4.76s CPU      4.83s WALL (       1 calls)
     potinit      :      5.37s CPU      5.43s WALL (       1 calls)
     hinit0       :      0.29s CPU      0.31s WALL (       1 calls)

     Called by electrons:
     c_bands      :   1014.63s CPU   1022.49s WALL (      77 calls)
     sum_band     :    122.37s CPU    126.56s WALL (      77 calls)
     v_of_rho     :     43.04s CPU     45.21s WALL (      78 calls)
     newd         :     17.66s CPU     21.69s WALL (      78 calls)
     mix_rho      :      1.59s CPU      1.68s WALL (      77 calls)
     vdW_kernel   :      4.55s CPU      4.56s WALL (       1 calls)

     Called by c_bands:
     init_us_2    :      7.10s CPU      7.16s WALL (    1560 calls)
     cegterg      :    993.62s CPU   1001.10s WALL (     784 calls)

     Called by *egterg:
     cdiaghg      :    170.32s CPU    171.19s WALL (    8078 calls)
     h_psi        :    527.29s CPU    532.49s WALL (    8088 calls)
     s_psi        :     71.46s CPU     71.70s WALL (    8088 calls)
     g_psi        :      1.89s CPU      1.91s WALL (    7294 calls)

     Called by h_psi:
     h_psi:calbec :     66.93s CPU     67.27s WALL (    8088 calls)
     vloc_psi     :    385.21s CPU    389.46s WALL (    8088 calls)
     add_vuspsi   :     71.75s CPU     72.11s WALL (    8088 calls)

     General routines
     calbec       :     88.47s CPU     88.88s WALL (    8898 calls)
     fft          :     22.24s CPU     22.41s WALL (    4914 calls)
     ffts         :      0.14s CPU      0.14s WALL (     155 calls)
     fftw         :    433.50s CPU    438.23s WALL ( 1036692 calls)
     interpolate  :      0.45s CPU      0.45s WALL (      78 calls)
     davcio       :      0.00s CPU      0.31s WALL (      10 calls)
 
     Parallel routines
 
     PWSCF        :  20m 8.47s CPU  20m28.05s WALL

 
   This run was terminated on:   3:35:24  23Sep2021            

=------------------------------------------------------------------------------=
   JOB DONE.
=------------------------------------------------------------------------------=
