
     Program PWSCF v.6.7GPU starts on 15Sep2021 at 22:43:47 

     This program is part of the open-source Quantum ESPRESSO suite
     for quantum simulation of materials; please cite
         "P. Giannozzi et al., J. Phys.:Condens. Matter 21 395502 (2009);
         "P. Giannozzi et al., J. Phys.:Condens. Matter 29 465901 (2017);
         "P. Giannozzi et al., J. Chem. Phys. 152 154105 (2020);
          URL http://www.quantum-espresso.org", 
     in publications or presentations arising from this work. More details at
     http://www.quantum-espresso.org/quote

     Parallel version (MPI), running on    10 processors

     MPI processes distributed on     1 nodes
     R & G space division:  proc/nbgrp/npool/nimage =      10
     Reading input from /storage/home/hcoda1/3/ntian30/research/carbon/CxH_vib/H2O_calc/ads_slab/CH3OHH2O_e/out_0022/pw.inp
Warning: card &CELL ignored
Warning: card   CELL_DYNAMICS='IPI', ignored
Warning: card / ignored

     Current dimensions of program PWSCF are:
     Max number of different atomic species (ntypx) = 10
     Max number of k-points (npk) =  40000
     Max angular momentum in pseudopotentials (lmaxx) =  3
     Presently no symmetry can be used with electric field

     Message from routine cell_base_init:
     DEPRECATED: use true lattice parameter, not A to a.u. conversion factor

     **************************************************************************
     Initializing libbeef V0.1.2 with the BEEF-vdW functional.
     Citation: Wellendorff et al., PRB 85, 235149 (2012).
     **************************************************************************


     IMPORTANT: XC functional enforced from input :
     Exchange-correlation= BEEF-VDW
                           (   1   4  43  14   2   0   0)
     Any further DFT definition will be discarded
     Please, verify this is what you really want


     Subspace diagonalization in iterative solution of the eigenvalue problem:
     one sub-group per band group will be used
     scalapack distributed-memory algorithm (size of sub-group:  3*  3 procs)

  @ DRIVER MODE: Connecting to 
 qe_1139763_2852623.sched-torque.pace.gatech.eduj1prnruo_scratch
  using UNIX socket
  @ DRIVER MODE: Message from server: STATUS
  @ DRIVER MODE: Message from server: INIT
  @ DRIVER MODE: Receiving replica           0          -1
  @ DRIVER MODE: Receiving encoded integer          25
  @ DRIVER MODE:  SCF:  T  FORCE:  T  STRESS:  F  VC:  F  ENSEMBLE:  F
  @ DRIVER MODE:  SCF:  T  FORCE:  T  STRESS:  F  VC:  F  ENSEMBLE:  F
 
     Parallelization info
     --------------------
     sticks:   dense  smooth     PW     G-vecs:    dense   smooth      PW
     Min         327     131     37                56683    14340    2191
     Max         328     133     38                56694    14346    2206
     Sum        3275    1317    379               566857   143421   21985
 
     Using Slab Decomposition
 


     bravais-lattice index     =            0
     lattice parameter (alat)  =       1.8897  a.u.
     unit-cell volume          =    6658.9804 (a.u.)^3
     number of atoms/cell      =           56
     number of atomic types    =            4
     number of electrons       =       400.00
     number of Kohn-Sham states=          210
     kinetic-energy cutoff     =      29.3995  Ry
     charge density cutoff     =     293.9946  Ry
     scf convergence threshold =      7.3E-08
     mixing beta               =       0.0500
     number of iterations used =            8  plain     mixing
     Exchange-correlation= BEEF-VDW
                           (   1   4  43  14   2   0   0)

     celldm(1)=   1.889726  celldm(2)=   0.000000  celldm(3)=   0.000000
     celldm(4)=   0.000000  celldm(5)=   0.000000  celldm(6)=   0.000000

     crystal axes: (cart. coord. in units of alat)
               a(1) = (   6.579727   0.000000   0.000000 )  
               a(2) = (  -0.000775   5.961596   0.000000 )  
               a(3) = (   0.000000   0.000000  25.155947 )  

     reciprocal axes: (cart. coord. in units 2 pi/alat)
               b(1) = (  0.151982  0.000020  0.000000 )  
               b(2) = (  0.000000  0.167740  0.000000 )  
               b(3) = (  0.000000  0.000000  0.039752 )  


     PseudoPot. # 1 for Ti read from file:
     /storage/coda1/p-amedford6/0/shared/rich_project_chbe-medford/medford-share/data/pseudos_module/espresso/nninc/pbe/van/Ti.UPF
     MD5 check sum: 8e4df49b7f0d34bbd5052bf3f5ea0213
     Pseudo is Ultrasoft, Zval = 12.0
     Generated by new atomic code, or converted to UPF format
     Using radial grid of  851 points,  6 beta functions with: 
                l(1) =   0
                l(2) =   0
                l(3) =   1
                l(4) =   1
                l(5) =   2
                l(6) =   2
     Q(r) pseudized with  8 coefficients,  rinner =    1.000   1.000   1.000
                                                       1.000   1.000

     PseudoPot. # 2 for O  read from file:
     /storage/coda1/p-amedford6/0/shared/rich_project_chbe-medford/medford-share/data/pseudos_module/espresso/nninc/pbe/van/O.UPF
     MD5 check sum: 78c19812648e8988a0fe644b0f25305e
     Pseudo is Ultrasoft, Zval =  6.0
     Generated by new atomic code, or converted to UPF format
     Using radial grid of  737 points,  4 beta functions with: 
                l(1) =   0
                l(2) =   0
                l(3) =   1
                l(4) =   1
     Q(r) pseudized with  8 coefficients,  rinner =    0.800   0.800   0.800


     PseudoPot. # 3 for C  read from file:
     /storage/coda1/p-amedford6/0/shared/rich_project_chbe-medford/medford-share/data/pseudos_module/espresso/nninc/pbe/van/C.UPF
     MD5 check sum: 1a69bf6b8db32088f5b2163dbdb77a27
     Pseudo is Ultrasoft, Zval =  4.0
     Generated by new atomic code, or converted to UPF format
     Using radial grid of  721 points,  4 beta functions with: 
                l(1) =   0
                l(2) =   0
                l(3) =   1
                l(4) =   1
     Q(r) pseudized with  8 coefficients,  rinner =    0.800   0.800   0.800


     PseudoPot. # 4 for H  read from file:
     /storage/coda1/p-amedford6/0/shared/rich_project_chbe-medford/medford-share/data/pseudos_module/espresso/nninc/pbe/van/H.UPF
     MD5 check sum: b5ee9d7bfd3a09ee7748110bda690ff7
     Pseudo is Ultrasoft, Zval =  1.0
     Generated by new atomic code, or converted to UPF format
     Using radial grid of  615 points,  1 beta functions with: 
                l(1) =   0
     Q(r) pseudized with  8 coefficients,  rinner =    0.800

     atomic species   valence    mass     pseudopotential
        Ti1           12.00    47.86700     Ti( 1.00)
        O1             6.00    15.99900     O ( 1.00)
        C1             4.00    12.01100     C ( 1.00)
        H1             1.00     1.00800     H ( 1.00)

     No symmetry found



   Cartesian axes

     site n.     atom                  positions (alat units)
         1           Ti1 tau(   1) = (   0.0004258   2.9801865   6.0000000  )
         2           Ti1 tau(   2) = (   3.2906075   1.4906267   6.0002472  )
         3           O1  tau(   3) = (   0.0006271   0.0005054   7.9858123  )
         4           O1  tau(   4) = (   3.2906025   0.0005020   7.3038282  )
         5           O1  tau(   5) = (   4.5942328   1.4918067   9.2879030  )
         6           O1  tau(   6) = (   1.9868534   1.4903216   9.2879459  )
         7           Ti1 tau(   7) = (   3.3179988   2.9667087   9.1587561  )
         8           Ti1 tau(   8) = (   0.0368451   1.4888401   9.2646154  )
         9           O1  tau(   9) = (   3.2981896   5.9413050  11.3756853  )
        10           O1  tau(  10) = (   0.0022081   5.9550161  10.6068466  )
        11           O1  tau(  11) = (   1.2930414   1.4711740  12.6526869  )
        12           O1  tau(  12) = (   5.2963464   1.4745835  12.6500758  )
        13           Ti1 tau(  13) = (   0.0229324   2.9590759  12.5385950  )
        14           Ti1 tau(  14) = (   3.3157970   1.4644123  12.5194148  )
        15           O1  tau(  15) = (   6.5691168   5.9481840  14.6869282  )
        16           O1  tau(  16) = (   3.2964787   5.9455965  14.0277316  )
        17           O1  tau(  17) = (   4.5665908   1.5027878  16.2081754  )
        18           O1  tau(  18) = (   2.0283028   1.5092035  16.1774433  )
        19           Ti1 tau(  19) = (   3.2999954   2.9453206  15.7178785  )
        20           Ti1 tau(  20) = (   6.5724188   1.3235339  15.9896992  )
        21           O1  tau(  21) = (   3.2904802   0.0005063   4.7018136  )
        22           O1  tau(  22) = (   0.0286320   5.9425150  17.2304330  )
        23           O1  tau(  23) = (   1.3043587   1.4918075   6.0039043  )
        24           O1  tau(  24) = (   5.2767064   1.4903225   6.0039473  )
        25           Ti1 tau(  25) = (   0.0000382   5.9609847   6.0000000  )
        26           Ti1 tau(  26) = (   3.2902200   4.4714249   6.0002472  )
        27           O1  tau(  27) = (   0.0002396   2.9813036   7.9858123  )
        28           O1  tau(  28) = (   3.2902150   2.9813002   7.3038282  )
        29           O1  tau(  29) = (   4.5938453   4.4726049   9.2879030  )
        30           O1  tau(  30) = (   1.9864658   4.4711199   9.2879459  )
        31           Ti1 tau(  31) = (   3.3176359   5.9492212   9.1540102  )
        32           Ti1 tau(  32) = (   0.0367062   4.4560090   9.2708352  )
        33           O1  tau(  33) = (   3.2951800   2.9650663  11.3684769  )
        34           O1  tau(  34) = (   0.0080098   2.9764013  10.6279654  )
        35           O1  tau(  35) = (   1.2931912   4.4560454  12.6592269  )
        36           O1  tau(  36) = (   5.2946864   4.4524020  12.6579832  )
        37           Ti1 tau(  37) = (   0.0159028   5.9413441  12.4831893  )
        38           Ti1 tau(  38) = (   3.3151975   4.4500431  12.5204281  )
        39           O1  tau(  39) = (   0.0034497   2.9621527  14.8596962  )
        40           O1  tau(  40) = (   3.2989893   2.9535984  13.9376031  )
        41           O1  tau(  41) = (   4.5724332   4.4114593  16.1445292  )
        42           O1  tau(  42) = (   2.0255208   4.3883007  16.1585022  )
        43           Ti1 tau(  43) = (   3.2821299   5.9114753  15.8432964  )
        44           Ti1 tau(  44) = (   6.5414858   4.5242847  15.8739915  )
        45           O1  tau(  45) = (   3.2900926   2.9813045   4.7018136  )
        46           O1  tau(  46) = (   1.3039711   4.4726057   6.0039043  )
        47           O1  tau(  47) = (   5.2763189   4.4711207   6.0039473  )
        48           C1  tau(  48) = (   5.9754720   3.1749164  18.9278073  )
        49           O1  tau(  49) = (   0.1533887   3.0270296  17.7012840  )
        50           H1  tau(  50) = (   4.9293134   3.0706859  18.6584277  )
        51           H1  tau(  51) = (   1.0910173   3.2566920  17.8500278  )
        52           H1  tau(  52) = (   6.2690755   2.3937635  19.6305738  )
        53           H1  tau(  53) = (   6.1431946   4.1694627  19.3379575  )
        54           O1  tau(  54) = (   3.1723115   5.9428592  18.3689464  )
        55           H1  tau(  55) = (   3.8852673   0.6353712  18.4582360  )
        56           H1  tau(  56) = (   2.3406934   0.4831942  18.3201771  )

     number of k points=    10  Fermi-Dirac smearing, width (Ry)=  0.0073
                       cart. coord. in units 2pi/alat
        k(    1) = (   0.0000000   0.0000000   0.0000000), wk =   0.1250000
        k(    2) = (   0.0000000   0.0419351   0.0000000), wk =   0.2500000
        k(    3) = (   0.0000000  -0.0838702   0.0000000), wk =   0.1250000
        k(    4) = (   0.0379955   0.0000049   0.0000000), wk =   0.2500000
        k(    5) = (   0.0379955   0.0419400   0.0000000), wk =   0.2500000
        k(    6) = (   0.0379955  -0.0838652   0.0000000), wk =   0.2500000
        k(    7) = (   0.0379955  -0.0419301   0.0000000), wk =   0.2500000
        k(    8) = (  -0.0759910  -0.0000099   0.0000000), wk =   0.1250000
        k(    9) = (  -0.0759910   0.0419252   0.0000000), wk =   0.2500000
        k(   10) = (  -0.0759910  -0.0838800   0.0000000), wk =   0.1250000

     Dense  grid:   566857 G-vectors     FFT dimensions: (  72,  64, 270)

     Smooth grid:   143421 G-vectors     FFT dimensions: (  45,  40, 180)

     Estimated max dynamical RAM per process >     366.48 MB

     Estimated total dynamical RAM >       3.58 GB
     Cannot read rho : file not found

     Initial potential from superposition of free atoms

     starting charge  383.99915, renormalised to  400.00000

     negative rho (up, down):  1.599E-02 0.000E+00


     %%%%%%%%%%%%%%%%%%%%%%%%%%%%%%%%%%%%%%%%%%%%%%%%%%%%%%%%%%%%%%%%%%%%%%%%
     %                                                                      %
     % You are using vdW-DF, which was implemented by the Thonhauser group. %
     % Please cite the following two papers that made this development      %
     % possible and the two reviews that describe the various versions:     %
     %                                                                      %
     %   T. Thonhauser et al., PRL 115, 136402 (2015).                      %
     %   T. Thonhauser et al., PRB 76, 125112 (2007).                       %
     %   K. Berland et al., Rep. Prog. Phys. 78, 066501 (2015).             %
     %   D.C. Langreth et al., J. Phys.: Condens. Matter 21, 084203 (2009). %
     %                                                                      %
     %                                                                      %
     % If you are calculating the stress with vdW-DF, please also cite:     %
     %                                                                      %
     %   R. Sabatini et al., J. Phys.: Condens. Matter 24, 424209 (2012).   %
     %                                                                      %
     %%%%%%%%%%%%%%%%%%%%%%%%%%%%%%%%%%%%%%%%%%%%%%%%%%%%%%%%%%%%%%%%%%%%%%%%


 
     Adding external electric field

     Computed dipole along edir(3) : 
        Dipole              -11.7400 Ry au,        -29.8402 Debye
        Dipole field         -0.0222 Ry au, 
 
        Potential amp.        2.0537 Ry
        Total length         46.3494 bohr
 
     Starting wfcs are  302 atomic wfcs
  @ DRIVER MODE: Message from server: STATUS
  @ DRIVER MODE: Message from server: POSDATA
  @ DRIVER MODE: Reading and sharing cell 
  @ DRIVER MODE: Reading and sharing positions 
  @ DRIVER MODE: Received positions 

     total cpu time spent up to now is       11.1 secs

     Self-consistent Calculation

     iteration #  1     ecut=    29.40 Ry     beta= 0.05
     Davidson diagonalization with overlap
     c_bands:  2 eigenvalues not converged
     c_bands:  2 eigenvalues not converged
     c_bands:  4 eigenvalues not converged
     c_bands:  3 eigenvalues not converged
     c_bands:  4 eigenvalues not converged
     c_bands:  4 eigenvalues not converged
     c_bands:  3 eigenvalues not converged
     c_bands:  2 eigenvalues not converged
     ethr =  1.00E-05,  avg # of iterations = 21.3

     negative rho (up, down):  1.000E-02 0.000E+00
 
     Adding external electric field

     Computed dipole along edir(3) : 
        Dipole               50.0830 Ry au,        127.2982 Debye
        Dipole field          0.0945 Ry au, 
 
        Potential amp.       -8.7613 Ry
        Total length         46.3494 bohr
 

     total cpu time spent up to now is       53.5 secs

     total energy              =   -2420.23131903 Ry
     estimated scf accuracy    <    6189.12819087 Ry

     iteration #  2     ecut=    29.40 Ry     beta= 0.05
     Davidson diagonalization with overlap
     ethr =  1.00E-02,  avg # of iterations = 28.7

     negative rho (up, down):  1.171E-03 0.000E+00
 
     Adding external electric field

     Computed dipole along edir(3) : 
        Dipole               -1.1775 Ry au,         -2.9930 Debye
        Dipole field         -0.0022 Ry au, 
 
        Potential amp.        0.2060 Ry
        Total length         46.3494 bohr
 

     total cpu time spent up to now is      131.5 secs

     total energy              =   -2453.96561042 Ry
     estimated scf accuracy    <   70256.45496322 Ry

     iteration #  3     ecut=    29.40 Ry     beta= 0.05
     Davidson diagonalization with overlap
     c_bands:  1 eigenvalues not converged
     ethr =  1.00E-02,  avg # of iterations = 17.4

     negative rho (up, down):  1.240E-03 0.000E+00
 
     Adding external electric field

     Computed dipole along edir(3) : 
        Dipole               -4.0178 Ry au,        -10.2123 Debye
        Dipole field         -0.0076 Ry au, 
 
        Potential amp.        0.7029 Ry
        Total length         46.3494 bohr
 

     total cpu time spent up to now is      180.3 secs

     total energy              =   -2955.53042866 Ry
     estimated scf accuracy    <    5107.29352237 Ry

     iteration #  4     ecut=    29.40 Ry     beta= 0.05
     Davidson diagonalization with overlap
     ethr =  1.00E-02,  avg # of iterations = 11.2

     negative rho (up, down):  1.280E-03 0.000E+00
 
     Adding external electric field

     Computed dipole along edir(3) : 
        Dipole               -5.8893 Ry au,        -14.9691 Debye
        Dipole field         -0.0111 Ry au, 
 
        Potential amp.        1.0302 Ry
        Total length         46.3494 bohr
 

     total cpu time spent up to now is      199.1 secs

     total energy              =   -2954.04047757 Ry
     estimated scf accuracy    <    1981.29191089 Ry

     iteration #  5     ecut=    29.40 Ry     beta= 0.05
     Davidson diagonalization with overlap
     c_bands:  5 eigenvalues not converged
     c_bands:  3 eigenvalues not converged
     ethr =  1.00E-02,  avg # of iterations =  6.4

     negative rho (up, down):  1.384E-03 0.000E+00
 
     Adding external electric field

     Computed dipole along edir(3) : 
        Dipole               -8.1796 Ry au,        -20.7904 Debye
        Dipole field         -0.0154 Ry au, 
 
        Potential amp.        1.4309 Ry
        Total length         46.3494 bohr
 

     total cpu time spent up to now is      211.4 secs

     total energy              =   -2937.62575282 Ry
     estimated scf accuracy    <    1321.37053035 Ry

     iteration #  6     ecut=    29.40 Ry     beta= 0.05
     Davidson diagonalization with overlap
     ethr =  1.00E-02,  avg # of iterations = 13.3

     negative rho (up, down):  1.293E-03 0.000E+00
 
     Adding external electric field

     Computed dipole along edir(3) : 
        Dipole               -6.6827 Ry au,        -16.9858 Debye
        Dipole field         -0.0126 Ry au, 
 
        Potential amp.        1.1690 Ry
        Total length         46.3494 bohr
 

     total cpu time spent up to now is      234.8 secs

     total energy              =   -2970.54852010 Ry
     estimated scf accuracy    <     207.76771564 Ry

     iteration #  7     ecut=    29.40 Ry     beta= 0.05
     Davidson diagonalization with overlap
     ethr =  1.00E-02,  avg # of iterations =  1.2

     negative rho (up, down):  1.326E-03 0.000E+00
 
     Adding external electric field

     Computed dipole along edir(3) : 
        Dipole               -6.1744 Ry au,        -15.6938 Debye
        Dipole field         -0.0117 Ry au, 
 
        Potential amp.        1.0801 Ry
        Total length         46.3494 bohr
 

     total cpu time spent up to now is      244.6 secs

     total energy              =   -2971.02538093 Ry
     estimated scf accuracy    <      20.82295268 Ry

     iteration #  8     ecut=    29.40 Ry     beta= 0.05
     Davidson diagonalization with overlap
     ethr =  5.21E-03,  avg # of iterations =  1.3

     negative rho (up, down):  1.317E-03 0.000E+00
 
     Adding external electric field

     Computed dipole along edir(3) : 
        Dipole               -6.2086 Ry au,        -15.7806 Debye
        Dipole field         -0.0117 Ry au, 
 
        Potential amp.        1.0861 Ry
        Total length         46.3494 bohr
 

     total cpu time spent up to now is      254.6 secs

     total energy              =   -2971.19665678 Ry
     estimated scf accuracy    <      15.53133752 Ry

     iteration #  9     ecut=    29.40 Ry     beta= 0.05
     Davidson diagonalization with overlap
     ethr =  3.88E-03,  avg # of iterations =  1.7

     negative rho (up, down):  1.326E-03 0.000E+00
 
     Adding external electric field

     Computed dipole along edir(3) : 
        Dipole               -5.8606 Ry au,        -14.8961 Debye
        Dipole field         -0.0111 Ry au, 
 
        Potential amp.        1.0252 Ry
        Total length         46.3494 bohr
 

     total cpu time spent up to now is      264.6 secs

     total energy              =   -2971.24298268 Ry
     estimated scf accuracy    <      16.47300808 Ry

     iteration # 10     ecut=    29.40 Ry     beta= 0.05
     Davidson diagonalization with overlap
     ethr =  3.88E-03,  avg # of iterations =  4.2

     negative rho (up, down):  1.806E-03 0.000E+00
 
     Adding external electric field

     Computed dipole along edir(3) : 
        Dipole               -5.2595 Ry au,        -13.3683 Debye
        Dipole field         -0.0099 Ry au, 
 
        Potential amp.        0.9201 Ry
        Total length         46.3494 bohr
 

     total cpu time spent up to now is      275.5 secs

     total energy              =   -2968.26640819 Ry
     estimated scf accuracy    <      15.88187295 Ry

     iteration # 11     ecut=    29.40 Ry     beta= 0.05
     Davidson diagonalization with overlap
     ethr =  3.88E-03,  avg # of iterations = 11.0

     negative rho (up, down):  3.854E-03 0.000E+00
 
     Adding external electric field

     Computed dipole along edir(3) : 
        Dipole               -5.8080 Ry au,        -14.7625 Debye
        Dipole field         -0.0110 Ry au, 
 
        Potential amp.        1.0160 Ry
        Total length         46.3494 bohr
 

     total cpu time spent up to now is      289.2 secs

     total energy              =   -2967.16272208 Ry
     estimated scf accuracy    <      79.02226379 Ry

     iteration # 12     ecut=    29.40 Ry     beta= 0.05
     Davidson diagonalization with overlap
     ethr =  3.88E-03,  avg # of iterations =  6.5

     negative rho (up, down):  8.947E-03 0.000E+00
 
     Adding external electric field

     Computed dipole along edir(3) : 
        Dipole               -4.9733 Ry au,        -12.6409 Debye
        Dipole field         -0.0094 Ry au, 
 
        Potential amp.        0.8700 Ry
        Total length         46.3494 bohr
 

     total cpu time spent up to now is      301.9 secs

     total energy              =   -2967.55299192 Ry
     estimated scf accuracy    <      66.44478614 Ry

     iteration # 13     ecut=    29.40 Ry     beta= 0.05
     Davidson diagonalization with overlap
     ethr =  3.88E-03,  avg # of iterations =  4.1

     negative rho (up, down):  9.765E-03 0.000E+00
 
     Adding external electric field

     Computed dipole along edir(3) : 
        Dipole               -4.6978 Ry au,        -11.9405 Debye
        Dipole field         -0.0089 Ry au, 
 
        Potential amp.        0.8218 Ry
        Total length         46.3494 bohr
 

     total cpu time spent up to now is      313.0 secs

     total energy              =   -2968.43446236 Ry
     estimated scf accuracy    <      19.01587394 Ry

     iteration # 14     ecut=    29.40 Ry     beta= 0.05
     Davidson diagonalization with overlap
     ethr =  3.88E-03,  avg # of iterations =  1.1

     negative rho (up, down):  2.900E-03 0.000E+00
 
     Adding external electric field

     Computed dipole along edir(3) : 
        Dipole               -4.6787 Ry au,        -11.8920 Debye
        Dipole field         -0.0088 Ry au, 
 
        Potential amp.        0.8185 Ry
        Total length         46.3494 bohr
 

     total cpu time spent up to now is      322.8 secs

     total energy              =   -2967.87612566 Ry
     estimated scf accuracy    <      13.12762164 Ry

     iteration # 15     ecut=    29.40 Ry     beta= 0.05
     Davidson diagonalization with overlap
     ethr =  3.28E-03,  avg # of iterations =  1.2

     negative rho (up, down):  2.138E-03 0.000E+00
 
     Adding external electric field

     Computed dipole along edir(3) : 
        Dipole               -5.1390 Ry au,        -13.0621 Debye
        Dipole field         -0.0097 Ry au, 
 
        Potential amp.        0.8990 Ry
        Total length         46.3494 bohr
 

     total cpu time spent up to now is      332.6 secs

     total energy              =   -2967.82971207 Ry
     estimated scf accuracy    <      10.72735690 Ry

     iteration # 16     ecut=    29.40 Ry     beta= 0.05
     Davidson diagonalization with overlap
     ethr =  2.68E-03,  avg # of iterations =  6.6

     negative rho (up, down):  2.443E-03 0.000E+00
 
     Adding external electric field

     Computed dipole along edir(3) : 
        Dipole               -4.4424 Ry au,        -11.2916 Debye
        Dipole field         -0.0084 Ry au, 
 
        Potential amp.        0.7771 Ry
        Total length         46.3494 bohr
 

     total cpu time spent up to now is      344.5 secs

     total energy              =   -2967.99390775 Ry
     estimated scf accuracy    <      16.39474721 Ry

     iteration # 17     ecut=    29.40 Ry     beta= 0.05
     Davidson diagonalization with overlap
     ethr =  2.68E-03,  avg # of iterations =  1.3

     negative rho (up, down):  4.297E-03 0.000E+00
 
     Adding external electric field

     Computed dipole along edir(3) : 
        Dipole               -3.0194 Ry au,         -7.6745 Debye
        Dipole field         -0.0057 Ry au, 
 
        Potential amp.        0.5282 Ry
        Total length         46.3494 bohr
 

     total cpu time spent up to now is      354.4 secs

     total energy              =   -2967.61019789 Ry
     estimated scf accuracy    <       5.06656753 Ry

     iteration # 18     ecut=    29.40 Ry     beta= 0.05
     Davidson diagonalization with overlap
     ethr =  1.27E-03,  avg # of iterations =  7.8

     negative rho (up, down):  7.356E-03 0.000E+00
 
     Adding external electric field

     Computed dipole along edir(3) : 
        Dipole               -2.2546 Ry au,         -5.7307 Debye
        Dipole field         -0.0043 Ry au, 
 
        Potential amp.        0.3944 Ry
        Total length         46.3494 bohr
 

     total cpu time spent up to now is      366.7 secs

     total energy              =   -2967.60539886 Ry
     estimated scf accuracy    <       2.62818385 Ry

     iteration # 19     ecut=    29.40 Ry     beta= 0.05
     Davidson diagonalization with overlap
     c_bands:  1 eigenvalues not converged
     ethr =  6.57E-04,  avg # of iterations =  7.1

     negative rho (up, down):  5.570E-03 0.000E+00
 
     Adding external electric field

     Computed dipole along edir(3) : 
        Dipole               -1.6626 Ry au,         -4.2260 Debye
        Dipole field         -0.0031 Ry au, 
 
        Potential amp.        0.2909 Ry
        Total length         46.3494 bohr
 

     total cpu time spent up to now is      379.3 secs

     total energy              =   -2967.51288838 Ry
     estimated scf accuracy    <       3.40059159 Ry

     iteration # 20     ecut=    29.40 Ry     beta= 0.05
     Davidson diagonalization with overlap
     ethr =  6.57E-04,  avg # of iterations =  2.7

     negative rho (up, down):  4.416E-03 0.000E+00
 
     Adding external electric field

     Computed dipole along edir(3) : 
        Dipole               -1.0049 Ry au,         -2.5542 Debye
        Dipole field         -0.0019 Ry au, 
 
        Potential amp.        0.1758 Ry
        Total length         46.3494 bohr
 

     total cpu time spent up to now is      389.9 secs

     total energy              =   -2967.38264920 Ry
     estimated scf accuracy    <       1.32172362 Ry

     iteration # 21     ecut=    29.40 Ry     beta= 0.05
     Davidson diagonalization with overlap
     c_bands:  1 eigenvalues not converged
     c_bands:  2 eigenvalues not converged
     c_bands:  1 eigenvalues not converged
     c_bands:  1 eigenvalues not converged
     ethr =  3.30E-04,  avg # of iterations = 16.1

     negative rho (up, down):  5.179E-03 0.000E+00
 
     Adding external electric field

     Computed dipole along edir(3) : 
        Dipole               -0.8993 Ry au,         -2.2859 Debye
        Dipole field         -0.0017 Ry au, 
 
        Potential amp.        0.1573 Ry
        Total length         46.3494 bohr
 

     total cpu time spent up to now is      407.6 secs

     total energy              =   -2967.50524204 Ry
     estimated scf accuracy    <       0.78189568 Ry

     iteration # 22     ecut=    29.40 Ry     beta= 0.05
     Davidson diagonalization with overlap
     c_bands:  1 eigenvalues not converged
     ethr =  1.95E-04,  avg # of iterations =  7.2

     negative rho (up, down):  5.399E-03 0.000E+00
 
     Adding external electric field

     Computed dipole along edir(3) : 
        Dipole               -0.6075 Ry au,         -1.5441 Debye
        Dipole field         -0.0011 Ry au, 
 
        Potential amp.        0.1063 Ry
        Total length         46.3494 bohr
 

     total cpu time spent up to now is      419.8 secs

     total energy              =   -2967.48946285 Ry
     estimated scf accuracy    <       1.29944523 Ry

     iteration # 23     ecut=    29.40 Ry     beta= 0.05
     Davidson diagonalization with overlap
     ethr =  1.95E-04,  avg # of iterations =  5.0

     negative rho (up, down):  6.018E-03 0.000E+00
 
     Adding external electric field

     Computed dipole along edir(3) : 
        Dipole               -0.2017 Ry au,         -0.5126 Debye
        Dipole field         -0.0004 Ry au, 
 
        Potential amp.        0.0353 Ry
        Total length         46.3494 bohr
 

     total cpu time spent up to now is      431.8 secs

     total energy              =   -2967.47090737 Ry
     estimated scf accuracy    <       0.48936789 Ry

     iteration # 24     ecut=    29.40 Ry     beta= 0.05
     Davidson diagonalization with overlap
     ethr =  1.22E-04,  avg # of iterations = 13.0

     negative rho (up, down):  6.403E-03 0.000E+00
 
     Adding external electric field

     Computed dipole along edir(3) : 
        Dipole                0.4774 Ry au,          1.2135 Debye
        Dipole field          0.0009 Ry au, 
 
        Potential amp.       -0.0835 Ry
        Total length         46.3494 bohr
 

     total cpu time spent up to now is      446.0 secs

     total energy              =   -2967.46378375 Ry
     estimated scf accuracy    <       0.17043374 Ry

     iteration # 25     ecut=    29.40 Ry     beta= 0.05
     Davidson diagonalization with overlap
     c_bands:  2 eigenvalues not converged
     c_bands:  2 eigenvalues not converged
     c_bands:  2 eigenvalues not converged
     ethr =  4.26E-05,  avg # of iterations = 16.4

     negative rho (up, down):  6.814E-03 0.000E+00
 
     Adding external electric field

     Computed dipole along edir(3) : 
        Dipole                0.7620 Ry au,          1.9368 Debye
        Dipole field          0.0014 Ry au, 
 
        Potential amp.       -0.1333 Ry
        Total length         46.3494 bohr
 

     total cpu time spent up to now is      465.0 secs

     total energy              =   -2967.48321123 Ry
     estimated scf accuracy    <       0.23034756 Ry

     iteration # 26     ecut=    29.40 Ry     beta= 0.05
     Davidson diagonalization with overlap
     c_bands:  1 eigenvalues not converged
     ethr =  4.26E-05,  avg # of iterations =  4.1

     negative rho (up, down):  7.287E-03 0.000E+00
 
     Adding external electric field

     Computed dipole along edir(3) : 
        Dipole                0.9774 Ry au,          2.4842 Debye
        Dipole field          0.0018 Ry au, 
 
        Potential amp.       -0.1710 Ry
        Total length         46.3494 bohr
 

     total cpu time spent up to now is      475.8 secs

     total energy              =   -2967.46646167 Ry
     estimated scf accuracy    <       0.20758202 Ry

     iteration # 27     ecut=    29.40 Ry     beta= 0.05
     Davidson diagonalization with overlap
     c_bands:  2 eigenvalues not converged
     c_bands:  1 eigenvalues not converged
     c_bands:  1 eigenvalues not converged
     c_bands:  1 eigenvalues not converged
     ethr =  4.26E-05,  avg # of iterations = 15.6

     negative rho (up, down):  7.087E-03 0.000E+00
 
     Adding external electric field

     Computed dipole along edir(3) : 
        Dipole                0.9612 Ry au,          2.4432 Debye
        Dipole field          0.0018 Ry au, 
 
        Potential amp.       -0.1682 Ry
        Total length         46.3494 bohr
 

     total cpu time spent up to now is      490.3 secs

     total energy              =   -2967.47467576 Ry
     estimated scf accuracy    <       0.12759498 Ry

     iteration # 28     ecut=    29.40 Ry     beta= 0.05
     Davidson diagonalization with overlap
     ethr =  3.19E-05,  avg # of iterations =  4.4

     negative rho (up, down):  7.582E-03 0.000E+00
 
     Adding external electric field

     Computed dipole along edir(3) : 
        Dipole                1.1232 Ry au,          2.8549 Debye
        Dipole field          0.0021 Ry au, 
 
        Potential amp.       -0.1965 Ry
        Total length         46.3494 bohr
 

     total cpu time spent up to now is      501.3 secs

     total energy              =   -2967.47056424 Ry
     estimated scf accuracy    <       0.05579610 Ry

     iteration # 29     ecut=    29.40 Ry     beta= 0.05
     Davidson diagonalization with overlap
     c_bands:  4 eigenvalues not converged
     c_bands:  1 eigenvalues not converged
     c_bands:  1 eigenvalues not converged
     c_bands:  1 eigenvalues not converged
     c_bands:  3 eigenvalues not converged
     c_bands:  3 eigenvalues not converged
     ethr =  1.39E-05,  avg # of iterations = 18.4

     negative rho (up, down):  7.989E-03 0.000E+00
 
     Adding external electric field

     Computed dipole along edir(3) : 
        Dipole                1.1825 Ry au,          3.0055 Debye
        Dipole field          0.0022 Ry au, 
 
        Potential amp.       -0.2069 Ry
        Total length         46.3494 bohr
 

     total cpu time spent up to now is      518.5 secs

     total energy              =   -2967.47259861 Ry
     estimated scf accuracy    <       0.08490509 Ry

     iteration # 30     ecut=    29.40 Ry     beta= 0.05
     Davidson diagonalization with overlap
     ethr =  1.39E-05,  avg # of iterations =  4.1

     negative rho (up, down):  8.884E-03 0.000E+00
 
     Adding external electric field

     Computed dipole along edir(3) : 
        Dipole                1.2256 Ry au,          3.1151 Debye
        Dipole field          0.0023 Ry au, 
 
        Potential amp.       -0.2144 Ry
        Total length         46.3494 bohr
 

     total cpu time spent up to now is      529.4 secs

     total energy              =   -2967.47374301 Ry
     estimated scf accuracy    <       0.01441458 Ry

     iteration # 31     ecut=    29.40 Ry     beta= 0.05
     Davidson diagonalization with overlap
     c_bands:  2 eigenvalues not converged
     c_bands:  1 eigenvalues not converged
     c_bands:  3 eigenvalues not converged
     c_bands:  2 eigenvalues not converged
     c_bands:  1 eigenvalues not converged
     c_bands:  1 eigenvalues not converged
     c_bands:  1 eigenvalues not converged
     c_bands:  1 eigenvalues not converged
     c_bands:  5 eigenvalues not converged
     ethr =  3.60E-06,  avg # of iterations = 19.6

     negative rho (up, down):  9.301E-03 0.000E+00
 
     Adding external electric field

     Computed dipole along edir(3) : 
        Dipole                1.2624 Ry au,          3.2088 Debye
        Dipole field          0.0024 Ry au, 
 
        Potential amp.       -0.2208 Ry
        Total length         46.3494 bohr
 

     total cpu time spent up to now is      548.4 secs

     total energy              =   -2967.47556797 Ry
     estimated scf accuracy    <       0.07040540 Ry

     iteration # 32     ecut=    29.40 Ry     beta= 0.05
     Davidson diagonalization with overlap
     ethr =  3.60E-06,  avg # of iterations =  3.4

     negative rho (up, down):  9.846E-03 0.000E+00
 
     Adding external electric field

     Computed dipole along edir(3) : 
        Dipole                1.2539 Ry au,          3.1872 Debye
        Dipole field          0.0024 Ry au, 
 
        Potential amp.       -0.2194 Ry
        Total length         46.3494 bohr
 

     total cpu time spent up to now is      559.1 secs

     total energy              =   -2967.47505275 Ry
     estimated scf accuracy    <       0.04613388 Ry

     iteration # 33     ecut=    29.40 Ry     beta= 0.05
     Davidson diagonalization with overlap
     c_bands:  1 eigenvalues not converged
     ethr =  3.60E-06,  avg # of iterations = 11.5

     negative rho (up, down):  1.050E-02 0.000E+00
 
     Adding external electric field

     Computed dipole along edir(3) : 
        Dipole                1.2479 Ry au,          3.1718 Debye
        Dipole field          0.0024 Ry au, 
 
        Potential amp.       -0.2183 Ry
        Total length         46.3494 bohr
 

     total cpu time spent up to now is      572.8 secs

     total energy              =   -2967.47464661 Ry
     estimated scf accuracy    <       0.01934615 Ry

     iteration # 34     ecut=    29.40 Ry     beta= 0.05
     Davidson diagonalization with overlap
     c_bands:  1 eigenvalues not converged
     ethr =  3.60E-06,  avg # of iterations = 11.0

     negative rho (up, down):  1.072E-02 0.000E+00
 
     Adding external electric field

     Computed dipole along edir(3) : 
        Dipole                1.2291 Ry au,          3.1239 Debye
        Dipole field          0.0023 Ry au, 
 
        Potential amp.       -0.2150 Ry
        Total length         46.3494 bohr
 

     total cpu time spent up to now is      585.5 secs

     total energy              =   -2967.47495620 Ry
     estimated scf accuracy    <       0.00604934 Ry

     iteration # 35     ecut=    29.40 Ry     beta= 0.05
     Davidson diagonalization with overlap
     c_bands:  1 eigenvalues not converged
     c_bands:  1 eigenvalues not converged
     c_bands:  1 eigenvalues not converged
     c_bands:  1 eigenvalues not converged
     c_bands:  2 eigenvalues not converged
     c_bands:  1 eigenvalues not converged
     ethr =  1.51E-06,  avg # of iterations = 19.2

     negative rho (up, down):  1.195E-02 0.000E+00
 
     Adding external electric field

     Computed dipole along edir(3) : 
        Dipole                1.2843 Ry au,          3.2643 Debye
        Dipole field          0.0024 Ry au, 
 
        Potential amp.       -0.2247 Ry
        Total length         46.3494 bohr
 

     total cpu time spent up to now is      602.9 secs

     total energy              =   -2967.47509060 Ry
     estimated scf accuracy    <       0.00485442 Ry

     iteration # 36     ecut=    29.40 Ry     beta= 0.05
     Davidson diagonalization with overlap
     c_bands:  1 eigenvalues not converged
     c_bands:  1 eigenvalues not converged
     ethr =  1.21E-06,  avg # of iterations = 15.0

     negative rho (up, down):  1.376E-02 0.000E+00
 
     Adding external electric field

     Computed dipole along edir(3) : 
        Dipole                1.3682 Ry au,          3.4776 Debye
        Dipole field          0.0026 Ry au, 
 
        Potential amp.       -0.2393 Ry
        Total length         46.3494 bohr
 

     total cpu time spent up to now is      617.8 secs

     total energy              =   -2967.47543283 Ry
     estimated scf accuracy    <       0.00252444 Ry

     iteration # 37     ecut=    29.40 Ry     beta= 0.05
     Davidson diagonalization with overlap
     ethr =  6.31E-07,  avg # of iterations =  8.1

     negative rho (up, down):  1.473E-02 0.000E+00
 
     Adding external electric field

     Computed dipole along edir(3) : 
        Dipole                1.3908 Ry au,          3.5350 Debye
        Dipole field          0.0026 Ry au, 
 
        Potential amp.       -0.2433 Ry
        Total length         46.3494 bohr
 

     total cpu time spent up to now is      630.0 secs

     total energy              =   -2967.47542688 Ry
     estimated scf accuracy    <       0.00097339 Ry

     iteration # 38     ecut=    29.40 Ry     beta= 0.05
     Davidson diagonalization with overlap
     ethr =  2.43E-07,  avg # of iterations = 14.5

     negative rho (up, down):  1.464E-02 0.000E+00
 
     Adding external electric field

     Computed dipole along edir(3) : 
        Dipole                1.3774 Ry au,          3.5009 Debye
        Dipole field          0.0026 Ry au, 
 
        Potential amp.       -0.2409 Ry
        Total length         46.3494 bohr
 

     total cpu time spent up to now is      649.2 secs

     total energy              =   -2967.47563929 Ry
     estimated scf accuracy    <       0.00044377 Ry

     iteration # 39     ecut=    29.40 Ry     beta= 0.05
     Davidson diagonalization with overlap
     ethr =  1.11E-07,  avg # of iterations =  2.8

     negative rho (up, down):  1.479E-02 0.000E+00
 
     Adding external electric field

     Computed dipole along edir(3) : 
        Dipole                1.3634 Ry au,          3.4654 Debye
        Dipole field          0.0026 Ry au, 
 
        Potential amp.       -0.2385 Ry
        Total length         46.3494 bohr
 

     total cpu time spent up to now is      660.0 secs

     total energy              =   -2967.47557708 Ry
     estimated scf accuracy    <       0.00033750 Ry

     iteration # 40     ecut=    29.40 Ry     beta= 0.05
     Davidson diagonalization with overlap
     c_bands:  1 eigenvalues not converged
     c_bands:  1 eigenvalues not converged
     c_bands:  1 eigenvalues not converged
     ethr =  8.44E-08,  avg # of iterations = 18.6

     negative rho (up, down):  1.544E-02 0.000E+00
 
     Adding external electric field

     Computed dipole along edir(3) : 
        Dipole                1.3943 Ry au,          3.5439 Debye
        Dipole field          0.0026 Ry au, 
 
        Potential amp.       -0.2439 Ry
        Total length         46.3494 bohr
 

     total cpu time spent up to now is      683.5 secs

     total energy              =   -2967.47565858 Ry
     estimated scf accuracy    <       0.00056518 Ry

     iteration # 41     ecut=    29.40 Ry     beta= 0.05
     Davidson diagonalization with overlap
     ethr =  8.44E-08,  avg # of iterations = 14.1

     negative rho (up, down):  1.573E-02 0.000E+00
 
     Adding external electric field

     Computed dipole along edir(3) : 
        Dipole                1.3880 Ry au,          3.5279 Debye
        Dipole field          0.0026 Ry au, 
 
        Potential amp.       -0.2428 Ry
        Total length         46.3494 bohr
 

     total cpu time spent up to now is      701.2 secs

     total energy              =   -2967.47574459 Ry
     estimated scf accuracy    <       0.00010095 Ry

     iteration # 42     ecut=    29.40 Ry     beta= 0.05
     Davidson diagonalization with overlap
     ethr =  2.52E-08,  avg # of iterations =  6.4

     negative rho (up, down):  1.585E-02 0.000E+00
 
     Adding external electric field

     Computed dipole along edir(3) : 
        Dipole                1.3818 Ry au,          3.5122 Debye
        Dipole field          0.0026 Ry au, 
 
        Potential amp.       -0.2417 Ry
        Total length         46.3494 bohr
 

     total cpu time spent up to now is      713.2 secs

     total energy              =   -2967.47576789 Ry
     estimated scf accuracy    <       0.00005585 Ry

     iteration # 43     ecut=    29.40 Ry     beta= 0.05
     Davidson diagonalization with overlap
     c_bands:  1 eigenvalues not converged
     c_bands:  2 eigenvalues not converged
     ethr =  1.40E-08,  avg # of iterations = 17.4

     negative rho (up, down):  1.588E-02 0.000E+00
 
     Adding external electric field

     Computed dipole along edir(3) : 
        Dipole                1.3875 Ry au,          3.5266 Debye
        Dipole field          0.0026 Ry au, 
 
        Potential amp.       -0.2427 Ry
        Total length         46.3494 bohr
 

     total cpu time spent up to now is      734.4 secs

     total energy              =   -2967.47579799 Ry
     estimated scf accuracy    <       0.00008074 Ry

     iteration # 44     ecut=    29.40 Ry     beta= 0.05
     Davidson diagonalization with overlap
     ethr =  1.40E-08,  avg # of iterations =  9.6

     negative rho (up, down):  1.586E-02 0.000E+00
 
     Adding external electric field

     Computed dipole along edir(3) : 
        Dipole                1.3811 Ry au,          3.5105 Debye
        Dipole field          0.0026 Ry au, 
 
        Potential amp.       -0.2416 Ry
        Total length         46.3494 bohr
 

     total cpu time spent up to now is      747.5 secs

     total energy              =   -2967.47581495 Ry
     estimated scf accuracy    <       0.00002742 Ry

     iteration # 45     ecut=    29.40 Ry     beta= 0.05
     Davidson diagonalization with overlap
     c_bands:  1 eigenvalues not converged
     ethr =  6.86E-09,  avg # of iterations = 15.4

     negative rho (up, down):  1.582E-02 0.000E+00
 
     Adding external electric field

     Computed dipole along edir(3) : 
        Dipole                1.3780 Ry au,          3.5026 Debye
        Dipole field          0.0026 Ry au, 
 
        Potential amp.       -0.2411 Ry
        Total length         46.3494 bohr
 

     total cpu time spent up to now is      767.6 secs

     total energy              =   -2967.47584182 Ry
     estimated scf accuracy    <       0.00002190 Ry

     iteration # 46     ecut=    29.40 Ry     beta= 0.05
     Davidson diagonalization with overlap
     ethr =  5.48E-09,  avg # of iterations =  2.0

     negative rho (up, down):  1.576E-02 0.000E+00
 
     Adding external electric field

     Computed dipole along edir(3) : 
        Dipole                1.3788 Ry au,          3.5046 Debye
        Dipole field          0.0026 Ry au, 
 
        Potential amp.       -0.2412 Ry
        Total length         46.3494 bohr
 

     total cpu time spent up to now is      777.8 secs

     total energy              =   -2967.47585465 Ry
     estimated scf accuracy    <       0.00001741 Ry

     iteration # 47     ecut=    29.40 Ry     beta= 0.05
     Davidson diagonalization with overlap
     ethr =  4.35E-09,  avg # of iterations = 11.5

     negative rho (up, down):  1.573E-02 0.000E+00
 
     Adding external electric field

     Computed dipole along edir(3) : 
        Dipole                1.3782 Ry au,          3.5031 Debye
        Dipole field          0.0026 Ry au, 
 
        Potential amp.       -0.2411 Ry
        Total length         46.3494 bohr
 

     total cpu time spent up to now is      794.5 secs

     total energy              =   -2967.47587327 Ry
     estimated scf accuracy    <       0.00000604 Ry

     iteration # 48     ecut=    29.40 Ry     beta= 0.05
     Davidson diagonalization with overlap
     ethr =  1.51E-09,  avg # of iterations =  6.2

     negative rho (up, down):  1.578E-02 0.000E+00
 
     Adding external electric field

     Computed dipole along edir(3) : 
        Dipole                1.3776 Ry au,          3.5016 Debye
        Dipole field          0.0026 Ry au, 
 
        Potential amp.       -0.2410 Ry
        Total length         46.3494 bohr
 

     total cpu time spent up to now is      808.2 secs

     total energy              =   -2967.47588704 Ry
     estimated scf accuracy    <       0.00000614 Ry

     iteration # 49     ecut=    29.40 Ry     beta= 0.05
     Davidson diagonalization with overlap
     ethr =  1.51E-09,  avg # of iterations =  9.8

     negative rho (up, down):  1.579E-02 0.000E+00
 
     Adding external electric field

     Computed dipole along edir(3) : 
        Dipole                1.3770 Ry au,          3.5001 Debye
        Dipole field          0.0026 Ry au, 
 
        Potential amp.       -0.2409 Ry
        Total length         46.3494 bohr
 

     total cpu time spent up to now is      821.7 secs

     total energy              =   -2967.47590050 Ry
     estimated scf accuracy    <       0.00000184 Ry

     iteration # 50     ecut=    29.40 Ry     beta= 0.05
     Davidson diagonalization with overlap
     ethr =  4.59E-10,  avg # of iterations = 11.6

     negative rho (up, down):  1.577E-02 0.000E+00
 
     Adding external electric field

     Computed dipole along edir(3) : 
        Dipole                1.3770 Ry au,          3.5000 Debye
        Dipole field          0.0026 Ry au, 
 
        Potential amp.       -0.2409 Ry
        Total length         46.3494 bohr
 

     total cpu time spent up to now is      839.9 secs

     total energy              =   -2967.47591213 Ry
     estimated scf accuracy    <       0.00000203 Ry

     iteration # 51     ecut=    29.40 Ry     beta= 0.05
     Davidson diagonalization with overlap
     ethr =  4.59E-10,  avg # of iterations =  3.0

     negative rho (up, down):  1.576E-02 0.000E+00
 
     Adding external electric field

     Computed dipole along edir(3) : 
        Dipole                1.3775 Ry au,          3.5011 Debye
        Dipole field          0.0026 Ry au, 
 
        Potential amp.       -0.2410 Ry
        Total length         46.3494 bohr
 

     total cpu time spent up to now is      850.8 secs

     total energy              =   -2967.47592235 Ry
     estimated scf accuracy    <       0.00000109 Ry

     iteration # 52     ecut=    29.40 Ry     beta= 0.05
     Davidson diagonalization with overlap
     ethr =  2.72E-10,  avg # of iterations = 10.3

     negative rho (up, down):  1.577E-02 0.000E+00
 
     Adding external electric field

     Computed dipole along edir(3) : 
        Dipole                1.3768 Ry au,          3.4994 Debye
        Dipole field          0.0026 Ry au, 
 
        Potential amp.       -0.2408 Ry
        Total length         46.3494 bohr
 

     total cpu time spent up to now is      867.8 secs

     total energy              =   -2967.47593202 Ry
     estimated scf accuracy    <       0.00000092 Ry

     iteration # 53     ecut=    29.40 Ry     beta= 0.05
     Davidson diagonalization with overlap
     ethr =  2.31E-10,  avg # of iterations =  3.9

     negative rho (up, down):  1.580E-02 0.000E+00
 
     Adding external electric field

     Computed dipole along edir(3) : 
        Dipole                1.3765 Ry au,          3.4988 Debye
        Dipole field          0.0026 Ry au, 
 
        Potential amp.       -0.2408 Ry
        Total length         46.3494 bohr
 

     total cpu time spent up to now is      879.0 secs

     total energy              =   -2967.47594040 Ry
     estimated scf accuracy    <       0.00000039 Ry

     iteration # 54     ecut=    29.40 Ry     beta= 0.05
     Davidson diagonalization with overlap
     ethr =  9.79E-11,  avg # of iterations = 11.3

     negative rho (up, down):  1.580E-02 0.000E+00
 
     Adding external electric field

     Computed dipole along edir(3) : 
        Dipole                1.3766 Ry au,          3.4990 Debye
        Dipole field          0.0026 Ry au, 
 
        Potential amp.       -0.2408 Ry
        Total length         46.3494 bohr
 

     total cpu time spent up to now is      897.0 secs

     total energy              =   -2967.47594807 Ry
     estimated scf accuracy    <       0.00000041 Ry

     iteration # 55     ecut=    29.40 Ry     beta= 0.05
     Davidson diagonalization with overlap
     ethr =  9.79E-11,  avg # of iterations =  1.0

     negative rho (up, down):  1.580E-02 0.000E+00
 
     Adding external electric field

     Computed dipole along edir(3) : 
        Dipole                1.3767 Ry au,          3.4993 Debye
        Dipole field          0.0026 Ry au, 
 
        Potential amp.       -0.2408 Ry
        Total length         46.3494 bohr
 

     total cpu time spent up to now is      906.7 secs

     total energy              =   -2967.47595477 Ry
     estimated scf accuracy    <       0.00000044 Ry

     iteration # 56     ecut=    29.40 Ry     beta= 0.05
     Davidson diagonalization with overlap
     ethr =  9.79E-11,  avg # of iterations =  5.0

     negative rho (up, down):  1.580E-02 0.000E+00
 
     Adding external electric field

     Computed dipole along edir(3) : 
        Dipole                1.3768 Ry au,          3.4995 Debye
        Dipole field          0.0026 Ry au, 
 
        Potential amp.       -0.2409 Ry
        Total length         46.3494 bohr
 

     total cpu time spent up to now is      918.3 secs

     total energy              =   -2967.47596084 Ry
     estimated scf accuracy    <       0.00000013 Ry

     iteration # 57     ecut=    29.40 Ry     beta= 0.05
     Davidson diagonalization with overlap
     ethr =  3.36E-11,  avg # of iterations = 12.0

     negative rho (up, down):  1.580E-02 0.000E+00
 
     Adding external electric field

     Computed dipole along edir(3) : 
        Dipole                1.3767 Ry au,          3.4993 Debye
        Dipole field          0.0026 Ry au, 
 
        Potential amp.       -0.2408 Ry
        Total length         46.3494 bohr
 

     total cpu time spent up to now is      934.7 secs

     total energy              =   -2967.47596638 Ry
     estimated scf accuracy    <       0.00000014 Ry

     iteration # 58     ecut=    29.40 Ry     beta= 0.05
     Davidson diagonalization with overlap
     ethr =  3.36E-11,  avg # of iterations =  2.3

     negative rho (up, down):  1.588E-02 0.000E+00
 
     Adding external electric field

     Computed dipole along edir(3) : 
        Dipole                1.3753 Ry au,          3.4958 Debye
        Dipole field          0.0026 Ry au, 
 
        Potential amp.       -0.2406 Ry
        Total length         46.3494 bohr
 

     total cpu time spent up to now is      945.5 secs

     End of self-consistent calculation

          k = 0.0000 0.0000 0.0000 ( 18029 PWs)   bands (ev):

   -55.2510 -55.2234 -55.2149 -55.1890 -55.1575 -55.1494 -55.1440 -55.0970
   -55.0966 -55.0906 -55.0564 -55.0385 -55.0088 -55.0045 -54.3131 -54.2790
   -31.8176 -31.7670 -31.7185 -31.6283 -31.5660 -31.5558 -31.5512 -31.5486
   -31.5122 -31.4829 -31.4666 -31.4643 -31.4531 -31.4433 -31.4291 -31.4148
   -31.3974 -31.3912 -31.3880 -31.3836 -31.3772 -31.3687 -31.3461 -31.3412
   -31.3394 -31.3195 -31.3169 -31.3150 -31.2941 -31.2804 -31.2648 -31.2444
   -31.2428 -31.2421 -31.2309 -31.2217 -31.2032 -31.1899 -31.1780 -31.1733
   -31.1604 -31.1496 -30.7251 -30.6227 -30.6011 -30.5414 -30.4551 -30.3440
   -20.1568 -19.0853 -16.0804 -15.8333 -15.6935 -15.5950 -15.4741 -15.3406
   -15.2805 -15.1657 -15.0746 -14.9845 -14.9697 -14.9513 -14.9219 -14.8992
   -14.8744 -14.8361 -14.8099 -14.7663 -14.7574 -14.7410 -14.7341 -14.6974
   -14.6943 -14.6493 -14.6409 -14.4840 -14.4137 -14.3536 -14.1318 -12.8135
   -12.6941 -11.1790  -6.9194  -6.8512  -5.1339  -5.0141  -3.4198  -3.2633
    -3.2259  -3.2025  -3.1839  -3.1434  -3.0588  -2.9609  -2.7897  -2.6799
    -2.5426  -2.5353  -2.4888  -2.4620  -2.4049  -2.3223  -2.2347  -2.2081
    -2.1728  -2.1398  -2.1366  -2.1205  -2.1102  -2.0542  -2.0188  -1.9609
    -1.8639  -1.8143  -1.7733  -1.7555  -1.6958  -1.6521  -1.6172  -1.5896
    -1.5830  -1.5764  -1.5179  -1.5159  -1.5077  -1.4966  -1.4789  -1.2902
    -1.2499  -1.1180  -1.0272  -0.9864  -0.9726  -0.8184  -0.8117  -0.7673
    -0.7340  -0.6999  -0.6593  -0.6018  -0.5043  -0.4732  -0.4219  -0.3841
    -0.2760  -0.2438  -0.2130  -0.1580  -0.0508  -0.0425  -0.0167   0.0027
     0.0767   0.1724   0.2017   0.2229   0.2998   0.3050   0.3662   0.4068
     0.4406   0.5154   0.5607   0.5719   0.6635   0.6806   0.6942   0.7207
     0.7241   0.8227   0.8588   0.9034   0.9218   1.0734   1.1677   1.3072
     1.3360   1.6025   1.6978   1.7131   1.8735   2.2991   2.3539   3.8402
     3.9085   3.9468   3.9546   3.9679   4.0475   4.3312   4.3465   4.3584
     4.3680   4.3861

          k = 0.0000 0.0419 0.0000 ( 17933 PWs)   bands (ev):

   -55.2456 -55.2201 -55.2184 -55.1939 -55.1562 -55.1464 -55.1406 -55.1003
   -55.0996 -55.0856 -55.0613 -55.0335 -55.0097 -55.0093 -54.3080 -54.2839
   -31.7604 -31.7291 -31.6644 -31.5738 -31.5434 -31.5135 -31.5116 -31.5047
   -31.5041 -31.4908 -31.4789 -31.4576 -31.4527 -31.4406 -31.4317 -31.4215
   -31.4065 -31.4016 -31.3983 -31.3962 -31.3780 -31.3631 -31.3540 -31.3459
   -31.3420 -31.3217 -31.3199 -31.3151 -31.2999 -31.2945 -31.2945 -31.2730
   -31.2701 -31.2462 -31.2457 -31.2332 -31.2202 -31.2181 -31.2126 -31.2066
   -31.1811 -31.1786 -30.6710 -30.6193 -30.6040 -30.5289 -30.4676 -30.4012
   -20.1552 -19.0851 -15.9532 -15.7200 -15.6073 -15.5318 -15.3696 -15.2801
   -15.2428 -15.1592 -15.1159 -15.0595 -15.0306 -14.9292 -14.9218 -14.8901
   -14.8500 -14.8410 -14.8172 -14.8011 -14.7795 -14.7513 -14.7349 -14.7303
   -14.7223 -14.6845 -14.6560 -14.5408 -14.4710 -14.4107 -14.2462 -12.8161
   -12.7329 -11.1789  -6.9160  -6.8547  -5.1322  -5.0075  -3.2689  -3.2024
    -3.0944  -3.0655  -3.0180  -3.0089  -2.9530  -2.8390  -2.6006  -2.5679
    -2.5078  -2.4834  -2.4189  -2.4139  -2.3713  -2.3326  -2.2876  -2.2733
    -2.2537  -2.2164  -2.2019  -2.1496  -2.1366  -2.0836  -2.0490  -2.0325
    -2.0190  -1.9116  -1.8699  -1.8502  -1.8345  -1.8175  -1.7609  -1.6962
    -1.6747  -1.6022  -1.5886  -1.5316  -1.5230  -1.4084  -1.2487  -1.1959
    -1.1290  -1.0707  -1.0496  -1.0129  -0.8630  -0.8355  -0.6741  -0.6284
    -0.5978  -0.5652  -0.5523  -0.5319  -0.4410  -0.4145  -0.3474  -0.2577
    -0.2405  -0.2208  -0.2047  -0.1689  -0.1332  -0.0919  -0.0638  -0.0499
     0.0677   0.1089   0.1346   0.1697   0.1981   0.2318   0.3005   0.3463
     0.3901   0.4493   0.4889   0.4989   0.5046   0.5401   0.5760   0.7162
     0.7201   0.7645   0.7962   0.8404   0.9559   0.9865   1.0071   1.0306
     1.2072   1.3095   1.5731   1.8956   1.9642   2.2520   2.2646   4.0247
     4.0587   4.0625   4.1313   4.1645   4.2291   4.2436   4.2942   4.3054
     4.3539   4.4027

          k = 0.0000-0.0839 0.0000 ( 17884 PWs)   bands (ev):

   -55.2339 -55.2318 -55.2080 -55.2042 -55.1550 -55.1429 -55.1366 -55.1043
   -55.1032 -55.0748 -55.0720 -55.0232 -55.0196 -55.0106 -54.2960 -54.2959
   -31.6836 -31.6242 -31.6171 -31.5336 -31.5299 -31.5178 -31.5058 -31.5012
   -31.4937 -31.4527 -31.4464 -31.4423 -31.4335 -31.4279 -31.4237 -31.4217
   -31.4033 -31.4006 -31.3938 -31.3834 -31.3805 -31.3787 -31.3759 -31.3378
   -31.3352 -31.3308 -31.3300 -31.3276 -31.3254 -31.3211 -31.3174 -31.3151
   -31.3090 -31.3000 -31.2976 -31.2935 -31.2770 -31.2171 -31.2149 -31.2095
   -31.2052 -31.1799 -30.6114 -30.6114 -30.5381 -30.5378 -30.4983 -30.4981
   -20.1537 -19.0849 -15.7061 -15.6228 -15.4669 -15.4279 -15.3186 -15.3016
   -15.2751 -15.1775 -15.1137 -15.0908 -15.0792 -15.0438 -14.9466 -14.8780
   -14.8703 -14.8592 -14.8420 -14.8031 -14.7993 -14.7479 -14.7399 -14.6825
   -14.6748 -14.6118 -14.6093 -14.6061 -14.5529 -14.5429 -14.4550 -12.7958
   -12.7952 -11.1788  -6.9123  -6.8587  -5.1304  -5.0034  -3.2668  -2.9445
    -2.8298  -2.7926  -2.7279  -2.7206  -2.6791  -2.6711  -2.6603  -2.5941
    -2.5721  -2.5690  -2.5419  -2.4334  -2.4218  -2.4119  -2.3914  -2.3731
    -2.3030  -2.2675  -2.2371  -2.2113  -2.1609  -2.1598  -2.1334  -2.1050
    -2.1033  -2.0217  -1.9936  -1.9548  -1.9149  -1.7237  -1.6769  -1.6357
    -1.6215  -1.5296  -1.4660  -1.4167  -1.3377  -1.3138  -1.2053  -1.1845
    -1.1024  -1.0920  -1.0506  -0.9346  -0.7745  -0.7644  -0.7322  -0.7220
    -0.7017  -0.6945  -0.6656  -0.6569  -0.6353  -0.4801  -0.4029  -0.3475
    -0.3057  -0.2275  -0.1573   0.0102   0.0146   0.0359   0.0633   0.0868
     0.0957   0.1309   0.1467   0.1772   0.1890   0.2200   0.2369   0.2911
     0.3360   0.3824   0.3884   0.4134   0.4387   0.4820   0.4913   0.4949
     0.5500   0.5667   0.6140   0.8218   0.9018   0.9056   0.9140   1.0828
     1.1302   1.3079   1.3325   2.0314   2.0345   2.1885   2.1894   4.1157
     4.1355   4.1497   4.1709   4.2368   4.3133   4.3183   4.3794   4.4149
     4.4207   4.4365

          k = 0.0380 0.0000 0.0000 ( 17913 PWs)   bands (ev):

   -55.2508 -55.2233 -55.2148 -55.1889 -55.1569 -55.1498 -55.1439 -55.0969
   -55.0965 -55.0904 -55.0563 -55.0385 -55.0087 -55.0044 -54.3130 -54.2789
   -31.8178 -31.7671 -31.7195 -31.6334 -31.5699 -31.5562 -31.5550 -31.5489
   -31.5120 -31.4827 -31.4666 -31.4533 -31.4463 -31.4435 -31.4290 -31.3973
   -31.3969 -31.3909 -31.3835 -31.3818 -31.3735 -31.3508 -31.3453 -31.3412
   -31.3391 -31.3366 -31.3208 -31.3169 -31.2973 -31.2802 -31.2652 -31.2429
   -31.2423 -31.2414 -31.2383 -31.2299 -31.2026 -31.1890 -31.1804 -31.1733
   -31.1605 -31.1500 -30.7246 -30.6264 -30.5990 -30.5412 -30.4550 -30.3437
   -20.1566 -19.0851 -16.0019 -15.7446 -15.6839 -15.5556 -15.3885 -15.3443
   -15.2828 -15.1874 -15.1031 -15.0779 -15.0224 -14.9956 -14.9656 -14.9633
   -14.9267 -14.9196 -14.8359 -14.8288 -14.7659 -14.7400 -14.7062 -14.6483
   -14.6004 -14.5578 -14.5165 -14.4864 -14.4830 -14.4531 -14.1310 -12.8100
   -12.6938 -11.1805  -6.9289  -6.8417  -5.1270  -5.0119  -3.3027  -3.1991
    -3.1472  -3.0515  -3.0196  -2.9356  -2.9109  -2.8641  -2.7809  -2.7661
    -2.6756  -2.6309  -2.5673  -2.5421  -2.4441  -2.3774  -2.3202  -2.2806
    -2.2015  -2.1261  -2.0442  -2.0003  -1.9756  -1.9578  -1.9240  -1.8680
    -1.8529  -1.8177  -1.7797  -1.6715  -1.6493  -1.6359  -1.6091  -1.5841
    -1.5508  -1.5368  -1.4621  -1.4410  -1.3907  -1.3443  -1.3232  -1.2583
    -1.1978  -1.0952  -1.0301  -1.0191  -0.9920  -0.8999  -0.8495  -0.7695
    -0.7363  -0.7086  -0.7030  -0.6914  -0.6293  -0.5897  -0.5802  -0.3642
    -0.3207  -0.2532  -0.1859  -0.1597  -0.1428  -0.1038  -0.0300   0.0531
     0.0781   0.0962   0.1197   0.1620   0.2292   0.2655   0.3299   0.3640
     0.4047   0.4246   0.4576   0.4891   0.5319   0.5497   0.6001   0.6696
     0.7125   0.7467   0.7925   0.8045   0.8824   0.9251   0.9676   1.1806
     1.3545   1.5576   1.6123   1.7251   1.8407   2.1836   2.2691   3.8598
     3.9284   4.0278   4.1589   4.1709   4.2258   4.2711   4.3059   4.3232
     4.3494   4.3771

          k = 0.0380 0.0419 0.0000 ( 17878 PWs)   bands (ev):

   -55.2455 -55.2201 -55.2183 -55.1939 -55.1558 -55.1467 -55.1406 -55.1003
   -55.0996 -55.0854 -55.0612 -55.0335 -55.0097 -55.0093 -54.3080 -54.2839
   -31.7605 -31.7292 -31.6653 -31.5798 -31.5433 -31.5169 -31.5123 -31.5088
   -31.5047 -31.4908 -31.4791 -31.4579 -31.4411 -31.4380 -31.4314 -31.4216
   -31.4024 -31.3964 -31.3903 -31.3888 -31.3778 -31.3600 -31.3461 -31.3426
   -31.3367 -31.3313 -31.3214 -31.3200 -31.3014 -31.2973 -31.2940 -31.2738
   -31.2620 -31.2537 -31.2453 -31.2335 -31.2286 -31.2241 -31.2117 -31.2063
   -31.1824 -31.1811 -30.6706 -30.6222 -30.6029 -30.5287 -30.4677 -30.4010
   -20.1550 -19.0849 -15.8820 -15.6459 -15.6138 -15.4660 -15.3129 -15.2664
   -15.2324 -15.1580 -15.1356 -15.0863 -15.0458 -14.9821 -14.9473 -14.9356
   -14.9174 -14.8918 -14.8677 -14.8513 -14.7792 -14.7733 -14.7252 -14.6888
   -14.6664 -14.6110 -14.5991 -14.5518 -14.5352 -14.5044 -14.2458 -12.8137
   -12.7332 -11.1801  -6.9198  -6.8506  -5.1304  -5.0029  -3.2225  -3.1150
    -3.0514  -2.9242  -2.8627  -2.7920  -2.7401  -2.7134  -2.6273  -2.5858
    -2.5239  -2.5080  -2.4543  -2.3907  -2.3428  -2.3201  -2.2623  -2.2512
    -2.2048  -2.1841  -2.1491  -2.1050  -2.0899  -2.0718  -2.0512  -1.9851
    -1.9441  -1.9283  -1.8797  -1.8444  -1.7925  -1.7488  -1.7255  -1.6931
    -1.6314  -1.6218  -1.5297  -1.4758  -1.4456  -1.3268  -1.2704  -1.1550
    -1.1267  -1.1018  -1.0380  -0.9593  -0.8996  -0.8240  -0.7460  -0.7123
    -0.6698  -0.6563  -0.6256  -0.5927  -0.5335  -0.4867  -0.4367  -0.3684
    -0.3569  -0.3080  -0.2548  -0.2029  -0.1736  -0.1340  -0.1108  -0.0269
    -0.0082   0.0186   0.0378   0.0653   0.1095   0.1350   0.1624   0.2010
     0.2539   0.2995   0.3436   0.3693   0.4637   0.5017   0.5819   0.6330
     0.7184   0.7541   0.8323   0.8775   0.8963   0.9615   1.0155   1.1095
     1.1648   1.2645   1.5198   1.9065   1.9677   2.1732   2.2440   3.9987
     4.0516   4.0568   4.1845   4.2262   4.2543   4.2832   4.3294   4.3870
     4.4081   4.4391

          k = 0.0380-0.0839 0.0000 ( 17916 PWs)   bands (ev):

   -55.2339 -55.2318 -55.2080 -55.2042 -55.1547 -55.1432 -55.1366 -55.1043
   -55.1033 -55.0748 -55.0719 -55.0233 -55.0196 -55.0106 -54.2960 -54.2960
   -31.6838 -31.6245 -31.6174 -31.5344 -31.5308 -31.5179 -31.5060 -31.5012
   -31.4938 -31.4654 -31.4482 -31.4471 -31.4442 -31.4314 -31.4051 -31.4033
   -31.3991 -31.3968 -31.3880 -31.3854 -31.3832 -31.3807 -31.3769 -31.3391
   -31.3353 -31.3287 -31.3265 -31.3260 -31.3252 -31.3229 -31.3190 -31.3140
   -31.2992 -31.2978 -31.2969 -31.2854 -31.2824 -31.2282 -31.2257 -31.2095
   -31.2052 -31.1858 -30.6125 -30.6125 -30.5379 -30.5377 -30.4983 -30.4982
   -20.1536 -19.0848 -15.6743 -15.5843 -15.4282 -15.3722 -15.2956 -15.2616
   -15.2184 -15.1480 -15.1205 -15.1162 -15.0533 -15.0063 -14.9436 -14.9250
   -14.9019 -14.8969 -14.8687 -14.8329 -14.7962 -14.7419 -14.7342 -14.7286
   -14.7167 -14.6494 -14.6484 -14.6169 -14.6059 -14.5863 -14.4474 -12.7956
   -12.7950 -11.1798  -6.9139  -6.8552  -5.1328  -4.9981  -3.2249  -2.9584
    -2.8112  -2.7400  -2.6360  -2.5387  -2.5315  -2.5044  -2.4917  -2.4425
    -2.4330  -2.3782  -2.3648  -2.3629  -2.3487  -2.3331  -2.3111  -2.2944
    -2.2594  -2.2407  -2.1961  -2.1591  -2.1491  -2.1279  -2.1138  -2.0856
    -2.0629  -2.0144  -1.9670  -1.9198  -1.9042  -1.7627  -1.7341  -1.6006
    -1.5164  -1.5014  -1.4730  -1.3838  -1.2950  -1.2637  -1.2542  -1.2344
    -1.2143  -1.1569  -1.0967  -1.0504  -0.9931  -0.9469  -0.9253  -0.9178
    -0.8783  -0.8422  -0.7442  -0.6166  -0.5934  -0.5304  -0.5055  -0.4013
    -0.3574  -0.3108  -0.2819  -0.1976  -0.1778  -0.1214  -0.0736  -0.0657
    -0.0622  -0.0524   0.0337   0.0840   0.0972   0.1280   0.1627   0.1886
     0.2317   0.2556   0.2805   0.4323   0.4663   0.4699   0.5314   0.6338
     0.6917   0.7710   0.7830   0.8194   0.8654   0.9476   0.9502   1.0561
     1.0877   1.2928   1.3158   2.0458   2.0486   2.1807   2.1824   4.0185
     4.0785   4.1484   4.1788   4.2289   4.2861   4.2985   4.4004   4.4292
     4.4666   4.4887

          k = 0.0380-0.0419 0.0000 ( 17876 PWs)   bands (ev):

   -55.2455 -55.2201 -55.2183 -55.1939 -55.1558 -55.1467 -55.1406 -55.1003
   -55.0996 -55.0854 -55.0612 -55.0335 -55.0097 -55.0093 -54.3080 -54.2839
   -31.7605 -31.7292 -31.6653 -31.5798 -31.5433 -31.5170 -31.5123 -31.5089
   -31.5047 -31.4908 -31.4792 -31.4579 -31.4411 -31.4380 -31.4315 -31.4218
   -31.4020 -31.3963 -31.3899 -31.3888 -31.3778 -31.3600 -31.3461 -31.3426
   -31.3367 -31.3314 -31.3226 -31.3200 -31.3008 -31.2972 -31.2940 -31.2738
   -31.2619 -31.2540 -31.2456 -31.2335 -31.2284 -31.2241 -31.2109 -31.2063
   -31.1827 -31.1811 -30.6706 -30.6223 -30.6029 -30.5287 -30.4677 -30.4010
   -20.1551 -19.0850 -15.8823 -15.6465 -15.6129 -15.4637 -15.3115 -15.2669
   -15.2324 -15.1584 -15.1412 -15.0856 -15.0472 -14.9824 -14.9471 -14.9358
   -14.9148 -14.8915 -14.8666 -14.8505 -14.7798 -14.7730 -14.7258 -14.6893
   -14.6669 -14.6110 -14.5984 -14.5513 -14.5356 -14.5049 -14.2454 -12.8137
   -12.7332 -11.1801  -6.9242  -6.8449  -5.1298  -5.0041  -3.2082  -3.1227
    -3.0459  -2.9282  -2.8633  -2.8087  -2.7396  -2.7125  -2.6275  -2.5876
    -2.5231  -2.5100  -2.4626  -2.3909  -2.3383  -2.3199  -2.2625  -2.2486
    -2.2056  -2.1847  -2.1464  -2.0985  -2.0837  -2.0721  -2.0512  -1.9852
    -1.9429  -1.9289  -1.8824  -1.8465  -1.7943  -1.7525  -1.7339  -1.6887
    -1.6704  -1.6163  -1.5116  -1.4724  -1.4435  -1.3243  -1.2692  -1.1539
    -1.1368  -1.0932  -1.0348  -0.9601  -0.8942  -0.8188  -0.7303  -0.7046
    -0.6699  -0.6496  -0.6329  -0.5959  -0.5270  -0.4884  -0.4360  -0.3766
    -0.3581  -0.3088  -0.2542  -0.2051  -0.1814  -0.1328  -0.1077  -0.0278
    -0.0088   0.0238   0.0437   0.0696   0.1133   0.1398   0.1645   0.2018
     0.2629   0.2958   0.3416   0.3674   0.4624   0.4991   0.5820   0.6323
     0.7203   0.7489   0.8296   0.8764   0.8907   0.9480   1.0114   1.1094
     1.1655   1.2648   1.5204   1.9066   1.9677   2.1730   2.2447   3.9966
     4.0507   4.0569   4.1812   4.2320   4.2622   4.2852   4.3255   4.3943
     4.4119   4.4384

          k =-0.0760-0.0000 0.0000 ( 17886 PWs)   bands (ev):

   -55.2507 -55.2232 -55.2148 -55.1889 -55.1563 -55.1503 -55.1439 -55.0969
   -55.0965 -55.0903 -55.0563 -55.0385 -55.0087 -55.0044 -54.3130 -54.2789
   -31.8179 -31.7673 -31.7205 -31.6383 -31.5737 -31.5599 -31.5552 -31.5491
   -31.5119 -31.4826 -31.4666 -31.4533 -31.4438 -31.4289 -31.4182 -31.3969
   -31.3911 -31.3834 -31.3765 -31.3702 -31.3647 -31.3617 -31.3498 -31.3459
   -31.3411 -31.3391 -31.3190 -31.3168 -31.2958 -31.2805 -31.2725 -31.2656
   -31.2428 -31.2420 -31.2348 -31.2296 -31.2021 -31.1882 -31.1832 -31.1733
   -31.1608 -31.1507 -30.7242 -30.6301 -30.5976 -30.5412 -30.4549 -30.3438
   -20.1564 -19.0850 -15.8687 -15.7674 -15.5906 -15.4965 -15.3687 -15.2980
   -15.2399 -15.1830 -15.1602 -15.1205 -15.1003 -15.0532 -15.0464 -15.0295
   -15.0021 -14.9588 -14.8274 -14.7770 -14.7654 -14.7451 -14.7097 -14.6443
   -14.6384 -14.5619 -14.5578 -14.5174 -14.4263 -14.3989 -14.1305 -12.8068
   -12.6935 -11.1821  -6.9370  -6.8336  -5.1207  -5.0099  -3.2660  -3.1851
    -3.1357  -3.0082  -2.8872  -2.8117  -2.7576  -2.7331  -2.7172  -2.6773
    -2.6694  -2.5680  -2.5540  -2.5453  -2.5276  -2.3780  -2.2531  -2.1994
    -2.1797  -1.9571  -1.9335  -1.9243  -1.9005  -1.8708  -1.8670  -1.8399
    -1.8168  -1.7747  -1.7584  -1.7535  -1.7140  -1.6165  -1.5856  -1.5803
    -1.5475  -1.4954  -1.4608  -1.4513  -1.4183  -1.3435  -1.2646  -1.1903
    -1.1498  -1.0091  -1.0062  -0.9959  -0.9703  -0.9362  -0.8697  -0.8545
    -0.8256  -0.7504  -0.7407  -0.7202  -0.6771  -0.6230  -0.5935  -0.5432
    -0.5314  -0.4872  -0.2275  -0.2076  -0.1819  -0.1584  -0.0755  -0.0575
    -0.0063   0.0431   0.1165   0.1237   0.1851   0.2125   0.2435   0.2593
     0.3251   0.3668   0.4060   0.4407   0.4491   0.4772   0.5193   0.5688
     0.6448   0.6998   0.7003   0.7415   0.8967   1.0192   1.0366   1.2103
     1.3022   1.3663   1.6160   1.7472   1.8145   2.0477   2.2107   3.8613
     3.8952   3.9792   4.0889   4.1318   4.1975   4.2840   4.3219   4.3300
     4.3645   4.3962

          k =-0.0760 0.0419 0.0000 ( 17914 PWs)   bands (ev):

   -55.2455 -55.2201 -55.2183 -55.1939 -55.1554 -55.1472 -55.1406 -55.1003
   -55.0996 -55.0853 -55.0612 -55.0336 -55.0097 -55.0094 -54.3080 -54.2839
   -31.7609 -31.7294 -31.6665 -31.5856 -31.5434 -31.5210 -31.5135 -31.5127
   -31.5049 -31.4908 -31.4792 -31.4582 -31.4410 -31.4323 -31.4219 -31.4177
   -31.4021 -31.3967 -31.3798 -31.3779 -31.3578 -31.3575 -31.3527 -31.3486
   -31.3460 -31.3420 -31.3201 -31.3072 -31.2986 -31.2963 -31.2939 -31.2811
   -31.2775 -31.2456 -31.2433 -31.2381 -31.2332 -31.2318 -31.2102 -31.2071
   -31.1870 -31.1812 -30.6703 -30.6254 -30.6022 -30.5287 -30.4677 -30.4011
   -20.1549 -19.0848 -15.7550 -15.7001 -15.5038 -15.4066 -15.2965 -15.2183
   -15.1976 -15.1588 -15.1321 -15.0998 -15.0611 -15.0355 -15.0224 -14.9998
   -14.9870 -14.9413 -14.8710 -14.8358 -14.7953 -14.7806 -14.7116 -14.6974
   -14.6773 -14.6148 -14.6112 -14.6048 -14.5315 -14.4967 -14.2454 -12.8115
   -12.7335 -11.1814  -6.9272  -6.8416  -5.1285  -4.9997  -3.1821  -3.0965
    -3.0539  -2.9077  -2.6543  -2.6259  -2.5526  -2.5426  -2.5243  -2.4911
    -2.4685  -2.4419  -2.3788  -2.3444  -2.3314  -2.3001  -2.2563  -2.2026
    -2.1935  -2.1591  -2.1195  -2.0572  -2.0281  -1.9951  -1.9692  -1.9466
    -1.9124  -1.8521  -1.8296  -1.7941  -1.7711  -1.7576  -1.7454  -1.6874
    -1.6035  -1.4958  -1.4877  -1.4415  -1.4020  -1.3324  -1.2737  -1.2594
    -1.0921  -1.0693  -0.9987  -0.9690  -0.9258  -0.8726  -0.8427  -0.7690
    -0.7617  -0.7238  -0.6613  -0.6430  -0.6385  -0.5837  -0.5161  -0.5104
    -0.5048  -0.5006  -0.4281  -0.4082  -0.3500  -0.3223  -0.2488  -0.2196
    -0.1297  -0.0918  -0.0478  -0.0273  -0.0033   0.0356   0.0728   0.1793
     0.2203   0.2431   0.3195   0.3763   0.4444   0.4813   0.5289   0.6496
     0.7154   0.7597   0.8672   0.9267   0.9904   1.0145   1.1139   1.1340
     1.1927   1.2265   1.3613   1.9211   1.9700   2.0954   2.2315   4.0088
     4.0287   4.0512   4.0641   4.1552   4.2083   4.2358   4.3114   4.3306
     4.4573   4.5029

          k =-0.0760-0.0839 0.0000 ( 17948 PWs)   bands (ev):

   -55.2339 -55.2318 -55.2080 -55.2042 -55.1545 -55.1435 -55.1367 -55.1044
   -55.1033 -55.0748 -55.0719 -55.0233 -55.0197 -55.0107 -54.2960 -54.2960
   -31.6840 -31.6247 -31.6177 -31.5353 -31.5316 -31.5179 -31.5063 -31.5013
   -31.4939 -31.4731 -31.4548 -31.4495 -31.4453 -31.4317 -31.4060 -31.4035
   -31.3920 -31.3895 -31.3823 -31.3815 -31.3779 -31.3746 -31.3620 -31.3482
   -31.3401 -31.3353 -31.3344 -31.3277 -31.3248 -31.3245 -31.3241 -31.3060
   -31.2985 -31.2959 -31.2776 -31.2730 -31.2725 -31.2484 -31.2446 -31.2095
   -31.2052 -31.1924 -30.6136 -30.6136 -30.5379 -30.5376 -30.4983 -30.4982
   -20.1535 -19.0846 -15.6387 -15.5400 -15.3897 -15.2665 -15.2542 -15.2417
   -15.1894 -15.1249 -15.1114 -15.0611 -15.0490 -15.0175 -15.0017 -14.9956
   -14.9598 -14.8513 -14.8472 -14.8369 -14.8161 -14.7711 -14.7601 -14.7530
   -14.7407 -14.7047 -14.6963 -14.6821 -14.6717 -14.5796 -14.4414 -12.7954
   -12.7948 -11.1808  -6.9153  -6.8518  -5.1351  -4.9928  -3.1812  -2.9834
    -2.8081  -2.7291  -2.6316  -2.4844  -2.4697  -2.3886  -2.3767  -2.3262
    -2.2555  -2.2524  -2.2488  -2.1674  -2.1554  -2.1553  -2.1340  -2.1142
    -2.0740  -2.0653  -2.0415  -2.0316  -1.9902  -1.9595  -1.9464  -1.9292
    -1.9189  -1.9150  -1.8839  -1.8690  -1.8538  -1.8118  -1.7891  -1.7291
    -1.6410  -1.6040  -1.4811  -1.4786  -1.4409  -1.4136  -1.3881  -1.3475
    -1.3276  -1.2800  -1.2591  -1.2341  -1.0507  -1.0348  -0.9800  -0.9401
    -0.9209  -0.9069  -0.8451  -0.7732  -0.7464  -0.7150  -0.6489  -0.5760
    -0.4800  -0.4559  -0.4473  -0.3415  -0.2892  -0.2497  -0.2452  -0.2359
    -0.2118  -0.1635  -0.1437  -0.0818  -0.0428   0.0008   0.0262   0.0431
     0.2242   0.2626   0.3210   0.4123   0.4411   0.5865   0.6344   0.6867
     0.7472   0.8235   0.8346   0.9006   1.0149   1.0270   1.0568   1.1340
     1.1773   1.1830   1.2081   2.0644   2.0665   2.1681   2.1711   3.9701
     4.0774   4.0960   4.1749   4.2413   4.3492   4.3623   4.3916   4.4020
     4.4470   4.4789

     the Fermi energy is     3.8966 ev

!    total energy              =   -2967.47601668 Ry
     estimated scf accuracy    <       0.00000006 Ry
     smearing contrib. (-TS)   =      -0.03654104 Ry
     internal energy E=F+TS    =   -2967.43947563 Ry

     The total energy is F=E-TS. E is the sum of the following terms:
     one-electron contribution =  -23962.77759163 Ry
     hartree contribution      =   12076.98406856 Ry
     xc contribution           =    -491.85791811 Ry
     ewald contribution        =    9410.20839594 Ry
     electric field correction =       0.00356961 Ry

     convergence has been achieved in  58 iterations

     Forces acting on atoms (cartesian axes, Ry/au):

     atom    1 type  1   force =    -0.00026658    0.00018757    0.09244821
     atom    2 type  1   force =    -0.00035764    0.00104194   -0.18341367
     atom    3 type  2   force =     0.00050678   -0.00072585   -0.02349317
     atom    4 type  2   force =     0.00072334   -0.00018562    0.05069750
     atom    5 type  2   force =    -0.01406131   -0.00131512    0.00494462
     atom    6 type  2   force =     0.01522575   -0.00064987    0.00508484
     atom    7 type  1   force =    -0.00049254    0.00106564   -0.00011417
     atom    8 type  1   force =     0.00016618   -0.00052896    0.00040291
     atom    9 type  2   force =    -0.00043925    0.00017813    0.00039416
     atom   10 type  2   force =     0.00040821    0.00016174    0.00045855
     atom   11 type  2   force =     0.00036184    0.00043624    0.00033257
     atom   12 type  2   force =     0.00005241    0.00013626    0.00026197
     atom   13 type  1   force =    -0.00089452   -0.00118242   -0.00009863
     atom   14 type  1   force =     0.00059395   -0.00005730    0.00022270
     atom   15 type  2   force =     0.00051557    0.00076910    0.00003591
     atom   16 type  2   force =    -0.00061480   -0.00038081    0.00003910
     atom   17 type  2   force =     0.00007147    0.00021633   -0.00039346
     atom   18 type  2   force =    -0.00005115    0.00019855   -0.00031447
     atom   19 type  1   force =     0.00063445   -0.00020793   -0.00024346
     atom   20 type  1   force =     0.00014891    0.00029870   -0.00006723
     atom   21 type  2   force =    -0.00003918    0.00015681    0.10500365
     atom   22 type  2   force =    -0.00032349    0.00047302   -0.00080686
     atom   23 type  2   force =    -0.06800019    0.00012620   -0.02681976
     atom   24 type  2   force =     0.06772123    0.00053023   -0.02688469
     atom   25 type  1   force =    -0.00038920   -0.00007549    0.09625520
     atom   26 type  1   force =    -0.00036451   -0.00099003   -0.18319764
     atom   27 type  2   force =     0.00042144   -0.00125246   -0.02225841
     atom   28 type  2   force =     0.00070037   -0.00033222    0.05101647
     atom   29 type  2   force =    -0.01424720   -0.00105821    0.00465660
     atom   30 type  2   force =     0.01519595    0.00021710    0.00484104
     atom   31 type  1   force =    -0.00050303   -0.00146350    0.00019081
     atom   32 type  1   force =     0.00014473    0.00070622   -0.00027002
     atom   33 type  2   force =     0.00002112   -0.00020579    0.00005545
     atom   34 type  2   force =     0.00002395   -0.00006519   -0.00010049
     atom   35 type  2   force =     0.00021638    0.00009240    0.00030060
     atom   36 type  2   force =     0.00039632    0.00045864    0.00004366
     atom   37 type  1   force =    -0.00107298    0.00125446   -0.00004903
     atom   38 type  1   force =     0.00038709    0.00011505   -0.00042869
     atom   39 type  2   force =     0.00039513    0.00022560   -0.00034324
     atom   40 type  2   force =    -0.00008176    0.00020793    0.00005531
     atom   41 type  2   force =    -0.00023576    0.00019970   -0.00052572
     atom   42 type  2   force =    -0.00000585   -0.00005950    0.00039135
     atom   43 type  1   force =    -0.00057010    0.00029282    0.00021852
     atom   44 type  1   force =    -0.00029011    0.00005733   -0.00107477
     atom   45 type  2   force =    -0.00005403    0.00015491    0.10493316
     atom   46 type  2   force =    -0.06803994   -0.00038137   -0.02681123
     atom   47 type  2   force =     0.06775903    0.00005185   -0.02689348
     atom   48 type  3   force =    -0.00027442    0.00050729   -0.00027130
     atom   49 type  2   force =     0.00293891    0.00164799    0.00183328
     atom   50 type  4   force =     0.00042405    0.00057067    0.00013753
     atom   51 type  4   force =    -0.00293577   -0.00041330   -0.00096500
     atom   52 type  4   force =    -0.00039665    0.00060972   -0.00022320
     atom   53 type  4   force =    -0.00022856   -0.00026893    0.00011600
     atom   54 type  2   force =     0.00085263   -0.00027106    0.00108617
     atom   55 type  4   force =    -0.00084602   -0.00037145   -0.00056793
     atom   56 type  4   force =    -0.00093066   -0.00090379    0.00017186

     Total force =     0.368245     Total SCF correction =     0.000860
  @ DRIVER MODE: Message from server: STATUS
  @ DRIVER MODE: Message from server: GETFORCE
  @ DRIVER MODE: Returning v,forces,stress,ensemble 

     Writing output data file ./calc.save/
  @ DRIVER MODE: Message from server: EXIT
  @ DRIVE MODE: Exiting  
 
     init_run     :     10.62s CPU     10.85s WALL (       1 calls)
     electrons    :    921.35s CPU    934.38s WALL (       1 calls)
     forces       :      2.24s CPU      2.33s WALL (       1 calls)

     Called by init_run:
     wfcinit      :      4.77s CPU      4.83s WALL (       1 calls)
     potinit      :      5.28s CPU      5.35s WALL (       1 calls)
     hinit0       :      0.24s CPU      0.25s WALL (       1 calls)

     Called by electrons:
     c_bands      :    788.54s CPU    794.04s WALL (      58 calls)
     sum_band     :     90.62s CPU     93.66s WALL (      58 calls)
     v_of_rho     :     33.40s CPU     35.05s WALL (      59 calls)
     newd         :     12.31s CPU     15.17s WALL (      59 calls)
     mix_rho      :      1.19s CPU      1.22s WALL (      58 calls)
     vdW_kernel   :      4.54s CPU      4.56s WALL (       1 calls)

     Called by c_bands:
     init_us_2    :      5.34s CPU      5.36s WALL (    1180 calls)
     cegterg      :    772.87s CPU    778.12s WALL (     592 calls)

     Called by *egterg:
     cdiaghg      :    124.83s CPU    125.35s WALL (    5960 calls)
     h_psi        :    414.32s CPU    418.07s WALL (    5971 calls)
     s_psi        :     54.66s CPU     54.83s WALL (    5971 calls)
     g_psi        :      1.52s CPU      1.54s WALL (    5369 calls)

     Called by h_psi:
     h_psi:calbec :     51.46s CPU     51.71s WALL (    5971 calls)
     vloc_psi     :    305.27s CPU    308.25s WALL (    5971 calls)
     add_vuspsi   :     54.92s CPU     55.26s WALL (    5971 calls)

     General routines
     calbec       :     67.83s CPU     68.14s WALL (    6591 calls)
     fft          :     16.52s CPU     16.67s WALL (    3717 calls)
     ffts         :      0.10s CPU      0.10s WALL (     117 calls)
     fftw         :    340.83s CPU    344.14s WALL (  816348 calls)
     interpolate  :      0.34s CPU      0.34s WALL (      59 calls)
     davcio       :      0.00s CPU      0.22s WALL (      10 calls)
 
     Parallel routines
 
     PWSCF        :  15m34.44s CPU  15m48.24s WALL

 
   This run was terminated on:  22:59:35  15Sep2021            

=------------------------------------------------------------------------------=
   JOB DONE.
=------------------------------------------------------------------------------=
