
     Program PWSCF v.6.7GPU starts on 15Sep2021 at 20:39:20 

     This program is part of the open-source Quantum ESPRESSO suite
     for quantum simulation of materials; please cite
         "P. Giannozzi et al., J. Phys.:Condens. Matter 21 395502 (2009);
         "P. Giannozzi et al., J. Phys.:Condens. Matter 29 465901 (2017);
         "P. Giannozzi et al., J. Chem. Phys. 152 154105 (2020);
          URL http://www.quantum-espresso.org", 
     in publications or presentations arising from this work. More details at
     http://www.quantum-espresso.org/quote

     Parallel version (MPI), running on    10 processors

     MPI processes distributed on     1 nodes
     R & G space division:  proc/nbgrp/npool/nimage =      10
     Reading input from /storage/home/hcoda1/3/ntian30/research/carbon/CxH_vib/H2O_calc/ads_slab/CHNHH2O_a/out_0015/pw.inp
Warning: card &CELL ignored
Warning: card   CELL_DYNAMICS='IPI', ignored
Warning: card / ignored

     Current dimensions of program PWSCF are:
     Max number of different atomic species (ntypx) = 10
     Max number of k-points (npk) =  40000
     Max angular momentum in pseudopotentials (lmaxx) =  3
     Presently no symmetry can be used with electric field

     Message from routine cell_base_init:
     DEPRECATED: use true lattice parameter, not A to a.u. conversion factor

     **************************************************************************
     Initializing libbeef V0.1.2 with the BEEF-vdW functional.
     Citation: Wellendorff et al., PRB 85, 235149 (2012).
     **************************************************************************


     IMPORTANT: XC functional enforced from input :
     Exchange-correlation= BEEF-VDW
                           (   1   4  43  14   2   0   0)
     Any further DFT definition will be discarded
     Please, verify this is what you really want


     Subspace diagonalization in iterative solution of the eigenvalue problem:
     one sub-group per band group will be used
     scalapack distributed-memory algorithm (size of sub-group:  3*  3 procs)

  @ DRIVER MODE: Connecting to 
 qe_1139763_2852628.sched-torque.pace.gatech.edui4ity0gb_scratch
  using UNIX socket
  @ DRIVER MODE: Message from server: STATUS
  @ DRIVER MODE: Message from server: INIT
  @ DRIVER MODE: Receiving replica           0          -1
  @ DRIVER MODE: Receiving encoded integer          25
  @ DRIVER MODE:  SCF:  T  FORCE:  T  STRESS:  F  VC:  F  ENSEMBLE:  F
  @ DRIVER MODE:  SCF:  T  FORCE:  T  STRESS:  F  VC:  F  ENSEMBLE:  F
 
     Parallelization info
     --------------------
     sticks:   dense  smooth     PW     G-vecs:    dense   smooth      PW
     Min         327     131     37                56683    14340    2191
     Max         328     133     38                56694    14346    2206
     Sum        3275    1317    379               566857   143421   21985
 
     Using Slab Decomposition
 


     bravais-lattice index     =            0
     lattice parameter (alat)  =       1.8897  a.u.
     unit-cell volume          =    6658.9804 (a.u.)^3
     number of atoms/cell      =           54
     number of atomic types    =            5
     number of electrons       =       397.00
     number of Kohn-Sham states=          208
     kinetic-energy cutoff     =      29.3995  Ry
     charge density cutoff     =     293.9946  Ry
     scf convergence threshold =      7.3E-08
     mixing beta               =       0.0500
     number of iterations used =            8  plain     mixing
     Exchange-correlation= BEEF-VDW
                           (   1   4  43  14   2   0   0)

     celldm(1)=   1.889726  celldm(2)=   0.000000  celldm(3)=   0.000000
     celldm(4)=   0.000000  celldm(5)=   0.000000  celldm(6)=   0.000000

     crystal axes: (cart. coord. in units of alat)
               a(1) = (   6.579727   0.000000   0.000000 )  
               a(2) = (  -0.000775   5.961596   0.000000 )  
               a(3) = (   0.000000   0.000000  25.155947 )  

     reciprocal axes: (cart. coord. in units 2 pi/alat)
               b(1) = (  0.151982  0.000020  0.000000 )  
               b(2) = (  0.000000  0.167740  0.000000 )  
               b(3) = (  0.000000  0.000000  0.039752 )  


     PseudoPot. # 1 for Ti read from file:
     /storage/coda1/p-amedford6/0/shared/rich_project_chbe-medford/medford-share/data/pseudos_module/espresso/nninc/pbe/van/Ti.UPF
     MD5 check sum: 8e4df49b7f0d34bbd5052bf3f5ea0213
     Pseudo is Ultrasoft, Zval = 12.0
     Generated by new atomic code, or converted to UPF format
     Using radial grid of  851 points,  6 beta functions with: 
                l(1) =   0
                l(2) =   0
                l(3) =   1
                l(4) =   1
                l(5) =   2
                l(6) =   2
     Q(r) pseudized with  8 coefficients,  rinner =    1.000   1.000   1.000
                                                       1.000   1.000

     PseudoPot. # 2 for O  read from file:
     /storage/coda1/p-amedford6/0/shared/rich_project_chbe-medford/medford-share/data/pseudos_module/espresso/nninc/pbe/van/O.UPF
     MD5 check sum: 78c19812648e8988a0fe644b0f25305e
     Pseudo is Ultrasoft, Zval =  6.0
     Generated by new atomic code, or converted to UPF format
     Using radial grid of  737 points,  4 beta functions with: 
                l(1) =   0
                l(2) =   0
                l(3) =   1
                l(4) =   1
     Q(r) pseudized with  8 coefficients,  rinner =    0.800   0.800   0.800


     PseudoPot. # 3 for N  read from file:
     /storage/coda1/p-amedford6/0/shared/rich_project_chbe-medford/medford-share/data/pseudos_module/espresso/nninc/pbe/van/N.UPF
     MD5 check sum: 90d10febe142ad51ac9d5be1deb811c4
     Pseudo is Ultrasoft, Zval =  5.0
     Generated by new atomic code, or converted to UPF format
     Using radial grid of  729 points,  4 beta functions with: 
                l(1) =   0
                l(2) =   0
                l(3) =   1
                l(4) =   1
     Q(r) pseudized with  8 coefficients,  rinner =    0.800   0.800   0.800


     PseudoPot. # 4 for C  read from file:
     /storage/coda1/p-amedford6/0/shared/rich_project_chbe-medford/medford-share/data/pseudos_module/espresso/nninc/pbe/van/C.UPF
     MD5 check sum: 1a69bf6b8db32088f5b2163dbdb77a27
     Pseudo is Ultrasoft, Zval =  4.0
     Generated by new atomic code, or converted to UPF format
     Using radial grid of  721 points,  4 beta functions with: 
                l(1) =   0
                l(2) =   0
                l(3) =   1
                l(4) =   1
     Q(r) pseudized with  8 coefficients,  rinner =    0.800   0.800   0.800


     PseudoPot. # 5 for H  read from file:
     /storage/coda1/p-amedford6/0/shared/rich_project_chbe-medford/medford-share/data/pseudos_module/espresso/nninc/pbe/van/H.UPF
     MD5 check sum: b5ee9d7bfd3a09ee7748110bda690ff7
     Pseudo is Ultrasoft, Zval =  1.0
     Generated by new atomic code, or converted to UPF format
     Using radial grid of  615 points,  1 beta functions with: 
                l(1) =   0
     Q(r) pseudized with  8 coefficients,  rinner =    0.800

     atomic species   valence    mass     pseudopotential
        Ti1           12.00    47.86700     Ti( 1.00)
        O1             6.00    15.99900     O ( 1.00)
        N1             5.00    14.00700     N ( 1.00)
        C1             4.00    12.01100     C ( 1.00)
        H1             1.00     1.00800     H ( 1.00)

     No symmetry found



   Cartesian axes

     site n.     atom                  positions (alat units)
         1           Ti1 tau(   1) = (   0.0004258   2.9801865   6.0000000  )
         2           Ti1 tau(   2) = (   3.2906075   1.4906267   6.0002472  )
         3           O1  tau(   3) = (   0.0006271   0.0005054   7.9858123  )
         4           O1  tau(   4) = (   3.2906025   0.0005020   7.3038282  )
         5           O1  tau(   5) = (   4.5942328   1.4918067   9.2879030  )
         6           O1  tau(   6) = (   1.9868534   1.4903216   9.2879459  )
         7           Ti1 tau(   7) = (   3.2907910   2.8959150   9.1758416  )
         8           Ti1 tau(   8) = (   0.0015273   1.4827037   9.2680791  )
         9           O1  tau(   9) = (   3.2914171   5.9475995  11.3455371  )
        10           O1  tau(  10) = (   0.0116148   5.9584955  10.6183126  )
        11           O1  tau(  11) = (   1.3057669   1.4807986  12.6390077  )
        12           O1  tau(  12) = (   5.3035249   1.4749620  12.6227664  )
        13           Ti1 tau(  13) = (   6.5294082   2.9362577  12.6231083  )
        14           Ti1 tau(  14) = (   3.2175537   1.4615748  12.5070279  )
        15           O1  tau(  15) = (   6.5585639   5.9474800  14.6380151  )
        16           O1  tau(  16) = (   3.3125803   5.9531145  13.9695519  )
        17           O1  tau(  17) = (   4.5393379   1.5011389  16.1071157  )
        18           O1  tau(  18) = (   2.0094023   1.5044898  16.0307267  )
        19           Ti1 tau(  19) = (   3.2760958   2.9523363  15.6877793  )
        20           Ti1 tau(  20) = (   0.0277933   1.3451898  16.0452527  )
        21           O1  tau(  21) = (   3.2904802   0.0005063   4.7018136  )
        22           O1  tau(  22) = (   0.0198929   5.9263875  17.1601691  )
        23           O1  tau(  23) = (   1.3043587   1.4918075   6.0039043  )
        24           O1  tau(  24) = (   5.2767064   1.4903225   6.0039473  )
        25           Ti1 tau(  25) = (   0.0000382   5.9609847   6.0000000  )
        26           Ti1 tau(  26) = (   3.2902200   4.4714249   6.0002472  )
        27           O1  tau(  27) = (   0.0002396   2.9813036   7.9858123  )
        28           O1  tau(  28) = (   3.2902150   2.9813002   7.3038282  )
        29           O1  tau(  29) = (   4.5938453   4.4726049   9.2879030  )
        30           O1  tau(  30) = (   1.9864658   4.4711199   9.2879459  )
        31           Ti1 tau(  31) = (   3.2891106   5.8743827   9.1763621  )
        32           Ti1 tau(  32) = (   0.0006254   4.4649316   9.2693709  )
        33           O1  tau(  33) = (   3.2862706   2.9662616  11.3468726  )
        34           O1  tau(  34) = (   0.0092240   2.9805883  10.6323155  )
        35           O1  tau(  35) = (   1.3102706   4.4726941  12.6361575  )
        36           O1  tau(  36) = (   5.3014905   4.4644878  12.6181669  )
        37           Ti1 tau(  37) = (   6.5311680   5.9227251  12.5202533  )
        38           Ti1 tau(  38) = (   3.2191334   4.4553394  12.5017427  )
        39           O1  tau(  39) = (   6.5614274   2.9920157  14.6796082  )
        40           O1  tau(  40) = (   3.3146075   2.9603188  13.8993185  )
        41           O1  tau(  41) = (   4.5484517   4.4144432  16.0509510  )
        42           O1  tau(  42) = (   2.0146171   4.4214036  15.9967612  )
        43           Ti1 tau(  43) = (   3.3303817   5.9274347  15.8100502  )
        44           Ti1 tau(  44) = (   0.0273359   4.4939047  15.8144843  )
        45           O1  tau(  45) = (   3.2900926   2.9813045   4.7018136  )
        46           O1  tau(  46) = (   1.3039711   4.4726057   6.0039043  )
        47           O1  tau(  47) = (   5.2763189   4.4711207   6.0039473  )
        48           N1  tau(  48) = (   6.5134970   2.9613368  17.6459670  )
        49           C1  tau(  49) = (   0.7931072   3.0267964  18.6255283  )
        50           H1  tau(  50) = (   1.8307262   2.9211331  18.2395185  )
        51           H1  tau(  51) = (   5.5494773   3.0666896  17.9713127  )
        52           O1  tau(  52) = (   3.1855344   5.8058271  18.1612476  )
        53           H1  tau(  53) = (   3.8461454   0.3022996  18.7034462  )
        54           H1  tau(  54) = (   2.3120581   0.0053998  18.5533318  )

     number of k points=    10  Fermi-Dirac smearing, width (Ry)=  0.0073
                       cart. coord. in units 2pi/alat
        k(    1) = (   0.0000000   0.0000000   0.0000000), wk =   0.1250000
        k(    2) = (   0.0000000   0.0419351   0.0000000), wk =   0.2500000
        k(    3) = (   0.0000000  -0.0838702   0.0000000), wk =   0.1250000
        k(    4) = (   0.0379955   0.0000049   0.0000000), wk =   0.2500000
        k(    5) = (   0.0379955   0.0419400   0.0000000), wk =   0.2500000
        k(    6) = (   0.0379955  -0.0838652   0.0000000), wk =   0.2500000
        k(    7) = (   0.0379955  -0.0419301   0.0000000), wk =   0.2500000
        k(    8) = (  -0.0759910  -0.0000099   0.0000000), wk =   0.1250000
        k(    9) = (  -0.0759910   0.0419252   0.0000000), wk =   0.2500000
        k(   10) = (  -0.0759910  -0.0838800   0.0000000), wk =   0.1250000

     Dense  grid:   566857 G-vectors     FFT dimensions: (  72,  64, 270)

     Smooth grid:   143421 G-vectors     FFT dimensions: (  45,  40, 180)

     Estimated max dynamical RAM per process >     366.33 MB

     Estimated total dynamical RAM >       3.58 GB
     Cannot read rho : file not found

     Initial potential from superposition of free atoms

     starting charge  380.99916, renormalised to  397.00000

     negative rho (up, down):  1.755E-02 0.000E+00


     %%%%%%%%%%%%%%%%%%%%%%%%%%%%%%%%%%%%%%%%%%%%%%%%%%%%%%%%%%%%%%%%%%%%%%%%
     %                                                                      %
     % You are using vdW-DF, which was implemented by the Thonhauser group. %
     % Please cite the following two papers that made this development      %
     % possible and the two reviews that describe the various versions:     %
     %                                                                      %
     %   T. Thonhauser et al., PRL 115, 136402 (2015).                      %
     %   T. Thonhauser et al., PRB 76, 125112 (2007).                       %
     %   K. Berland et al., Rep. Prog. Phys. 78, 066501 (2015).             %
     %   D.C. Langreth et al., J. Phys.: Condens. Matter 21, 084203 (2009). %
     %                                                                      %
     %                                                                      %
     % If you are calculating the stress with vdW-DF, please also cite:     %
     %                                                                      %
     %   R. Sabatini et al., J. Phys.: Condens. Matter 24, 424209 (2012).   %
     %                                                                      %
     %%%%%%%%%%%%%%%%%%%%%%%%%%%%%%%%%%%%%%%%%%%%%%%%%%%%%%%%%%%%%%%%%%%%%%%%


 
     Adding external electric field

     Computed dipole along edir(3) : 
        Dipole               -9.1667 Ry au,        -23.2993 Debye
        Dipole field         -0.0173 Ry au, 
 
        Potential amp.        1.6036 Ry
        Total length         46.3494 bohr
 
     Starting wfcs are  300 atomic wfcs
  @ DRIVER MODE: Message from server: STATUS
  @ DRIVER MODE: Message from server: POSDATA
  @ DRIVER MODE: Reading and sharing cell 
  @ DRIVER MODE: Reading and sharing positions 
  @ DRIVER MODE: Received positions 

     total cpu time spent up to now is       12.4 secs

     Self-consistent Calculation

     iteration #  1     ecut=    29.40 Ry     beta= 0.05
     Davidson diagonalization with overlap
     c_bands:  1 eigenvalues not converged
     c_bands:  1 eigenvalues not converged
     c_bands:  1 eigenvalues not converged
     c_bands:  1 eigenvalues not converged
     c_bands:  1 eigenvalues not converged
     c_bands:  1 eigenvalues not converged
     c_bands:  1 eigenvalues not converged
     c_bands:  1 eigenvalues not converged
     c_bands:  1 eigenvalues not converged
     ethr =  1.00E-05,  avg # of iterations = 19.8

     negative rho (up, down):  1.297E-02 0.000E+00
 
     Adding external electric field

     Computed dipole along edir(3) : 
        Dipole               42.7663 Ry au,        108.7012 Debye
        Dipole field          0.0807 Ry au, 
 
        Potential amp.       -7.4813 Ry
        Total length         46.3494 bohr
 

     total cpu time spent up to now is       52.2 secs

     total energy              =   -2547.27057610 Ry
     estimated scf accuracy    <    4504.90692425 Ry

     iteration #  2     ecut=    29.40 Ry     beta= 0.05
     Davidson diagonalization with overlap
     ethr =  1.00E-02,  avg # of iterations = 25.0

     negative rho (up, down):  3.755E-03 0.000E+00
 
     Adding external electric field

     Computed dipole along edir(3) : 
        Dipole               -1.7385 Ry au,         -4.4189 Debye
        Dipole field         -0.0033 Ry au, 
 
        Potential amp.        0.3041 Ry
        Total length         46.3494 bohr
 

     total cpu time spent up to now is      123.2 secs

     total energy              =   -2483.05213014 Ry
     estimated scf accuracy    <   64278.03073503 Ry

     iteration #  3     ecut=    29.40 Ry     beta= 0.05
     Davidson diagonalization with overlap
     ethr =  1.00E-02,  avg # of iterations = 14.9

     negative rho (up, down):  3.826E-03 0.000E+00
 
     Adding external electric field

     Computed dipole along edir(3) : 
        Dipole               -4.1210 Ry au,        -10.4745 Debye
        Dipole field         -0.0078 Ry au, 
 
        Potential amp.        0.7209 Ry
        Total length         46.3494 bohr
 

     total cpu time spent up to now is      169.1 secs

     total energy              =   -2936.34967288 Ry
     estimated scf accuracy    <    4172.08050483 Ry

     iteration #  4     ecut=    29.40 Ry     beta= 0.05
     Davidson diagonalization with overlap
     ethr =  1.00E-02,  avg # of iterations = 13.6

     negative rho (up, down):  3.877E-03 0.000E+00
 
     Adding external electric field

     Computed dipole along edir(3) : 
        Dipole               -5.4149 Ry au,        -13.7632 Debye
        Dipole field         -0.0102 Ry au, 
 
        Potential amp.        0.9472 Ry
        Total length         46.3494 bohr
 

     total cpu time spent up to now is      187.8 secs

     total energy              =   -2940.60412503 Ry
     estimated scf accuracy    <    1359.06179105 Ry

     iteration #  5     ecut=    29.40 Ry     beta= 0.05
     Davidson diagonalization with overlap
     ethr =  1.00E-02,  avg # of iterations =  8.6

     negative rho (up, down):  3.922E-03 0.000E+00
 
     Adding external electric field

     Computed dipole along edir(3) : 
        Dipole               -6.2662 Ry au,        -15.9271 Debye
        Dipole field         -0.0118 Ry au, 
 
        Potential amp.        1.0962 Ry
        Total length         46.3494 bohr
 

     total cpu time spent up to now is      200.9 secs

     total energy              =   -2940.48515705 Ry
     estimated scf accuracy    <     559.60509583 Ry

     iteration #  6     ecut=    29.40 Ry     beta= 0.05
     Davidson diagonalization with overlap
     ethr =  1.00E-02,  avg # of iterations =  9.3

     negative rho (up, down):  3.923E-03 0.000E+00
 
     Adding external electric field

     Computed dipole along edir(3) : 
        Dipole               -5.3280 Ry au,        -13.5424 Debye
        Dipole field         -0.0101 Ry au, 
 
        Potential amp.        0.9321 Ry
        Total length         46.3494 bohr
 

     total cpu time spent up to now is      217.7 secs

     total energy              =   -2955.45492247 Ry
     estimated scf accuracy    <      20.23215719 Ry

     iteration #  7     ecut=    29.40 Ry     beta= 0.05
     Davidson diagonalization with overlap
     ethr =  5.10E-03,  avg # of iterations =  1.4

     negative rho (up, down):  3.943E-03 0.000E+00
 
     Adding external electric field

     Computed dipole along edir(3) : 
        Dipole               -4.1390 Ry au,        -10.5204 Debye
        Dipole field         -0.0078 Ry au, 
 
        Potential amp.        0.7241 Ry
        Total length         46.3494 bohr
 

     total cpu time spent up to now is      227.8 secs

     total energy              =   -2955.06183602 Ry
     estimated scf accuracy    <      18.29042323 Ry

     iteration #  8     ecut=    29.40 Ry     beta= 0.05
     Davidson diagonalization with overlap
     ethr =  4.61E-03,  avg # of iterations =  1.9

     negative rho (up, down):  3.950E-03 0.000E+00
 
     Adding external electric field

     Computed dipole along edir(3) : 
        Dipole               -3.5050 Ry au,         -8.9088 Debye
        Dipole field         -0.0066 Ry au, 
 
        Potential amp.        0.6131 Ry
        Total length         46.3494 bohr
 

     total cpu time spent up to now is      238.0 secs

     total energy              =   -2955.10105419 Ry
     estimated scf accuracy    <      16.14286115 Ry

     iteration #  9     ecut=    29.40 Ry     beta= 0.05
     Davidson diagonalization with overlap
     ethr =  4.07E-03,  avg # of iterations =  1.5

     negative rho (up, down):  4.513E-03 0.000E+00
 
     Adding external electric field

     Computed dipole along edir(3) : 
        Dipole                6.1475 Ry au,         15.6254 Debye
        Dipole field          0.0116 Ry au, 
 
        Potential amp.       -1.0754 Ry
        Total length         46.3494 bohr
 

     total cpu time spent up to now is      248.0 secs

     total energy              =   -2955.30491057 Ry
     estimated scf accuracy    <      15.93126406 Ry

     iteration # 10     ecut=    29.40 Ry     beta= 0.05
     Davidson diagonalization with overlap
     ethr =  4.01E-03,  avg # of iterations = 15.3

     negative rho (up, down):  4.979E-03 0.000E+00
 
     Adding external electric field

     Computed dipole along edir(3) : 
        Dipole                8.8081 Ry au,         22.3880 Debye
        Dipole field          0.0166 Ry au, 
 
        Potential amp.       -1.5408 Ry
        Total length         46.3494 bohr
 

     total cpu time spent up to now is      271.2 secs

     total energy              =   -3051.52376723 Ry
     estimated scf accuracy    <    4982.60924543 Ry

     iteration # 11     ecut=    29.40 Ry     beta= 0.05
     Davidson diagonalization with overlap
     ethr =  4.01E-03,  avg # of iterations =  1.4

     negative rho (up, down):  5.092E-03 0.000E+00
 
     Adding external electric field

     Computed dipole along edir(3) : 
        Dipole                7.1278 Ry au,         18.1170 Debye
        Dipole field          0.0135 Ry au, 
 
        Potential amp.       -1.2469 Ry
        Total length         46.3494 bohr
 

     total cpu time spent up to now is      281.2 secs

     total energy              =   -3016.13091549 Ry
     estimated scf accuracy    <    5455.48093945 Ry

     iteration # 12     ecut=    29.40 Ry     beta= 0.05
     Davidson diagonalization with overlap
     ethr =  4.01E-03,  avg # of iterations =  1.6

     negative rho (up, down):  5.135E-03 0.000E+00
 
     Adding external electric field

     Computed dipole along edir(3) : 
        Dipole                6.6897 Ry au,         17.0034 Debye
        Dipole field          0.0126 Ry au, 
 
        Potential amp.       -1.1703 Ry
        Total length         46.3494 bohr
 

     total cpu time spent up to now is      291.5 secs

     total energy              =   -3012.95298885 Ry
     estimated scf accuracy    <    3986.42529350 Ry

     iteration # 13     ecut=    29.40 Ry     beta= 0.05
     Davidson diagonalization with overlap
     ethr =  4.01E-03,  avg # of iterations =  1.0

     negative rho (up, down):  5.172E-03 0.000E+00
 
     Adding external electric field

     Computed dipole along edir(3) : 
        Dipole                5.7275 Ry au,         14.5578 Debye
        Dipole field          0.0108 Ry au, 
 
        Potential amp.       -1.0019 Ry
        Total length         46.3494 bohr
 

     total cpu time spent up to now is      301.2 secs

     total energy              =   -3001.54912712 Ry
     estimated scf accuracy    <    3837.16108994 Ry

     iteration # 14     ecut=    29.40 Ry     beta= 0.05
     Davidson diagonalization with overlap
     ethr =  4.01E-03,  avg # of iterations =  1.1

     negative rho (up, down):  4.999E-03 0.000E+00
 
     Adding external electric field

     Computed dipole along edir(3) : 
        Dipole                1.9827 Ry au,          5.0396 Debye
        Dipole field          0.0037 Ry au, 
 
        Potential amp.       -0.3469 Ry
        Total length         46.3494 bohr
 

     total cpu time spent up to now is      311.0 secs

     total energy              =   -2961.80040564 Ry
     estimated scf accuracy    <    3715.37268817 Ry

     iteration # 15     ecut=    29.40 Ry     beta= 0.05
     Davidson diagonalization with overlap
     ethr =  4.01E-03,  avg # of iterations = 11.9

     negative rho (up, down):  5.025E-03 0.000E+00
 
     Adding external electric field

     Computed dipole along edir(3) : 
        Dipole                1.6905 Ry au,          4.2968 Debye
        Dipole field          0.0032 Ry au, 
 
        Potential amp.       -0.2957 Ry
        Total length         46.3494 bohr
 

     total cpu time spent up to now is      330.7 secs

     total energy              =   -2967.62803110 Ry
     estimated scf accuracy    <    1648.94981384 Ry

     iteration # 16     ecut=    29.40 Ry     beta= 0.05
     Davidson diagonalization with overlap
     ethr =  4.01E-03,  avg # of iterations =  1.1

     negative rho (up, down):  5.064E-03 0.000E+00
 
     Adding external electric field

     Computed dipole along edir(3) : 
        Dipole                1.1283 Ry au,          2.8678 Debye
        Dipole field          0.0021 Ry au, 
 
        Potential amp.       -0.1974 Ry
        Total length         46.3494 bohr
 

     total cpu time spent up to now is      340.5 secs

     total energy              =   -2963.03338364 Ry
     estimated scf accuracy    <    1679.29330273 Ry

     iteration # 17     ecut=    29.40 Ry     beta= 0.05
     Davidson diagonalization with overlap
     ethr =  4.01E-03,  avg # of iterations =  1.0

     negative rho (up, down):  5.092E-03 0.000E+00
 
     Adding external electric field

     Computed dipole along edir(3) : 
        Dipole               -0.0977 Ry au,         -0.2482 Debye
        Dipole field         -0.0002 Ry au, 
 
        Potential amp.        0.0171 Ry
        Total length         46.3494 bohr
 

     total cpu time spent up to now is      350.3 secs

     total energy              =   -2953.41993820 Ry
     estimated scf accuracy    <    1664.95096466 Ry

     iteration # 18     ecut=    29.40 Ry     beta= 0.05
     Davidson diagonalization with overlap
     ethr =  4.01E-03,  avg # of iterations =  1.0

     negative rho (up, down):  7.455E-03 0.000E+00
 
     Adding external electric field

     Computed dipole along edir(3) : 
        Dipole               -7.9469 Ry au,        -20.1989 Debye
        Dipole field         -0.0150 Ry au, 
 
        Potential amp.        1.3902 Ry
        Total length         46.3494 bohr
 

     total cpu time spent up to now is      360.0 secs

     total energy              =   -2893.42365465 Ry
     estimated scf accuracy    <    1415.84323412 Ry

     iteration # 19     ecut=    29.40 Ry     beta= 0.05
     Davidson diagonalization with overlap
     c_bands:  5 eigenvalues not converged
     c_bands:  1 eigenvalues not converged
     ethr =  4.01E-03,  avg # of iterations = 17.4

     negative rho (up, down):  6.591E-05 0.000E+00
 
     Adding external electric field

     Computed dipole along edir(3) : 
        Dipole               -6.6574 Ry au,        -16.9214 Debye
        Dipole field         -0.0126 Ry au, 
 
        Potential amp.        1.1646 Ry
        Total length         46.3494 bohr
 

     total cpu time spent up to now is      403.7 secs

     total energy              =   -2979.07384096 Ry
     estimated scf accuracy    <    6744.48844418 Ry

     iteration # 20     ecut=    29.40 Ry     beta= 0.05
     Davidson diagonalization with overlap
     ethr =  4.01E-03,  avg # of iterations =  9.6

     negative rho (up, down):  1.146E-03 0.000E+00
 
     Adding external electric field

     Computed dipole along edir(3) : 
        Dipole               -4.6408 Ry au,        -11.7957 Debye
        Dipole field         -0.0088 Ry au, 
 
        Potential amp.        0.8118 Ry
        Total length         46.3494 bohr
 

     total cpu time spent up to now is      417.8 secs

     total energy              =   -2945.72878785 Ry
     estimated scf accuracy    <    3918.42278484 Ry

     iteration # 21     ecut=    29.40 Ry     beta= 0.05
     Davidson diagonalization with overlap
     ethr =  4.01E-03,  avg # of iterations = 12.4

     negative rho (up, down):  2.404E-03 0.000E+00
 
     Adding external electric field

     Computed dipole along edir(3) : 
        Dipole               -4.3895 Ry au,        -11.1570 Debye
        Dipole field         -0.0083 Ry au, 
 
        Potential amp.        0.7679 Ry
        Total length         46.3494 bohr
 

     total cpu time spent up to now is      437.0 secs

     total energy              =   -2955.41725024 Ry
     estimated scf accuracy    <     703.59663827 Ry

     iteration # 22     ecut=    29.40 Ry     beta= 0.05
     Davidson diagonalization with overlap
     ethr =  4.01E-03,  avg # of iterations =  1.3

     negative rho (up, down):  1.359E-01 0.000E+00
 
     Adding external electric field

     Computed dipole along edir(3) : 
        Dipole               -2.8539 Ry au,         -7.2539 Debye
        Dipole field         -0.0054 Ry au, 
 
        Potential amp.        0.4992 Ry
        Total length         46.3494 bohr
 

     total cpu time spent up to now is      447.0 secs

     total energy              =   -2946.33898106 Ry
     estimated scf accuracy    <     630.78618686 Ry

     iteration # 23     ecut=    29.40 Ry     beta= 0.05
     Davidson diagonalization with overlap
     ethr =  4.01E-03,  avg # of iterations = 11.6

     negative rho (up, down):  8.428E-02 0.000E+00
 
     Adding external electric field

     Computed dipole along edir(3) : 
        Dipole               -2.7307 Ry au,         -6.9408 Debye
        Dipole field         -0.0052 Ry au, 
 
        Potential amp.        0.4777 Ry
        Total length         46.3494 bohr
 

     total cpu time spent up to now is      464.2 secs

     total energy              =   -2953.21491839 Ry
     estimated scf accuracy    <       5.48843453 Ry

     iteration # 24     ecut=    29.40 Ry     beta= 0.05
     Davidson diagonalization with overlap
     ethr =  1.38E-03,  avg # of iterations =  1.4

     negative rho (up, down):  4.223E-02 0.000E+00
 
     Adding external electric field

     Computed dipole along edir(3) : 
        Dipole               -2.6686 Ry au,         -6.7828 Debye
        Dipole field         -0.0050 Ry au, 
 
        Potential amp.        0.4668 Ry
        Total length         46.3494 bohr
 

     total cpu time spent up to now is      474.3 secs

     total energy              =   -2953.21709179 Ry
     estimated scf accuracy    <       4.42202659 Ry

     iteration # 25     ecut=    29.40 Ry     beta= 0.05
     Davidson diagonalization with overlap
     ethr =  1.11E-03,  avg # of iterations =  2.3

     negative rho (up, down):  1.378E-03 0.000E+00
 
     Adding external electric field

     Computed dipole along edir(3) : 
        Dipole               -2.4221 Ry au,         -6.1564 Debye
        Dipole field         -0.0046 Ry au, 
 
        Potential amp.        0.4237 Ry
        Total length         46.3494 bohr
 

     total cpu time spent up to now is      484.7 secs

     total energy              =   -2953.04907088 Ry
     estimated scf accuracy    <       4.09409601 Ry

     iteration # 26     ecut=    29.40 Ry     beta= 0.05
     Davidson diagonalization with overlap
     ethr =  1.03E-03,  avg # of iterations =  8.8

     negative rho (up, down):  7.429E-03 0.000E+00
 
     Adding external electric field

     Computed dipole along edir(3) : 
        Dipole               -2.3812 Ry au,         -6.0524 Debye
        Dipole field         -0.0045 Ry au, 
 
        Potential amp.        0.4166 Ry
        Total length         46.3494 bohr
 

     total cpu time spent up to now is      496.8 secs

     total energy              =   -2953.06641097 Ry
     estimated scf accuracy    <      15.96805468 Ry

     iteration # 27     ecut=    29.40 Ry     beta= 0.05
     Davidson diagonalization with overlap
     ethr =  1.03E-03,  avg # of iterations =  1.0

     negative rho (up, down):  4.139E-04 0.000E+00
 
     Adding external electric field

     Computed dipole along edir(3) : 
        Dipole               -0.3096 Ry au,         -0.7869 Debye
        Dipole field         -0.0006 Ry au, 
 
        Potential amp.        0.0542 Ry
        Total length         46.3494 bohr
 

     total cpu time spent up to now is      506.5 secs

     total energy              =   -2952.23541105 Ry
     estimated scf accuracy    <       4.80698524 Ry

     iteration # 28     ecut=    29.40 Ry     beta= 0.05
     Davidson diagonalization with overlap
     ethr =  1.03E-03,  avg # of iterations =  7.7

     negative rho (up, down):  1.756E-04 0.000E+00
 
     Adding external electric field

     Computed dipole along edir(3) : 
        Dipole               -0.5187 Ry au,         -1.3183 Debye
        Dipole field         -0.0010 Ry au, 
 
        Potential amp.        0.0907 Ry
        Total length         46.3494 bohr
 

     total cpu time spent up to now is      519.7 secs

     total energy              =   -2952.69553038 Ry
     estimated scf accuracy    <       2.93283667 Ry

     iteration # 29     ecut=    29.40 Ry     beta= 0.05
     Davidson diagonalization with overlap
     ethr =  7.39E-04,  avg # of iterations =  1.4

     negative rho (up, down):  3.401E-04 0.000E+00
 
     Adding external electric field

     Computed dipole along edir(3) : 
        Dipole               -1.1736 Ry au,         -2.9829 Debye
        Dipole field         -0.0022 Ry au, 
 
        Potential amp.        0.2053 Ry
        Total length         46.3494 bohr
 

     total cpu time spent up to now is      529.8 secs

     total energy              =   -2952.55333585 Ry
     estimated scf accuracy    <       6.71589995 Ry

     iteration # 30     ecut=    29.40 Ry     beta= 0.05
     Davidson diagonalization with overlap
     ethr =  7.39E-04,  avg # of iterations =  5.2

     negative rho (up, down):  8.195E-04 0.000E+00
 
     Adding external electric field

     Computed dipole along edir(3) : 
        Dipole               -1.1039 Ry au,         -2.8059 Debye
        Dipole field         -0.0021 Ry au, 
 
        Potential amp.        0.1931 Ry
        Total length         46.3494 bohr
 

     total cpu time spent up to now is      541.5 secs

     total energy              =   -2952.51428511 Ry
     estimated scf accuracy    <      11.92762142 Ry

     iteration # 31     ecut=    29.40 Ry     beta= 0.05
     Davidson diagonalization with overlap
     ethr =  7.39E-04,  avg # of iterations =  2.7

     negative rho (up, down):  8.021E-04 0.000E+00
 
     Adding external electric field

     Computed dipole along edir(3) : 
        Dipole               -0.9314 Ry au,         -2.3673 Debye
        Dipole field         -0.0018 Ry au, 
 
        Potential amp.        0.1629 Ry
        Total length         46.3494 bohr
 

     total cpu time spent up to now is      552.3 secs

     total energy              =   -2952.65896857 Ry
     estimated scf accuracy    <       0.99432066 Ry

     iteration # 32     ecut=    29.40 Ry     beta= 0.05
     Davidson diagonalization with overlap
     c_bands:  4 eigenvalues not converged
     c_bands:  4 eigenvalues not converged
     c_bands:  3 eigenvalues not converged
     c_bands:  4 eigenvalues not converged
     c_bands:  4 eigenvalues not converged
     c_bands:  4 eigenvalues not converged
     c_bands:  4 eigenvalues not converged
     c_bands:  3 eigenvalues not converged
     c_bands:  2 eigenvalues not converged
     ethr =  2.50E-04,  avg # of iterations = 20.7

     negative rho (up, down):  2.436E-03 0.000E+00
 
     Adding external electric field

     Computed dipole along edir(3) : 
        Dipole               -0.9289 Ry au,         -2.3610 Debye
        Dipole field         -0.0018 Ry au, 
 
        Potential amp.        0.1625 Ry
        Total length         46.3494 bohr
 

     total cpu time spent up to now is      575.0 secs

     total energy              =   -2952.64839937 Ry
     estimated scf accuracy    <       4.75070782 Ry

     iteration # 33     ecut=    29.40 Ry     beta= 0.05
     Davidson diagonalization with overlap
     ethr =  2.50E-04,  avg # of iterations = 10.1

     negative rho (up, down):  1.624E-03 0.000E+00
 
     Adding external electric field

     Computed dipole along edir(3) : 
        Dipole               -0.6537 Ry au,         -1.6615 Debye
        Dipole field         -0.0012 Ry au, 
 
        Potential amp.        0.1144 Ry
        Total length         46.3494 bohr
 

     total cpu time spent up to now is      587.9 secs

     total energy              =   -2952.60733970 Ry
     estimated scf accuracy    <       1.63281358 Ry

     iteration # 34     ecut=    29.40 Ry     beta= 0.05
     Davidson diagonalization with overlap
     ethr =  2.50E-04,  avg # of iterations =  2.0

     negative rho (up, down):  4.179E-04 0.000E+00
 
     Adding external electric field

     Computed dipole along edir(3) : 
        Dipole               -0.1686 Ry au,         -0.4285 Debye
        Dipole field         -0.0003 Ry au, 
 
        Potential amp.        0.0295 Ry
        Total length         46.3494 bohr
 

     total cpu time spent up to now is      598.6 secs

     total energy              =   -2952.51084599 Ry
     estimated scf accuracy    <       0.62936258 Ry

     iteration # 35     ecut=    29.40 Ry     beta= 0.05
     Davidson diagonalization with overlap
     c_bands:  1 eigenvalues not converged
     c_bands:  2 eigenvalues not converged
     c_bands:  5 eigenvalues not converged
     c_bands:  4 eigenvalues not converged
     c_bands:  3 eigenvalues not converged
     c_bands:  3 eigenvalues not converged
     c_bands:  2 eigenvalues not converged
     c_bands:  2 eigenvalues not converged
     c_bands:  2 eigenvalues not converged
     ethr =  1.59E-04,  avg # of iterations = 20.8

     negative rho (up, down):  7.644E-04 0.000E+00
 
     Adding external electric field

     Computed dipole along edir(3) : 
        Dipole               -0.3144 Ry au,         -0.7992 Debye
        Dipole field         -0.0006 Ry au, 
 
        Potential amp.        0.0550 Ry
        Total length         46.3494 bohr
 

     total cpu time spent up to now is      621.3 secs

     total energy              =   -2952.61499690 Ry
     estimated scf accuracy    <       0.76559139 Ry

     iteration # 36     ecut=    29.40 Ry     beta= 0.05
     Davidson diagonalization with overlap
     ethr =  1.59E-04,  avg # of iterations =  5.2

     negative rho (up, down):  5.169E-03 0.000E+00
 
     Adding external electric field

     Computed dipole along edir(3) : 
        Dipole               -0.3122 Ry au,         -0.7935 Debye
        Dipole field         -0.0006 Ry au, 
 
        Potential amp.        0.0546 Ry
        Total length         46.3494 bohr
 

     total cpu time spent up to now is      632.7 secs

     total energy              =   -2952.53408988 Ry
     estimated scf accuracy    <       0.38935008 Ry

     iteration # 37     ecut=    29.40 Ry     beta= 0.05
     Davidson diagonalization with overlap
     c_bands:  4 eigenvalues not converged
     c_bands:  4 eigenvalues not converged
     c_bands:  5 eigenvalues not converged
     c_bands:  3 eigenvalues not converged
     c_bands:  4 eigenvalues not converged
     c_bands:  2 eigenvalues not converged
     c_bands:  4 eigenvalues not converged
     ethr =  9.81E-05,  avg # of iterations = 20.6

     negative rho (up, down):  2.506E-03 0.000E+00
 
     Adding external electric field

     Computed dipole along edir(3) : 
        Dipole               -0.1052 Ry au,         -0.2674 Debye
        Dipole field         -0.0002 Ry au, 
 
        Potential amp.        0.0184 Ry
        Total length         46.3494 bohr
 

     total cpu time spent up to now is      658.1 secs

     total energy              =   -2952.63921969 Ry
     estimated scf accuracy    <       1.53867246 Ry

     iteration # 38     ecut=    29.40 Ry     beta= 0.05
     Davidson diagonalization with overlap
     ethr =  9.81E-05,  avg # of iterations =  3.8

     negative rho (up, down):  1.429E-03 0.000E+00
 
     Adding external electric field

     Computed dipole along edir(3) : 
        Dipole                0.0637 Ry au,          0.1618 Debye
        Dipole field          0.0001 Ry au, 
 
        Potential amp.       -0.0111 Ry
        Total length         46.3494 bohr
 

     total cpu time spent up to now is      669.2 secs

     total energy              =   -2952.60112655 Ry
     estimated scf accuracy    <       0.99597045 Ry

     iteration # 39     ecut=    29.40 Ry     beta= 0.05
     Davidson diagonalization with overlap
     c_bands:  1 eigenvalues not converged
     c_bands:  3 eigenvalues not converged
     c_bands:  1 eigenvalues not converged
     ethr =  9.81E-05,  avg # of iterations = 12.3

     negative rho (up, down):  3.862E-03 0.000E+00
 
     Adding external electric field

     Computed dipole along edir(3) : 
        Dipole                0.1155 Ry au,          0.2935 Debye
        Dipole field          0.0002 Ry au, 
 
        Potential amp.       -0.0202 Ry
        Total length         46.3494 bohr
 

     total cpu time spent up to now is      683.3 secs

     total energy              =   -2952.66100754 Ry
     estimated scf accuracy    <       0.41073927 Ry

     iteration # 40     ecut=    29.40 Ry     beta= 0.05
     Davidson diagonalization with overlap
     c_bands:  2 eigenvalues not converged
     ethr =  9.81E-05,  avg # of iterations =  6.2

     negative rho (up, down):  3.221E-03 0.000E+00
 
     Adding external electric field

     Computed dipole along edir(3) : 
        Dipole                0.3968 Ry au,          1.0086 Debye
        Dipole field          0.0007 Ry au, 
 
        Potential amp.       -0.0694 Ry
        Total length         46.3494 bohr
 

     total cpu time spent up to now is      695.0 secs

     total energy              =   -2952.58163475 Ry
     estimated scf accuracy    <       1.16532935 Ry

     iteration # 41     ecut=    29.40 Ry     beta= 0.05
     Davidson diagonalization with overlap
     ethr =  9.81E-05,  avg # of iterations =  5.9

     negative rho (up, down):  3.856E-03 0.000E+00
 
     Adding external electric field

     Computed dipole along edir(3) : 
        Dipole                0.5552 Ry au,          1.4112 Debye
        Dipole field          0.0010 Ry au, 
 
        Potential amp.       -0.0971 Ry
        Total length         46.3494 bohr
 

     total cpu time spent up to now is      706.6 secs

     total energy              =   -2952.59982411 Ry
     estimated scf accuracy    <       0.30119692 Ry

     iteration # 42     ecut=    29.40 Ry     beta= 0.05
     Davidson diagonalization with overlap
     c_bands:  3 eigenvalues not converged
     c_bands:  1 eigenvalues not converged
     c_bands:  3 eigenvalues not converged
     ethr =  7.59E-05,  avg # of iterations =  9.5

     negative rho (up, down):  5.127E-03 0.000E+00
 
     Adding external electric field

     Computed dipole along edir(3) : 
        Dipole                0.4520 Ry au,          1.1488 Debye
        Dipole field          0.0009 Ry au, 
 
        Potential amp.       -0.0791 Ry
        Total length         46.3494 bohr
 

     total cpu time spent up to now is      719.7 secs

     total energy              =   -2952.61964167 Ry
     estimated scf accuracy    <       0.09263510 Ry

     iteration # 43     ecut=    29.40 Ry     beta= 0.05
     Davidson diagonalization with overlap
     c_bands:  1 eigenvalues not converged
     c_bands:  2 eigenvalues not converged
     c_bands:  1 eigenvalues not converged
     c_bands:  2 eigenvalues not converged
     ethr =  2.33E-05,  avg # of iterations = 14.9

     negative rho (up, down):  5.796E-03 0.000E+00
 
     Adding external electric field

     Computed dipole along edir(3) : 
        Dipole                0.4284 Ry au,          1.0888 Debye
        Dipole field          0.0008 Ry au, 
 
        Potential amp.       -0.0749 Ry
        Total length         46.3494 bohr
 

     total cpu time spent up to now is      734.8 secs

     total energy              =   -2952.63784243 Ry
     estimated scf accuracy    <       0.62905313 Ry

     iteration # 44     ecut=    29.40 Ry     beta= 0.05
     Davidson diagonalization with overlap
     ethr =  2.33E-05,  avg # of iterations =  1.9

     negative rho (up, down):  4.526E-03 0.000E+00
 
     Adding external electric field

     Computed dipole along edir(3) : 
        Dipole                0.5422 Ry au,          1.3780 Debye
        Dipole field          0.0010 Ry au, 
 
        Potential amp.       -0.0948 Ry
        Total length         46.3494 bohr
 

     total cpu time spent up to now is      745.1 secs

     total energy              =   -2952.57552483 Ry
     estimated scf accuracy    <       0.68621669 Ry

     iteration # 45     ecut=    29.40 Ry     beta= 0.05
     Davidson diagonalization with overlap
     c_bands:  3 eigenvalues not converged
     c_bands:  1 eigenvalues not converged
     c_bands:  3 eigenvalues not converged
     c_bands:  3 eigenvalues not converged
     c_bands:  2 eigenvalues not converged
     c_bands:  3 eigenvalues not converged
     c_bands:  1 eigenvalues not converged
     ethr =  2.33E-05,  avg # of iterations = 23.7

     negative rho (up, down):  4.093E-03 0.000E+00
 
     Adding external electric field

     Computed dipole along edir(3) : 
        Dipole                0.5418 Ry au,          1.3770 Debye
        Dipole field          0.0010 Ry au, 
 
        Potential amp.       -0.0948 Ry
        Total length         46.3494 bohr
 

     total cpu time spent up to now is      770.4 secs

     total energy              =   -2952.61614945 Ry
     estimated scf accuracy    <       0.11353927 Ry

     iteration # 46     ecut=    29.40 Ry     beta= 0.05
     Davidson diagonalization with overlap
     c_bands:  3 eigenvalues not converged
     c_bands:  1 eigenvalues not converged
     c_bands:  1 eigenvalues not converged
     ethr =  2.33E-05,  avg # of iterations = 16.1

     negative rho (up, down):  4.146E-03 0.000E+00
 
     Adding external electric field

     Computed dipole along edir(3) : 
        Dipole                0.5253 Ry au,          1.3351 Debye
        Dipole field          0.0010 Ry au, 
 
        Potential amp.       -0.0919 Ry
        Total length         46.3494 bohr
 

     total cpu time spent up to now is      785.3 secs

     total energy              =   -2952.62564142 Ry
     estimated scf accuracy    <       0.15004091 Ry

     iteration # 47     ecut=    29.40 Ry     beta= 0.05
     Davidson diagonalization with overlap
     ethr =  2.33E-05,  avg # of iterations =  5.7

     negative rho (up, down):  5.615E-03 0.000E+00
 
     Adding external electric field

     Computed dipole along edir(3) : 
        Dipole                0.5513 Ry au,          1.4014 Debye
        Dipole field          0.0010 Ry au, 
 
        Potential amp.       -0.0964 Ry
        Total length         46.3494 bohr
 

     total cpu time spent up to now is      796.9 secs

     total energy              =   -2952.61519455 Ry
     estimated scf accuracy    <       0.14277646 Ry

     iteration # 48     ecut=    29.40 Ry     beta= 0.05
     Davidson diagonalization with overlap
     ethr =  2.33E-05,  avg # of iterations =  1.9

     negative rho (up, down):  6.542E-03 0.000E+00
 
     Adding external electric field

     Computed dipole along edir(3) : 
        Dipole                0.5044 Ry au,          1.2821 Debye
        Dipole field          0.0010 Ry au, 
 
        Potential amp.       -0.0882 Ry
        Total length         46.3494 bohr
 

     total cpu time spent up to now is      807.1 secs

     total energy              =   -2952.61237373 Ry
     estimated scf accuracy    <       0.06539789 Ry

     iteration # 49     ecut=    29.40 Ry     beta= 0.05
     Davidson diagonalization with overlap
     c_bands:  2 eigenvalues not converged
     c_bands:  1 eigenvalues not converged
     ethr =  1.65E-05,  avg # of iterations = 13.7

     negative rho (up, down):  6.368E-03 0.000E+00
 
     Adding external electric field

     Computed dipole along edir(3) : 
        Dipole                0.4773 Ry au,          1.2132 Debye
        Dipole field          0.0009 Ry au, 
 
        Potential amp.       -0.0835 Ry
        Total length         46.3494 bohr
 

     total cpu time spent up to now is      821.3 secs

     total energy              =   -2952.61471357 Ry
     estimated scf accuracy    <       0.01859337 Ry

     iteration # 50     ecut=    29.40 Ry     beta= 0.05
     Davidson diagonalization with overlap
     c_bands:  1 eigenvalues not converged
     c_bands:  1 eigenvalues not converged
     c_bands:  1 eigenvalues not converged
     ethr =  4.68E-06,  avg # of iterations = 15.5

     negative rho (up, down):  9.043E-03 0.000E+00
 
     Adding external electric field

     Computed dipole along edir(3) : 
        Dipole                0.4356 Ry au,          1.1071 Debye
        Dipole field          0.0008 Ry au, 
 
        Potential amp.       -0.0762 Ry
        Total length         46.3494 bohr
 

     total cpu time spent up to now is      836.3 secs

     total energy              =   -2952.61285143 Ry
     estimated scf accuracy    <       0.01530432 Ry

     iteration # 51     ecut=    29.40 Ry     beta= 0.05
     Davidson diagonalization with overlap
     c_bands:  1 eigenvalues not converged
     c_bands:  1 eigenvalues not converged
     c_bands:  2 eigenvalues not converged
     c_bands:  1 eigenvalues not converged
     c_bands:  2 eigenvalues not converged
     ethr =  3.85E-06,  avg # of iterations = 16.0

     negative rho (up, down):  1.109E-02 0.000E+00
 
     Adding external electric field

     Computed dipole along edir(3) : 
        Dipole                0.4360 Ry au,          1.1081 Debye
        Dipole field          0.0008 Ry au, 
 
        Potential amp.       -0.0763 Ry
        Total length         46.3494 bohr
 

     total cpu time spent up to now is      853.9 secs

     total energy              =   -2952.61518422 Ry
     estimated scf accuracy    <       0.01349987 Ry

     iteration # 52     ecut=    29.40 Ry     beta= 0.05
     Davidson diagonalization with overlap
     c_bands:  1 eigenvalues not converged
     ethr =  3.40E-06,  avg # of iterations =  7.7

     negative rho (up, down):  1.330E-02 0.000E+00
 
     Adding external electric field

     Computed dipole along edir(3) : 
        Dipole                0.4412 Ry au,          1.1213 Debye
        Dipole field          0.0008 Ry au, 
 
        Potential amp.       -0.0772 Ry
        Total length         46.3494 bohr
 

     total cpu time spent up to now is      865.9 secs

     total energy              =   -2952.61520059 Ry
     estimated scf accuracy    <       0.00574414 Ry

     iteration # 53     ecut=    29.40 Ry     beta= 0.05
     Davidson diagonalization with overlap
     c_bands:  1 eigenvalues not converged
     ethr =  1.45E-06,  avg # of iterations = 12.1

     negative rho (up, down):  1.347E-02 0.000E+00
 
     Adding external electric field

     Computed dipole along edir(3) : 
        Dipole                0.4455 Ry au,          1.1325 Debye
        Dipole field          0.0008 Ry au, 
 
        Potential amp.       -0.0779 Ry
        Total length         46.3494 bohr
 

     total cpu time spent up to now is      880.1 secs

     total energy              =   -2952.61568432 Ry
     estimated scf accuracy    <       0.00186365 Ry

     iteration # 54     ecut=    29.40 Ry     beta= 0.05
     Davidson diagonalization with overlap
     c_bands:  1 eigenvalues not converged
     ethr =  4.69E-07,  avg # of iterations =  9.0

     negative rho (up, down):  1.209E-02 0.000E+00
 
     Adding external electric field

     Computed dipole along edir(3) : 
        Dipole                0.4536 Ry au,          1.1529 Debye
        Dipole field          0.0009 Ry au, 
 
        Potential amp.       -0.0793 Ry
        Total length         46.3494 bohr
 

     total cpu time spent up to now is      892.7 secs

     total energy              =   -2952.61557252 Ry
     estimated scf accuracy    <       0.00170832 Ry

     iteration # 55     ecut=    29.40 Ry     beta= 0.05
     Davidson diagonalization with overlap
     ethr =  4.30E-07,  avg # of iterations =  9.7

     negative rho (up, down):  1.211E-02 0.000E+00
 
     Adding external electric field

     Computed dipole along edir(3) : 
        Dipole                0.4533 Ry au,          1.1521 Debye
        Dipole field          0.0009 Ry au, 
 
        Potential amp.       -0.0793 Ry
        Total length         46.3494 bohr
 

     total cpu time spent up to now is      905.8 secs

     total energy              =   -2952.61568967 Ry
     estimated scf accuracy    <       0.00118881 Ry

     iteration # 56     ecut=    29.40 Ry     beta= 0.05
     Davidson diagonalization with overlap
     ethr =  2.99E-07,  avg # of iterations =  1.4

     negative rho (up, down):  1.376E-02 0.000E+00
 
     Adding external electric field

     Computed dipole along edir(3) : 
        Dipole                0.4560 Ry au,          1.1591 Debye
        Dipole field          0.0009 Ry au, 
 
        Potential amp.       -0.0798 Ry
        Total length         46.3494 bohr
 

     total cpu time spent up to now is      915.9 secs

     total energy              =   -2952.61563606 Ry
     estimated scf accuracy    <       0.00128635 Ry

     iteration # 57     ecut=    29.40 Ry     beta= 0.05
     Davidson diagonalization with overlap
     c_bands:  1 eigenvalues not converged
     ethr =  2.99E-07,  avg # of iterations = 11.7

     negative rho (up, down):  1.585E-02 0.000E+00
 
     Adding external electric field

     Computed dipole along edir(3) : 
        Dipole                0.4408 Ry au,          1.1204 Debye
        Dipole field          0.0008 Ry au, 
 
        Potential amp.       -0.0771 Ry
        Total length         46.3494 bohr
 

     total cpu time spent up to now is      930.0 secs

     total energy              =   -2952.61561182 Ry
     estimated scf accuracy    <       0.00072434 Ry

     iteration # 58     ecut=    29.40 Ry     beta= 0.05
     Davidson diagonalization with overlap
     c_bands:  1 eigenvalues not converged
     ethr =  1.82E-07,  avg # of iterations = 10.5

     negative rho (up, down):  1.544E-02 0.000E+00
 
     Adding external electric field

     Computed dipole along edir(3) : 
        Dipole                0.4340 Ry au,          1.1031 Debye
        Dipole field          0.0008 Ry au, 
 
        Potential amp.       -0.0759 Ry
        Total length         46.3494 bohr
 

     total cpu time spent up to now is      946.7 secs

     total energy              =   -2952.61569098 Ry
     estimated scf accuracy    <       0.00052184 Ry

     iteration # 59     ecut=    29.40 Ry     beta= 0.05
     Davidson diagonalization with overlap
     ethr =  1.31E-07,  avg # of iterations =  1.3

     negative rho (up, down):  1.457E-02 0.000E+00
 
     Adding external electric field

     Computed dipole along edir(3) : 
        Dipole                0.4143 Ry au,          1.0530 Debye
        Dipole field          0.0008 Ry au, 
 
        Potential amp.       -0.0725 Ry
        Total length         46.3494 bohr
 

     total cpu time spent up to now is      956.7 secs

     total energy              =   -2952.61558925 Ry
     estimated scf accuracy    <       0.00041352 Ry

     iteration # 60     ecut=    29.40 Ry     beta= 0.05
     Davidson diagonalization with overlap
     ethr =  1.04E-07,  avg # of iterations =  9.9

     negative rho (up, down):  1.536E-02 0.000E+00
 
     Adding external electric field

     Computed dipole along edir(3) : 
        Dipole                0.4035 Ry au,          1.0256 Debye
        Dipole field          0.0008 Ry au, 
 
        Potential amp.       -0.0706 Ry
        Total length         46.3494 bohr
 

     total cpu time spent up to now is      972.3 secs

     total energy              =   -2952.61563934 Ry
     estimated scf accuracy    <       0.00025454 Ry

     iteration # 61     ecut=    29.40 Ry     beta= 0.05
     Davidson diagonalization with overlap
     ethr =  6.41E-08,  avg # of iterations =  3.6

     negative rho (up, down):  1.577E-02 0.000E+00
 
     Adding external electric field

     Computed dipole along edir(3) : 
        Dipole                0.4042 Ry au,          1.0275 Debye
        Dipole field          0.0008 Ry au, 
 
        Potential amp.       -0.0707 Ry
        Total length         46.3494 bohr
 

     total cpu time spent up to now is      983.3 secs

     total energy              =   -2952.61563122 Ry
     estimated scf accuracy    <       0.00010734 Ry

     iteration # 62     ecut=    29.40 Ry     beta= 0.05
     Davidson diagonalization with overlap
     ethr =  2.70E-08,  avg # of iterations = 14.8

     negative rho (up, down):  1.583E-02 0.000E+00
 
     Adding external electric field

     Computed dipole along edir(3) : 
        Dipole                0.4046 Ry au,          1.0284 Debye
        Dipole field          0.0008 Ry au, 
 
        Potential amp.       -0.0708 Ry
        Total length         46.3494 bohr
 

     total cpu time spent up to now is     1003.8 secs

     total energy              =   -2952.61567505 Ry
     estimated scf accuracy    <       0.00010155 Ry

     iteration # 63     ecut=    29.40 Ry     beta= 0.05
     Davidson diagonalization with overlap
     ethr =  2.56E-08,  avg # of iterations =  1.4

     negative rho (up, down):  1.602E-02 0.000E+00
 
     Adding external electric field

     Computed dipole along edir(3) : 
        Dipole                0.4043 Ry au,          1.0275 Debye
        Dipole field          0.0008 Ry au, 
 
        Potential amp.       -0.0707 Ry
        Total length         46.3494 bohr
 

     total cpu time spent up to now is     1013.8 secs

     total energy              =   -2952.61566236 Ry
     estimated scf accuracy    <       0.00006959 Ry

     iteration # 64     ecut=    29.40 Ry     beta= 0.05
     Davidson diagonalization with overlap
     ethr =  1.75E-08,  avg # of iterations = 12.8

     negative rho (up, down):  1.597E-02 0.000E+00
 
     Adding external electric field

     Computed dipole along edir(3) : 
        Dipole                0.4031 Ry au,          1.0247 Debye
        Dipole field          0.0008 Ry au, 
 
        Potential amp.       -0.0705 Ry
        Total length         46.3494 bohr
 

     total cpu time spent up to now is     1033.9 secs

     total energy              =   -2952.61569082 Ry
     estimated scf accuracy    <       0.00005300 Ry

     iteration # 65     ecut=    29.40 Ry     beta= 0.05
     Davidson diagonalization with overlap
     ethr =  1.34E-08,  avg # of iterations =  1.0

     negative rho (up, down):  1.588E-02 0.000E+00
 
     Adding external electric field

     Computed dipole along edir(3) : 
        Dipole                0.4052 Ry au,          1.0300 Debye
        Dipole field          0.0008 Ry au, 
 
        Potential amp.       -0.0709 Ry
        Total length         46.3494 bohr
 

     total cpu time spent up to now is     1043.6 secs

     total energy              =   -2952.61568655 Ry
     estimated scf accuracy    <       0.00003938 Ry

     iteration # 66     ecut=    29.40 Ry     beta= 0.05
     Davidson diagonalization with overlap
     ethr =  9.92E-09,  avg # of iterations =  7.9

     negative rho (up, down):  1.591E-02 0.000E+00
 
     Adding external electric field

     Computed dipole along edir(3) : 
        Dipole                0.4048 Ry au,          1.0288 Debye
        Dipole field          0.0008 Ry au, 
 
        Potential amp.       -0.0708 Ry
        Total length         46.3494 bohr
 

     total cpu time spent up to now is     1058.5 secs

     total energy              =   -2952.61569836 Ry
     estimated scf accuracy    <       0.00000868 Ry

     iteration # 67     ecut=    29.40 Ry     beta= 0.05
     Davidson diagonalization with overlap
     ethr =  2.19E-09,  avg # of iterations = 10.6

     negative rho (up, down):  1.607E-02 0.000E+00
 
     Adding external electric field

     Computed dipole along edir(3) : 
        Dipole                0.4065 Ry au,          1.0332 Debye
        Dipole field          0.0008 Ry au, 
 
        Potential amp.       -0.0711 Ry
        Total length         46.3494 bohr
 

     total cpu time spent up to now is     1076.4 secs

     total energy              =   -2952.61570567 Ry
     estimated scf accuracy    <       0.00000871 Ry

     iteration # 68     ecut=    29.40 Ry     beta= 0.05
     Davidson diagonalization with overlap
     ethr =  2.19E-09,  avg # of iterations =  5.0

     negative rho (up, down):  1.618E-02 0.000E+00
 
     Adding external electric field

     Computed dipole along edir(3) : 
        Dipole                0.4072 Ry au,          1.0351 Debye
        Dipole field          0.0008 Ry au, 
 
        Potential amp.       -0.0712 Ry
        Total length         46.3494 bohr
 

     total cpu time spent up to now is     1088.2 secs

     total energy              =   -2952.61571197 Ry
     estimated scf accuracy    <       0.00000321 Ry

     iteration # 69     ecut=    29.40 Ry     beta= 0.05
     Davidson diagonalization with overlap
     c_bands:  1 eigenvalues not converged
     ethr =  8.09E-10,  avg # of iterations = 12.5

     negative rho (up, down):  1.625E-02 0.000E+00
 
     Adding external electric field

     Computed dipole along edir(3) : 
        Dipole                0.4069 Ry au,          1.0342 Debye
        Dipole field          0.0008 Ry au, 
 
        Potential amp.       -0.0712 Ry
        Total length         46.3494 bohr
 

     total cpu time spent up to now is     1104.8 secs

     total energy              =   -2952.61571689 Ry
     estimated scf accuracy    <       0.00000234 Ry

     iteration # 70     ecut=    29.40 Ry     beta= 0.05
     Davidson diagonalization with overlap
     ethr =  5.90E-10,  avg # of iterations =  4.9

     negative rho (up, down):  1.627E-02 0.000E+00
 
     Adding external electric field

     Computed dipole along edir(3) : 
        Dipole                0.4065 Ry au,          1.0332 Debye
        Dipole field          0.0008 Ry au, 
 
        Potential amp.       -0.0711 Ry
        Total length         46.3494 bohr
 

     total cpu time spent up to now is     1116.3 secs

     total energy              =   -2952.61572033 Ry
     estimated scf accuracy    <       0.00000265 Ry

     iteration # 71     ecut=    29.40 Ry     beta= 0.05
     Davidson diagonalization with overlap
     ethr =  5.90E-10,  avg # of iterations =  9.2

     negative rho (up, down):  1.626E-02 0.000E+00
 
     Adding external electric field

     Computed dipole along edir(3) : 
        Dipole                0.4062 Ry au,          1.0324 Debye
        Dipole field          0.0008 Ry au, 
 
        Potential amp.       -0.0711 Ry
        Total length         46.3494 bohr
 

     total cpu time spent up to now is     1129.6 secs

     total energy              =   -2952.61572378 Ry
     estimated scf accuracy    <       0.00000096 Ry

     iteration # 72     ecut=    29.40 Ry     beta= 0.05
     Davidson diagonalization with overlap
     ethr =  2.43E-10,  avg # of iterations = 12.0

     negative rho (up, down):  1.623E-02 0.000E+00
 
     Adding external electric field

     Computed dipole along edir(3) : 
        Dipole                0.4063 Ry au,          1.0327 Debye
        Dipole field          0.0008 Ry au, 
 
        Potential amp.       -0.0711 Ry
        Total length         46.3494 bohr
 

     total cpu time spent up to now is     1148.5 secs

     total energy              =   -2952.61572718 Ry
     estimated scf accuracy    <       0.00000078 Ry

     iteration # 73     ecut=    29.40 Ry     beta= 0.05
     Davidson diagonalization with overlap
     ethr =  1.95E-10,  avg # of iterations =  2.0

     negative rho (up, down):  1.616E-02 0.000E+00
 
     Adding external electric field

     Computed dipole along edir(3) : 
        Dipole                0.4067 Ry au,          1.0338 Debye
        Dipole field          0.0008 Ry au, 
 
        Potential amp.       -0.0712 Ry
        Total length         46.3494 bohr
 

     total cpu time spent up to now is     1159.1 secs

     total energy              =   -2952.61573004 Ry
     estimated scf accuracy    <       0.00000040 Ry

     iteration # 74     ecut=    29.40 Ry     beta= 0.05
     Davidson diagonalization with overlap
     c_bands:  1 eigenvalues not converged
     ethr =  1.00E-10,  avg # of iterations = 15.2

     negative rho (up, down):  1.618E-02 0.000E+00
 
     Adding external electric field

     Computed dipole along edir(3) : 
        Dipole                0.4065 Ry au,          1.0332 Debye
        Dipole field          0.0008 Ry au, 
 
        Potential amp.       -0.0711 Ry
        Total length         46.3494 bohr
 

     total cpu time spent up to now is     1182.9 secs

     total energy              =   -2952.61573271 Ry
     estimated scf accuracy    <       0.00000110 Ry

     iteration # 75     ecut=    29.40 Ry     beta= 0.05
     Davidson diagonalization with overlap
     ethr =  1.00E-10,  avg # of iterations =  4.3

     negative rho (up, down):  1.619E-02 0.000E+00
 
     Adding external electric field

     Computed dipole along edir(3) : 
        Dipole                0.4066 Ry au,          1.0335 Debye
        Dipole field          0.0008 Ry au, 
 
        Potential amp.       -0.0711 Ry
        Total length         46.3494 bohr
 

     total cpu time spent up to now is     1194.3 secs

     total energy              =   -2952.61573498 Ry
     estimated scf accuracy    <       0.00000059 Ry

     iteration # 76     ecut=    29.40 Ry     beta= 0.05
     Davidson diagonalization with overlap
     ethr =  1.00E-10,  avg # of iterations =  1.5

     negative rho (up, down):  1.619E-02 0.000E+00
 
     Adding external electric field

     Computed dipole along edir(3) : 
        Dipole                0.4066 Ry au,          1.0336 Debye
        Dipole field          0.0008 Ry au, 
 
        Potential amp.       -0.0711 Ry
        Total length         46.3494 bohr
 

     total cpu time spent up to now is     1204.4 secs

     total energy              =   -2952.61573703 Ry
     estimated scf accuracy    <       0.00000044 Ry

     iteration # 77     ecut=    29.40 Ry     beta= 0.05
     Davidson diagonalization with overlap
     ethr =  1.00E-10,  avg # of iterations =  1.0

     negative rho (up, down):  1.618E-02 0.000E+00
 
     Adding external electric field

     Computed dipole along edir(3) : 
        Dipole                0.4067 Ry au,          1.0338 Debye
        Dipole field          0.0008 Ry au, 
 
        Potential amp.       -0.0712 Ry
        Total length         46.3494 bohr
 

     total cpu time spent up to now is     1214.2 secs

     total energy              =   -2952.61573888 Ry
     estimated scf accuracy    <       0.00000040 Ry

     iteration # 78     ecut=    29.40 Ry     beta= 0.05
     Davidson diagonalization with overlap
     ethr =  1.00E-10,  avg # of iterations =  1.0

     negative rho (up, down):  1.617E-02 0.000E+00
 
     Adding external electric field

     Computed dipole along edir(3) : 
        Dipole                0.4067 Ry au,          1.0336 Debye
        Dipole field          0.0008 Ry au, 
 
        Potential amp.       -0.0711 Ry
        Total length         46.3494 bohr
 

     total cpu time spent up to now is     1223.9 secs

     total energy              =   -2952.61574051 Ry
     estimated scf accuracy    <       0.00000035 Ry

     iteration # 79     ecut=    29.40 Ry     beta= 0.05
     Davidson diagonalization with overlap
     ethr =  8.80E-11,  avg # of iterations =  8.2

     negative rho (up, down):  1.616E-02 0.000E+00
 
     Adding external electric field

     Computed dipole along edir(3) : 
        Dipole                0.4068 Ry au,          1.0341 Debye
        Dipole field          0.0008 Ry au, 
 
        Potential amp.       -0.0712 Ry
        Total length         46.3494 bohr
 

     total cpu time spent up to now is     1237.1 secs

     total energy              =   -2952.61574209 Ry
     estimated scf accuracy    <       0.00000012 Ry

     iteration # 80     ecut=    29.40 Ry     beta= 0.05
     Davidson diagonalization with overlap
     ethr =  3.09E-11,  avg # of iterations = 10.8

     negative rho (up, down):  1.615E-02 0.000E+00
 
     Adding external electric field

     Computed dipole along edir(3) : 
        Dipole                0.4064 Ry au,          1.0330 Debye
        Dipole field          0.0008 Ry au, 
 
        Potential amp.       -0.0711 Ry
        Total length         46.3494 bohr
 

     total cpu time spent up to now is     1252.6 secs

     total energy              =   -2952.61574351 Ry
     estimated scf accuracy    <       0.00000009 Ry

     iteration # 81     ecut=    29.40 Ry     beta= 0.05
     Davidson diagonalization with overlap
     ethr =  2.38E-11,  avg # of iterations = 12.3

     negative rho (up, down):  1.614E-02 0.000E+00
 
     Adding external electric field

     Computed dipole along edir(3) : 
        Dipole                0.4065 Ry au,          1.0331 Debye
        Dipole field          0.0008 Ry au, 
 
        Potential amp.       -0.0711 Ry
        Total length         46.3494 bohr
 

     total cpu time spent up to now is     1272.5 secs

     total energy              =   -2952.61574480 Ry
     estimated scf accuracy    <       0.00000010 Ry

     iteration # 82     ecut=    29.40 Ry     beta= 0.05
     Davidson diagonalization with overlap
     ethr =  2.38E-11,  avg # of iterations =  2.0

     negative rho (up, down):  1.616E-02 0.000E+00
 
     Adding external electric field

     Computed dipole along edir(3) : 
        Dipole                0.4072 Ry au,          1.0350 Debye
        Dipole field          0.0008 Ry au, 
 
        Potential amp.       -0.0712 Ry
        Total length         46.3494 bohr
 

     total cpu time spent up to now is     1283.2 secs

     End of self-consistent calculation

          k = 0.0000 0.0000 0.0000 ( 18029 PWs)   bands (ev):

   -56.0241 -55.9995 -55.9926 -55.9900 -55.9632 -55.8698 -55.8374 -55.8285
   -55.8249 -55.8115 -55.8031 -55.7780 -55.7490 -55.5783 -55.0096 -54.9755
   -32.5453 -32.5080 -32.4010 -32.3693 -32.3363 -32.3162 -32.3070 -32.3015
   -32.2675 -32.2366 -32.2249 -32.2183 -32.2092 -32.1963 -32.1785 -32.1765
   -32.1518 -32.1298 -32.1284 -32.1252 -32.0926 -32.0813 -32.0725 -32.0401
   -32.0294 -32.0280 -32.0241 -32.0199 -32.0170 -32.0114 -31.9967 -31.9863
   -31.9837 -31.9824 -31.9703 -31.9643 -31.9610 -31.9421 -31.9226 -31.8390
   -31.8221 -31.7357 -31.4170 -31.3277 -31.3054 -31.2336 -31.1471 -31.0361
   -19.2315 -16.7565 -16.5163 -16.3414 -16.2013 -16.1706 -15.9538 -15.8522
   -15.7813 -15.7270 -15.6578 -15.6061 -15.5722 -15.5630 -15.5462 -15.5225
   -15.5027 -15.4800 -15.4570 -15.4450 -15.4386 -15.3960 -15.3892 -15.3732
   -15.3546 -15.2480 -15.1845 -15.1602 -15.1150 -15.0917 -14.7384 -13.5118
   -13.3952  -7.8659  -7.0835  -4.1548  -4.0596  -3.9851  -3.9441  -3.9293
    -3.7726  -3.6949  -3.5444  -3.5185  -3.3076  -3.2727  -3.2204  -3.1954
    -3.1337  -3.0717  -2.9763  -2.9333  -2.8562  -2.8403  -2.8278  -2.8048
    -2.7843  -2.7681  -2.7279  -2.6642  -2.5939  -2.5600  -2.4466  -2.4210
    -2.4143  -2.3468  -2.3397  -2.3278  -2.3144  -2.2831  -2.2612  -2.2582
    -2.1867  -2.1548  -2.0842  -2.0324  -1.9710  -1.8531  -1.7014  -1.6397
    -1.5889  -1.5280  -1.5037  -1.4680  -1.4457  -1.4217  -1.3620  -1.3045
    -1.2400  -1.2281  -1.1574  -1.0651  -0.9936  -0.9554  -0.8851  -0.8236
    -0.8020  -0.7740  -0.7659  -0.7570  -0.7079  -0.5355  -0.4794  -0.4658
    -0.4262  -0.3433  -0.3124  -0.3030  -0.2539  -0.2457  -0.2058  -0.1170
    -0.0981  -0.0630  -0.0452  -0.0316   0.0013   0.0208   0.1758   0.1965
     0.2389   0.2605   0.3631   0.4693   0.5359   0.6235   0.7180   0.9368
     1.0128   1.0899   1.2038   1.5849   1.6309   2.7797   3.1041   3.1927
     3.2309   3.2370   3.2711   3.3417   3.5581   3.5892   3.6065   3.6624

          k = 0.0000 0.0419 0.0000 ( 17933 PWs)   bands (ev):

   -56.0191 -55.9949 -55.9946 -55.9913 -55.9683 -55.8658 -55.8332 -55.8315
   -55.8256 -55.8081 -55.8065 -55.7829 -55.7482 -55.5790 -55.0045 -54.9804
   -32.4886 -32.4540 -32.3524 -32.3148 -32.3115 -32.3057 -32.2942 -32.2509
   -32.2475 -32.2397 -32.2251 -32.2141 -32.2110 -32.1865 -32.1776 -32.1749
   -32.1706 -32.1626 -32.1608 -32.1117 -32.0952 -32.0829 -32.0691 -32.0486
   -32.0442 -32.0423 -32.0351 -32.0310 -32.0254 -32.0241 -32.0182 -32.0148
   -32.0033 -31.9840 -31.9803 -31.9800 -31.9683 -31.9660 -31.9606 -31.8382
   -31.8254 -31.7740 -31.3628 -31.3243 -31.3084 -31.2210 -31.1596 -31.0932
   -19.2312 -16.6215 -16.3962 -16.2297 -16.1065 -16.0707 -15.9112 -15.8734
   -15.7983 -15.7656 -15.7163 -15.6350 -15.5770 -15.5546 -15.5484 -15.5174
   -15.5136 -15.5038 -15.4963 -15.4826 -15.4253 -15.4231 -15.3945 -15.3658
   -15.3303 -15.2981 -15.2404 -15.2189 -15.1489 -15.1409 -14.8374 -13.5158
   -13.4347  -7.8644  -7.0874  -4.0128  -3.9057  -3.8538  -3.8124  -3.7581
    -3.6660  -3.5549  -3.4664  -3.3010  -3.2507  -3.1946  -3.1785  -3.0881
    -3.0773  -3.0365  -3.0113  -2.9830  -2.9460  -2.9314  -2.9190  -2.8826
    -2.8581  -2.7864  -2.7774  -2.7422  -2.7319  -2.6913  -2.6770  -2.5532
    -2.5281  -2.5255  -2.4499  -2.4403  -2.4022  -2.2887  -2.2768  -2.2141
    -2.1619  -2.0519  -1.9860  -1.9003  -1.8069  -1.7842  -1.7155  -1.7019
    -1.6122  -1.4739  -1.4249  -1.3572  -1.2811  -1.2447  -1.2286  -1.2024
    -1.1237  -1.1150  -0.9871  -0.9817  -0.9687  -0.9446  -0.9319  -0.9080
    -0.8518  -0.8260  -0.7870  -0.6590  -0.6470  -0.6039  -0.5658  -0.5362
    -0.4981  -0.4796  -0.3879  -0.3419  -0.3186  -0.2650  -0.2489  -0.2266
    -0.2137  -0.1905  -0.1643  -0.0904  -0.0713   0.0233   0.0805   0.1558
     0.1937   0.2049   0.2966   0.3061   0.3348   0.4591   0.6287   0.6303
     0.9650   1.2013   1.2843   1.5390   1.5427   2.7762   3.3009   3.3329
     3.3489   3.4086   3.4588   3.4956   3.5402   3.5773   3.6251   3.6553

          k = 0.0000-0.0839 0.0000 ( 17884 PWs)   bands (ev):

   -56.0078 -56.0061 -55.9912 -55.9833 -55.9788 -55.8606 -55.8377 -55.8265
   -55.8210 -55.8191 -55.7952 -55.7941 -55.7474 -55.5797 -54.9925 -54.9923
   -32.3586 -32.3426 -32.3222 -32.3212 -32.3022 -32.3008 -32.2765 -32.2715
   -32.2522 -32.2063 -32.1967 -32.1925 -32.1897 -32.1831 -32.1737 -32.1689
   -32.1457 -32.1365 -32.1331 -32.1298 -32.1281 -32.1268 -32.1159 -32.1132
   -32.0791 -32.0780 -32.0591 -32.0585 -32.0392 -32.0391 -32.0330 -32.0267
   -32.0224 -31.9986 -31.9921 -31.9779 -31.9729 -31.9719 -31.9600 -31.8381
   -31.8269 -31.8230 -31.3162 -31.3160 -31.2299 -31.2297 -31.1904 -31.1903
   -19.2309 -16.2970 -16.2694 -16.1136 -16.0908 -15.9677 -15.9562 -15.8594
   -15.8516 -15.8091 -15.7761 -15.7323 -15.6874 -15.5834 -15.5693 -15.5648
   -15.4975 -15.4469 -15.4241 -15.4129 -15.4102 -15.4003 -15.3793 -15.3723
   -15.3620 -15.3570 -15.2913 -15.2809 -15.2481 -15.1099 -15.0189 -13.4975
   -13.4972  -7.8629  -7.0913  -3.9362  -3.6808  -3.4981  -3.4442  -3.4265
    -3.4064  -3.3997  -3.3610  -3.3216  -3.3188  -3.3113  -3.2588  -3.1709
    -3.1364  -3.1289  -3.1135  -3.0960  -3.0825  -2.9963  -2.9895  -2.9749
    -2.9220  -2.8953  -2.8250  -2.7809  -2.7698  -2.7500  -2.6729  -2.6130
    -2.5994  -2.5498  -2.4833  -2.4106  -2.3586  -2.3117  -2.1518  -2.0960
    -1.9942  -1.9642  -1.8951  -1.8290  -1.7522  -1.7258  -1.6841  -1.5188
    -1.4928  -1.4577  -1.4425  -1.4176  -1.4102  -1.3900  -1.3518  -1.2944
    -1.2777  -1.2161  -1.1947  -1.0738  -0.9707  -0.9403  -0.8294  -0.7471
    -0.6747  -0.6460  -0.6421  -0.6331  -0.6264  -0.5899  -0.5225  -0.5036
    -0.4843  -0.4710  -0.4507  -0.4325  -0.4010  -0.3616  -0.3416  -0.3028
    -0.2836  -0.2428  -0.2210  -0.2139  -0.1819  -0.1408  -0.1026  -0.0450
     0.1036   0.2028   0.2082   0.2112   0.2354   0.5246   0.5484   0.6385
     0.7130   1.3441   1.3448   1.4754   1.4769   2.7702   3.4090   3.4637
     3.4993   3.5168   3.5383   3.5476   3.5907   3.6516   3.6955   3.7021

          k = 0.0380 0.0000 0.0000 ( 17913 PWs)   bands (ev):

   -56.0240 -55.9994 -55.9924 -55.9899 -55.9631 -55.8698 -55.8370 -55.8284
   -55.8247 -55.8116 -55.8030 -55.7779 -55.7490 -55.5782 -55.0095 -54.9754
   -32.5454 -32.5089 -32.4030 -32.3749 -32.3365 -32.3160 -32.3068 -32.3061
   -32.2674 -32.2361 -32.2175 -32.2084 -32.2048 -32.1958 -32.1783 -32.1735
   -32.1451 -32.1295 -32.1279 -32.1048 -32.0929 -32.0887 -32.0811 -32.0396
   -32.0283 -32.0224 -32.0198 -32.0181 -32.0168 -32.0113 -32.0048 -31.9967
   -31.9862 -31.9822 -31.9702 -31.9674 -31.9645 -31.9407 -31.9233 -31.8402
   -31.8219 -31.7356 -31.4165 -31.3311 -31.3034 -31.2334 -31.1470 -31.0359
   -19.2312 -16.6768 -16.4287 -16.2663 -16.1905 -16.0886 -15.9742 -15.8892
   -15.7857 -15.7473 -15.7284 -15.7218 -15.7194 -15.6576 -15.6544 -15.5856
   -15.5359 -15.4636 -15.3966 -15.3891 -15.3881 -15.3664 -15.2897 -15.2729
   -15.2627 -15.2564 -15.2225 -15.2171 -15.1981 -15.0976 -14.7381 -13.5085
   -13.3949  -7.8729  -7.0832  -4.0671  -3.8975  -3.8552  -3.7387  -3.7232
    -3.6571  -3.5914  -3.5121  -3.5038  -3.4663  -3.3069  -3.2931  -3.2724
    -3.1380  -3.1084  -3.0836  -3.0100  -2.9185  -2.8126  -2.7716  -2.7383
    -2.6742  -2.6650  -2.6282  -2.6103  -2.5937  -2.5333  -2.5007  -2.4434
    -2.3784  -2.3746  -2.3022  -2.2980  -2.2694  -2.2444  -2.2066  -2.0933
    -2.0626  -2.0129  -1.9569  -1.9306  -1.8742  -1.8249  -1.8091  -1.6984
    -1.6389  -1.5830  -1.5592  -1.5021  -1.4620  -1.4509  -1.3939  -1.3431
    -1.3045  -1.2916  -1.2628  -1.2144  -1.1385  -1.0677  -0.9332  -0.8522
    -0.8128  -0.7829  -0.7427  -0.7243  -0.6888  -0.5514  -0.5202  -0.4622
    -0.4351  -0.4109  -0.3774  -0.3579  -0.2999  -0.2562  -0.2386  -0.2133
    -0.1964  -0.1632  -0.1542  -0.1067  -0.0812   0.0272   0.0443   0.1379
     0.1744   0.2383   0.3295   0.3451   0.3743   0.6021   0.6577   0.9374
     0.9581   1.0247   1.1732   1.4732   1.5481   2.7970   3.1339   3.1639
     3.4069   3.4554   3.4584   3.4929   3.5275   3.5572   3.5631   3.6271

          k = 0.0380 0.0419 0.0000 ( 17878 PWs)   bands (ev):

   -56.0190 -55.9949 -55.9945 -55.9913 -55.9683 -55.8658 -55.8331 -55.8313
   -55.8256 -55.8080 -55.8067 -55.7829 -55.7482 -55.5789 -55.0044 -54.9804
   -32.4888 -32.4549 -32.3544 -32.3215 -32.3113 -32.3059 -32.2941 -32.2541
   -32.2495 -32.2396 -32.2249 -32.2089 -32.1991 -32.1866 -32.1771 -32.1743
   -32.1703 -32.1601 -32.1511 -32.0949 -32.0943 -32.0853 -32.0815 -32.0511
   -32.0406 -32.0349 -32.0329 -32.0278 -32.0250 -32.0225 -32.0182 -32.0148
   -32.0056 -32.0008 -31.9839 -31.9750 -31.9711 -31.9682 -31.9660 -31.8402
   -31.8253 -31.7738 -31.3625 -31.3269 -31.3074 -31.2208 -31.1597 -31.0931
   -19.2310 -16.5488 -16.3158 -16.1655 -16.0925 -15.9871 -15.9236 -15.8780
   -15.8041 -15.7940 -15.7450 -15.6984 -15.6853 -15.6397 -15.6269 -15.5350
   -15.5315 -15.5021 -15.4633 -15.4251 -15.4176 -15.3867 -15.3550 -15.3526
   -15.3130 -15.2835 -15.2709 -15.2632 -15.2445 -15.1253 -14.8377 -13.5135
   -13.4349  -7.8704  -7.0864  -3.9737  -3.7923  -3.7396  -3.5912  -3.5653
    -3.4838  -3.4438  -3.4056  -3.3210  -3.2759  -3.2131  -3.1552  -3.1247
    -3.0416  -3.0121  -2.9663  -2.9523  -2.9401  -2.9039  -2.8662  -2.8474
    -2.8008  -2.7704  -2.7552  -2.7275  -2.6951  -2.6741  -2.6335  -2.5931
    -2.5280  -2.5057  -2.4411  -2.3778  -2.3479  -2.2317  -2.1841  -2.1331
    -2.1166  -2.0151  -2.0023  -1.9819  -1.8327  -1.7572  -1.7212  -1.6439
    -1.5754  -1.5006  -1.4623  -1.4316  -1.3658  -1.3333  -1.3132  -1.2785
    -1.2451  -1.1596  -1.1489  -1.1280  -1.0426  -0.9821  -0.9646  -0.9338
    -0.8826  -0.8572  -0.8182  -0.7499  -0.7409  -0.7202  -0.6574  -0.6403
    -0.5987  -0.5758  -0.4973  -0.4829  -0.4386  -0.4114  -0.3645  -0.3182
    -0.2805  -0.2404  -0.1872  -0.1295  -0.0465   0.0077   0.1080   0.1595
     0.1997   0.2633   0.2966   0.3507   0.3875   0.4106   0.5531   0.6210
     0.9020   1.2122   1.2886   1.4615   1.5235   2.7957   3.2867   3.3438
     3.3796   3.4602   3.5331   3.5593   3.5772   3.6181   3.6519   3.6855

          k = 0.0380-0.0839 0.0000 ( 17916 PWs)   bands (ev):

   -56.0078 -56.0062 -55.9912 -55.9833 -55.9788 -55.8606 -55.8378 -55.8265
   -55.8210 -55.8190 -55.7953 -55.7943 -55.7474 -55.5797 -54.9926 -54.9923
   -32.3589 -32.3429 -32.3230 -32.3219 -32.3022 -32.3009 -32.2782 -32.2718
   -32.2523 -32.2121 -32.2033 -32.1984 -32.1959 -32.1743 -32.1597 -32.1496
   -32.1445 -32.1363 -32.1342 -32.1298 -32.1287 -32.1271 -32.1254 -32.1230
   -32.0670 -32.0598 -32.0562 -32.0555 -32.0411 -32.0390 -32.0309 -32.0266
   -32.0224 -31.9987 -31.9922 -31.9849 -31.9838 -31.9780 -31.9656 -31.8405
   -31.8269 -31.8226 -31.3172 -31.3170 -31.2298 -31.2296 -31.1904 -31.1903
   -19.2308 -16.2588 -16.2109 -16.0569 -16.0313 -15.9553 -15.9073 -15.8442
   -15.8273 -15.7692 -15.7494 -15.7307 -15.7215 -15.5999 -15.5824 -15.5512
   -15.5366 -15.5016 -15.4686 -15.4523 -15.4437 -15.4390 -15.4151 -15.3909
   -15.3849 -15.3725 -15.3396 -15.3299 -15.2236 -15.1044 -15.0142 -13.4973
   -13.4970  -7.8689  -7.0883  -3.9229  -3.6551  -3.4913  -3.3342  -3.2941
    -3.2351  -3.2273  -3.2156  -3.1876  -3.1711  -3.1325  -3.1151  -3.0966
    -3.0856  -3.0362  -3.0301  -3.0069  -2.9825  -2.9377  -2.9168  -2.8884
    -2.8597  -2.8461  -2.8248  -2.7928  -2.7456  -2.7318  -2.6859  -2.6468
    -2.6211  -2.5236  -2.4892  -2.3997  -2.2457  -2.1529  -2.1454  -2.0335
    -2.0071  -1.9381  -1.9291  -1.8851  -1.8752  -1.8123  -1.7806  -1.7450
    -1.7242  -1.6704  -1.6462  -1.5572  -1.5381  -1.4911  -1.4008  -1.3661
    -1.2562  -1.1910  -1.1620  -1.1005  -1.0837  -0.9956  -0.9412  -0.9152
    -0.8530  -0.8140  -0.7933  -0.7823  -0.7732  -0.7418  -0.7266  -0.6716
    -0.6289  -0.6154  -0.5944  -0.5780  -0.5517  -0.4724  -0.4271  -0.3943
    -0.2583  -0.2169  -0.1328  -0.1016  -0.0326   0.0393   0.0728   0.0911
     0.1266   0.1427   0.2327   0.2929   0.3382   0.4860   0.5117   0.6216
     0.7109   1.3573   1.3582   1.4649   1.4661   2.7922   3.3778   3.3927
     3.4919   3.5141   3.5226   3.5429   3.6449   3.6927   3.7263   3.7354

          k = 0.0380-0.0419 0.0000 ( 17876 PWs)   bands (ev):

   -56.0190 -55.9949 -55.9945 -55.9913 -55.9683 -55.8658 -55.8331 -55.8313
   -55.8256 -55.8080 -55.8067 -55.7829 -55.7482 -55.5789 -55.0044 -54.9804
   -32.4888 -32.4548 -32.3544 -32.3215 -32.3113 -32.3059 -32.2941 -32.2541
   -32.2496 -32.2396 -32.2249 -32.2088 -32.1993 -32.1866 -32.1770 -32.1744
   -32.1701 -32.1601 -32.1514 -32.0949 -32.0943 -32.0848 -32.0813 -32.0501
   -32.0412 -32.0349 -32.0329 -32.0279 -32.0250 -32.0233 -32.0183 -32.0148
   -32.0054 -32.0009 -31.9837 -31.9751 -31.9711 -31.9680 -31.9664 -31.8399
   -31.8253 -31.7739 -31.3625 -31.3269 -31.3074 -31.2208 -31.1597 -31.0931
   -19.2310 -16.5486 -16.3158 -16.1662 -16.0923 -15.9866 -15.9235 -15.8789
   -15.8038 -15.7946 -15.7480 -15.6905 -15.6857 -15.6400 -15.6280 -15.5364
   -15.5311 -15.5023 -15.4672 -15.4244 -15.4166 -15.3863 -15.3542 -15.3525
   -15.3142 -15.2832 -15.2713 -15.2619 -15.2445 -15.1254 -14.8376 -13.5135
   -13.4349  -7.8714  -7.0850  -3.9675  -3.7786  -3.7619  -3.6011  -3.5616
    -3.4831  -3.4456  -3.4073  -3.3222  -3.2738  -3.2103  -3.1523  -3.1255
    -3.0428  -3.0151  -2.9655  -2.9575  -2.9380  -2.9008  -2.8579  -2.8458
    -2.7882  -2.7726  -2.7548  -2.7262  -2.6921  -2.6718  -2.6473  -2.5905
    -2.5291  -2.5060  -2.4406  -2.3784  -2.3324  -2.2246  -2.1741  -2.1447
    -2.1071  -2.0247  -2.0129  -1.9755  -1.8430  -1.7483  -1.7289  -1.6485
    -1.5982  -1.5166  -1.4571  -1.4386  -1.3623  -1.3256  -1.3112  -1.2851
    -1.2471  -1.1556  -1.1498  -1.1032  -1.0387  -0.9882  -0.9683  -0.9338
    -0.8887  -0.8523  -0.8191  -0.7958  -0.7441  -0.7084  -0.6583  -0.6425
    -0.5781  -0.5505  -0.5093  -0.4786  -0.4326  -0.4012  -0.3716  -0.3218
    -0.2869  -0.2444  -0.1903  -0.1261  -0.0395   0.0233   0.1078   0.1662
     0.1918   0.2652   0.2990   0.3565   0.3764   0.4085   0.5536   0.6193
     0.9017   1.2122   1.2884   1.4612   1.5241   2.7957   3.2836   3.3423
     3.3855   3.4691   3.5085   3.5428   3.5803   3.6229   3.6584   3.6799

          k =-0.0760-0.0000 0.0000 ( 17886 PWs)   bands (ev):

   -56.0239 -55.9993 -55.9924 -55.9899 -55.9631 -55.8698 -55.8367 -55.8284
   -55.8247 -55.8118 -55.8030 -55.7779 -55.7489 -55.5782 -55.0094 -54.9754
   -32.5456 -32.5098 -32.4051 -32.3803 -32.3367 -32.3158 -32.3106 -32.3065
   -32.2675 -32.2359 -32.2169 -32.2005 -32.1970 -32.1822 -32.1782 -32.1706
   -32.1393 -32.1295 -32.1278 -32.1140 -32.0920 -32.0815 -32.0564 -32.0546
   -32.0384 -32.0287 -32.0200 -32.0170 -32.0163 -32.0111 -32.0090 -31.9975
   -31.9862 -31.9823 -31.9773 -31.9700 -31.9655 -31.9395 -31.9245 -31.8414
   -31.8218 -31.7356 -31.4161 -31.3344 -31.3020 -31.2334 -31.1469 -31.0359
   -19.2310 -16.5599 -16.3678 -16.1726 -16.1445 -16.0295 -15.9240 -15.9119
   -15.8563 -15.8052 -15.8025 -15.7898 -15.7591 -15.7395 -15.7129 -15.6458
   -15.5725 -15.4712 -15.3950 -15.3879 -15.3708 -15.3429 -15.3213 -15.3028
   -15.2777 -15.2631 -15.2023 -15.1833 -15.1288 -15.0965 -14.7380 -13.5055
   -13.3946  -7.8800  -7.0829  -4.0482  -3.8364  -3.8053  -3.6183  -3.5959
    -3.4991  -3.4461  -3.4226  -3.4050  -3.3459  -3.3111  -3.2898  -3.2753
    -3.2599  -3.0705  -3.0429  -2.9172  -2.8403  -2.7548  -2.6832  -2.6624
    -2.6261  -2.6092  -2.5500  -2.5354  -2.5245  -2.5176  -2.4618  -2.4129
    -2.3753  -2.3533  -2.3427  -2.3001  -2.2689  -2.2569  -2.2153  -2.1969
    -2.1332  -2.1028  -2.0286  -1.8705  -1.7789  -1.7455  -1.7208  -1.6553
    -1.6387  -1.6304  -1.6121  -1.5966  -1.5396  -1.4917  -1.4362  -1.4124
    -1.3289  -1.3034  -1.2996  -1.2655  -1.2085  -1.1908  -1.1651  -1.1134
    -0.8167  -0.7701  -0.7145  -0.7117  -0.6706  -0.6641  -0.6572  -0.5588
    -0.5207  -0.4671  -0.4421  -0.4009  -0.3941  -0.3665  -0.2955  -0.2817
    -0.2370  -0.1982  -0.1951  -0.1282  -0.0601  -0.0189   0.0349   0.0892
     0.1882   0.2135   0.2717   0.4395   0.4582   0.5729   0.6608   0.6790
     0.9504   1.0459   1.1486   1.3437   1.4925   2.8143   3.1388   3.1414
     3.2661   3.3725   3.4340   3.5089   3.5432   3.5584   3.5673   3.6089

          k =-0.0760 0.0419 0.0000 ( 17914 PWs)   bands (ev):

   -56.0190 -55.9949 -55.9944 -55.9913 -55.9683 -55.8659 -55.8331 -55.8312
   -55.8256 -55.8080 -55.8069 -55.7829 -55.7482 -55.5790 -55.0044 -54.9804
   -32.4891 -32.4559 -32.3566 -32.3279 -32.3114 -32.3061 -32.2941 -32.2587
   -32.2502 -32.2395 -32.2248 -32.2056 -32.1868 -32.1818 -32.1767 -32.1731
   -32.1704 -32.1580 -32.1419 -32.1029 -32.0948 -32.0825 -32.0584 -32.0526
   -32.0442 -32.0396 -32.0342 -32.0311 -32.0246 -32.0198 -32.0181 -32.0146
   -32.0143 -32.0008 -31.9838 -31.9786 -31.9746 -31.9743 -31.9686 -31.8420
   -31.8253 -31.7739 -31.3622 -31.3298 -31.3067 -31.2209 -31.1597 -31.0931
   -19.2308 -16.4441 -16.2560 -16.0790 -16.0561 -15.9458 -15.8712 -15.8496
   -15.8375 -15.7894 -15.7823 -15.7632 -15.7595 -15.6878 -15.6795 -15.6354
   -15.5833 -15.5106 -15.4324 -15.4277 -15.4099 -15.3923 -15.3842 -15.3583
   -15.3211 -15.3164 -15.2896 -15.2399 -15.2193 -15.1218 -14.8383 -13.5114
   -13.4353  -7.8775  -7.0841  -3.9604  -3.7479  -3.6999  -3.5390  -3.3415
    -3.3096  -3.2788  -3.2230  -3.1678  -3.1390  -3.1001  -3.0837  -3.0746
    -3.0445  -3.0060  -2.9787  -2.9571  -2.9368  -2.8852  -2.8196  -2.8038
    -2.7519  -2.7239  -2.7072  -2.6791  -2.6432  -2.6164  -2.5931  -2.5515
    -2.5238  -2.5046  -2.4482  -2.3400  -2.2544  -2.1996  -2.1506  -2.1366
    -2.1005  -2.0298  -1.9863  -1.8967  -1.8659  -1.8137  -1.6924  -1.6671
    -1.6035  -1.5538  -1.5163  -1.4951  -1.4694  -1.4397  -1.3663  -1.3305
    -1.3110  -1.3058  -1.2654  -1.2493  -1.2129  -1.1983  -1.1160  -1.0838
    -1.0420  -1.0120  -0.9684  -0.9072  -0.8420  -0.7980  -0.7550  -0.7183
    -0.6821  -0.6565  -0.6376  -0.5728  -0.5465  -0.4840  -0.3907  -0.3508
    -0.3324  -0.2031  -0.1746  -0.1262  -0.0955   0.1416   0.1821   0.2215
     0.2633   0.3048   0.3346   0.4230   0.4378   0.4809   0.5398   0.5659
     0.7394   1.2269   1.2915   1.3847   1.5128   2.8153   3.2751   3.3218
     3.3405   3.4008   3.4334   3.4681   3.5329   3.6024   3.6573   3.7379

          k =-0.0760-0.0839 0.0000 ( 17948 PWs)   bands (ev):

   -56.0078 -56.0062 -55.9912 -55.9833 -55.9788 -55.8606 -55.8378 -55.8265
   -55.8209 -55.8189 -55.7955 -55.7944 -55.7475 -55.5798 -54.9926 -54.9924
   -32.3592 -32.3433 -32.3238 -32.3227 -32.3023 -32.3009 -32.2799 -32.2720
   -32.2524 -32.2198 -32.2048 -32.2003 -32.1958 -32.1744 -32.1469 -32.1418
   -32.1370 -32.1349 -32.1332 -32.1319 -32.1308 -32.1280 -32.1272 -32.1256
   -32.0787 -32.0597 -32.0508 -32.0392 -32.0272 -32.0248 -32.0236 -32.0217
   -32.0211 -32.0105 -32.0086 -31.9987 -31.9922 -31.9781 -31.9727 -31.8429
   -31.8270 -31.8225 -31.3182 -31.3180 -31.2298 -31.2296 -31.1904 -31.1903
   -19.2306 -16.2153 -16.0959 -16.0413 -15.9483 -15.9228 -15.9082 -15.8343
   -15.7818 -15.7286 -15.7191 -15.6949 -15.6807 -15.6730 -15.6144 -15.5860
   -15.5618 -15.5508 -15.5074 -15.4945 -15.4866 -15.4729 -15.4708 -15.4647
   -15.4210 -15.3889 -15.3527 -15.3487 -15.2094 -15.1007 -15.0104 -13.4971
   -13.4967  -7.8750  -7.0853  -3.9135  -3.6462  -3.4934  -3.3166  -3.2654
    -3.1669  -3.1520  -3.1238  -3.1034  -2.9945  -2.9347  -2.9221  -2.9004
    -2.8596  -2.8498  -2.8431  -2.8380  -2.8037  -2.8021  -2.7654  -2.7466
    -2.7149  -2.7015  -2.6956  -2.6890  -2.6649  -2.6454  -2.6054  -2.5909
    -2.5748  -2.5446  -2.5075  -2.3742  -2.3047  -2.2271  -2.2197  -2.1796
    -2.1670  -2.1472  -2.1042  -2.0865  -2.0591  -1.9780  -1.9024  -1.7481
    -1.7299  -1.7062  -1.6749  -1.6149  -1.5227  -1.4974  -1.4697  -1.4233
    -1.4060  -1.3478  -1.3275  -1.2965  -1.2410  -1.1786  -1.1412  -1.1137
    -1.0688  -1.0038  -0.9833  -0.9621  -0.9487  -0.8874  -0.7794  -0.7727
    -0.7670  -0.7173  -0.7020  -0.6723  -0.6516  -0.5595  -0.4801  -0.4200
    -0.3233  -0.1591  -0.0789   0.0186   0.0558   0.1005   0.1451   0.1871
     0.2838   0.2858   0.3586   0.3887   0.4062   0.4883   0.4993   0.5224
     0.6829   1.3754   1.3766   1.4504   1.4510   2.8145   3.3618   3.4080
     3.4421   3.4888   3.5915   3.6116   3.6402   3.6420   3.7210   3.7725

     the Fermi energy is     3.1073 ev

!    total energy              =   -2952.61575618 Ry
     estimated scf accuracy    <       0.00000004 Ry
     smearing contrib. (-TS)   =      -0.02582751 Ry
     internal energy E=F+TS    =   -2952.58992867 Ry

     The total energy is F=E-TS. E is the sum of the following terms:
     one-electron contribution =  -24509.50365569 Ry
     hartree contribution      =   12341.94282455 Ry
     xc contribution           =    -487.96225732 Ry
     ewald contribution        =    9702.93284689 Ry
     electric field correction =       0.00031289 Ry

     convergence has been achieved in  82 iterations

     Forces acting on atoms (cartesian axes, Ry/au):

     atom    1 type  1   force =    -0.00003765   -0.00030083    0.09592240
     atom    2 type  1   force =     0.00006074   -0.00048915   -0.17610242
     atom    3 type  2   force =     0.00010243   -0.00009660   -0.02432359
     atom    4 type  2   force =     0.00001014   -0.00163221    0.05390044
     atom    5 type  2   force =    -0.01177810   -0.00141662    0.00393430
     atom    6 type  2   force =     0.01320694   -0.00102563    0.00317510
     atom    7 type  1   force =     0.00034413    0.00068427   -0.00763455
     atom    8 type  1   force =     0.00026880    0.01496248    0.02334548
     atom    9 type  2   force =    -0.00004888    0.00018998    0.00010401
     atom   10 type  2   force =    -0.00219367    0.00049815   -0.01743479
     atom   11 type  2   force =     0.00047162   -0.00027023   -0.00021547
     atom   12 type  2   force =    -0.00084621   -0.00018086    0.00000414
     atom   13 type  1   force =     0.00046372    0.00045172    0.00005031
     atom   14 type  1   force =    -0.00018759    0.00003901    0.00088479
     atom   15 type  2   force =    -0.00014038   -0.00017621   -0.00078092
     atom   16 type  2   force =     0.00001180    0.00051348   -0.00027026
     atom   17 type  2   force =    -0.00050222    0.00027770    0.00007915
     atom   18 type  2   force =     0.00028757    0.00014549   -0.00027863
     atom   19 type  1   force =     0.00071272    0.00059694   -0.00037891
     atom   20 type  1   force =    -0.00053471    0.00038887    0.00010456
     atom   21 type  2   force =     0.00006667   -0.00000303    0.10333420
     atom   22 type  2   force =    -0.00028023   -0.00018850    0.00059101
     atom   23 type  2   force =    -0.07135915   -0.00010604   -0.02761884
     atom   24 type  2   force =     0.07127656    0.00034258   -0.02769039
     atom   25 type  1   force =     0.00023904   -0.00029116    0.09575658
     atom   26 type  1   force =     0.00011648   -0.00029298   -0.17603352
     atom   27 type  2   force =     0.00013879   -0.00029059   -0.02322287
     atom   28 type  2   force =     0.00000353   -0.00132539    0.05365760
     atom   29 type  2   force =    -0.01212395    0.00039745    0.00377817
     atom   30 type  2   force =     0.01351122    0.00101133    0.00302218
     atom   31 type  1   force =     0.00024687    0.00375504   -0.01142710
     atom   32 type  1   force =     0.00044645   -0.01662551    0.02315897
     atom   33 type  2   force =     0.00017881    0.00009604   -0.00033723
     atom   34 type  2   force =    -0.00191351   -0.00010459   -0.02070553
     atom   35 type  2   force =     0.00046303    0.00006009    0.00007207
     atom   36 type  2   force =    -0.00089309   -0.00000785    0.00032686
     atom   37 type  1   force =     0.00080697    0.00004629   -0.00029433
     atom   38 type  1   force =     0.00000548    0.00013399    0.00039364
     atom   39 type  2   force =    -0.00025533    0.00042155   -0.00057365
     atom   40 type  2   force =    -0.00039116   -0.00007550   -0.00021459
     atom   41 type  2   force =    -0.00058086    0.00032628    0.00019727
     atom   42 type  2   force =     0.00003949    0.00021240    0.00012945
     atom   43 type  1   force =     0.00036358   -0.00011897    0.00041522
     atom   44 type  1   force =    -0.00006222   -0.00017426    0.00043631
     atom   45 type  2   force =     0.00006910   -0.00000079    0.10330158
     atom   46 type  2   force =    -0.07134809   -0.00004908   -0.02760077
     atom   47 type  2   force =     0.07126826    0.00038209   -0.02767432
     atom   48 type  3   force =     0.00112001    0.00034062    0.00040127
     atom   49 type  4   force =     0.00061104   -0.00091737   -0.00086136
     atom   50 type  5   force =    -0.00078099    0.00017523    0.00053518
     atom   51 type  5   force =     0.00023447    0.00007115    0.00003562
     atom   52 type  2   force =    -0.00018535   -0.00015370    0.00137550
     atom   53 type  5   force =    -0.00082054   -0.00026662   -0.00023114
     atom   54 type  5   force =     0.00011742    0.00006005   -0.00051822

     Total force =     0.367804     Total SCF correction =     0.000595
  @ DRIVER MODE: Message from server: STATUS
  @ DRIVER MODE: Message from server: GETFORCE
  @ DRIVER MODE: Returning v,forces,stress,ensemble 

     Writing output data file ./calc.save/
  @ DRIVER MODE: Message from server: EXIT
  @ DRIVE MODE: Exiting  
 
     init_run     :     10.74s CPU     10.95s WALL (       1 calls)
     electrons    :   1252.54s CPU   1270.82s WALL (       1 calls)
     forces       :      2.33s CPU      2.41s WALL (       1 calls)

     Called by init_run:
     wfcinit      :      4.71s CPU      4.78s WALL (       1 calls)
     potinit      :      5.38s CPU      5.44s WALL (       1 calls)
     hinit0       :      0.29s CPU      0.30s WALL (       1 calls)

     Called by electrons:
     c_bands      :   1062.68s CPU   1070.26s WALL (      82 calls)
     sum_band     :    128.82s CPU    133.15s WALL (      82 calls)
     v_of_rho     :     45.35s CPU     47.54s WALL (      83 calls)
     newd         :     18.60s CPU     22.79s WALL (      83 calls)
     mix_rho      :      1.69s CPU      1.71s WALL (      82 calls)
     vdW_kernel   :      4.55s CPU      4.56s WALL (       1 calls)

     Called by c_bands:
     init_us_2    :      7.66s CPU      7.69s WALL (    1660 calls)
     cegterg      :   1040.62s CPU   1047.85s WALL (     838 calls)

     Called by *egterg:
     cdiaghg      :    158.92s CPU    159.59s WALL (    7518 calls)
     h_psi        :    567.69s CPU    572.86s WALL (    7528 calls)
     s_psi        :     72.98s CPU     73.21s WALL (    7528 calls)
     g_psi        :      2.07s CPU      2.08s WALL (    6680 calls)

     Called by h_psi:
     h_psi:calbec :     68.49s CPU     68.82s WALL (    7528 calls)
     vloc_psi     :    422.26s CPU    426.48s WALL (    7528 calls)
     add_vuspsi   :     73.23s CPU     73.61s WALL (    7528 calls)

     General routines
     calbec       :     90.78s CPU     91.18s WALL (    8388 calls)
     fft          :     23.59s CPU     23.74s WALL (    5229 calls)
     ffts         :      0.16s CPU      0.16s WALL (     165 calls)
     fftw         :    473.50s CPU    478.20s WALL ( 1120220 calls)
     interpolate  :      0.48s CPU      0.48s WALL (      83 calls)
     davcio       :      0.00s CPU      0.25s WALL (      10 calls)
 
     Parallel routines
 
     PWSCF        :  21m 5.88s CPU  21m26.09s WALL

 
   This run was terminated on:  21: 0:46  15Sep2021            

=------------------------------------------------------------------------------=
   JOB DONE.
=------------------------------------------------------------------------------=
