
     Program PWSCF v.6.7GPU starts on 19Oct2021 at  7:56:15 

     This program is part of the open-source Quantum ESPRESSO suite
     for quantum simulation of materials; please cite
         "P. Giannozzi et al., J. Phys.:Condens. Matter 21 395502 (2009);
         "P. Giannozzi et al., J. Phys.:Condens. Matter 29 465901 (2017);
         "P. Giannozzi et al., J. Chem. Phys. 152 154105 (2020);
          URL http://www.quantum-espresso.org", 
     in publications or presentations arising from this work. More details at
     http://www.quantum-espresso.org/quote

     Parallel version (MPI), running on     8 processors

     MPI processes distributed on     1 nodes
     R & G space division:  proc/nbgrp/npool/nimage =       8
     Reading input from /storage/home/hcoda1/3/ntian30/research/carbon/CxH_vib/Thiel_calc/ads_slab/NH2NH2HH_perslab/out_0042/pw.inp
Warning: card &CELL ignored
Warning: card   CELL_DYNAMICS='IPI', ignored
Warning: card / ignored

     Current dimensions of program PWSCF are:
     Max number of different atomic species (ntypx) = 10
     Max number of k-points (npk) =  40000
     Max angular momentum in pseudopotentials (lmaxx) =  3
     Presently no symmetry can be used with electric field

     Message from routine cell_base_init:
     DEPRECATED: use true lattice parameter, not A to a.u. conversion factor

     **************************************************************************
     Initializing libbeef V0.1.2 with the BEEF-vdW functional.
     Citation: Wellendorff et al., PRB 85, 235149 (2012).
     **************************************************************************


     IMPORTANT: XC functional enforced from input :
     Exchange-correlation= BEEF-VDW
                           (   1   4  43  14   2   0   0)
     Any further DFT definition will be discarded
     Please, verify this is what you really want


     Subspace diagonalization in iterative solution of the eigenvalue problem:
     one sub-group per band group will be used
     scalapack distributed-memory algorithm (size of sub-group:  2*  2 procs)

  @ DRIVER MODE: Connecting to 
 qe_1139763_3255137.sched-torque.pace.gatech.eduah3359iz_scratch
  using UNIX socket
  @ DRIVER MODE: Message from server: STATUS
  @ DRIVER MODE: Message from server: INIT
  @ DRIVER MODE: Receiving replica           0          -1
  @ DRIVER MODE: Receiving encoded integer          25
  @ DRIVER MODE:  SCF:  T  FORCE:  T  STRESS:  F  VC:  F  ENSEMBLE:  F
  @ DRIVER MODE:  SCF:  T  FORCE:  T  STRESS:  F  VC:  F  ENSEMBLE:  F
 
     Parallelization info
     --------------------
     sticks:   dense  smooth     PW     G-vecs:    dense   smooth      PW
     Min         614     246     69               106272    26887    3981
     Max         615     248     70               106275    26893    3990
     Sum        4915    1977    553               850181   215109   31863
 
     Using Slab Decomposition
 


     bravais-lattice index     =            0
     lattice parameter (alat)  =       1.8897  a.u.
     unit-cell volume          =    9988.4706 (a.u.)^3
     number of atoms/cell      =           61
     number of atomic types    =            4
     number of electrons       =       442.00
     number of Kohn-Sham states=          231
     kinetic-energy cutoff     =      29.3995  Ry
     charge density cutoff     =     293.9946  Ry
     scf convergence threshold =      7.3E-08
     mixing beta               =       0.0500
     number of iterations used =            8  plain     mixing
     Exchange-correlation= BEEF-VDW
                           (   1   4  43  14   2   0   0)

     celldm(1)=   1.889726  celldm(2)=   0.000000  celldm(3)=   0.000000
     celldm(4)=   0.000000  celldm(5)=   0.000000  celldm(6)=   0.000000

     crystal axes: (cart. coord. in units of alat)
               a(1) = (   6.579727   0.000000   0.000000 )  
               a(2) = (  -0.001163   8.942395   0.000000 )  
               a(3) = (   0.000000   0.000000  25.155947 )  

     reciprocal axes: (cart. coord. in units 2 pi/alat)
               b(1) = (  0.151982  0.000020  0.000000 )  
               b(2) = (  0.000000  0.111827  0.000000 )  
               b(3) = (  0.000000  0.000000  0.039752 )  


     PseudoPot. # 1 for O  read from file:
     /storage/coda1/p-amedford6/0/shared/rich_project_chbe-medford/medford-share/data/pseudos_module/espresso/nninc/pbe/van/O.UPF
     MD5 check sum: 78c19812648e8988a0fe644b0f25305e
     Pseudo is Ultrasoft, Zval =  6.0
     Generated by new atomic code, or converted to UPF format
     Using radial grid of  737 points,  4 beta functions with: 
                l(1) =   0
                l(2) =   0
                l(3) =   1
                l(4) =   1
     Q(r) pseudized with  8 coefficients,  rinner =    0.800   0.800   0.800


     PseudoPot. # 2 for Ti read from file:
     /storage/coda1/p-amedford6/0/shared/rich_project_chbe-medford/medford-share/data/pseudos_module/espresso/nninc/pbe/van/Ti.UPF
     MD5 check sum: 8e4df49b7f0d34bbd5052bf3f5ea0213
     Pseudo is Ultrasoft, Zval = 12.0
     Generated by new atomic code, or converted to UPF format
     Using radial grid of  851 points,  6 beta functions with: 
                l(1) =   0
                l(2) =   0
                l(3) =   1
                l(4) =   1
                l(5) =   2
                l(6) =   2
     Q(r) pseudized with  8 coefficients,  rinner =    1.000   1.000   1.000
                                                       1.000   1.000

     PseudoPot. # 3 for N  read from file:
     /storage/coda1/p-amedford6/0/shared/rich_project_chbe-medford/medford-share/data/pseudos_module/espresso/nninc/pbe/van/N.UPF
     MD5 check sum: 90d10febe142ad51ac9d5be1deb811c4
     Pseudo is Ultrasoft, Zval =  5.0
     Generated by new atomic code, or converted to UPF format
     Using radial grid of  729 points,  4 beta functions with: 
                l(1) =   0
                l(2) =   0
                l(3) =   1
                l(4) =   1
     Q(r) pseudized with  8 coefficients,  rinner =    0.800   0.800   0.800


     PseudoPot. # 4 for H  read from file:
     /storage/coda1/p-amedford6/0/shared/rich_project_chbe-medford/medford-share/data/pseudos_module/espresso/nninc/pbe/van/H.UPF
     MD5 check sum: b5ee9d7bfd3a09ee7748110bda690ff7
     Pseudo is Ultrasoft, Zval =  1.0
     Generated by new atomic code, or converted to UPF format
     Using radial grid of  615 points,  1 beta functions with: 
                l(1) =   0
     Q(r) pseudized with  8 coefficients,  rinner =    0.800

     atomic species   valence    mass     pseudopotential
        O1             6.00    15.99900     O ( 1.00)
        Ti1           12.00    47.86700     Ti( 1.00)
        N1             5.00    14.00700     N ( 1.00)
        H1             1.00     1.00800     H ( 1.00)

     No symmetry found



   Cartesian axes

     site n.     atom                  positions (alat units)
         1           O1  tau(   1) = (   0.0007354   0.0005023  10.5931620  )
         2           O1  tau(   2) = (   3.2456387   0.0208629  13.8623892  )
         3           O1  tau(   3) = (   6.5569189   0.0555649  17.3369326  )
         4           O1  tau(   4) = (   0.0006271   0.0005054   7.9858123  )
         5           O1  tau(   5) = (   3.2933513   8.9300833  11.1812556  )
         6           O1  tau(   6) = (   0.0337597   0.0712708  14.6279364  )
         7           O1  tau(   7) = (   1.9868534   1.4903216   9.2879459  )
         8           O1  tau(   8) = (   5.2215124   1.6184176  12.5791628  )
         9           O1  tau(   9) = (   1.9922958   1.5902288  16.0980526  )
        10           Ti1 tau(  10) = (   0.0007404   1.4906270   9.2895810  )
        11           Ti1 tau(  11) = (   3.2860490   1.3455809  12.4359399  )
        12           Ti1 tau(  12) = (   6.5618936   1.3602716  15.8812525  )
        13           O1  tau(  13) = (   4.5942328   1.4918067   9.2879030  )
        14           O1  tau(  14) = (   1.3307156   1.5887400  12.5381291  )
        15           O1  tau(  15) = (   4.5725103   1.6118788  16.0006659  )
        16           Ti1 tau(  16) = (   3.2902859   2.9801868   9.2893338  )
        17           Ti1 tau(  17) = (   0.0046584   2.8227806  12.4510757  )
        18           Ti1 tau(  18) = (   3.2555632   2.8898243  15.6661830  )
        19           O1  tau(  19) = (   0.0003479   2.9813005  10.5931620  )
        20           O1  tau(  20) = (   3.2279248   2.9553539  13.8813459  )
        21           O1  tau(  21) = (   0.0002396   2.9813036   7.9858123  )
        22           O1  tau(  22) = (   3.2889556   2.9859946  11.1941525  )
        23           O1  tau(  23) = (   0.0559812   2.9852445  14.6488683  )
        24           O1  tau(  24) = (   1.9864658   4.4711199   9.2879459  )
        25           O1  tau(  25) = (   5.2314886   4.5920767  12.6107679  )
        26           O1  tau(  26) = (   1.9969377   4.5324570  16.1535429  )
        27           Ti1 tau(  27) = (   0.0003529   4.4714252   9.2895810  )
        28           Ti1 tau(  28) = (   3.2845268   4.3564118  12.5295435  )
        29           Ti1 tau(  29) = (   6.5676402   4.3565080  15.8255799  )
        30           O1  tau(  30) = (   4.5938453   4.4726049   9.2879030  )
        31           O1  tau(  31) = (   1.3315080   4.5776727  12.5731030  )
        32           O1  tau(  32) = (   4.5871741   4.4544688  15.9274438  )
        33           Ti1 tau(  33) = (   3.2898983   5.9609850   9.2893338  )
        34           Ti1 tau(  34) = (   6.5783773   5.8108302  12.4536689  )
        35           Ti1 tau(  35) = (   3.3162440   5.8110762  16.0333210  )
        36           O1  tau(  36) = (  -0.0000397   5.9620987  10.5931620  )
        37           O1  tau(  37) = (   3.2636778   5.9869953  13.9790019  )
        38           O1  tau(  38) = (   6.4104969   6.0475349  17.2872242  )
        39           O1  tau(  39) = (  -0.0001480   5.9621018   7.9858123  )
        40           O1  tau(  40) = (   3.2905218   5.9516507  11.2202175  )
        41           O1  tau(  41) = (   0.0617018   5.9803669  14.6637187  )
        42           O1  tau(  42) = (   1.9860782   7.4519181   9.2879459  )
        43           O1  tau(  43) = (   5.2407037   7.5572870  12.6049163  )
        44           O1  tau(  44) = (   1.9881273   7.5959696  16.0809372  )
        45           Ti1 tau(  45) = (  -0.0000347   7.4522234   9.2895810  )
        46           Ti1 tau(  46) = (   3.2912638   7.2305267  12.6172466  )
        47           Ti1 tau(  47) = (   0.0232661   7.3094817  15.9177444  )
        48           O1  tau(  48) = (   4.5934577   7.4534031   9.2879030  )
        49           O1  tau(  49) = (   1.3287160   7.5404973  12.5734398  )
        50           O1  tau(  50) = (   4.6507959   7.6754627  15.9163669  )
        51           Ti1 tau(  51) = (   3.2895107   8.9417832   9.2893338  )
        52           Ti1 tau(  52) = (   0.0077981   8.7799231  12.4640552  )
        53           Ti1 tau(  53) = (   3.2910717   8.8534038  15.6608489  )
        54           N1  tau(  54) = (   3.7626148   6.0985185  18.0019073  )
        55           H1  tau(  55) = (   3.4663780   5.3841571  18.6619304  )
        56           H1  tau(  56) = (   3.5565419   6.9988739  18.4208443  )
        57           N1  tau(  57) = (   6.5319303   3.0529623  17.4095181  )
        58           H1  tau(  58) = (   5.7013393   3.0140474  17.9904383  )
        59           H1  tau(  59) = (   0.7603229   3.1006543  18.0203722  )
        60           H1  tau(  60) = (   5.4974376   6.0468821  17.7523635  )
        61           H1  tau(  61) = (   0.7324116   0.0679216  17.9402240  )

     number of k points=    10  Fermi-Dirac smearing, width (Ry)=  0.0073
                       cart. coord. in units 2pi/alat
        k(    1) = (   0.0000000   0.0000000   0.0000000), wk =   0.1250000
        k(    2) = (   0.0000000   0.0279567   0.0000000), wk =   0.2500000
        k(    3) = (   0.0000000  -0.0559134   0.0000000), wk =   0.1250000
        k(    4) = (   0.0379955   0.0000049   0.0000000), wk =   0.2500000
        k(    5) = (   0.0379955   0.0279617   0.0000000), wk =   0.2500000
        k(    6) = (   0.0379955  -0.0559085   0.0000000), wk =   0.2500000
        k(    7) = (   0.0379955  -0.0279518   0.0000000), wk =   0.2500000
        k(    8) = (  -0.0759910  -0.0000099   0.0000000), wk =   0.1250000
        k(    9) = (  -0.0759910   0.0279468   0.0000000), wk =   0.2500000
        k(   10) = (  -0.0759910  -0.0559233   0.0000000), wk =   0.1250000

     Dense  grid:   850181 G-vectors     FFT dimensions: (  72,  96, 270)

     Smooth grid:   215109 G-vectors     FFT dimensions: (  45,  60, 180)

     Estimated max dynamical RAM per process >     706.97 MB

     Estimated total dynamical RAM >       5.52 GB
     Cannot read rho : file not found

     Initial potential from superposition of free atoms

     starting charge  423.99908, renormalised to  442.00000

     negative rho (up, down):  3.745E-02 0.000E+00


     %%%%%%%%%%%%%%%%%%%%%%%%%%%%%%%%%%%%%%%%%%%%%%%%%%%%%%%%%%%%%%%%%%%%%%%%
     %                                                                      %
     % You are using vdW-DF, which was implemented by the Thonhauser group. %
     % Please cite the following two papers that made this development      %
     % possible and the two reviews that describe the various versions:     %
     %                                                                      %
     %   T. Thonhauser et al., PRL 115, 136402 (2015).                      %
     %   T. Thonhauser et al., PRB 76, 125112 (2007).                       %
     %   K. Berland et al., Rep. Prog. Phys. 78, 066501 (2015).             %
     %   D.C. Langreth et al., J. Phys.: Condens. Matter 21, 084203 (2009). %
     %                                                                      %
     %                                                                      %
     % If you are calculating the stress with vdW-DF, please also cite:     %
     %                                                                      %
     %   R. Sabatini et al., J. Phys.: Condens. Matter 24, 424209 (2012).   %
     %                                                                      %
     %%%%%%%%%%%%%%%%%%%%%%%%%%%%%%%%%%%%%%%%%%%%%%%%%%%%%%%%%%%%%%%%%%%%%%%%


 
     Adding external electric field

     Computed dipole along edir(3) : 
        Dipole               -5.9695 Ry au,        -15.1729 Debye
        Dipole field         -0.0075 Ry au, 
 
        Potential amp.        0.6962 Ry
        Total length         46.3494 bohr
 
     Starting wfcs are  334 atomic wfcs
  @ DRIVER MODE: Message from server: STATUS
  @ DRIVER MODE: Message from server: POSDATA
  @ DRIVER MODE: Reading and sharing cell 
  @ DRIVER MODE: Reading and sharing positions 
  @ DRIVER MODE: Received positions 

     total cpu time spent up to now is       19.0 secs

     Self-consistent Calculation

     iteration #  1     ecut=    29.40 Ry     beta= 0.05
     Davidson diagonalization with overlap
     c_bands:  1 eigenvalues not converged
     c_bands:  3 eigenvalues not converged
     c_bands:  5 eigenvalues not converged
     c_bands:  2 eigenvalues not converged
     c_bands:  4 eigenvalues not converged
     c_bands:  4 eigenvalues not converged
     c_bands:  3 eigenvalues not converged
     c_bands:  2 eigenvalues not converged
     c_bands:  4 eigenvalues not converged
     ethr =  1.00E-05,  avg # of iterations = 21.0

     negative rho (up, down):  3.694E-02 0.000E+00
 
     Adding external electric field

     Computed dipole along edir(3) : 
        Dipole                6.4309 Ry au,         16.3456 Debye
        Dipole field          0.0081 Ry au, 
 
        Potential amp.       -0.7500 Ry
        Total length         46.3494 bohr
 

     total cpu time spent up to now is      101.7 secs

     total energy              =   -3277.93199264 Ry
     estimated scf accuracy    <     239.69480103 Ry

     iteration #  2     ecut=    29.40 Ry     beta= 0.05
     Davidson diagonalization with overlap
     ethr =  1.00E-02,  avg # of iterations = 15.9

     negative rho (up, down):  3.528E-02 0.000E+00
 
     Adding external electric field

     Computed dipole along edir(3) : 
        Dipole               -1.5751 Ry au,         -4.0034 Debye
        Dipole field         -0.0020 Ry au, 
 
        Potential amp.        0.1837 Ry
        Total length         46.3494 bohr
 

     total cpu time spent up to now is      144.8 secs

     total energy              =   -3277.32014276 Ry
     estimated scf accuracy    <     895.36095107 Ry

     iteration #  3     ecut=    29.40 Ry     beta= 0.05
     Davidson diagonalization with overlap
     ethr =  1.00E-02,  avg # of iterations = 12.4

     negative rho (up, down):  3.496E-02 0.000E+00
 
     Adding external electric field

     Computed dipole along edir(3) : 
        Dipole               -1.6692 Ry au,         -4.2428 Debye
        Dipole field         -0.0021 Ry au, 
 
        Potential amp.        0.1947 Ry
        Total length         46.3494 bohr
 

     total cpu time spent up to now is      176.3 secs

     total energy              =   -3296.53941086 Ry
     estimated scf accuracy    <      11.89673118 Ry

     iteration #  4     ecut=    29.40 Ry     beta= 0.05
     Davidson diagonalization with overlap
     ethr =  2.69E-03,  avg # of iterations =  3.0

     negative rho (up, down):  3.491E-02 0.000E+00
 
     Adding external electric field

     Computed dipole along edir(3) : 
        Dipole               -1.5272 Ry au,         -3.8818 Debye
        Dipole field         -0.0019 Ry au, 
 
        Potential amp.        0.1781 Ry
        Total length         46.3494 bohr
 

     total cpu time spent up to now is      199.7 secs

     total energy              =   -3295.47670373 Ry
     estimated scf accuracy    <       9.40349340 Ry

     iteration #  5     ecut=    29.40 Ry     beta= 0.05
     Davidson diagonalization with overlap
     ethr =  2.13E-03,  avg # of iterations = 10.5

     negative rho (up, down):  3.456E-02 0.000E+00
 
     Adding external electric field

     Computed dipole along edir(3) : 
        Dipole               -0.9811 Ry au,         -2.4938 Debye
        Dipole field         -0.0012 Ry au, 
 
        Potential amp.        0.1144 Ry
        Total length         46.3494 bohr
 

     total cpu time spent up to now is      227.0 secs

     total energy              =   -3295.71850950 Ry
     estimated scf accuracy    <       5.69494294 Ry

     iteration #  6     ecut=    29.40 Ry     beta= 0.05
     Davidson diagonalization with overlap
     ethr =  1.29E-03,  avg # of iterations =  2.0

     negative rho (up, down):  3.517E-02 0.000E+00
 
     Adding external electric field

     Computed dipole along edir(3) : 
        Dipole                0.5705 Ry au,          1.4502 Debye
        Dipole field          0.0007 Ry au, 
 
        Potential amp.       -0.0665 Ry
        Total length         46.3494 bohr
 

     total cpu time spent up to now is      249.1 secs

     total energy              =   -3294.65142806 Ry
     estimated scf accuracy    <       3.63654485 Ry

     iteration #  7     ecut=    29.40 Ry     beta= 0.05
     Davidson diagonalization with overlap
     ethr =  8.23E-04,  avg # of iterations =  9.7

     negative rho (up, down):  3.456E-02 0.000E+00
 
     Adding external electric field

     Computed dipole along edir(3) : 
        Dipole                0.1855 Ry au,          0.4716 Debye
        Dipole field          0.0002 Ry au, 
 
        Potential amp.       -0.0216 Ry
        Total length         46.3494 bohr
 

     total cpu time spent up to now is      288.3 secs

     total energy              =   -3295.75976840 Ry
     estimated scf accuracy    <       1.57744069 Ry

     iteration #  8     ecut=    29.40 Ry     beta= 0.05
     Davidson diagonalization with overlap
     c_bands:  4 eigenvalues not converged
     c_bands:  1 eigenvalues not converged
     c_bands:  1 eigenvalues not converged
     ethr =  3.57E-04,  avg # of iterations = 11.4

     negative rho (up, down):  3.421E-02 0.000E+00
 
     Adding external electric field

     Computed dipole along edir(3) : 
        Dipole                0.1798 Ry au,          0.4570 Debye
        Dipole field          0.0002 Ry au, 
 
        Potential amp.       -0.0210 Ry
        Total length         46.3494 bohr
 

     total cpu time spent up to now is      316.2 secs

     total energy              =   -3295.80961925 Ry
     estimated scf accuracy    <       1.09296412 Ry

     iteration #  9     ecut=    29.40 Ry     beta= 0.05
     Davidson diagonalization with overlap
     ethr =  2.47E-04,  avg # of iterations =  2.1

     negative rho (up, down):  3.399E-02 0.000E+00
 
     Adding external electric field

     Computed dipole along edir(3) : 
        Dipole                0.2677 Ry au,          0.6804 Debye
        Dipole field          0.0003 Ry au, 
 
        Potential amp.       -0.0312 Ry
        Total length         46.3494 bohr
 

     total cpu time spent up to now is      338.2 secs

     total energy              =   -3295.73626304 Ry
     estimated scf accuracy    <       0.98364563 Ry

     iteration # 10     ecut=    29.40 Ry     beta= 0.05
     Davidson diagonalization with overlap
     ethr =  2.23E-04,  avg # of iterations =  3.3

     negative rho (up, down):  3.422E-02 0.000E+00
 
     Adding external electric field

     Computed dipole along edir(3) : 
        Dipole                0.7097 Ry au,          1.8040 Debye
        Dipole field          0.0009 Ry au, 
 
        Potential amp.       -0.0828 Ry
        Total length         46.3494 bohr
 

     total cpu time spent up to now is      361.2 secs

     total energy              =   -3295.66024399 Ry
     estimated scf accuracy    <       0.53003650 Ry

     iteration # 11     ecut=    29.40 Ry     beta= 0.05
     Davidson diagonalization with overlap
     c_bands:  1 eigenvalues not converged
     ethr =  1.20E-04,  avg # of iterations = 14.7

     negative rho (up, down):  3.563E-02 0.000E+00
 
     Adding external electric field

     Computed dipole along edir(3) : 
        Dipole                1.9003 Ry au,          4.8300 Debye
        Dipole field          0.0024 Ry au, 
 
        Potential amp.       -0.2216 Ry
        Total length         46.3494 bohr
 

     total cpu time spent up to now is      406.0 secs

     total energy              =   -3296.02349879 Ry
     estimated scf accuracy    <       1.29019103 Ry

     iteration # 12     ecut=    29.40 Ry     beta= 0.05
     Davidson diagonalization with overlap
     ethr =  1.20E-04,  avg # of iterations =  7.2

     negative rho (up, down):  3.639E-02 0.000E+00
 
     Adding external electric field

     Computed dipole along edir(3) : 
        Dipole                2.2706 Ry au,          5.7714 Debye
        Dipole field          0.0029 Ry au, 
 
        Potential amp.       -0.2648 Ry
        Total length         46.3494 bohr
 

     total cpu time spent up to now is      433.2 secs

     total energy              =   -3295.67901861 Ry
     estimated scf accuracy    <       1.43086527 Ry

     iteration # 13     ecut=    29.40 Ry     beta= 0.05
     Davidson diagonalization with overlap
     ethr =  1.20E-04,  avg # of iterations = 13.0

     negative rho (up, down):  3.646E-02 0.000E+00
 
     Adding external electric field

     Computed dipole along edir(3) : 
        Dipole                2.6269 Ry au,          6.6768 Debye
        Dipole field          0.0033 Ry au, 
 
        Potential amp.       -0.3064 Ry
        Total length         46.3494 bohr
 

     total cpu time spent up to now is      473.1 secs

     total energy              =   -3295.92092930 Ry
     estimated scf accuracy    <       1.37477742 Ry

     iteration # 14     ecut=    29.40 Ry     beta= 0.05
     Davidson diagonalization with overlap
     ethr =  1.20E-04,  avg # of iterations =  5.4

     negative rho (up, down):  3.608E-02 0.000E+00
 
     Adding external electric field

     Computed dipole along edir(3) : 
        Dipole                2.5826 Ry au,          6.5644 Debye
        Dipole field          0.0032 Ry au, 
 
        Potential amp.       -0.3012 Ry
        Total length         46.3494 bohr
 

     total cpu time spent up to now is      497.4 secs

     total energy              =   -3295.92834957 Ry
     estimated scf accuracy    <       1.96200752 Ry

     iteration # 15     ecut=    29.40 Ry     beta= 0.05
     Davidson diagonalization with overlap
     ethr =  1.20E-04,  avg # of iterations =  1.0

     negative rho (up, down):  3.562E-02 0.000E+00
 
     Adding external electric field

     Computed dipole along edir(3) : 
        Dipole                2.5791 Ry au,          6.5553 Debye
        Dipole field          0.0032 Ry au, 
 
        Potential amp.       -0.3008 Ry
        Total length         46.3494 bohr
 

     total cpu time spent up to now is      518.2 secs

     total energy              =   -3295.92888233 Ry
     estimated scf accuracy    <       1.89438577 Ry

     iteration # 16     ecut=    29.40 Ry     beta= 0.05
     Davidson diagonalization with overlap
     ethr =  1.20E-04,  avg # of iterations =  1.0

     negative rho (up, down):  3.539E-02 0.000E+00
 
     Adding external electric field

     Computed dipole along edir(3) : 
        Dipole                2.5737 Ry au,          6.5418 Debye
        Dipole field          0.0032 Ry au, 
 
        Potential amp.       -0.3002 Ry
        Total length         46.3494 bohr
 

     total cpu time spent up to now is      538.9 secs

     total energy              =   -3295.93447528 Ry
     estimated scf accuracy    <       2.37458358 Ry

     iteration # 17     ecut=    29.40 Ry     beta= 0.05
     Davidson diagonalization with overlap
     ethr =  1.20E-04,  avg # of iterations =  1.0

     negative rho (up, down):  3.524E-02 0.000E+00
 
     Adding external electric field

     Computed dipole along edir(3) : 
        Dipole                2.5872 Ry au,          6.5759 Debye
        Dipole field          0.0033 Ry au, 
 
        Potential amp.       -0.3017 Ry
        Total length         46.3494 bohr
 

     total cpu time spent up to now is      559.7 secs

     total energy              =   -3295.95192269 Ry
     estimated scf accuracy    <       2.20538118 Ry

     iteration # 18     ecut=    29.40 Ry     beta= 0.05
     Davidson diagonalization with overlap
     ethr =  1.20E-04,  avg # of iterations =  1.0

     negative rho (up, down):  3.589E-02 0.000E+00
 
     Adding external electric field

     Computed dipole along edir(3) : 
        Dipole                2.4013 Ry au,          6.1035 Debye
        Dipole field          0.0030 Ry au, 
 
        Potential amp.       -0.2800 Ry
        Total length         46.3494 bohr
 

     total cpu time spent up to now is      580.6 secs

     total energy              =   -3295.88707223 Ry
     estimated scf accuracy    <       2.58064013 Ry

     iteration # 19     ecut=    29.40 Ry     beta= 0.05
     Davidson diagonalization with overlap
     ethr =  1.20E-04,  avg # of iterations =  1.8

     negative rho (up, down):  3.632E-02 0.000E+00
 
     Adding external electric field

     Computed dipole along edir(3) : 
        Dipole                1.5658 Ry au,          3.9799 Debye
        Dipole field          0.0020 Ry au, 
 
        Potential amp.       -0.1826 Ry
        Total length         46.3494 bohr
 

     total cpu time spent up to now is      602.7 secs

     total energy              =   -3295.68091475 Ry
     estimated scf accuracy    <       2.75989695 Ry

     iteration # 20     ecut=    29.40 Ry     beta= 0.05
     Davidson diagonalization with overlap
     c_bands:  1 eigenvalues not converged
     c_bands:  1 eigenvalues not converged
     c_bands:  1 eigenvalues not converged
     ethr =  1.20E-04,  avg # of iterations = 19.1

     negative rho (up, down):  3.581E-02 0.000E+00
 
     Adding external electric field

     Computed dipole along edir(3) : 
        Dipole                1.7568 Ry au,          4.4654 Debye
        Dipole field          0.0022 Ry au, 
 
        Potential amp.       -0.2049 Ry
        Total length         46.3494 bohr
 

     total cpu time spent up to now is      646.3 secs

     total energy              =   -3295.79946229 Ry
     estimated scf accuracy    <       0.66557233 Ry

     iteration # 21     ecut=    29.40 Ry     beta= 0.05
     Davidson diagonalization with overlap
     ethr =  1.20E-04,  avg # of iterations =  1.7

     negative rho (up, down):  3.584E-02 0.000E+00
 
     Adding external electric field

     Computed dipole along edir(3) : 
        Dipole                1.8068 Ry au,          4.5925 Debye
        Dipole field          0.0023 Ry au, 
 
        Potential amp.       -0.2107 Ry
        Total length         46.3494 bohr
 

     total cpu time spent up to now is      667.7 secs

     total energy              =   -3295.82203633 Ry
     estimated scf accuracy    <       0.20740656 Ry

     iteration # 22     ecut=    29.40 Ry     beta= 0.05
     Davidson diagonalization with overlap
     ethr =  4.69E-05,  avg # of iterations =  8.1

     negative rho (up, down):  3.647E-02 0.000E+00
 
     Adding external electric field

     Computed dipole along edir(3) : 
        Dipole                2.2662 Ry au,          5.7601 Debye
        Dipole field          0.0029 Ry au, 
 
        Potential amp.       -0.2643 Ry
        Total length         46.3494 bohr
 

     total cpu time spent up to now is      693.3 secs

     total energy              =   -3295.82724061 Ry
     estimated scf accuracy    <       0.21784595 Ry

     iteration # 23     ecut=    29.40 Ry     beta= 0.05
     Davidson diagonalization with overlap
     c_bands:  1 eigenvalues not converged
     c_bands:  3 eigenvalues not converged
     c_bands:  4 eigenvalues not converged
     c_bands:  2 eigenvalues not converged
     c_bands:  2 eigenvalues not converged
     c_bands:  5 eigenvalues not converged
     c_bands:  4 eigenvalues not converged
     ethr =  4.69E-05,  avg # of iterations = 18.7

     negative rho (up, down):  3.660E-02 0.000E+00
 
     Adding external electric field

     Computed dipole along edir(3) : 
        Dipole                2.3566 Ry au,          5.9898 Debye
        Dipole field          0.0030 Ry au, 
 
        Potential amp.       -0.2748 Ry
        Total length         46.3494 bohr
 

     total cpu time spent up to now is      728.1 secs

     total energy              =   -3295.86136548 Ry
     estimated scf accuracy    <       0.94774158 Ry

     iteration # 24     ecut=    29.40 Ry     beta= 0.05
     Davidson diagonalization with overlap
     c_bands:  1 eigenvalues not converged
     ethr =  4.69E-05,  avg # of iterations =  6.9

     negative rho (up, down):  3.641E-02 0.000E+00
 
     Adding external electric field

     Computed dipole along edir(3) : 
        Dipole                2.3956 Ry au,          6.0890 Debye
        Dipole field          0.0030 Ry au, 
 
        Potential amp.       -0.2794 Ry
        Total length         46.3494 bohr
 

     total cpu time spent up to now is      752.2 secs

     total energy              =   -3295.87286056 Ry
     estimated scf accuracy    <       1.20372643 Ry

     iteration # 25     ecut=    29.40 Ry     beta= 0.05
     Davidson diagonalization with overlap
     c_bands:  2 eigenvalues not converged
     ethr =  4.69E-05,  avg # of iterations =  4.0

     negative rho (up, down):  3.658E-02 0.000E+00
 
     Adding external electric field

     Computed dipole along edir(3) : 
        Dipole                2.2597 Ry au,          5.7435 Debye
        Dipole field          0.0028 Ry au, 
 
        Potential amp.       -0.2635 Ry
        Total length         46.3494 bohr
 

     total cpu time spent up to now is      775.1 secs

     total energy              =   -3295.84506910 Ry
     estimated scf accuracy    <       2.00759645 Ry

     iteration # 26     ecut=    29.40 Ry     beta= 0.05
     Davidson diagonalization with overlap
     ethr =  4.69E-05,  avg # of iterations =  3.1

     negative rho (up, down):  3.610E-02 0.000E+00
 
     Adding external electric field

     Computed dipole along edir(3) : 
        Dipole                1.9410 Ry au,          4.9337 Debye
        Dipole field          0.0024 Ry au, 
 
        Potential amp.       -0.2264 Ry
        Total length         46.3494 bohr
 

     total cpu time spent up to now is      797.3 secs

     total energy              =   -3295.81498412 Ry
     estimated scf accuracy    <       0.76932491 Ry

     iteration # 27     ecut=    29.40 Ry     beta= 0.05
     Davidson diagonalization with overlap
     ethr =  4.69E-05,  avg # of iterations =  9.4

     negative rho (up, down):  3.652E-02 0.000E+00
 
     Adding external electric field

     Computed dipole along edir(3) : 
        Dipole                1.8748 Ry au,          4.7652 Debye
        Dipole field          0.0024 Ry au, 
 
        Potential amp.       -0.2186 Ry
        Total length         46.3494 bohr
 

     total cpu time spent up to now is      823.6 secs

     total energy              =   -3295.82587414 Ry
     estimated scf accuracy    <       0.33367617 Ry

     iteration # 28     ecut=    29.40 Ry     beta= 0.05
     Davidson diagonalization with overlap
     ethr =  4.69E-05,  avg # of iterations =  6.0

     negative rho (up, down):  3.701E-02 0.000E+00
 
     Adding external electric field

     Computed dipole along edir(3) : 
        Dipole                1.8241 Ry au,          4.6365 Debye
        Dipole field          0.0023 Ry au, 
 
        Potential amp.       -0.2127 Ry
        Total length         46.3494 bohr
 

     total cpu time spent up to now is      847.9 secs

     total energy              =   -3295.82267567 Ry
     estimated scf accuracy    <       0.26340454 Ry

     iteration # 29     ecut=    29.40 Ry     beta= 0.05
     Davidson diagonalization with overlap
     ethr =  4.69E-05,  avg # of iterations =  2.5

     negative rho (up, down):  3.682E-02 0.000E+00
 
     Adding external electric field

     Computed dipole along edir(3) : 
        Dipole                1.8705 Ry au,          4.7543 Debye
        Dipole field          0.0024 Ry au, 
 
        Potential amp.       -0.2181 Ry
        Total length         46.3494 bohr
 

     total cpu time spent up to now is      870.7 secs

     total energy              =   -3295.82887430 Ry
     estimated scf accuracy    <       0.17722454 Ry

     iteration # 30     ecut=    29.40 Ry     beta= 0.05
     Davidson diagonalization with overlap
     ethr =  4.01E-05,  avg # of iterations =  1.0

     negative rho (up, down):  3.675E-02 0.000E+00
 
     Adding external electric field

     Computed dipole along edir(3) : 
        Dipole                1.7242 Ry au,          4.3824 Debye
        Dipole field          0.0022 Ry au, 
 
        Potential amp.       -0.2011 Ry
        Total length         46.3494 bohr
 

     total cpu time spent up to now is      891.4 secs

     total energy              =   -3295.81910022 Ry
     estimated scf accuracy    <       0.20713427 Ry

     iteration # 31     ecut=    29.40 Ry     beta= 0.05
     Davidson diagonalization with overlap
     c_bands:  1 eigenvalues not converged
     ethr =  4.01E-05,  avg # of iterations = 12.1

     negative rho (up, down):  3.646E-02 0.000E+00
 
     Adding external electric field

     Computed dipole along edir(3) : 
        Dipole                1.8044 Ry au,          4.5864 Debye
        Dipole field          0.0023 Ry au, 
 
        Potential amp.       -0.2104 Ry
        Total length         46.3494 bohr
 

     total cpu time spent up to now is      919.8 secs

     total energy              =   -3295.82314984 Ry
     estimated scf accuracy    <       0.11150959 Ry

     iteration # 32     ecut=    29.40 Ry     beta= 0.05
     Davidson diagonalization with overlap
     ethr =  2.52E-05,  avg # of iterations =  1.8

     negative rho (up, down):  3.684E-02 0.000E+00
 
     Adding external electric field

     Computed dipole along edir(3) : 
        Dipole                1.8511 Ry au,          4.7051 Debye
        Dipole field          0.0023 Ry au, 
 
        Potential amp.       -0.2159 Ry
        Total length         46.3494 bohr
 

     total cpu time spent up to now is      941.9 secs

     total energy              =   -3295.82588789 Ry
     estimated scf accuracy    <       0.11953928 Ry

     iteration # 33     ecut=    29.40 Ry     beta= 0.05
     Davidson diagonalization with overlap
     ethr =  2.52E-05,  avg # of iterations =  2.2

     negative rho (up, down):  3.628E-02 0.000E+00
 
     Adding external electric field

     Computed dipole along edir(3) : 
        Dipole                1.6750 Ry au,          4.2574 Debye
        Dipole field          0.0021 Ry au, 
 
        Potential amp.       -0.1953 Ry
        Total length         46.3494 bohr
 

     total cpu time spent up to now is      963.5 secs

     total energy              =   -3295.81669020 Ry
     estimated scf accuracy    <       0.13260620 Ry

     iteration # 34     ecut=    29.40 Ry     beta= 0.05
     Davidson diagonalization with overlap
     c_bands:  2 eigenvalues not converged
     ethr =  2.52E-05,  avg # of iterations =  8.0

     negative rho (up, down):  3.526E-02 0.000E+00
 
     Adding external electric field

     Computed dipole along edir(3) : 
        Dipole                1.3543 Ry au,          3.4423 Debye
        Dipole field          0.0017 Ry au, 
 
        Potential amp.       -0.1579 Ry
        Total length         46.3494 bohr
 

     total cpu time spent up to now is      989.5 secs

     total energy              =   -3295.80616837 Ry
     estimated scf accuracy    <       0.09446150 Ry

     iteration # 35     ecut=    29.40 Ry     beta= 0.05
     Davidson diagonalization with overlap
     c_bands:  4 eigenvalues not converged
     c_bands:  1 eigenvalues not converged
     c_bands:  1 eigenvalues not converged
     c_bands:  1 eigenvalues not converged
     c_bands:  3 eigenvalues not converged
     c_bands:  2 eigenvalues not converged
     ethr =  2.14E-05,  avg # of iterations = 18.2

     negative rho (up, down):  3.523E-02 0.000E+00
 
     Adding external electric field

     Computed dipole along edir(3) : 
        Dipole                1.3859 Ry au,          3.5225 Debye
        Dipole field          0.0017 Ry au, 
 
        Potential amp.       -0.1616 Ry
        Total length         46.3494 bohr
 

     total cpu time spent up to now is     1025.3 secs

     total energy              =   -3295.81061582 Ry
     estimated scf accuracy    <       0.14642514 Ry

     iteration # 36     ecut=    29.40 Ry     beta= 0.05
     Davidson diagonalization with overlap
     ethr =  2.14E-05,  avg # of iterations =  6.6

     negative rho (up, down):  3.560E-02 0.000E+00
 
     Adding external electric field

     Computed dipole along edir(3) : 
        Dipole                1.4919 Ry au,          3.7920 Debye
        Dipole field          0.0019 Ry au, 
 
        Potential amp.       -0.1740 Ry
        Total length         46.3494 bohr
 

     total cpu time spent up to now is     1049.7 secs

     total energy              =   -3295.80295469 Ry
     estimated scf accuracy    <       0.07519523 Ry

     iteration # 37     ecut=    29.40 Ry     beta= 0.05
     Davidson diagonalization with overlap
     c_bands:  1 eigenvalues not converged
     c_bands:  1 eigenvalues not converged
     ethr =  1.70E-05,  avg # of iterations = 14.0

     negative rho (up, down):  3.579E-02 0.000E+00
 
     Adding external electric field

     Computed dipole along edir(3) : 
        Dipole                1.4773 Ry au,          3.7548 Debye
        Dipole field          0.0019 Ry au, 
 
        Potential amp.       -0.1723 Ry
        Total length         46.3494 bohr
 

     total cpu time spent up to now is     1080.8 secs

     total energy              =   -3295.80607342 Ry
     estimated scf accuracy    <       0.03140225 Ry

     iteration # 38     ecut=    29.40 Ry     beta= 0.05
     Davidson diagonalization with overlap
     c_bands:  2 eigenvalues not converged
     ethr =  7.10E-06,  avg # of iterations = 13.6

     negative rho (up, down):  3.588E-02 0.000E+00
 
     Adding external electric field

     Computed dipole along edir(3) : 
        Dipole                1.5417 Ry au,          3.9187 Debye
        Dipole field          0.0019 Ry au, 
 
        Potential amp.       -0.1798 Ry
        Total length         46.3494 bohr
 

     total cpu time spent up to now is     1114.8 secs

     total energy              =   -3295.80536225 Ry
     estimated scf accuracy    <       0.02752897 Ry

     iteration # 39     ecut=    29.40 Ry     beta= 0.05
     Davidson diagonalization with overlap
     ethr =  6.23E-06,  avg # of iterations =  7.0

     negative rho (up, down):  3.601E-02 0.000E+00
 
     Adding external electric field

     Computed dipole along edir(3) : 
        Dipole                1.5434 Ry au,          3.9230 Debye
        Dipole field          0.0019 Ry au, 
 
        Potential amp.       -0.1800 Ry
        Total length         46.3494 bohr
 

     total cpu time spent up to now is     1140.1 secs

     total energy              =   -3295.80652718 Ry
     estimated scf accuracy    <       0.00624874 Ry

     iteration # 40     ecut=    29.40 Ry     beta= 0.05
     Davidson diagonalization with overlap
     c_bands:  1 eigenvalues not converged
     ethr =  1.41E-06,  avg # of iterations = 14.8

     negative rho (up, down):  3.593E-02 0.000E+00
 
     Adding external electric field

     Computed dipole along edir(3) : 
        Dipole                1.5315 Ry au,          3.8927 Debye
        Dipole field          0.0019 Ry au, 
 
        Potential amp.       -0.1786 Ry
        Total length         46.3494 bohr
 

     total cpu time spent up to now is     1180.0 secs

     total energy              =   -3295.80716973 Ry
     estimated scf accuracy    <       0.00404012 Ry

     iteration # 41     ecut=    29.40 Ry     beta= 0.05
     Davidson diagonalization with overlap
     ethr =  9.14E-07,  avg # of iterations =  9.0

     negative rho (up, down):  3.582E-02 0.000E+00
 
     Adding external electric field

     Computed dipole along edir(3) : 
        Dipole                1.5099 Ry au,          3.8378 Debye
        Dipole field          0.0019 Ry au, 
 
        Potential amp.       -0.1761 Ry
        Total length         46.3494 bohr
 

     total cpu time spent up to now is     1209.2 secs

     total energy              =   -3295.80713513 Ry
     estimated scf accuracy    <       0.00250149 Ry

     iteration # 42     ecut=    29.40 Ry     beta= 0.05
     Davidson diagonalization with overlap
     ethr =  5.66E-07,  avg # of iterations = 10.5

     negative rho (up, down):  3.592E-02 0.000E+00
 
     Adding external electric field

     Computed dipole along edir(3) : 
        Dipole                1.5015 Ry au,          3.8163 Debye
        Dipole field          0.0019 Ry au, 
 
        Potential amp.       -0.1751 Ry
        Total length         46.3494 bohr
 

     total cpu time spent up to now is     1238.3 secs

     total energy              =   -3295.80733229 Ry
     estimated scf accuracy    <       0.00167440 Ry

     iteration # 43     ecut=    29.40 Ry     beta= 0.05
     Davidson diagonalization with overlap
     ethr =  3.79E-07,  avg # of iterations =  5.6

     negative rho (up, down):  3.597E-02 0.000E+00
 
     Adding external electric field

     Computed dipole along edir(3) : 
        Dipole                1.5056 Ry au,          3.8269 Debye
        Dipole field          0.0019 Ry au, 
 
        Potential amp.       -0.1756 Ry
        Total length         46.3494 bohr
 

     total cpu time spent up to now is     1263.3 secs

     total energy              =   -3295.80734933 Ry
     estimated scf accuracy    <       0.00099053 Ry

     iteration # 44     ecut=    29.40 Ry     beta= 0.05
     Davidson diagonalization with overlap
     c_bands:  1 eigenvalues not converged
     ethr =  2.24E-07,  avg # of iterations = 11.6

     negative rho (up, down):  3.590E-02 0.000E+00
 
     Adding external electric field

     Computed dipole along edir(3) : 
        Dipole                1.5065 Ry au,          3.8292 Debye
        Dipole field          0.0019 Ry au, 
 
        Potential amp.       -0.1757 Ry
        Total length         46.3494 bohr
 

     total cpu time spent up to now is     1296.4 secs

     total energy              =   -3295.80737481 Ry
     estimated scf accuracy    <       0.00082384 Ry

     iteration # 45     ecut=    29.40 Ry     beta= 0.05
     Davidson diagonalization with overlap
     ethr =  1.86E-07,  avg # of iterations =  4.3

     negative rho (up, down):  3.589E-02 0.000E+00
 
     Adding external electric field

     Computed dipole along edir(3) : 
        Dipole                1.5022 Ry au,          3.8183 Debye
        Dipole field          0.0019 Ry au, 
 
        Potential amp.       -0.1752 Ry
        Total length         46.3494 bohr
 

     total cpu time spent up to now is     1320.1 secs

     total energy              =   -3295.80734062 Ry
     estimated scf accuracy    <       0.00061037 Ry

     iteration # 46     ecut=    29.40 Ry     beta= 0.05
     Davidson diagonalization with overlap
     ethr =  1.38E-07,  avg # of iterations =  9.0

     negative rho (up, down):  3.591E-02 0.000E+00
 
     Adding external electric field

     Computed dipole along edir(3) : 
        Dipole                1.5015 Ry au,          3.8165 Debye
        Dipole field          0.0019 Ry au, 
 
        Potential amp.       -0.1751 Ry
        Total length         46.3494 bohr
 

     total cpu time spent up to now is     1348.4 secs

     total energy              =   -3295.80740815 Ry
     estimated scf accuracy    <       0.00029446 Ry

     iteration # 47     ecut=    29.40 Ry     beta= 0.05
     Davidson diagonalization with overlap
     ethr =  6.66E-08,  avg # of iterations =  6.1

     negative rho (up, down):  3.589E-02 0.000E+00
 
     Adding external electric field

     Computed dipole along edir(3) : 
        Dipole                1.5077 Ry au,          3.8321 Debye
        Dipole field          0.0019 Ry au, 
 
        Potential amp.       -0.1758 Ry
        Total length         46.3494 bohr
 

     total cpu time spent up to now is     1373.7 secs

     total energy              =   -3295.80737152 Ry
     estimated scf accuracy    <       0.00021245 Ry

     iteration # 48     ecut=    29.40 Ry     beta= 0.05
     Davidson diagonalization with overlap
     ethr =  4.81E-08,  avg # of iterations = 11.7

     negative rho (up, down):  3.588E-02 0.000E+00
 
     Adding external electric field

     Computed dipole along edir(3) : 
        Dipole                1.5076 Ry au,          3.8320 Debye
        Dipole field          0.0019 Ry au, 
 
        Potential amp.       -0.1758 Ry
        Total length         46.3494 bohr
 

     total cpu time spent up to now is     1411.3 secs

     total energy              =   -3295.80740899 Ry
     estimated scf accuracy    <       0.00027433 Ry

     iteration # 49     ecut=    29.40 Ry     beta= 0.05
     Davidson diagonalization with overlap
     ethr =  4.81E-08,  avg # of iterations =  8.0

     negative rho (up, down):  3.589E-02 0.000E+00
 
     Adding external electric field

     Computed dipole along edir(3) : 
        Dipole                1.5084 Ry au,          3.8340 Debye
        Dipole field          0.0019 Ry au, 
 
        Potential amp.       -0.1759 Ry
        Total length         46.3494 bohr
 

     total cpu time spent up to now is     1437.8 secs

     total energy              =   -3295.80742731 Ry
     estimated scf accuracy    <       0.00008216 Ry

     iteration # 50     ecut=    29.40 Ry     beta= 0.05
     Davidson diagonalization with overlap
     ethr =  1.86E-08,  avg # of iterations =  9.4

     negative rho (up, down):  3.590E-02 0.000E+00
 
     Adding external electric field

     Computed dipole along edir(3) : 
        Dipole                1.5087 Ry au,          3.8346 Debye
        Dipole field          0.0019 Ry au, 
 
        Potential amp.       -0.1759 Ry
        Total length         46.3494 bohr
 

     total cpu time spent up to now is     1474.0 secs

     total energy              =   -3295.80746081 Ry
     estimated scf accuracy    <       0.00004220 Ry

     iteration # 51     ecut=    29.40 Ry     beta= 0.05
     Davidson diagonalization with overlap
     ethr =  9.55E-09,  avg # of iterations =  3.2

     negative rho (up, down):  3.590E-02 0.000E+00
 
     Adding external electric field

     Computed dipole along edir(3) : 
        Dipole                1.5106 Ry au,          3.8397 Debye
        Dipole field          0.0019 Ry au, 
 
        Potential amp.       -0.1762 Ry
        Total length         46.3494 bohr
 

     total cpu time spent up to now is     1497.6 secs

     total energy              =   -3295.80746850 Ry
     estimated scf accuracy    <       0.00003712 Ry

     iteration # 52     ecut=    29.40 Ry     beta= 0.05
     Davidson diagonalization with overlap
     ethr =  8.40E-09,  avg # of iterations = 11.2

     negative rho (up, down):  3.590E-02 0.000E+00
 
     Adding external electric field

     Computed dipole along edir(3) : 
        Dipole                1.5110 Ry au,          3.8407 Debye
        Dipole field          0.0019 Ry au, 
 
        Potential amp.       -0.1762 Ry
        Total length         46.3494 bohr
 

     total cpu time spent up to now is     1526.8 secs

     total energy              =   -3295.80748095 Ry
     estimated scf accuracy    <       0.00001820 Ry

     iteration # 53     ecut=    29.40 Ry     beta= 0.05
     Davidson diagonalization with overlap
     ethr =  4.12E-09,  avg # of iterations =  5.2

     negative rho (up, down):  3.591E-02 0.000E+00
 
     Adding external electric field

     Computed dipole along edir(3) : 
        Dipole                1.5111 Ry au,          3.8407 Debye
        Dipole field          0.0019 Ry au, 
 
        Potential amp.       -0.1762 Ry
        Total length         46.3494 bohr
 

     total cpu time spent up to now is     1551.4 secs

     total energy              =   -3295.80749140 Ry
     estimated scf accuracy    <       0.00001286 Ry

     iteration # 54     ecut=    29.40 Ry     beta= 0.05
     Davidson diagonalization with overlap
     ethr =  2.91E-09,  avg # of iterations =  9.2

     negative rho (up, down):  3.592E-02 0.000E+00
 
     Adding external electric field

     Computed dipole along edir(3) : 
        Dipole                1.5123 Ry au,          3.8438 Debye
        Dipole field          0.0019 Ry au, 
 
        Potential amp.       -0.1764 Ry
        Total length         46.3494 bohr
 

     total cpu time spent up to now is     1577.8 secs

     total energy              =   -3295.80750078 Ry
     estimated scf accuracy    <       0.00000833 Ry

     iteration # 55     ecut=    29.40 Ry     beta= 0.05
     Davidson diagonalization with overlap
     c_bands:  1 eigenvalues not converged
     ethr =  1.88E-09,  avg # of iterations = 12.0

     negative rho (up, down):  3.593E-02 0.000E+00
 
     Adding external electric field

     Computed dipole along edir(3) : 
        Dipole                1.5131 Ry au,          3.8460 Debye
        Dipole field          0.0019 Ry au, 
 
        Potential amp.       -0.1765 Ry
        Total length         46.3494 bohr
 

     total cpu time spent up to now is     1611.3 secs

     total energy              =   -3295.80750841 Ry
     estimated scf accuracy    <       0.00000445 Ry

     iteration # 56     ecut=    29.40 Ry     beta= 0.05
     Davidson diagonalization with overlap
     ethr =  1.01E-09,  avg # of iterations =  9.8

     negative rho (up, down):  3.593E-02 0.000E+00
 
     Adding external electric field

     Computed dipole along edir(3) : 
        Dipole                1.5140 Ry au,          3.8483 Debye
        Dipole field          0.0019 Ry au, 
 
        Potential amp.       -0.1766 Ry
        Total length         46.3494 bohr
 

     total cpu time spent up to now is     1637.8 secs

     total energy              =   -3295.80751384 Ry
     estimated scf accuracy    <       0.00000264 Ry

     iteration # 57     ecut=    29.40 Ry     beta= 0.05
     Davidson diagonalization with overlap
     ethr =  5.98E-10,  avg # of iterations = 12.6

     negative rho (up, down):  3.593E-02 0.000E+00
 
     Adding external electric field

     Computed dipole along edir(3) : 
        Dipole                1.5140 Ry au,          3.8481 Debye
        Dipole field          0.0019 Ry au, 
 
        Potential amp.       -0.1766 Ry
        Total length         46.3494 bohr
 

     total cpu time spent up to now is     1675.5 secs

     total energy              =   -3295.80751969 Ry
     estimated scf accuracy    <       0.00000261 Ry

     iteration # 58     ecut=    29.40 Ry     beta= 0.05
     Davidson diagonalization with overlap
     ethr =  5.90E-10,  avg # of iterations = 11.0

     negative rho (up, down):  3.594E-02 0.000E+00
 
     Adding external electric field

     Computed dipole along edir(3) : 
        Dipole                1.5141 Ry au,          3.8483 Debye
        Dipole field          0.0019 Ry au, 
 
        Potential amp.       -0.1766 Ry
        Total length         46.3494 bohr
 

     total cpu time spent up to now is     1707.8 secs

     total energy              =   -3295.80752489 Ry
     estimated scf accuracy    <       0.00000090 Ry

     iteration # 59     ecut=    29.40 Ry     beta= 0.05
     Davidson diagonalization with overlap
     ethr =  2.04E-10,  avg # of iterations =  9.8

     negative rho (up, down):  3.594E-02 0.000E+00
 
     Adding external electric field

     Computed dipole along edir(3) : 
        Dipole                1.5139 Ry au,          3.8479 Debye
        Dipole field          0.0019 Ry au, 
 
        Potential amp.       -0.1766 Ry
        Total length         46.3494 bohr
 

     total cpu time spent up to now is     1739.3 secs

     total energy              =   -3295.80752923 Ry
     estimated scf accuracy    <       0.00000069 Ry

     iteration # 60     ecut=    29.40 Ry     beta= 0.05
     Davidson diagonalization with overlap
     ethr =  1.55E-10,  avg # of iterations =  2.6

     negative rho (up, down):  3.594E-02 0.000E+00
 
     Adding external electric field

     Computed dipole along edir(3) : 
        Dipole                1.5138 Ry au,          3.8477 Debye
        Dipole field          0.0019 Ry au, 
 
        Potential amp.       -0.1765 Ry
        Total length         46.3494 bohr
 

     total cpu time spent up to now is     1761.8 secs

     total energy              =   -3295.80753303 Ry
     estimated scf accuracy    <       0.00000058 Ry

     iteration # 61     ecut=    29.40 Ry     beta= 0.05
     Davidson diagonalization with overlap
     ethr =  1.32E-10,  avg # of iterations =  8.6

     negative rho (up, down):  3.594E-02 0.000E+00
 
     Adding external electric field

     Computed dipole along edir(3) : 
        Dipole                1.5136 Ry au,          3.8472 Debye
        Dipole field          0.0019 Ry au, 
 
        Potential amp.       -0.1765 Ry
        Total length         46.3494 bohr
 

     total cpu time spent up to now is     1788.8 secs

     total energy              =   -3295.80753657 Ry
     estimated scf accuracy    <       0.00000030 Ry

     iteration # 62     ecut=    29.40 Ry     beta= 0.05
     Davidson diagonalization with overlap
     ethr =  6.89E-11,  avg # of iterations = 12.3

     negative rho (up, down):  3.595E-02 0.000E+00
 
     Adding external electric field

     Computed dipole along edir(3) : 
        Dipole                1.5136 Ry au,          3.8471 Debye
        Dipole field          0.0019 Ry au, 
 
        Potential amp.       -0.1765 Ry
        Total length         46.3494 bohr
 

     total cpu time spent up to now is     1820.1 secs

     total energy              =   -3295.80753988 Ry
     estimated scf accuracy    <       0.00000021 Ry

     iteration # 63     ecut=    29.40 Ry     beta= 0.05
     Davidson diagonalization with overlap
     ethr =  4.70E-11,  avg # of iterations = 10.0

     negative rho (up, down):  3.595E-02 0.000E+00
 
     Adding external electric field

     Computed dipole along edir(3) : 
        Dipole                1.5137 Ry au,          3.8475 Debye
        Dipole field          0.0019 Ry au, 
 
        Potential amp.       -0.1765 Ry
        Total length         46.3494 bohr
 

     total cpu time spent up to now is     1855.0 secs

     total energy              =   -3295.80754279 Ry
     estimated scf accuracy    <       0.00000023 Ry

     iteration # 64     ecut=    29.40 Ry     beta= 0.05
     Davidson diagonalization with overlap
     ethr =  4.70E-11,  avg # of iterations =  4.5

     negative rho (up, down):  3.595E-02 0.000E+00
 
     Adding external electric field

     Computed dipole along edir(3) : 
        Dipole                1.5138 Ry au,          3.8476 Debye
        Dipole field          0.0019 Ry au, 
 
        Potential amp.       -0.1765 Ry
        Total length         46.3494 bohr
 

     total cpu time spent up to now is     1878.7 secs

     total energy              =   -3295.80754537 Ry
     estimated scf accuracy    <       0.00000013 Ry

     iteration # 65     ecut=    29.40 Ry     beta= 0.05
     Davidson diagonalization with overlap
     ethr =  3.03E-11,  avg # of iterations =  8.1

     negative rho (up, down):  3.596E-02 0.000E+00
 
     Adding external electric field

     Computed dipole along edir(3) : 
        Dipole                1.5135 Ry au,          3.8468 Debye
        Dipole field          0.0019 Ry au, 
 
        Potential amp.       -0.1765 Ry
        Total length         46.3494 bohr
 

     total cpu time spent up to now is     1910.4 secs

     total energy              =   -3295.80754773 Ry
     estimated scf accuracy    <       0.00000012 Ry

     iteration # 66     ecut=    29.40 Ry     beta= 0.05
     Davidson diagonalization with overlap
     ethr =  2.70E-11,  avg # of iterations =  7.1

     negative rho (up, down):  3.596E-02 0.000E+00
 
     Adding external electric field

     Computed dipole along edir(3) : 
        Dipole                1.5135 Ry au,          3.8469 Debye
        Dipole field          0.0019 Ry au, 
 
        Potential amp.       -0.1765 Ry
        Total length         46.3494 bohr
 

     total cpu time spent up to now is     1945.5 secs

     total energy              =   -3295.80754989 Ry
     estimated scf accuracy    <       0.00000020 Ry

     iteration # 67     ecut=    29.40 Ry     beta= 0.05
     Davidson diagonalization with overlap
     ethr =  2.70E-11,  avg # of iterations =  6.1

     negative rho (up, down):  3.606E-02 0.000E+00
 
     Adding external electric field

     Computed dipole along edir(3) : 
        Dipole                1.5140 Ry au,          3.8483 Debye
        Dipole field          0.0019 Ry au, 
 
        Potential amp.       -0.1766 Ry
        Total length         46.3494 bohr
 

     total cpu time spent up to now is     1973.3 secs

     End of self-consistent calculation

          k = 0.0000 0.0000 0.0000 ( 26871 PWs)   bands (ev):

   -57.7229 -57.6972 -57.6869 -57.6608 -57.6517 -57.6170 -57.6055 -57.5967
   -57.5689 -57.5555 -57.5064 -57.4759 -57.4595 -57.4533 -57.4452 -56.7450
   -56.7209 -56.7163 -34.1046 -34.1018 -34.0925 -34.0837 -34.0712 -34.0548
   -34.0539 -34.0402 -34.0271 -34.0159 -33.9859 -33.9680 -33.9481 -33.9420
   -33.9342 -33.9158 -33.9103 -33.9093 -33.8907 -33.8855 -33.8626 -33.8603
   -33.8409 -33.8314 -33.8272 -33.8211 -33.8102 -33.8082 -33.8026 -33.7930
   -33.7818 -33.7800 -33.7654 -33.7311 -33.7209 -33.7169 -33.7020 -33.7014
   -33.6940 -33.6929 -33.6814 -33.6730 -33.6662 -33.6602 -33.6377 -33.0603
   -33.0593 -33.0547 -33.0432 -33.0389 -32.9711 -32.9091 -32.9037 -32.7709
   -19.3008 -18.7357 -18.5210 -18.2232 -18.0144 -17.9719 -17.9388 -17.8177
   -17.7822 -17.7581 -17.6604 -17.6493 -17.5857 -17.5319 -17.5039 -17.4550
   -17.4371 -17.3767 -17.3627 -17.3545 -17.3491 -17.3389 -17.3288 -17.2630
   -17.2358 -17.2081 -17.1691 -17.1534 -17.1467 -17.1393 -17.1168 -16.8442
   -15.5009 -15.2115 -15.1534 -15.1521 -15.0884  -6.9848  -6.8110  -6.6355
    -6.3457  -5.8584  -5.7847  -5.6355  -5.5116  -5.2195  -5.1916  -5.1402
    -5.1136  -5.0845  -5.0201  -5.0001  -4.9870  -4.9318  -4.9144  -4.8418
    -4.8189  -4.7772  -4.7535  -4.7279  -4.6829  -4.6430  -4.6159  -4.6038
    -4.5731  -4.5655  -4.5090  -4.4853  -4.4559  -4.4504  -4.4343  -4.3248
    -4.2930  -4.2366  -4.1676  -4.0902  -4.0375  -4.0292  -3.9728  -3.9538
    -3.9012  -3.8603  -3.8241  -3.8156  -3.7791  -3.7404  -3.6404  -3.6097
    -3.5859  -3.5202  -3.4977  -3.4296  -3.4120  -3.3786  -3.3373  -3.3315
    -3.2943  -3.1966  -3.1622  -3.0815  -3.0252  -2.9724  -2.9331  -2.8884
    -2.8419  -2.8085  -2.7833  -2.7014  -2.6259  -2.5418  -2.4913  -2.4788
    -2.4666  -2.4163  -2.4090  -2.4067  -2.3492  -2.3234  -2.3124  -2.2735
    -2.2240  -2.2012  -2.1389  -2.0934  -2.0589  -1.9913  -1.9755  -1.8949
    -1.8856  -1.8250  -1.7817  -1.7423  -1.6306  -1.5946  -1.5637  -1.5611
    -1.4422  -1.4059  -1.1432  -1.0029  -0.7904  -0.7546  -0.4985  -0.4498
    -0.4469  -0.1839  -0.1805  -0.0523   1.3240   1.5127   1.6463   1.7019
     1.7067   1.7403   1.8066   1.8928   1.9182   1.9653   1.9966

          k = 0.0000 0.0280 0.0000 ( 26907 PWs)   bands (ev):

   -57.7214 -57.7012 -57.6845 -57.6605 -57.6515 -57.6175 -57.6061 -57.5966
   -57.5686 -57.5553 -57.5066 -57.4739 -57.4600 -57.4575 -57.4424 -56.7428
   -56.7273 -56.7122 -34.1657 -34.1339 -34.1235 -34.0867 -34.0545 -34.0491
   -34.0389 -34.0048 -34.0011 -33.9968 -33.9787 -33.9677 -33.9623 -33.9440
   -33.9194 -33.9075 -33.8858 -33.8809 -33.8699 -33.8643 -33.8562 -33.8495
   -33.8455 -33.8395 -33.8363 -33.8334 -33.8247 -33.8122 -33.8011 -33.8000
   -33.7978 -33.7783 -33.7680 -33.7314 -33.7234 -33.7178 -33.7041 -33.7001
   -33.6980 -33.6948 -33.6906 -33.6815 -33.6688 -33.6659 -33.6462 -33.1255
   -33.0578 -33.0468 -33.0369 -32.9662 -32.9630 -32.9280 -32.8906 -32.7968
   -19.2970 -18.7324 -18.4787 -18.2050 -18.1139 -17.9676 -17.9033 -17.8750
   -17.8267 -17.6694 -17.6643 -17.6492 -17.6021 -17.5390 -17.4928 -17.4750
   -17.4400 -17.4175 -17.4093 -17.3622 -17.3116 -17.2877 -17.2823 -17.2542
   -17.2247 -17.2207 -17.2003 -17.1751 -17.1578 -17.1187 -17.0481 -16.8715
   -15.5003 -15.2133 -15.1926 -15.1099 -15.0885  -6.9816  -6.8086  -6.6313
    -6.3460  -5.7857  -5.7306  -5.5558  -5.4557  -5.3238  -5.2926  -5.2144
    -5.1103  -5.0885  -5.0758  -5.0584  -5.0136  -4.9709  -4.9234  -4.8937
    -4.8750  -4.8540  -4.7682  -4.7416  -4.7241  -4.6723  -4.6372  -4.5934
    -4.5546  -4.5366  -4.5196  -4.4877  -4.4346  -4.3899  -4.3507  -4.3026
    -4.2679  -4.2243  -4.1990  -4.1413  -4.1227  -4.1068  -4.0637  -4.0008
    -3.9219  -3.8908  -3.7874  -3.7261  -3.6963  -3.6510  -3.6107  -3.5866
    -3.5233  -3.5149  -3.4548  -3.4218  -3.3578  -3.2822  -3.2214  -3.1734
    -3.1556  -3.1067  -3.0616  -3.0291  -2.9996  -2.9476  -2.9128  -2.8997
    -2.8399  -2.7928  -2.7764  -2.7524  -2.7304  -2.6743  -2.6121  -2.5378
    -2.4553  -2.4473  -2.3972  -2.3870  -2.3323  -2.3134  -2.3061  -2.2789
    -2.1990  -2.1520  -2.1271  -2.0698  -2.0352  -1.9946  -1.9856  -1.9638
    -1.9425  -1.8914  -1.8800  -1.8111  -1.6670  -1.5751  -1.5529  -1.5424
    -1.3525  -1.3265  -1.2051  -1.0618  -0.9212  -0.7794  -0.5984  -0.4678
    -0.3645  -0.2186  -0.1227  -0.0984   1.4040   1.5696   1.6235   1.6911
     1.7181   1.7925   1.8278   1.8592   1.9458   1.9537   1.9650

          k = 0.0000-0.0559 0.0000 ( 26942 PWs)   bands (ev):

   -57.7195 -57.7049 -57.6828 -57.6602 -57.6514 -57.6179 -57.6067 -57.5966
   -57.5683 -57.5552 -57.5069 -57.4708 -57.4638 -57.4586 -57.4405 -56.7389
   -56.7334 -56.7101 -34.1900 -34.1548 -34.1440 -34.0922 -34.0580 -34.0506
   -34.0402 -34.0262 -33.9996 -33.9650 -33.9584 -33.9315 -33.9205 -33.9117
   -33.8998 -33.8993 -33.8921 -33.8801 -33.8708 -33.8656 -33.8579 -33.8548
   -33.8527 -33.8471 -33.8435 -33.8319 -33.8278 -33.8220 -33.7999 -33.7916
   -33.7775 -33.7695 -33.7669 -33.7588 -33.7325 -33.7232 -33.7181 -33.7018
   -33.6982 -33.6972 -33.6968 -33.6848 -33.6825 -33.6662 -33.6493 -33.1500
   -33.0558 -33.0503 -33.0356 -32.9528 -32.9467 -32.8852 -32.8705 -32.8651
   -19.2932 -18.7294 -18.3958 -18.2777 -18.1408 -17.9687 -17.9061 -17.8474
   -17.8190 -17.7704 -17.6703 -17.6526 -17.5737 -17.5257 -17.5039 -17.4557
   -17.4431 -17.4289 -17.4012 -17.3603 -17.2998 -17.2756 -17.2660 -17.2519
   -17.2429 -17.2195 -17.2015 -17.1929 -17.1357 -17.1300 -16.9494 -16.9429
   -15.4998 -15.2127 -15.2106 -15.0912 -15.0886  -6.9784  -6.8061  -6.6269
    -6.3462  -5.6520  -5.6178  -5.5438  -5.4248  -5.3482  -5.3375  -5.3280
    -5.2540  -5.2100  -5.1167  -5.0505  -5.0266  -4.9808  -4.9383  -4.9128
    -4.8725  -4.8409  -4.7943  -4.7515  -4.7447  -4.6996  -4.6574  -4.6210
    -4.5665  -4.5340  -4.5233  -4.5068  -4.4409  -4.4138  -4.3803  -4.3396
    -4.2790  -4.2532  -4.2049  -4.1990  -4.1206  -4.0648  -4.0076  -3.9004
    -3.8636  -3.8316  -3.7942  -3.7544  -3.7263  -3.6867  -3.6171  -3.5700
    -3.5168  -3.3854  -3.3594  -3.3001  -3.2451  -3.2141  -3.1908  -3.1309
    -3.1083  -3.0955  -3.0302  -2.9989  -2.9683  -2.9531  -2.8784  -2.8193
    -2.7698  -2.7403  -2.7195  -2.6813  -2.6618  -2.6474  -2.5915  -2.5852
    -2.5762  -2.5523  -2.4648  -2.4318  -2.3965  -2.3582  -2.3209  -2.2978
    -2.2550  -2.1863  -2.1605  -2.1369  -2.0960  -2.0637  -2.0414  -1.9554
    -1.9244  -1.8348  -1.8097  -1.7914  -1.6968  -1.6593  -1.5983  -1.3197
    -1.2747  -1.2565  -1.2503  -1.1961  -1.1519  -0.7777  -0.6946  -0.3955
    -0.3832  -0.1845  -0.1783  -0.0988   1.5060   1.5300   1.6509   1.7484
     1.7724   1.7985   1.8805   1.8813   1.8868   1.9298   1.9548

          k = 0.0380 0.0000 0.0000 ( 26897 PWs)   bands (ev):

   -57.7229 -57.6972 -57.6870 -57.6605 -57.6520 -57.6169 -57.6056 -57.5967
   -57.5689 -57.5556 -57.5062 -57.4759 -57.4594 -57.4534 -57.4453 -56.7449
   -56.7210 -56.7164 -34.1057 -34.1053 -34.0937 -34.0843 -34.0723 -34.0553
   -34.0546 -34.0405 -34.0274 -34.0197 -33.9878 -33.9522 -33.9514 -33.9466
   -33.9418 -33.9178 -33.9100 -33.8988 -33.8859 -33.8674 -33.8606 -33.8524
   -33.8379 -33.8274 -33.8236 -33.8202 -33.8130 -33.8097 -33.8079 -33.7921
   -33.7857 -33.7719 -33.7696 -33.7313 -33.7305 -33.7207 -33.7086 -33.7015
   -33.6949 -33.6937 -33.6913 -33.6708 -33.6660 -33.6609 -33.6380 -33.0625
   -33.0604 -33.0548 -33.0430 -33.0386 -32.9709 -32.9092 -32.9038 -32.7707
   -19.2965 -18.7186 -18.4592 -18.1517 -17.9759 -17.9552 -17.9091 -17.8206
   -17.7898 -17.7594 -17.7006 -17.6293 -17.5943 -17.5311 -17.5153 -17.4926
   -17.4624 -17.4539 -17.4124 -17.3841 -17.3625 -17.3555 -17.2962 -17.2739
   -17.2311 -17.2088 -17.1873 -17.1697 -17.1286 -17.0955 -17.0923 -16.9257
   -15.4991 -15.2081 -15.1538 -15.1526 -15.0890  -6.9918  -6.8268  -6.6305
    -6.3371  -5.7434  -5.5535  -5.4181  -5.3624  -5.2384  -5.2043  -5.1539
    -5.1029  -5.0758  -5.0016  -4.9580  -4.9346  -4.9099  -4.8853  -4.8466
    -4.8205  -4.8081  -4.7697  -4.6918  -4.6501  -4.6223  -4.6000  -4.5763
    -4.5490  -4.5221  -4.5018  -4.4878  -4.4576  -4.3673  -4.3439  -4.3048
    -4.2641  -4.2334  -4.1960  -4.1476  -4.0740  -4.0506  -3.9978  -3.9819
    -3.9508  -3.9140  -3.8893  -3.8417  -3.8030  -3.7256  -3.6779  -3.6065
    -3.5844  -3.5462  -3.4830  -3.4202  -3.4125  -3.3817  -3.3504  -3.3262
    -3.2096  -3.1912  -3.1559  -3.1086  -3.0607  -3.0091  -2.9594  -2.8881
    -2.8427  -2.8012  -2.7695  -2.7091  -2.6617  -2.6440  -2.6224  -2.5874
    -2.5293  -2.5193  -2.4687  -2.4300  -2.3816  -2.3262  -2.2887  -2.2803
    -2.2510  -2.2299  -2.1630  -2.1464  -2.0892  -2.0532  -1.9480  -1.8508
    -1.8430  -1.8338  -1.7978  -1.7623  -1.6930  -1.6612  -1.6010  -1.5778
    -1.3828  -1.3714  -1.1553  -1.0929  -0.7733  -0.7416  -0.5278  -0.4384
    -0.4353  -0.2312  -0.2296  -0.1422   1.3259   1.5361   1.5873   1.6334
     1.6511   1.6940   1.7517   1.7672   1.8421   1.8763   1.8882

          k = 0.0380 0.0280 0.0000 ( 26880 PWs)   bands (ev):

   -57.7214 -57.7012 -57.6844 -57.6602 -57.6517 -57.6173 -57.6062 -57.5966
   -57.5686 -57.5554 -57.5065 -57.4740 -57.4597 -57.4578 -57.4423 -56.7429
   -56.7273 -56.7121 -34.1665 -34.1353 -34.1264 -34.0870 -34.0546 -34.0492
   -34.0390 -34.0097 -34.0025 -33.9974 -33.9793 -33.9695 -33.9523 -33.9444
   -33.9081 -33.9022 -33.8807 -33.8776 -33.8695 -33.8641 -33.8543 -33.8514
   -33.8416 -33.8387 -33.8363 -33.8249 -33.8199 -33.8142 -33.8067 -33.7988
   -33.7975 -33.7774 -33.7688 -33.7332 -33.7309 -33.7235 -33.7104 -33.7022
   -33.6967 -33.6947 -33.6908 -33.6888 -33.6688 -33.6661 -33.6462 -33.1250
   -33.0609 -33.0478 -33.0355 -32.9662 -32.9629 -32.9280 -32.8905 -32.7969
   -19.2933 -18.7182 -18.4170 -18.1362 -18.0695 -17.9353 -17.8715 -17.8435
   -17.8197 -17.7440 -17.6805 -17.6446 -17.6162 -17.5580 -17.5127 -17.4906
   -17.4790 -17.4323 -17.4100 -17.3958 -17.3487 -17.3394 -17.3128 -17.2562
   -17.2365 -17.2083 -17.2014 -17.1732 -17.1404 -17.0958 -17.0068 -16.9504
   -15.4984 -15.2104 -15.1924 -15.1099 -15.0890  -6.9905  -6.8214  -6.6310
    -6.3364  -5.6776  -5.5085  -5.3628  -5.3098  -5.2825  -5.2637  -5.2319
    -5.1767  -5.1148  -5.0723  -5.0240  -4.9697  -4.9358  -4.8577  -4.8376
    -4.8282  -4.7918  -4.7609  -4.7301  -4.7104  -4.6571  -4.6287  -4.5667
    -4.5481  -4.5223  -4.5000  -4.4692  -4.4399  -4.4067  -4.3744  -4.3201
    -4.3070  -4.2631  -4.2043  -4.1341  -4.0942  -4.0804  -3.9904  -3.9616
    -3.8986  -3.8644  -3.8465  -3.7668  -3.7194  -3.6766  -3.6021  -3.5615
    -3.5288  -3.4972  -3.4428  -3.4102  -3.3681  -3.3300  -3.3143  -3.2315
    -3.2124  -3.1768  -3.1080  -3.0691  -3.0414  -2.9795  -2.9400  -2.9029
    -2.8523  -2.8278  -2.7933  -2.7478  -2.6938  -2.6553  -2.6195  -2.5923
    -2.5527  -2.4968  -2.4801  -2.4511  -2.3862  -2.3324  -2.2953  -2.2636
    -2.2546  -2.2262  -2.1973  -2.1081  -2.0972  -2.0548  -2.0289  -1.9641
    -1.9468  -1.8694  -1.8017  -1.7609  -1.7154  -1.6581  -1.6256  -1.5333
    -1.3555  -1.2421  -1.1910  -1.1454  -0.9325  -0.7568  -0.5888  -0.4694
    -0.3513  -0.2225  -0.2188  -0.1484   1.3931   1.5344   1.5744   1.6165
     1.6715   1.7225   1.7930   1.8296   1.8392   1.8743   1.9009

          k = 0.0380-0.0559 0.0000 ( 26850 PWs)   bands (ev):

   -57.7194 -57.7048 -57.6827 -57.6599 -57.6515 -57.6177 -57.6067 -57.5965
   -57.5683 -57.5552 -57.5067 -57.4708 -57.4636 -57.4587 -57.4404 -56.7389
   -56.7334 -56.7100 -34.1909 -34.1551 -34.1478 -34.0924 -34.0582 -34.0506
   -34.0401 -34.0319 -33.9998 -33.9655 -33.9468 -33.9228 -33.9185 -33.9119
   -33.9000 -33.8989 -33.8882 -33.8690 -33.8685 -33.8653 -33.8639 -33.8555
   -33.8498 -33.8403 -33.8398 -33.8292 -33.8272 -33.8214 -33.8065 -33.7914
   -33.7784 -33.7716 -33.7647 -33.7581 -33.7323 -33.7309 -33.7233 -33.7074
   -33.7008 -33.6971 -33.6968 -33.6883 -33.6840 -33.6661 -33.6492 -33.1495
   -33.0578 -33.0524 -33.0337 -32.9527 -32.9467 -32.8850 -32.8704 -32.8651
   -19.2903 -18.7173 -18.3400 -18.2170 -18.0718 -17.9047 -17.8966 -17.8341
   -17.7844 -17.7659 -17.7304 -17.6565 -17.6275 -17.5629 -17.5211 -17.5140
   -17.4510 -17.4194 -17.4157 -17.4069 -17.3337 -17.3103 -17.2897 -17.2716
   -17.2506 -17.2375 -17.2010 -17.1741 -17.1397 -17.0231 -17.0105 -16.9671
   -15.4976 -15.2110 -15.2090 -15.0909 -15.0891  -6.9839  -6.8247  -6.6283
    -6.3365  -5.5553  -5.4512  -5.4225  -5.3558  -5.3199  -5.2575  -5.2037
    -5.1709  -5.1275  -5.0806  -5.0667  -5.0619  -5.0025  -4.8997  -4.8706
    -4.8448  -4.8160  -4.7811  -4.7395  -4.7070  -4.6452  -4.6307  -4.6252
    -4.5657  -4.5393  -4.5118  -4.4868  -4.4590  -4.4167  -4.3981  -4.3665
    -4.3493  -4.3115  -4.1649  -4.1435  -4.1189  -3.9955  -3.9304  -3.9116
    -3.8508  -3.8035  -3.7410  -3.7030  -3.6508  -3.6072  -3.5890  -3.5629
    -3.5143  -3.4421  -3.4093  -3.3919  -3.3547  -3.3278  -3.2373  -3.1885
    -3.1615  -3.1383  -3.1144  -3.0850  -3.0129  -2.9865  -2.9005  -2.8713
    -2.8082  -2.7929  -2.7674  -2.7438  -2.7075  -2.6506  -2.6371  -2.6061
    -2.5749  -2.5560  -2.4956  -2.4068  -2.3909  -2.3870  -2.3574  -2.3131
    -2.2959  -2.2562  -2.2116  -2.1867  -2.1151  -2.0778  -2.0482  -1.9864
    -1.9508  -1.8610  -1.8055  -1.7752  -1.7564  -1.6895  -1.6495  -1.3383
    -1.3214  -1.2511  -1.2218  -1.1856  -1.1120  -0.7584  -0.6824  -0.3859
    -0.3741  -0.2119  -0.1858  -0.1839   1.4870   1.5007   1.6068   1.6586
     1.6721   1.7166   1.7608   1.7916   1.8465   1.8759   1.9462

          k = 0.0380-0.0280 0.0000 ( 26873 PWs)   bands (ev):

   -57.7214 -57.7012 -57.6844 -57.6602 -57.6517 -57.6173 -57.6062 -57.5966
   -57.5686 -57.5554 -57.5065 -57.4740 -57.4597 -57.4578 -57.4423 -56.7428
   -56.7273 -56.7121 -34.1665 -34.1352 -34.1264 -34.0870 -34.0546 -34.0492
   -34.0390 -34.0097 -34.0026 -33.9974 -33.9792 -33.9698 -33.9529 -33.9423
   -33.9080 -33.9049 -33.8811 -33.8785 -33.8681 -33.8642 -33.8546 -33.8516
   -33.8387 -33.8364 -33.8361 -33.8248 -33.8193 -33.8158 -33.8087 -33.8002
   -33.7975 -33.7760 -33.7684 -33.7347 -33.7308 -33.7233 -33.7098 -33.7026
   -33.6972 -33.6948 -33.6922 -33.6865 -33.6687 -33.6661 -33.6461 -33.1250
   -33.0609 -33.0478 -33.0354 -32.9662 -32.9629 -32.9280 -32.8905 -32.7969
   -19.2935 -18.7176 -18.4178 -18.1369 -18.0681 -17.9322 -17.8742 -17.8397
   -17.8207 -17.7464 -17.6830 -17.6462 -17.6193 -17.5618 -17.5079 -17.4857
   -17.4762 -17.4376 -17.3984 -17.3929 -17.3546 -17.3398 -17.3206 -17.2581
   -17.2351 -17.2060 -17.1998 -17.1746 -17.1405 -17.0947 -17.0072 -16.9506
   -15.4984 -15.2104 -15.1924 -15.1099 -15.0890  -6.9852  -6.8300  -6.6280
    -6.3372  -5.6793  -5.5116  -5.3681  -5.3068  -5.2821  -5.2427  -5.2214
    -5.1861  -5.0841  -5.0609  -5.0298  -5.0142  -4.9578  -4.8494  -4.8389
    -4.8259  -4.7983  -4.7700  -4.7313  -4.7005  -4.6598  -4.6099  -4.5871
    -4.5601  -4.5193  -4.4970  -4.4712  -4.4314  -4.4096  -4.3509  -4.3228
    -4.3093  -4.2454  -4.2014  -4.1380  -4.1007  -4.0776  -4.0129  -3.9357
    -3.8933  -3.8715  -3.8369  -3.7504  -3.7313  -3.6743  -3.6210  -3.5710
    -3.5327  -3.4805  -3.4634  -3.4169  -3.3697  -3.3059  -3.2960  -3.2567
    -3.2021  -3.1822  -3.1186  -3.0609  -3.0449  -3.0067  -2.9339  -2.9135
    -2.8690  -2.8150  -2.7833  -2.7326  -2.7017  -2.6581  -2.6255  -2.6092
    -2.5302  -2.4885  -2.4730  -2.4138  -2.3916  -2.3420  -2.2906  -2.2630
    -2.2529  -2.2133  -2.2073  -2.1486  -2.0902  -2.0535  -2.0346  -1.9852
    -1.9392  -1.8650  -1.7883  -1.7595  -1.7242  -1.6503  -1.6128  -1.5333
    -1.3494  -1.2396  -1.1964  -1.1496  -0.9336  -0.7608  -0.5887  -0.4692
    -0.3512  -0.2233  -0.2187  -0.1482   1.3935   1.5409   1.5779   1.6168
     1.6832   1.7421   1.7876   1.8108   1.8395   1.8715   1.8857

          k =-0.0760-0.0000 0.0000 ( 26902 PWs)   bands (ev):

   -57.7228 -57.6972 -57.6870 -57.6602 -57.6522 -57.6167 -57.6057 -57.5967
   -57.5689 -57.5556 -57.5061 -57.4759 -57.4594 -57.4534 -57.4455 -56.7449
   -56.7210 -56.7164 -34.1086 -34.1067 -34.0947 -34.0847 -34.0732 -34.0558
   -34.0549 -34.0407 -34.0276 -34.0233 -33.9890 -33.9568 -33.9530 -33.9443
   -33.9279 -33.9194 -33.9101 -33.8870 -33.8828 -33.8631 -33.8570 -33.8397
   -33.8386 -33.8270 -33.8201 -33.8132 -33.8094 -33.8079 -33.8025 -33.8010
   -33.7895 -33.7795 -33.7765 -33.7303 -33.7276 -33.7204 -33.7180 -33.7124
   -33.7008 -33.6938 -33.6934 -33.6691 -33.6658 -33.6620 -33.6384 -33.0658
   -33.0602 -33.0546 -33.0428 -33.0383 -32.9709 -32.9093 -32.9039 -32.7707
   -19.2924 -18.7038 -18.3761 -18.0409 -18.0008 -17.9460 -17.8741 -17.8231
   -17.7712 -17.7392 -17.7188 -17.6133 -17.5903 -17.5453 -17.5376 -17.5149
   -17.4956 -17.4912 -17.4638 -17.4192 -17.4148 -17.3868 -17.3149 -17.2981
   -17.2521 -17.1801 -17.1738 -17.1674 -17.1291 -17.0656 -17.0615 -17.0008
   -15.4974 -15.2050 -15.1542 -15.1530 -15.0896  -6.9980  -6.8383  -6.6246
    -6.3299  -5.6865  -5.2925  -5.2031  -5.1667  -5.1310  -5.1197  -5.0888
    -5.0568  -5.0054  -4.9890  -4.9299  -4.9234  -4.8962  -4.8636  -4.8431
    -4.8151  -4.7871  -4.7546  -4.7065  -4.6780  -4.6701  -4.6459  -4.6009
    -4.5843  -4.5477  -4.5365  -4.4862  -4.4673  -4.4026  -4.3505  -4.3434
    -4.3147  -4.2553  -4.1290  -4.1096  -4.0511  -4.0465  -3.9852  -3.9650
    -3.9578  -3.9010  -3.8149  -3.7834  -3.7365  -3.7093  -3.7027  -3.6513
    -3.6055  -3.5168  -3.4686  -3.4554  -3.3892  -3.3860  -3.3515  -3.3198
    -3.3155  -3.2614  -3.2116  -3.1485  -3.0860  -3.0745  -3.0227  -2.9675
    -2.8630  -2.8505  -2.8075  -2.7676  -2.7358  -2.7027  -2.6561  -2.6049
    -2.5875  -2.5231  -2.4652  -2.4561  -2.4491  -2.4293  -2.3709  -2.3172
    -2.2516  -2.2342  -2.1735  -2.1596  -2.0715  -1.9679  -1.9472  -1.9395
    -1.9299  -1.8990  -1.8403  -1.8146  -1.7092  -1.5756  -1.5438  -1.4376
    -1.3906  -1.3512  -1.3437  -1.0720  -0.7601  -0.7308  -0.5496  -0.4216
    -0.4183  -0.2788  -0.2742  -0.2046   1.3196   1.4870   1.4899   1.5513
     1.6144   1.6481   1.7227   1.7422   1.8073   1.8446   1.8516

          k =-0.0760 0.0279 0.0000 ( 26908 PWs)   bands (ev):

   -57.7214 -57.7012 -57.6845 -57.6600 -57.6520 -57.6172 -57.6063 -57.5966
   -57.5686 -57.5554 -57.5064 -57.4741 -57.4592 -57.4584 -57.4424 -56.7428
   -56.7273 -56.7122 -34.1676 -34.1372 -34.1287 -34.0873 -34.0547 -34.0494
   -34.0391 -34.0152 -34.0034 -33.9981 -33.9791 -33.9730 -33.9519 -33.9255
   -33.9079 -33.8864 -33.8810 -33.8773 -33.8694 -33.8662 -33.8602 -33.8433
   -33.8377 -33.8364 -33.8348 -33.8244 -33.8129 -33.8082 -33.8038 -33.7987
   -33.7972 -33.7879 -33.7746 -33.7361 -33.7304 -33.7290 -33.7225 -33.7020
   -33.7001 -33.6951 -33.6948 -33.6887 -33.6691 -33.6663 -33.6462 -33.1248
   -33.0639 -33.0488 -33.0344 -32.9662 -32.9629 -32.9280 -32.8906 -32.7969
   -19.2900 -18.7049 -18.3367 -18.0448 -17.9934 -17.9668 -17.8739 -17.8277
   -17.7670 -17.7459 -17.7120 -17.6542 -17.6248 -17.5690 -17.5539 -17.4926
   -17.4782 -17.4745 -17.4424 -17.4320 -17.4042 -17.3462 -17.3314 -17.3129
   -17.2422 -17.2312 -17.1756 -17.1681 -17.1343 -17.1208 -17.0219 -16.9288
   -15.4965 -15.2077 -15.1922 -15.1100 -15.0897  -6.9939  -6.8408  -6.6257
    -6.3284  -5.6244  -5.3536  -5.3036  -5.2707  -5.1928  -5.1375  -5.0812
    -5.0374  -4.9675  -4.9423  -4.9162  -4.9027  -4.8893  -4.8668  -4.8442
    -4.8234  -4.8095  -4.7815  -4.7441  -4.7065  -4.7036  -4.6669  -4.6173
    -4.5949  -4.5317  -4.4994  -4.4575  -4.4118  -4.4009  -4.3698  -4.3169
    -4.2807  -4.2398  -4.2166  -4.1630  -4.1256  -4.0329  -3.9973  -3.9548
    -3.9099  -3.8400  -3.7906  -3.7800  -3.7578  -3.6905  -3.5964  -3.5724
    -3.5400  -3.4565  -3.4071  -3.3978  -3.3787  -3.3602  -3.3233  -3.2788
    -3.2159  -3.1828  -3.1439  -3.1141  -3.1102  -3.0692  -3.0401  -2.9455
    -2.9226  -2.8755  -2.8252  -2.7878  -2.7226  -2.6805  -2.6677  -2.6545
    -2.6193  -2.5765  -2.5494  -2.5087  -2.4721  -2.4266  -2.3857  -2.3082
    -2.2717  -2.2568  -2.2143  -2.1749  -2.1346  -2.0690  -1.9874  -1.9735
    -1.9441  -1.8832  -1.8139  -1.7514  -1.7075  -1.5700  -1.4825  -1.4547
    -1.4316  -1.3541  -1.1662  -1.1454  -0.9503  -0.7409  -0.5743  -0.4704
    -0.3358  -0.3202  -0.2257  -0.1816   1.3738   1.4901   1.5092   1.5506
     1.5585   1.6773   1.7041   1.7387   1.7730   1.8722   1.8818

          k =-0.0760-0.0559 0.0000 ( 26868 PWs)   bands (ev):

   -57.7194 -57.7048 -57.6827 -57.6597 -57.6517 -57.6176 -57.6069 -57.5964
   -57.5683 -57.5552 -57.5066 -57.4709 -57.4634 -57.4590 -57.4404 -56.7389
   -56.7334 -56.7100 -34.1919 -34.1551 -34.1518 -34.0925 -34.0583 -34.0506
   -34.0401 -34.0374 -33.9999 -33.9660 -33.9327 -33.9185 -33.9131 -33.9118
   -33.9004 -33.8978 -33.8781 -33.8713 -33.8666 -33.8663 -33.8624 -33.8572
   -33.8519 -33.8434 -33.8295 -33.8245 -33.8219 -33.8163 -33.8120 -33.7917
   -33.7910 -33.7687 -33.7619 -33.7545 -33.7487 -33.7311 -33.7238 -33.7187
   -33.6992 -33.6987 -33.6967 -33.6934 -33.6842 -33.6660 -33.6491 -33.1491
   -33.0601 -33.0547 -33.0324 -32.9527 -32.9466 -32.8849 -32.8704 -32.8651
   -19.2875 -18.7059 -18.2700 -18.1332 -17.9611 -17.9196 -17.8460 -17.8329
   -17.8210 -17.7917 -17.6998 -17.6765 -17.6499 -17.5671 -17.5475 -17.4984
   -17.4545 -17.4413 -17.4228 -17.4121 -17.4040 -17.3871 -17.3534 -17.3213
   -17.2884 -17.2366 -17.1749 -17.1559 -17.1075 -17.0928 -17.0621 -16.8780
   -15.4956 -15.2095 -15.2074 -15.0906 -15.0897  -6.9895  -6.8439  -6.6262
    -6.3269  -5.5152  -5.4522  -5.3689  -5.3545  -5.2366  -5.2041  -5.0125
    -5.0025  -4.9876  -4.9556  -4.9236  -4.8874  -4.8607  -4.8366  -4.8231
    -4.8092  -4.7878  -4.7620  -4.7499  -4.7337  -4.6895  -4.6429  -4.6365
    -4.6254  -4.6030  -4.5488  -4.5037  -4.4760  -4.4232  -4.4197  -4.3395
    -4.3162  -4.2981  -4.2241  -4.2158  -4.0960  -3.9461  -3.8853  -3.8651
    -3.8413  -3.7939  -3.7827  -3.7301  -3.7085  -3.6909  -3.5536  -3.4720
    -3.4484  -3.4143  -3.3827  -3.3595  -3.3241  -3.2965  -3.2744  -3.2492
    -3.2330  -3.1800  -3.1635  -3.1207  -3.0784  -2.9969  -2.9528  -2.8946
    -2.8721  -2.8536  -2.8353  -2.8315  -2.8111  -2.7783  -2.7489  -2.6923
    -2.6842  -2.6540  -2.5824  -2.5279  -2.4998  -2.4750  -2.4329  -2.4258
    -2.2710  -2.2508  -2.2183  -2.2065  -2.1326  -2.0882  -1.9976  -1.9713
    -1.9482  -1.8770  -1.8049  -1.7621  -1.7055  -1.5093  -1.5006  -1.3815
    -1.3447  -1.2959  -1.2704  -1.2280  -1.0676  -0.7404  -0.6611  -0.3778
    -0.3666  -0.3405  -0.1851  -0.1788   1.4311   1.4548   1.5400   1.5968
     1.6151   1.6528   1.6656   1.7045   1.7251   1.7819   1.9173

     the Fermi energy is     1.3749 ev

!    total energy              =   -3295.80756924 Ry
     estimated scf accuracy    <       0.00000002 Ry
     smearing contrib. (-TS)   =      -0.03571369 Ry
     internal energy E=F+TS    =   -3295.77185555 Ry

     The total energy is F=E-TS. E is the sum of the following terms:
     one-electron contribution =  -34705.26253284 Ry
     hartree contribution      =   17418.57001736 Ry
     xc contribution           =    -543.86075080 Ry
     ewald contribution        =   14534.77852684 Ry
     electric field correction =       0.00288389 Ry

     convergence has been achieved in  67 iterations

     Forces acting on atoms (cartesian axes, Ry/au):

     atom    1 type  1   force =    -0.00168697    0.00377298    0.05474351
     atom    2 type  1   force =     0.00024075   -0.00250120   -0.00841788
     atom    3 type  1   force =     0.00045034   -0.00351325    0.00039102
     atom    4 type  1   force =     0.00004373   -0.00002851    0.10675878
     atom    5 type  1   force =    -0.00020444    0.00065785    0.00661140
     atom    6 type  1   force =     0.00003142   -0.00444178    0.00376119
     atom    7 type  1   force =     0.06648228    0.00079765   -0.02965850
     atom    8 type  1   force =     0.00659412   -0.02713219    0.00197012
     atom    9 type  1   force =     0.00660673   -0.02255751    0.00515014
     atom   10 type  2   force =    -0.00010823   -0.00450102   -0.18344393
     atom   11 type  2   force =     0.00067411    0.02087508   -0.00412560
     atom   12 type  2   force =    -0.00178443    0.02770491   -0.00669023
     atom   13 type  1   force =    -0.06653988    0.00045456   -0.02980218
     atom   14 type  1   force =    -0.00433441   -0.02771096    0.00254696
     atom   15 type  1   force =    -0.00656954   -0.02335648    0.00503169
     atom   16 type  2   force =     0.00008510    0.00068818    0.06698137
     atom   17 type  2   force =    -0.00238319    0.03353381    0.00352064
     atom   18 type  2   force =     0.00129889    0.02457054   -0.00371072
     atom   19 type  1   force =    -0.00169699    0.00674908    0.05329128
     atom   20 type  1   force =     0.00023444   -0.00117020   -0.00659527
     atom   21 type  1   force =     0.00003525    0.00110719    0.10722514
     atom   22 type  1   force =    -0.00025158   -0.00199401    0.00723106
     atom   23 type  1   force =     0.00072227   -0.00586326    0.00415923
     atom   24 type  1   force =     0.06751420    0.00137351   -0.02906692
     atom   25 type  1   force =     0.00528130   -0.03016096    0.00246854
     atom   26 type  1   force =     0.00680978   -0.02606163   -0.00411926
     atom   27 type  2   force =     0.00011110   -0.00120353   -0.18675372
     atom   28 type  2   force =     0.00007962    0.02386675   -0.00245632
     atom   29 type  2   force =    -0.00126007    0.02234132    0.00099735
     atom   30 type  1   force =    -0.06762063    0.00087000   -0.02892085
     atom   31 type  1   force =    -0.00537200   -0.02962635    0.00280642
     atom   32 type  1   force =    -0.00442291   -0.02245294    0.00261112
     atom   33 type  2   force =    -0.00004632    0.00132886    0.07473097
     atom   34 type  2   force =     0.00092027    0.03692478    0.00409751
     atom   35 type  2   force =    -0.00201313    0.03472877    0.00455994
     atom   36 type  1   force =    -0.00186687    0.00288911    0.05591174
     atom   37 type  1   force =     0.00133117    0.00399737   -0.01125068
     atom   38 type  1   force =    -0.00374494   -0.00384061    0.00672784
     atom   39 type  1   force =     0.00002236   -0.00064510    0.10725171
     atom   40 type  1   force =     0.00015648   -0.00141240    0.00716146
     atom   41 type  1   force =    -0.00022982   -0.00398309    0.00184480
     atom   42 type  1   force =     0.06784284   -0.00221950   -0.02969927
     atom   43 type  1   force =     0.00369131   -0.02635886    0.00153990
     atom   44 type  1   force =     0.01017987   -0.01797666    0.00268856
     atom   45 type  2   force =     0.00002799    0.00216358   -0.18330015
     atom   46 type  2   force =    -0.00023780    0.01481175    0.00205806
     atom   47 type  2   force =     0.00265743    0.02593452   -0.00823870
     atom   48 type  1   force =    -0.06790729   -0.00284775   -0.02985959
     atom   49 type  1   force =    -0.00375379   -0.02550309    0.00184042
     atom   50 type  1   force =    -0.00810794   -0.02358236    0.00523295
     atom   51 type  2   force =     0.00045372   -0.00350901    0.06840578
     atom   52 type  2   force =    -0.00011557    0.03119231    0.00596943
     atom   53 type  2   force =    -0.00206342    0.02586023   -0.00062387
     atom   54 type  3   force =     0.00148721   -0.00198566   -0.00022977
     atom   55 type  4   force =    -0.00086039    0.00040988   -0.00048204
     atom   56 type  4   force =     0.00017949    0.00088653    0.00128644
     atom   57 type  3   force =     0.00132050   -0.00273925   -0.00024596
     atom   58 type  4   force =     0.00049724    0.00102285   -0.00007640
     atom   59 type  4   force =     0.00006829    0.00027546    0.00070806
     atom   60 type  4   force =     0.00227505    0.00020146   -0.00360284
     atom   61 type  4   force =    -0.00122411   -0.00111173    0.00109809

     Total force =     0.459545     Total SCF correction =     0.000356
  @ DRIVER MODE: Message from server: STATUS
  @ DRIVER MODE: Message from server: GETFORCE
  @ DRIVER MODE: Returning v,forces,stress,ensemble 

     Writing output data file ./calc.save/
  @ DRIVER MODE: Message from server: EXIT
  @ DRIVE MODE: Exiting  
 
     init_run     :     18.23s CPU     18.66s WALL (       1 calls)
     electrons    :   1913.99s CPU   1954.38s WALL (       1 calls)
     forces       :      4.46s CPU      4.67s WALL (       1 calls)

     Called by init_run:
     wfcinit      :      9.84s CPU      9.99s WALL (       1 calls)
     potinit      :      7.34s CPU      7.45s WALL (       1 calls)
     hinit0       :      0.42s CPU      0.45s WALL (       1 calls)

     Called by electrons:
     c_bands      :   1583.64s CPU   1604.56s WALL (      67 calls)
     sum_band     :    229.05s CPU    238.13s WALL (      67 calls)
     v_of_rho     :     76.16s CPU     79.00s WALL (      68 calls)
     newd         :     28.11s CPU     35.35s WALL (      68 calls)
     mix_rho      :      2.98s CPU      3.21s WALL (      67 calls)
     vdW_kernel   :      5.83s CPU      5.85s WALL (       1 calls)

     Called by c_bands:
     init_us_2    :     13.09s CPU     13.21s WALL (    1360 calls)
     cegterg      :   1546.33s CPU   1566.53s WALL (     671 calls)

     Called by *egterg:
     cdiaghg      :    201.33s CPU    202.45s WALL (    6117 calls)
     h_psi        :    881.29s CPU    893.47s WALL (    6128 calls)
     s_psi        :    119.41s CPU    119.76s WALL (    6128 calls)
     g_psi        :      2.95s CPU      2.96s WALL (    5447 calls)

     Called by h_psi:
     h_psi:calbec :    110.86s CPU    112.02s WALL (    6128 calls)
     vloc_psi     :    645.61s CPU    651.29s WALL (    6128 calls)
     add_vuspsi   :    120.10s CPU    121.97s WALL (    6128 calls)

     General routines
     calbec       :    151.20s CPU    152.48s WALL (    6838 calls)
     fft          :     43.92s CPU     44.12s WALL (    4284 calls)
     ffts         :      0.26s CPU      0.27s WALL (     135 calls)
     fftw         :    727.86s CPU    734.06s WALL (  910924 calls)
     interpolate  :      0.84s CPU      0.86s WALL (      68 calls)
     davcio       :      0.01s CPU      0.61s WALL (      10 calls)
 
     Parallel routines
 
     PWSCF        :  32m16.94s CPU  32m58.96s WALL

 
   This run was terminated on:   8:29:14  19Oct2021            

=------------------------------------------------------------------------------=
   JOB DONE.
=------------------------------------------------------------------------------=
