
     Program PWSCF v.6.7GPU starts on 15Sep2021 at 18: 2:52 

     This program is part of the open-source Quantum ESPRESSO suite
     for quantum simulation of materials; please cite
         "P. Giannozzi et al., J. Phys.:Condens. Matter 21 395502 (2009);
         "P. Giannozzi et al., J. Phys.:Condens. Matter 29 465901 (2017);
         "P. Giannozzi et al., J. Chem. Phys. 152 154105 (2020);
          URL http://www.quantum-espresso.org", 
     in publications or presentations arising from this work. More details at
     http://www.quantum-espresso.org/quote

     Parallel version (MPI), running on    10 processors

     MPI processes distributed on     1 nodes
     R & G space division:  proc/nbgrp/npool/nimage =      10
     Reading input from /storage/home/hcoda1/3/ntian30/research/carbon/CxH_vib/H2O_calc/ads_slab/CH2NNHHHH2O_a/out_0007/pw.inp
Warning: card &CELL ignored
Warning: card   CELL_DYNAMICS='IPI', ignored
Warning: card / ignored

     Current dimensions of program PWSCF are:
     Max number of different atomic species (ntypx) = 10
     Max number of k-points (npk) =  40000
     Max angular momentum in pseudopotentials (lmaxx) =  3
     Presently no symmetry can be used with electric field

     Message from routine cell_base_init:
     DEPRECATED: use true lattice parameter, not A to a.u. conversion factor

     **************************************************************************
     Initializing libbeef V0.1.2 with the BEEF-vdW functional.
     Citation: Wellendorff et al., PRB 85, 235149 (2012).
     **************************************************************************


     IMPORTANT: XC functional enforced from input :
     Exchange-correlation= BEEF-VDW
                           (   1   4  43  14   2   0   0)
     Any further DFT definition will be discarded
     Please, verify this is what you really want


     Subspace diagonalization in iterative solution of the eigenvalue problem:
     one sub-group per band group will be used
     scalapack distributed-memory algorithm (size of sub-group:  3*  3 procs)

  @ DRIVER MODE: Connecting to 
 qe_1139763_2852612.sched-torque.pace.gatech.eduuyp4yuei_scratch
  using UNIX socket
  @ DRIVER MODE: Message from server: STATUS
  @ DRIVER MODE: Message from server: INIT
  @ DRIVER MODE: Receiving replica           0          -1
  @ DRIVER MODE: Receiving encoded integer          25
  @ DRIVER MODE:  SCF:  T  FORCE:  T  STRESS:  F  VC:  F  ENSEMBLE:  F
  @ DRIVER MODE:  SCF:  T  FORCE:  T  STRESS:  F  VC:  F  ENSEMBLE:  F
 
     Parallelization info
     --------------------
     sticks:   dense  smooth     PW     G-vecs:    dense   smooth      PW
     Min         327     131     37                56683    14340    2191
     Max         328     133     38                56694    14346    2206
     Sum        3275    1317    379               566857   143421   21985
 
     Using Slab Decomposition
 


     bravais-lattice index     =            0
     lattice parameter (alat)  =       1.8897  a.u.
     unit-cell volume          =    6658.9804 (a.u.)^3
     number of atoms/cell      =           58
     number of atomic types    =            5
     number of electrons       =       405.00
     number of Kohn-Sham states=          212
     kinetic-energy cutoff     =      29.3995  Ry
     charge density cutoff     =     293.9946  Ry
     scf convergence threshold =      7.3E-08
     mixing beta               =       0.0500
     number of iterations used =            8  plain     mixing
     Exchange-correlation= BEEF-VDW
                           (   1   4  43  14   2   0   0)

     celldm(1)=   1.889726  celldm(2)=   0.000000  celldm(3)=   0.000000
     celldm(4)=   0.000000  celldm(5)=   0.000000  celldm(6)=   0.000000

     crystal axes: (cart. coord. in units of alat)
               a(1) = (   6.579727   0.000000   0.000000 )  
               a(2) = (  -0.000775   5.961596   0.000000 )  
               a(3) = (   0.000000   0.000000  25.155947 )  

     reciprocal axes: (cart. coord. in units 2 pi/alat)
               b(1) = (  0.151982  0.000020  0.000000 )  
               b(2) = (  0.000000  0.167740  0.000000 )  
               b(3) = (  0.000000  0.000000  0.039752 )  


     PseudoPot. # 1 for Ti read from file:
     /storage/coda1/p-amedford6/0/shared/rich_project_chbe-medford/medford-share/data/pseudos_module/espresso/nninc/pbe/van/Ti.UPF
     MD5 check sum: 8e4df49b7f0d34bbd5052bf3f5ea0213
     Pseudo is Ultrasoft, Zval = 12.0
     Generated by new atomic code, or converted to UPF format
     Using radial grid of  851 points,  6 beta functions with: 
                l(1) =   0
                l(2) =   0
                l(3) =   1
                l(4) =   1
                l(5) =   2
                l(6) =   2
     Q(r) pseudized with  8 coefficients,  rinner =    1.000   1.000   1.000
                                                       1.000   1.000

     PseudoPot. # 2 for O  read from file:
     /storage/coda1/p-amedford6/0/shared/rich_project_chbe-medford/medford-share/data/pseudos_module/espresso/nninc/pbe/van/O.UPF
     MD5 check sum: 78c19812648e8988a0fe644b0f25305e
     Pseudo is Ultrasoft, Zval =  6.0
     Generated by new atomic code, or converted to UPF format
     Using radial grid of  737 points,  4 beta functions with: 
                l(1) =   0
                l(2) =   0
                l(3) =   1
                l(4) =   1
     Q(r) pseudized with  8 coefficients,  rinner =    0.800   0.800   0.800


     PseudoPot. # 3 for N  read from file:
     /storage/coda1/p-amedford6/0/shared/rich_project_chbe-medford/medford-share/data/pseudos_module/espresso/nninc/pbe/van/N.UPF
     MD5 check sum: 90d10febe142ad51ac9d5be1deb811c4
     Pseudo is Ultrasoft, Zval =  5.0
     Generated by new atomic code, or converted to UPF format
     Using radial grid of  729 points,  4 beta functions with: 
                l(1) =   0
                l(2) =   0
                l(3) =   1
                l(4) =   1
     Q(r) pseudized with  8 coefficients,  rinner =    0.800   0.800   0.800


     PseudoPot. # 4 for C  read from file:
     /storage/coda1/p-amedford6/0/shared/rich_project_chbe-medford/medford-share/data/pseudos_module/espresso/nninc/pbe/van/C.UPF
     MD5 check sum: 1a69bf6b8db32088f5b2163dbdb77a27
     Pseudo is Ultrasoft, Zval =  4.0
     Generated by new atomic code, or converted to UPF format
     Using radial grid of  721 points,  4 beta functions with: 
                l(1) =   0
                l(2) =   0
                l(3) =   1
                l(4) =   1
     Q(r) pseudized with  8 coefficients,  rinner =    0.800   0.800   0.800


     PseudoPot. # 5 for H  read from file:
     /storage/coda1/p-amedford6/0/shared/rich_project_chbe-medford/medford-share/data/pseudos_module/espresso/nninc/pbe/van/H.UPF
     MD5 check sum: b5ee9d7bfd3a09ee7748110bda690ff7
     Pseudo is Ultrasoft, Zval =  1.0
     Generated by new atomic code, or converted to UPF format
     Using radial grid of  615 points,  1 beta functions with: 
                l(1) =   0
     Q(r) pseudized with  8 coefficients,  rinner =    0.800

     atomic species   valence    mass     pseudopotential
        Ti1           12.00    47.86700     Ti( 1.00)
        O1             6.00    15.99900     O ( 1.00)
        N1             5.00    14.00700     N ( 1.00)
        C1             4.00    12.01100     C ( 1.00)
        H1             1.00     1.00800     H ( 1.00)

     No symmetry found



   Cartesian axes

     site n.     atom                  positions (alat units)
         1           Ti1 tau(   1) = (   0.0004258   2.9801865   6.0000000  )
         2           Ti1 tau(   2) = (   3.2906075   1.4906267   6.0002472  )
         3           O1  tau(   3) = (   0.0006271   0.0005054   7.9858123  )
         4           O1  tau(   4) = (   3.2906025   0.0005020   7.3038282  )
         5           O1  tau(   5) = (   4.5942328   1.4918067   9.2879030  )
         6           O1  tau(   6) = (   1.9868534   1.4903216   9.2879459  )
         7           Ti1 tau(   7) = (   3.2907910   2.8959150   9.1758416  )
         8           Ti1 tau(   8) = (   0.0015273   1.4827037   9.2680791  )
         9           O1  tau(   9) = (   3.2987819   5.9401718  11.3551833  )
        10           O1  tau(  10) = (   0.0116148   5.9584955  10.6183126  )
        11           O1  tau(  11) = (   1.3094369   1.4889762  12.6418845  )
        12           O1  tau(  12) = (   5.3041503   1.4933078  12.6143371  )
        13           Ti1 tau(  13) = (   0.0302489   2.9730182  12.5448133  )
        14           Ti1 tau(  14) = (   3.3273137   1.4751619  12.4920661  )
        15           O1  tau(  15) = (   6.5331299   0.0759724  14.6728253  )
        16           O1  tau(  16) = (   3.3443954   0.0128112  13.9985917  )
        17           O1  tau(  17) = (   4.5384157   1.5150964  16.2525342  )
        18           O1  tau(  18) = (   2.0107438   1.5096167  16.1239609  )
        19           Ti1 tau(  19) = (   3.2468703   2.9375149  15.6823127  )
        20           Ti1 tau(  20) = (   6.5402329   1.3810098  16.1103674  )
        21           O1  tau(  21) = (   3.2904802   0.0005063   4.7018136  )
        22           O1  tau(  22) = (   0.0855018   5.8309792  17.2460454  )
        23           O1  tau(  23) = (   1.3043587   1.4918075   6.0039043  )
        24           O1  tau(  24) = (   5.2767064   1.4903225   6.0039473  )
        25           Ti1 tau(  25) = (   0.0000382   5.9609847   6.0000000  )
        26           Ti1 tau(  26) = (   3.2902200   4.4714249   6.0002472  )
        27           O1  tau(  27) = (   0.0002396   2.9813036   7.9858123  )
        28           O1  tau(  28) = (   3.2902150   2.9813002   7.3038282  )
        29           O1  tau(  29) = (   4.5938453   4.4726049   9.2879030  )
        30           O1  tau(  30) = (   1.9864658   4.4711199   9.2879459  )
        31           Ti1 tau(  31) = (   3.2891106   5.8743827   9.1763621  )
        32           Ti1 tau(  32) = (   0.0006254   4.4649316   9.2693709  )
        33           O1  tau(  33) = (   3.2978634   2.9839445  11.3486163  )
        34           O1  tau(  34) = (   0.0092240   2.9805883  10.6323155  )
        35           O1  tau(  35) = (   1.3057425   4.4725738  12.6940039  )
        36           O1  tau(  36) = (   5.3035974   4.4670288  12.6562451  )
        37           Ti1 tau(  37) = (   0.0240142   0.0094741  12.5095027  )
        38           Ti1 tau(  38) = (   3.3290383   4.4615466  12.5202027  )
        39           O1  tau(  39) = (   6.5484913   2.9337383  14.8377676  )
        40           O1  tau(  40) = (   3.3243726   2.9440003  13.9069550  )
        41           O1  tau(  41) = (   4.5478640   4.3999133  16.1372545  )
        42           O1  tau(  42) = (   2.0209518   4.4226222  15.9786897  )
        43           Ti1 tau(  43) = (   3.3220059   5.9437776  15.8132296  )
        44           Ti1 tau(  44) = (   0.0730556   4.5544523  15.7304118  )
        45           O1  tau(  45) = (   3.2900926   2.9813045   4.7018136  )
        46           O1  tau(  46) = (   1.3039711   4.4726057   6.0039043  )
        47           O1  tau(  47) = (   5.2763189   4.4711207   6.0039473  )
        48           N1  tau(  48) = (   0.0453545   2.8788619  17.9090770  )
        49           C1  tau(  49) = (   0.9989482   2.8008358  18.8431878  )
        50           H1  tau(  50) = (   1.0080222   3.4413729  19.7168629  )
        51           H1  tau(  51) = (   1.8954070   2.2543435  18.5800802  )
        52           N1  tau(  52) = (   5.5320326   3.6725468  18.4365114  )
        53           H1  tau(  53) = (   5.8975581   4.6271042  18.6377988  )
        54           H1  tau(  54) = (   4.8553295   3.8628436  17.6443034  )
        55           H1  tau(  55) = (   5.1025442   3.2364756  19.2632064  )
        56           O1  tau(  56) = (   2.8928424   5.6518753  18.2681889  )
        57           H1  tau(  57) = (   3.0708471   0.5134993  18.7460362  )
        58           H1  tau(  58) = (   1.9180978   5.6479514  18.1114729  )

     number of k points=    10  Fermi-Dirac smearing, width (Ry)=  0.0073
                       cart. coord. in units 2pi/alat
        k(    1) = (   0.0000000   0.0000000   0.0000000), wk =   0.1250000
        k(    2) = (   0.0000000   0.0419351   0.0000000), wk =   0.2500000
        k(    3) = (   0.0000000  -0.0838702   0.0000000), wk =   0.1250000
        k(    4) = (   0.0379955   0.0000049   0.0000000), wk =   0.2500000
        k(    5) = (   0.0379955   0.0419400   0.0000000), wk =   0.2500000
        k(    6) = (   0.0379955  -0.0838652   0.0000000), wk =   0.2500000
        k(    7) = (   0.0379955  -0.0419301   0.0000000), wk =   0.2500000
        k(    8) = (  -0.0759910  -0.0000099   0.0000000), wk =   0.1250000
        k(    9) = (  -0.0759910   0.0419252   0.0000000), wk =   0.2500000
        k(   10) = (  -0.0759910  -0.0838800   0.0000000), wk =   0.1250000

     Dense  grid:   566857 G-vectors     FFT dimensions: (  72,  64, 270)

     Smooth grid:   143421 G-vectors     FFT dimensions: (  45,  40, 180)

     Estimated max dynamical RAM per process >     367.84 MB

     Estimated total dynamical RAM >       3.59 GB
     Cannot read rho : file not found

     Initial potential from superposition of free atoms

     starting charge  388.99913, renormalised to  405.00000

     negative rho (up, down):  1.580E-02 0.000E+00


     %%%%%%%%%%%%%%%%%%%%%%%%%%%%%%%%%%%%%%%%%%%%%%%%%%%%%%%%%%%%%%%%%%%%%%%%
     %                                                                      %
     % You are using vdW-DF, which was implemented by the Thonhauser group. %
     % Please cite the following two papers that made this development      %
     % possible and the two reviews that describe the various versions:     %
     %                                                                      %
     %   T. Thonhauser et al., PRL 115, 136402 (2015).                      %
     %   T. Thonhauser et al., PRB 76, 125112 (2007).                       %
     %   K. Berland et al., Rep. Prog. Phys. 78, 066501 (2015).             %
     %   D.C. Langreth et al., J. Phys.: Condens. Matter 21, 084203 (2009). %
     %                                                                      %
     %                                                                      %
     % If you are calculating the stress with vdW-DF, please also cite:     %
     %                                                                      %
     %   R. Sabatini et al., J. Phys.: Condens. Matter 24, 424209 (2012).   %
     %                                                                      %
     %%%%%%%%%%%%%%%%%%%%%%%%%%%%%%%%%%%%%%%%%%%%%%%%%%%%%%%%%%%%%%%%%%%%%%%%


 
     Adding external electric field

     Computed dipole along edir(3) : 
        Dipole              -14.4816 Ry au,        -36.8086 Debye
        Dipole field         -0.0273 Ry au, 
 
        Potential amp.        2.5333 Ry
        Total length         46.3494 bohr
 
     Starting wfcs are  307 atomic wfcs
  @ DRIVER MODE: Message from server: STATUS
  @ DRIVER MODE: Message from server: POSDATA
  @ DRIVER MODE: Reading and sharing cell 
  @ DRIVER MODE: Reading and sharing positions 
  @ DRIVER MODE: Received positions 

     total cpu time spent up to now is       11.4 secs

     Self-consistent Calculation

     iteration #  1     ecut=    29.40 Ry     beta= 0.05
     Davidson diagonalization with overlap
     c_bands:  2 eigenvalues not converged
     c_bands:  5 eigenvalues not converged
     c_bands:  1 eigenvalues not converged
     c_bands:  3 eigenvalues not converged
     c_bands:  3 eigenvalues not converged
     c_bands:  4 eigenvalues not converged
     ethr =  1.00E-05,  avg # of iterations = 27.0

     negative rho (up, down):  8.649E-03 0.000E+00
 
     Adding external electric field

     Computed dipole along edir(3) : 
        Dipole               61.9255 Ry au,        157.3989 Debye
        Dipole field          0.1169 Ry au, 
 
        Potential amp.      -10.8329 Ry
        Total length         46.3494 bohr
 

     total cpu time spent up to now is       60.9 secs

     total energy              =   -2173.23392228 Ry
     estimated scf accuracy    <    9121.56774485 Ry

     iteration #  2     ecut=    29.40 Ry     beta= 0.05
     Davidson diagonalization with overlap
     ethr =  1.00E-02,  avg # of iterations = 28.3

     negative rho (up, down):  2.166E-04 0.000E+00
 
     Adding external electric field

     Computed dipole along edir(3) : 
        Dipole                1.6234 Ry au,          4.1264 Debye
        Dipole field          0.0031 Ry au, 
 
        Potential amp.       -0.2840 Ry
        Total length         46.3494 bohr
 

     total cpu time spent up to now is      152.3 secs

     total energy              =   -2487.16286529 Ry
     estimated scf accuracy    <   75656.21854951 Ry

     iteration #  3     ecut=    29.40 Ry     beta= 0.05
     Davidson diagonalization with overlap
     ethr =  1.00E-02,  avg # of iterations = 15.7

     negative rho (up, down):  2.660E-04 0.000E+00
 
     Adding external electric field

     Computed dipole along edir(3) : 
        Dipole               -2.5679 Ry au,         -6.5270 Debye
        Dipole field         -0.0048 Ry au, 
 
        Potential amp.        0.4492 Ry
        Total length         46.3494 bohr
 

     total cpu time spent up to now is      201.2 secs

     total energy              =   -2961.00646872 Ry
     estimated scf accuracy    <    8624.10187939 Ry

     iteration #  4     ecut=    29.40 Ry     beta= 0.05
     Davidson diagonalization with overlap
     ethr =  1.00E-02,  avg # of iterations = 12.8

     negative rho (up, down):  2.844E-04 0.000E+00
 
     Adding external electric field

     Computed dipole along edir(3) : 
        Dipole               -4.4665 Ry au,        -11.3526 Debye
        Dipole field         -0.0084 Ry au, 
 
        Potential amp.        0.7813 Ry
        Total length         46.3494 bohr
 

     total cpu time spent up to now is      226.1 secs

     total energy              =   -2971.64033425 Ry
     estimated scf accuracy    <    2386.82824783 Ry

     iteration #  5     ecut=    29.40 Ry     beta= 0.05
     Davidson diagonalization with overlap
     ethr =  1.00E-02,  avg # of iterations =  4.0

     negative rho (up, down):  3.670E-04 0.000E+00
 
     Adding external electric field

     Computed dipole along edir(3) : 
        Dipole               -9.5483 Ry au,        -24.2694 Debye
        Dipole field         -0.0180 Ry au, 
 
        Potential amp.        1.6703 Ry
        Total length         46.3494 bohr
 

     total cpu time spent up to now is      237.8 secs

     total energy              =   -2918.47792024 Ry
     estimated scf accuracy    <    2148.65045512 Ry

     iteration #  6     ecut=    29.40 Ry     beta= 0.05
     Davidson diagonalization with overlap
     ethr =  1.00E-02,  avg # of iterations =  9.8

     negative rho (up, down):  3.065E-04 0.000E+00
 
     Adding external electric field

     Computed dipole along edir(3) : 
        Dipole               -6.0918 Ry au,        -15.4838 Debye
        Dipole field         -0.0115 Ry au, 
 
        Potential amp.        1.0657 Ry
        Total length         46.3494 bohr
 

     total cpu time spent up to now is      263.5 secs

     total energy              =   -2973.62866841 Ry
     estimated scf accuracy    <     701.47765022 Ry

     iteration #  7     ecut=    29.40 Ry     beta= 0.05
     Davidson diagonalization with overlap
     ethr =  1.00E-02,  avg # of iterations =  5.2

     negative rho (up, down):  3.103E-04 0.000E+00
 
     Adding external electric field

     Computed dipole along edir(3) : 
        Dipole               -5.2525 Ry au,        -13.3506 Debye
        Dipole field         -0.0099 Ry au, 
 
        Potential amp.        0.9189 Ry
        Total length         46.3494 bohr
 

     total cpu time spent up to now is      275.5 secs

     total energy              =   -2980.27409113 Ry
     estimated scf accuracy    <      76.61675566 Ry

     iteration #  8     ecut=    29.40 Ry     beta= 0.05
     Davidson diagonalization with overlap
     ethr =  1.00E-02,  avg # of iterations =  2.3

     negative rho (up, down):  3.452E-04 0.000E+00
 
     Adding external electric field

     Computed dipole along edir(3) : 
        Dipole               -2.1089 Ry au,         -5.3602 Debye
        Dipole field         -0.0040 Ry au, 
 
        Potential amp.        0.3689 Ry
        Total length         46.3494 bohr
 

     total cpu time spent up to now is      286.1 secs

     total energy              =   -2974.80561157 Ry
     estimated scf accuracy    <      64.29546542 Ry

     iteration #  9     ecut=    29.40 Ry     beta= 0.05
     Davidson diagonalization with overlap
     c_bands:  1 eigenvalues not converged
     c_bands:  1 eigenvalues not converged
     ethr =  1.00E-02,  avg # of iterations = 17.8

     negative rho (up, down):  3.438E-04 0.000E+00
 
     Adding external electric field

     Computed dipole along edir(3) : 
        Dipole               -2.1406 Ry au,         -5.4409 Debye
        Dipole field         -0.0040 Ry au, 
 
        Potential amp.        0.3745 Ry
        Total length         46.3494 bohr
 

     total cpu time spent up to now is      305.0 secs

     total energy              =   -2982.27856930 Ry
     estimated scf accuracy    <     358.40712033 Ry

     iteration # 10     ecut=    29.40 Ry     beta= 0.05
     Davidson diagonalization with overlap
     ethr =  1.00E-02,  avg # of iterations =  1.7

     negative rho (up, down):  3.397E-04 0.000E+00
 
     Adding external electric field

     Computed dipole along edir(3) : 
        Dipole               -0.4248 Ry au,         -1.0796 Debye
        Dipole field         -0.0008 Ry au, 
 
        Potential amp.        0.0743 Ry
        Total length         46.3494 bohr
 

     total cpu time spent up to now is      315.6 secs

     total energy              =   -2984.73981157 Ry
     estimated scf accuracy    <     371.61569799 Ry

     iteration # 11     ecut=    29.40 Ry     beta= 0.05
     Davidson diagonalization with overlap
     ethr =  1.00E-02,  avg # of iterations =  4.6

     negative rho (up, down):  4.057E-04 0.000E+00
 
     Adding external electric field

     Computed dipole along edir(3) : 
        Dipole                2.4617 Ry au,          6.2570 Debye
        Dipole field          0.0046 Ry au, 
 
        Potential amp.       -0.4306 Ry
        Total length         46.3494 bohr
 

     total cpu time spent up to now is      327.2 secs

     total energy              =   -2992.18635555 Ry
     estimated scf accuracy    <     663.46112937 Ry

     iteration # 12     ecut=    29.40 Ry     beta= 0.05
     Davidson diagonalization with overlap
     ethr =  1.00E-02,  avg # of iterations =  9.4

     negative rho (up, down):  4.867E-04 0.000E+00
 
     Adding external electric field

     Computed dipole along edir(3) : 
        Dipole                1.0694 Ry au,          2.7181 Debye
        Dipole field          0.0020 Ry au, 
 
        Potential amp.       -0.1871 Ry
        Total length         46.3494 bohr
 

     total cpu time spent up to now is      344.5 secs

     total energy              =   -2980.51622352 Ry
     estimated scf accuracy    <    3051.11025421 Ry

     iteration # 13     ecut=    29.40 Ry     beta= 0.05
     Davidson diagonalization with overlap
     ethr =  1.00E-02,  avg # of iterations =  2.5

     negative rho (up, down):  4.814E-04 0.000E+00
 
     Adding external electric field

     Computed dipole along edir(3) : 
        Dipole                0.1821 Ry au,          0.4629 Debye
        Dipole field          0.0003 Ry au, 
 
        Potential amp.       -0.0319 Ry
        Total length         46.3494 bohr
 

     total cpu time spent up to now is      355.6 secs

     total energy              =   -2969.35162167 Ry
     estimated scf accuracy    <    2548.04346064 Ry

     iteration # 14     ecut=    29.40 Ry     beta= 0.05
     Davidson diagonalization with overlap
     c_bands:  3 eigenvalues not converged
     ethr =  1.00E-02,  avg # of iterations =  6.3

     negative rho (up, down):  4.554E-04 0.000E+00
 
     Adding external electric field

     Computed dipole along edir(3) : 
        Dipole               -4.9867 Ry au,        -12.6749 Debye
        Dipole field         -0.0094 Ry au, 
 
        Potential amp.        0.8723 Ry
        Total length         46.3494 bohr
 

     total cpu time spent up to now is      368.2 secs

     total energy              =   -2931.48379093 Ry
     estimated scf accuracy    <    1919.29253670 Ry

     iteration # 15     ecut=    29.40 Ry     beta= 0.05
     Davidson diagonalization with overlap
     ethr =  1.00E-02,  avg # of iterations = 11.1

     negative rho (up, down):  4.673E-04 0.000E+00
 
     Adding external electric field

     Computed dipole along edir(3) : 
        Dipole               -2.8752 Ry au,         -7.3079 Debye
        Dipole field         -0.0054 Ry au, 
 
        Potential amp.        0.5030 Ry
        Total length         46.3494 bohr
 

     total cpu time spent up to now is      393.0 secs

     total energy              =   -2974.32474055 Ry
     estimated scf accuracy    <     209.01865945 Ry

     iteration # 16     ecut=    29.40 Ry     beta= 0.05
     Davidson diagonalization with overlap
     ethr =  1.00E-02,  avg # of iterations =  2.0

     negative rho (up, down):  4.684E-04 0.000E+00
 
     Adding external electric field

     Computed dipole along edir(3) : 
        Dipole               -4.5676 Ry au,        -11.6096 Debye
        Dipole field         -0.0086 Ry au, 
 
        Potential amp.        0.7990 Ry
        Total length         46.3494 bohr
 

     total cpu time spent up to now is      404.0 secs

     total energy              =   -2979.08989775 Ry
     estimated scf accuracy    <       9.91843495 Ry

     iteration # 17     ecut=    29.40 Ry     beta= 0.05
     Davidson diagonalization with overlap
     ethr =  2.45E-03,  avg # of iterations =  7.9

     negative rho (up, down):  5.056E-04 0.000E+00
 
     Adding external electric field

     Computed dipole along edir(3) : 
        Dipole               -3.1610 Ry au,         -8.0344 Debye
        Dipole field         -0.0060 Ry au, 
 
        Potential amp.        0.5530 Ry
        Total length         46.3494 bohr
 

     total cpu time spent up to now is      417.1 secs

     total energy              =   -2975.78846017 Ry
     estimated scf accuracy    <     335.89501263 Ry

     iteration # 18     ecut=    29.40 Ry     beta= 0.05
     Davidson diagonalization with overlap
     ethr =  2.45E-03,  avg # of iterations =  2.4

     negative rho (up, down):  5.639E-04 0.000E+00
 
     Adding external electric field

     Computed dipole along edir(3) : 
        Dipole               -3.4846 Ry au,         -8.8569 Debye
        Dipole field         -0.0066 Ry au, 
 
        Potential amp.        0.6096 Ry
        Total length         46.3494 bohr
 

     total cpu time spent up to now is      428.0 secs

     total energy              =   -2978.85134386 Ry
     estimated scf accuracy    <      21.64441142 Ry

     iteration # 19     ecut=    29.40 Ry     beta= 0.05
     Davidson diagonalization with overlap
     ethr =  2.45E-03,  avg # of iterations =  1.2

     negative rho (up, down):  5.808E-04 0.000E+00
 
     Adding external electric field

     Computed dipole along edir(3) : 
        Dipole               -2.4746 Ry au,         -6.2899 Debye
        Dipole field         -0.0047 Ry au, 
 
        Potential amp.        0.4329 Ry
        Total length         46.3494 bohr
 

     total cpu time spent up to now is      438.3 secs

     total energy              =   -2976.11453369 Ry
     estimated scf accuracy    <     266.23391531 Ry

     iteration # 20     ecut=    29.40 Ry     beta= 0.05
     Davidson diagonalization with overlap
     ethr =  2.45E-03,  avg # of iterations =  1.3

     negative rho (up, down):  6.602E-04 0.000E+00
 
     Adding external electric field

     Computed dipole along edir(3) : 
        Dipole               -2.1803 Ry au,         -5.5417 Debye
        Dipole field         -0.0041 Ry au, 
 
        Potential amp.        0.3814 Ry
        Total length         46.3494 bohr
 

     total cpu time spent up to now is      448.5 secs

     total energy              =   -2977.93642547 Ry
     estimated scf accuracy    <      17.79773169 Ry

     iteration # 21     ecut=    29.40 Ry     beta= 0.05
     Davidson diagonalization with overlap
     ethr =  2.45E-03,  avg # of iterations =  1.0

     negative rho (up, down):  6.881E-04 0.000E+00
 
     Adding external electric field

     Computed dipole along edir(3) : 
        Dipole               -1.2661 Ry au,         -3.2182 Debye
        Dipole field         -0.0024 Ry au, 
 
        Potential amp.        0.2215 Ry
        Total length         46.3494 bohr
 

     total cpu time spent up to now is      458.6 secs

     total energy              =   -2976.50382144 Ry
     estimated scf accuracy    <      51.43891692 Ry

     iteration # 22     ecut=    29.40 Ry     beta= 0.05
     Davidson diagonalization with overlap
     ethr =  2.45E-03,  avg # of iterations =  9.5

     negative rho (up, down):  6.588E-04 0.000E+00
 
     Adding external electric field

     Computed dipole along edir(3) : 
        Dipole               -1.2842 Ry au,         -3.2642 Debye
        Dipole field         -0.0024 Ry au, 
 
        Potential amp.        0.2247 Ry
        Total length         46.3494 bohr
 

     total cpu time spent up to now is      471.6 secs

     total energy              =   -2977.19930170 Ry
     estimated scf accuracy    <       7.72084605 Ry

     iteration # 23     ecut=    29.40 Ry     beta= 0.05
     Davidson diagonalization with overlap
     ethr =  1.91E-03,  avg # of iterations =  2.4

     negative rho (up, down):  8.229E-04 0.000E+00
 
     Adding external electric field

     Computed dipole along edir(3) : 
        Dipole               -0.5584 Ry au,         -1.4192 Debye
        Dipole field         -0.0011 Ry au, 
 
        Potential amp.        0.0977 Ry
        Total length         46.3494 bohr
 

     total cpu time spent up to now is      482.3 secs

     total energy              =   -2976.78930270 Ry
     estimated scf accuracy    <       7.21440175 Ry

     iteration # 24     ecut=    29.40 Ry     beta= 0.05
     Davidson diagonalization with overlap
     ethr =  1.78E-03,  avg # of iterations =  5.9

     negative rho (up, down):  9.452E-04 0.000E+00
 
     Adding external electric field

     Computed dipole along edir(3) : 
        Dipole               -0.4516 Ry au,         -1.1479 Debye
        Dipole field         -0.0009 Ry au, 
 
        Potential amp.        0.0790 Ry
        Total length         46.3494 bohr
 

     total cpu time spent up to now is      494.2 secs

     total energy              =   -2976.20142221 Ry
     estimated scf accuracy    <       5.72606502 Ry

     iteration # 25     ecut=    29.40 Ry     beta= 0.05
     Davidson diagonalization with overlap
     c_bands:  2 eigenvalues not converged
     c_bands:  2 eigenvalues not converged
     ethr =  1.41E-03,  avg # of iterations =  8.0

     negative rho (up, down):  7.795E-04 0.000E+00
 
     Adding external electric field

     Computed dipole along edir(3) : 
        Dipole               -0.2485 Ry au,         -0.6316 Debye
        Dipole field         -0.0005 Ry au, 
 
        Potential amp.        0.0435 Ry
        Total length         46.3494 bohr
 

     total cpu time spent up to now is      507.6 secs

     total energy              =   -2976.08196857 Ry
     estimated scf accuracy    <       2.80762170 Ry

     iteration # 26     ecut=    29.40 Ry     beta= 0.05
     Davidson diagonalization with overlap
     c_bands:  4 eigenvalues not converged
     c_bands:  2 eigenvalues not converged
     c_bands:  5 eigenvalues not converged
     c_bands:  3 eigenvalues not converged
     c_bands:  4 eigenvalues not converged
     c_bands:  3 eigenvalues not converged
     c_bands:  4 eigenvalues not converged
     c_bands:  2 eigenvalues not converged
     c_bands:  5 eigenvalues not converged
     ethr =  6.93E-04,  avg # of iterations = 20.2

     negative rho (up, down):  8.036E-04 0.000E+00
 
     Adding external electric field

     Computed dipole along edir(3) : 
        Dipole               -0.5354 Ry au,         -1.3608 Debye
        Dipole field         -0.0010 Ry au, 
 
        Potential amp.        0.0937 Ry
        Total length         46.3494 bohr
 

     total cpu time spent up to now is      533.8 secs

     total energy              =   -2973.78276292 Ry
     estimated scf accuracy    <     413.45760072 Ry

     iteration # 27     ecut=    29.40 Ry     beta= 0.05
     Davidson diagonalization with overlap
     ethr =  6.93E-04,  avg # of iterations = 13.2

     negative rho (up, down):  9.365E-04 0.000E+00
 
     Adding external electric field

     Computed dipole along edir(3) : 
        Dipole               -0.0180 Ry au,         -0.0457 Debye
        Dipole field         -0.0000 Ry au, 
 
        Potential amp.        0.0031 Ry
        Total length         46.3494 bohr
 

     total cpu time spent up to now is      550.7 secs

     total energy              =   -2976.49991831 Ry
     estimated scf accuracy    <       5.20311537 Ry

     iteration # 28     ecut=    29.40 Ry     beta= 0.05
     Davidson diagonalization with overlap
     ethr =  6.93E-04,  avg # of iterations =  1.0

     negative rho (up, down):  1.163E-03 0.000E+00
 
     Adding external electric field

     Computed dipole along edir(3) : 
        Dipole                0.5634 Ry au,          1.4321 Debye
        Dipole field          0.0011 Ry au, 
 
        Potential amp.       -0.0986 Ry
        Total length         46.3494 bohr
 

     total cpu time spent up to now is      560.7 secs

     total energy              =   -2976.40907240 Ry
     estimated scf accuracy    <       4.69077434 Ry

     iteration # 29     ecut=    29.40 Ry     beta= 0.05
     Davidson diagonalization with overlap
     ethr =  6.93E-04,  avg # of iterations =  2.8

     negative rho (up, down):  1.455E-03 0.000E+00
 
     Adding external electric field

     Computed dipole along edir(3) : 
        Dipole                1.0256 Ry au,          2.6069 Debye
        Dipole field          0.0019 Ry au, 
 
        Potential amp.       -0.1794 Ry
        Total length         46.3494 bohr
 

     total cpu time spent up to now is      571.9 secs

     total energy              =   -2976.21893850 Ry
     estimated scf accuracy    <       3.26173034 Ry

     iteration # 30     ecut=    29.40 Ry     beta= 0.05
     Davidson diagonalization with overlap
     c_bands:  4 eigenvalues not converged
     c_bands:  3 eigenvalues not converged
     c_bands:  2 eigenvalues not converged
     c_bands:  1 eigenvalues not converged
     c_bands:  1 eigenvalues not converged
     ethr =  6.93E-04,  avg # of iterations = 16.8

     negative rho (up, down):  1.488E-03 0.000E+00
 
     Adding external electric field

     Computed dipole along edir(3) : 
        Dipole                0.7727 Ry au,          1.9641 Debye
        Dipole field          0.0015 Ry au, 
 
        Potential amp.       -0.1352 Ry
        Total length         46.3494 bohr
 

     total cpu time spent up to now is      587.6 secs

     total energy              =   -2976.43263213 Ry
     estimated scf accuracy    <       1.37317568 Ry

     iteration # 31     ecut=    29.40 Ry     beta= 0.05
     Davidson diagonalization with overlap
     c_bands:  3 eigenvalues not converged
     c_bands:  2 eigenvalues not converged
     c_bands:  1 eigenvalues not converged
     c_bands:  1 eigenvalues not converged
     c_bands:  2 eigenvalues not converged
     c_bands:  2 eigenvalues not converged
     c_bands:  1 eigenvalues not converged
     c_bands:  3 eigenvalues not converged
     c_bands:  4 eigenvalues not converged
     ethr =  3.39E-04,  avg # of iterations = 20.0

     negative rho (up, down):  1.426E-03 0.000E+00
 
     Adding external electric field

     Computed dipole along edir(3) : 
        Dipole                0.7270 Ry au,          1.8480 Debye
        Dipole field          0.0014 Ry au, 
 
        Potential amp.       -0.1272 Ry
        Total length         46.3494 bohr
 

     total cpu time spent up to now is      606.9 secs

     total energy              =   -2976.28101973 Ry
     estimated scf accuracy    <       2.16386037 Ry

     iteration # 32     ecut=    29.40 Ry     beta= 0.05
     Davidson diagonalization with overlap
     c_bands:  2 eigenvalues not converged
     c_bands:  2 eigenvalues not converged
     ethr =  3.39E-04,  avg # of iterations =  9.1

     negative rho (up, down):  1.376E-03 0.000E+00
 
     Adding external electric field

     Computed dipole along edir(3) : 
        Dipole                0.7466 Ry au,          1.8976 Debye
        Dipole field          0.0014 Ry au, 
 
        Potential amp.       -0.1306 Ry
        Total length         46.3494 bohr
 

     total cpu time spent up to now is      620.2 secs

     total energy              =   -2976.30262929 Ry
     estimated scf accuracy    <       3.72775964 Ry

     iteration # 33     ecut=    29.40 Ry     beta= 0.05
     Davidson diagonalization with overlap
     ethr =  3.39E-04,  avg # of iterations =  6.8

     negative rho (up, down):  1.298E-03 0.000E+00
 
     Adding external electric field

     Computed dipole along edir(3) : 
        Dipole                0.5877 Ry au,          1.4938 Debye
        Dipole field          0.0011 Ry au, 
 
        Potential amp.       -0.1028 Ry
        Total length         46.3494 bohr
 

     total cpu time spent up to now is      632.5 secs

     total energy              =   -2976.32239871 Ry
     estimated scf accuracy    <       0.67846890 Ry

     iteration # 34     ecut=    29.40 Ry     beta= 0.05
     Davidson diagonalization with overlap
     c_bands:  5 eigenvalues not converged
     c_bands:  5 eigenvalues not converged
     c_bands:  3 eigenvalues not converged
     c_bands:  3 eigenvalues not converged
     c_bands:  4 eigenvalues not converged
     ethr =  1.68E-04,  avg # of iterations = 18.2

     negative rho (up, down):  1.573E-03 0.000E+00
 
     Adding external electric field

     Computed dipole along edir(3) : 
        Dipole                0.7914 Ry au,          2.0117 Debye
        Dipole field          0.0015 Ry au, 
 
        Potential amp.       -0.1385 Ry
        Total length         46.3494 bohr
 

     total cpu time spent up to now is      650.1 secs

     total energy              =   -2976.31556316 Ry
     estimated scf accuracy    <       0.65625373 Ry

     iteration # 35     ecut=    29.40 Ry     beta= 0.05
     Davidson diagonalization with overlap
     ethr =  1.62E-04,  avg # of iterations =  2.0

     negative rho (up, down):  2.022E-03 0.000E+00
 
     Adding external electric field

     Computed dipole along edir(3) : 
        Dipole                1.0296 Ry au,          2.6169 Debye
        Dipole field          0.0019 Ry au, 
 
        Potential amp.       -0.1801 Ry
        Total length         46.3494 bohr
 

     total cpu time spent up to now is      661.1 secs

     total energy              =   -2976.31683455 Ry
     estimated scf accuracy    <       0.36678098 Ry

     iteration # 36     ecut=    29.40 Ry     beta= 0.05
     Davidson diagonalization with overlap
     c_bands:  3 eigenvalues not converged
     c_bands:  2 eigenvalues not converged
     ethr =  9.06E-05,  avg # of iterations = 13.2

     negative rho (up, down):  2.090E-03 0.000E+00
 
     Adding external electric field

     Computed dipole along edir(3) : 
        Dipole                0.9455 Ry au,          2.4033 Debye
        Dipole field          0.0018 Ry au, 
 
        Potential amp.       -0.1654 Ry
        Total length         46.3494 bohr
 

     total cpu time spent up to now is      676.0 secs

     total energy              =   -2976.32413335 Ry
     estimated scf accuracy    <       0.14563754 Ry

     iteration # 37     ecut=    29.40 Ry     beta= 0.05
     Davidson diagonalization with overlap
     c_bands:  2 eigenvalues not converged
     c_bands:  2 eigenvalues not converged
     c_bands:  1 eigenvalues not converged
     c_bands:  2 eigenvalues not converged
     ethr =  3.60E-05,  avg # of iterations = 15.4

     negative rho (up, down):  2.322E-03 0.000E+00
 
     Adding external electric field

     Computed dipole along edir(3) : 
        Dipole                1.0109 Ry au,          2.5694 Debye
        Dipole field          0.0019 Ry au, 
 
        Potential amp.       -0.1768 Ry
        Total length         46.3494 bohr
 

     total cpu time spent up to now is      691.4 secs

     total energy              =   -2976.32261014 Ry
     estimated scf accuracy    <       0.25290593 Ry

     iteration # 38     ecut=    29.40 Ry     beta= 0.05
     Davidson diagonalization with overlap
     c_bands:  3 eigenvalues not converged
     c_bands:  2 eigenvalues not converged
     ethr =  3.60E-05,  avg # of iterations = 10.5

     negative rho (up, down):  2.445E-03 0.000E+00
 
     Adding external electric field

     Computed dipole along edir(3) : 
        Dipole                0.9712 Ry au,          2.4687 Debye
        Dipole field          0.0018 Ry au, 
 
        Potential amp.       -0.1699 Ry
        Total length         46.3494 bohr
 

     total cpu time spent up to now is      704.7 secs

     total energy              =   -2976.32356611 Ry
     estimated scf accuracy    <       0.49671022 Ry

     iteration # 39     ecut=    29.40 Ry     beta= 0.05
     Davidson diagonalization with overlap
     ethr =  3.60E-05,  avg # of iterations =  5.9

     negative rho (up, down):  3.545E-03 0.000E+00
 
     Adding external electric field

     Computed dipole along edir(3) : 
        Dipole                1.0567 Ry au,          2.6858 Debye
        Dipole field          0.0020 Ry au, 
 
        Potential amp.       -0.1849 Ry
        Total length         46.3494 bohr
 

     total cpu time spent up to now is      716.7 secs

     total energy              =   -2976.30590590 Ry
     estimated scf accuracy    <       0.20654129 Ry

     iteration # 40     ecut=    29.40 Ry     beta= 0.05
     Davidson diagonalization with overlap
     c_bands:  1 eigenvalues not converged
     c_bands:  1 eigenvalues not converged
     c_bands:  4 eigenvalues not converged
     c_bands:  1 eigenvalues not converged
     c_bands:  1 eigenvalues not converged
     c_bands:  1 eigenvalues not converged
     c_bands:  2 eigenvalues not converged
     ethr =  3.60E-05,  avg # of iterations = 18.7

     negative rho (up, down):  3.172E-03 0.000E+00
 
     Adding external electric field

     Computed dipole along edir(3) : 
        Dipole                1.0736 Ry au,          2.7287 Debye
        Dipole field          0.0020 Ry au, 
 
        Potential amp.       -0.1878 Ry
        Total length         46.3494 bohr
 

     total cpu time spent up to now is      735.8 secs

     total energy              =   -2976.30978668 Ry
     estimated scf accuracy    <       0.67435939 Ry

     iteration # 41     ecut=    29.40 Ry     beta= 0.05
     Davidson diagonalization with overlap
     ethr =  3.60E-05,  avg # of iterations = 10.0

     negative rho (up, down):  4.508E-03 0.000E+00
 
     Adding external electric field

     Computed dipole along edir(3) : 
        Dipole                1.2507 Ry au,          3.1789 Debye
        Dipole field          0.0024 Ry au, 
 
        Potential amp.       -0.2188 Ry
        Total length         46.3494 bohr
 

     total cpu time spent up to now is      748.7 secs

     total energy              =   -2976.32027449 Ry
     estimated scf accuracy    <       0.03807772 Ry

     iteration # 42     ecut=    29.40 Ry     beta= 0.05
     Davidson diagonalization with overlap
     c_bands:  2 eigenvalues not converged
     c_bands:  1 eigenvalues not converged
     c_bands:  2 eigenvalues not converged
     c_bands:  2 eigenvalues not converged
     c_bands:  1 eigenvalues not converged
     c_bands:  2 eigenvalues not converged
     c_bands:  1 eigenvalues not converged
     c_bands:  2 eigenvalues not converged
     ethr =  9.40E-06,  avg # of iterations = 18.7

     negative rho (up, down):  4.893E-03 0.000E+00
 
     Adding external electric field

     Computed dipole along edir(3) : 
        Dipole                1.2214 Ry au,          3.1044 Debye
        Dipole field          0.0023 Ry au, 
 
        Potential amp.       -0.2137 Ry
        Total length         46.3494 bohr
 

     total cpu time spent up to now is      770.8 secs

     total energy              =   -2976.32347521 Ry
     estimated scf accuracy    <       0.05802836 Ry

     iteration # 43     ecut=    29.40 Ry     beta= 0.05
     Davidson diagonalization with overlap
     c_bands:  2 eigenvalues not converged
     ethr =  9.40E-06,  avg # of iterations = 10.0

     negative rho (up, down):  6.128E-03 0.000E+00
 
     Adding external electric field

     Computed dipole along edir(3) : 
        Dipole                1.2498 Ry au,          3.1766 Debye
        Dipole field          0.0024 Ry au, 
 
        Potential amp.       -0.2186 Ry
        Total length         46.3494 bohr
 

     total cpu time spent up to now is      783.8 secs

     total energy              =   -2976.32338288 Ry
     estimated scf accuracy    <       0.01674310 Ry

     iteration # 44     ecut=    29.40 Ry     beta= 0.05
     Davidson diagonalization with overlap
     c_bands:  2 eigenvalues not converged
     ethr =  4.13E-06,  avg # of iterations = 15.0

     negative rho (up, down):  8.197E-03 0.000E+00
 
     Adding external electric field

     Computed dipole along edir(3) : 
        Dipole                1.3210 Ry au,          3.3576 Debye
        Dipole field          0.0025 Ry au, 
 
        Potential amp.       -0.2311 Ry
        Total length         46.3494 bohr
 

     total cpu time spent up to now is      803.1 secs

     total energy              =   -2976.32548227 Ry
     estimated scf accuracy    <       0.02004362 Ry

     iteration # 45     ecut=    29.40 Ry     beta= 0.05
     Davidson diagonalization with overlap
     c_bands:  2 eigenvalues not converged
     c_bands:  2 eigenvalues not converged
     ethr =  4.13E-06,  avg # of iterations = 10.1

     negative rho (up, down):  8.934E-03 0.000E+00
 
     Adding external electric field

     Computed dipole along edir(3) : 
        Dipole                1.3025 Ry au,          3.3106 Debye
        Dipole field          0.0025 Ry au, 
 
        Potential amp.       -0.2278 Ry
        Total length         46.3494 bohr
 

     total cpu time spent up to now is      816.1 secs

     total energy              =   -2976.32583048 Ry
     estimated scf accuracy    <       0.00447394 Ry

     iteration # 46     ecut=    29.40 Ry     beta= 0.05
     Davidson diagonalization with overlap
     c_bands:  2 eigenvalues not converged
     c_bands:  1 eigenvalues not converged
     c_bands:  3 eigenvalues not converged
     c_bands:  1 eigenvalues not converged
     ethr =  1.10E-06,  avg # of iterations = 14.2

     negative rho (up, down):  8.896E-03 0.000E+00
 
     Adding external electric field

     Computed dipole along edir(3) : 
        Dipole                1.3018 Ry au,          3.3089 Debye
        Dipole field          0.0025 Ry au, 
 
        Potential amp.       -0.2277 Ry
        Total length         46.3494 bohr
 

     total cpu time spent up to now is      834.4 secs

     total energy              =   -2976.32649509 Ry
     estimated scf accuracy    <       0.00323378 Ry

     iteration # 47     ecut=    29.40 Ry     beta= 0.05
     Davidson diagonalization with overlap
     c_bands:  1 eigenvalues not converged
     ethr =  7.98E-07,  avg # of iterations =  7.0

     negative rho (up, down):  9.638E-03 0.000E+00
 
     Adding external electric field

     Computed dipole along edir(3) : 
        Dipole                1.3176 Ry au,          3.3490 Debye
        Dipole field          0.0025 Ry au, 
 
        Potential amp.       -0.2305 Ry
        Total length         46.3494 bohr
 

     total cpu time spent up to now is      846.5 secs

     total energy              =   -2976.32624631 Ry
     estimated scf accuracy    <       0.00220732 Ry

     iteration # 48     ecut=    29.40 Ry     beta= 0.05
     Davidson diagonalization with overlap
     c_bands:  2 eigenvalues not converged
     ethr =  5.45E-07,  avg # of iterations = 10.9

     negative rho (up, down):  1.079E-02 0.000E+00
 
     Adding external electric field

     Computed dipole along edir(3) : 
        Dipole                1.3306 Ry au,          3.3819 Debye
        Dipole field          0.0025 Ry au, 
 
        Potential amp.       -0.2328 Ry
        Total length         46.3494 bohr
 

     total cpu time spent up to now is      863.4 secs

     total energy              =   -2976.32677934 Ry
     estimated scf accuracy    <       0.00213629 Ry

     iteration # 49     ecut=    29.40 Ry     beta= 0.05
     Davidson diagonalization with overlap
     c_bands:  2 eigenvalues not converged
     ethr =  5.27E-07,  avg # of iterations =  7.5

     negative rho (up, down):  1.152E-02 0.000E+00
 
     Adding external electric field

     Computed dipole along edir(3) : 
        Dipole                1.3381 Ry au,          3.4012 Debye
        Dipole field          0.0025 Ry au, 
 
        Potential amp.       -0.2341 Ry
        Total length         46.3494 bohr
 

     total cpu time spent up to now is      876.5 secs

     total energy              =   -2976.32664000 Ry
     estimated scf accuracy    <       0.00201016 Ry

     iteration # 50     ecut=    29.40 Ry     beta= 0.05
     Davidson diagonalization with overlap
     ethr =  4.96E-07,  avg # of iterations =  6.9

     negative rho (up, down):  1.198E-02 0.000E+00
 
     Adding external electric field

     Computed dipole along edir(3) : 
        Dipole                1.3384 Ry au,          3.4018 Debye
        Dipole field          0.0025 Ry au, 
 
        Potential amp.       -0.2341 Ry
        Total length         46.3494 bohr
 

     total cpu time spent up to now is      889.4 secs

     total energy              =   -2976.32683760 Ry
     estimated scf accuracy    <       0.00068440 Ry

     iteration # 51     ecut=    29.40 Ry     beta= 0.05
     Davidson diagonalization with overlap
     c_bands:  1 eigenvalues not converged
     ethr =  1.69E-07,  avg # of iterations = 12.0

     negative rho (up, down):  1.198E-02 0.000E+00
 
     Adding external electric field

     Computed dipole along edir(3) : 
        Dipole                1.3347 Ry au,          3.3924 Debye
        Dipole field          0.0025 Ry au, 
 
        Potential amp.       -0.2335 Ry
        Total length         46.3494 bohr
 

     total cpu time spent up to now is      903.9 secs

     total energy              =   -2976.32684165 Ry
     estimated scf accuracy    <       0.00045589 Ry

     iteration # 52     ecut=    29.40 Ry     beta= 0.05
     Davidson diagonalization with overlap
     ethr =  1.13E-07,  avg # of iterations =  4.8

     negative rho (up, down):  1.306E-02 0.000E+00
 
     Adding external electric field

     Computed dipole along edir(3) : 
        Dipole                1.3356 Ry au,          3.3948 Debye
        Dipole field          0.0025 Ry au, 
 
        Potential amp.       -0.2336 Ry
        Total length         46.3494 bohr
 

     total cpu time spent up to now is      915.5 secs

     total energy              =   -2976.32683886 Ry
     estimated scf accuracy    <       0.00031560 Ry

     iteration # 53     ecut=    29.40 Ry     beta= 0.05
     Davidson diagonalization with overlap
     c_bands:  1 eigenvalues not converged
     c_bands:  1 eigenvalues not converged
     ethr =  7.79E-08,  avg # of iterations = 12.9

     negative rho (up, down):  1.307E-02 0.000E+00
 
     Adding external electric field

     Computed dipole along edir(3) : 
        Dipole                1.3364 Ry au,          3.3968 Debye
        Dipole field          0.0025 Ry au, 
 
        Potential amp.       -0.2338 Ry
        Total length         46.3494 bohr
 

     total cpu time spent up to now is      933.6 secs

     total energy              =   -2976.32689267 Ry
     estimated scf accuracy    <       0.00009105 Ry

     iteration # 54     ecut=    29.40 Ry     beta= 0.05
     Davidson diagonalization with overlap
     c_bands:  2 eigenvalues not converged
     c_bands:  1 eigenvalues not converged
     c_bands:  1 eigenvalues not converged
     c_bands:  1 eigenvalues not converged
     ethr =  2.25E-08,  avg # of iterations = 12.4

     negative rho (up, down):  1.308E-02 0.000E+00
 
     Adding external electric field

     Computed dipole along edir(3) : 
        Dipole                1.3431 Ry au,          3.4139 Debye
        Dipole field          0.0025 Ry au, 
 
        Potential amp.       -0.2350 Ry
        Total length         46.3494 bohr
 

     total cpu time spent up to now is      948.0 secs

     total energy              =   -2976.32689823 Ry
     estimated scf accuracy    <       0.00006238 Ry

     iteration # 55     ecut=    29.40 Ry     beta= 0.05
     Davidson diagonalization with overlap
     ethr =  1.54E-08,  avg # of iterations = 14.7

     negative rho (up, down):  1.293E-02 0.000E+00
 
     Adding external electric field

     Computed dipole along edir(3) : 
        Dipole                1.3398 Ry au,          3.4054 Debye
        Dipole field          0.0025 Ry au, 
 
        Potential amp.       -0.2344 Ry
        Total length         46.3494 bohr
 

     total cpu time spent up to now is      968.5 secs

     total energy              =   -2976.32690932 Ry
     estimated scf accuracy    <       0.00006952 Ry

     iteration # 56     ecut=    29.40 Ry     beta= 0.05
     Davidson diagonalization with overlap
     ethr =  1.54E-08,  avg # of iterations =  6.5

     negative rho (up, down):  1.288E-02 0.000E+00
 
     Adding external electric field

     Computed dipole along edir(3) : 
        Dipole                1.3366 Ry au,          3.3973 Debye
        Dipole field          0.0025 Ry au, 
 
        Potential amp.       -0.2338 Ry
        Total length         46.3494 bohr
 

     total cpu time spent up to now is      981.1 secs

     total energy              =   -2976.32691853 Ry
     estimated scf accuracy    <       0.00002786 Ry

     iteration # 57     ecut=    29.40 Ry     beta= 0.05
     Davidson diagonalization with overlap
     c_bands:  1 eigenvalues not converged
     ethr =  6.88E-09,  avg # of iterations = 16.9

     negative rho (up, down):  1.290E-02 0.000E+00
 
     Adding external electric field

     Computed dipole along edir(3) : 
        Dipole                1.3386 Ry au,          3.4024 Debye
        Dipole field          0.0025 Ry au, 
 
        Potential amp.       -0.2342 Ry
        Total length         46.3494 bohr
 

     total cpu time spent up to now is     1005.3 secs

     total energy              =   -2976.32693252 Ry
     estimated scf accuracy    <       0.00003957 Ry

     iteration # 58     ecut=    29.40 Ry     beta= 0.05
     Davidson diagonalization with overlap
     ethr =  6.88E-09,  avg # of iterations =  7.5

     negative rho (up, down):  1.314E-02 0.000E+00
 
     Adding external electric field

     Computed dipole along edir(3) : 
        Dipole                1.3439 Ry au,          3.4157 Debye
        Dipole field          0.0025 Ry au, 
 
        Potential amp.       -0.2351 Ry
        Total length         46.3494 bohr
 

     total cpu time spent up to now is     1017.9 secs

     total energy              =   -2976.32693876 Ry
     estimated scf accuracy    <       0.00001978 Ry

     iteration # 59     ecut=    29.40 Ry     beta= 0.05
     Davidson diagonalization with overlap
     c_bands:  2 eigenvalues not converged
     ethr =  4.88E-09,  avg # of iterations = 14.6

     negative rho (up, down):  1.315E-02 0.000E+00
 
     Adding external electric field

     Computed dipole along edir(3) : 
        Dipole                1.3412 Ry au,          3.4089 Debye
        Dipole field          0.0025 Ry au, 
 
        Potential amp.       -0.2346 Ry
        Total length         46.3494 bohr
 

     total cpu time spent up to now is     1040.7 secs

     total energy              =   -2976.32694976 Ry
     estimated scf accuracy    <       0.00003842 Ry

     iteration # 60     ecut=    29.40 Ry     beta= 0.05
     Davidson diagonalization with overlap
     ethr =  4.88E-09,  avg # of iterations =  8.8

     negative rho (up, down):  1.317E-02 0.000E+00
 
     Adding external electric field

     Computed dipole along edir(3) : 
        Dipole                1.3418 Ry au,          3.4105 Debye
        Dipole field          0.0025 Ry au, 
 
        Potential amp.       -0.2347 Ry
        Total length         46.3494 bohr
 

     total cpu time spent up to now is     1054.5 secs

     total energy              =   -2976.32695876 Ry
     estimated scf accuracy    <       0.00000934 Ry

     iteration # 61     ecut=    29.40 Ry     beta= 0.05
     Davidson diagonalization with overlap
     ethr =  2.31E-09,  avg # of iterations =  7.9

     negative rho (up, down):  1.309E-02 0.000E+00
 
     Adding external electric field

     Computed dipole along edir(3) : 
        Dipole                1.3405 Ry au,          3.4071 Debye
        Dipole field          0.0025 Ry au, 
 
        Potential amp.       -0.2345 Ry
        Total length         46.3494 bohr
 

     total cpu time spent up to now is     1067.9 secs

     total energy              =   -2976.32696419 Ry
     estimated scf accuracy    <       0.00000613 Ry

     iteration # 62     ecut=    29.40 Ry     beta= 0.05
     Davidson diagonalization with overlap
     ethr =  1.51E-09,  avg # of iterations = 10.1

     negative rho (up, down):  1.309E-02 0.000E+00
 
     Adding external electric field

     Computed dipole along edir(3) : 
        Dipole                1.3405 Ry au,          3.4072 Debye
        Dipole field          0.0025 Ry au, 
 
        Potential amp.       -0.2345 Ry
        Total length         46.3494 bohr
 

     total cpu time spent up to now is     1084.7 secs

     total energy              =   -2976.32697049 Ry
     estimated scf accuracy    <       0.00000175 Ry

     iteration # 63     ecut=    29.40 Ry     beta= 0.05
     Davidson diagonalization with overlap
     c_bands:  1 eigenvalues not converged
     c_bands:  1 eigenvalues not converged
     ethr =  4.32E-10,  avg # of iterations = 14.1

     negative rho (up, down):  1.312E-02 0.000E+00
 
     Adding external electric field

     Computed dipole along edir(3) : 
        Dipole                1.3409 Ry au,          3.4083 Debye
        Dipole field          0.0025 Ry au, 
 
        Potential amp.       -0.2346 Ry
        Total length         46.3494 bohr
 

     total cpu time spent up to now is     1100.3 secs

     total energy              =   -2976.32697566 Ry
     estimated scf accuracy    <       0.00000104 Ry

     iteration # 64     ecut=    29.40 Ry     beta= 0.05
     Davidson diagonalization with overlap
     c_bands:  1 eigenvalues not converged
     ethr =  2.56E-10,  avg # of iterations = 12.2

     negative rho (up, down):  1.315E-02 0.000E+00
 
     Adding external electric field

     Computed dipole along edir(3) : 
        Dipole                1.3409 Ry au,          3.4082 Debye
        Dipole field          0.0025 Ry au, 
 
        Potential amp.       -0.2346 Ry
        Total length         46.3494 bohr
 

     total cpu time spent up to now is     1118.3 secs

     total energy              =   -2976.32698022 Ry
     estimated scf accuracy    <       0.00000039 Ry

     iteration # 65     ecut=    29.40 Ry     beta= 0.05
     Davidson diagonalization with overlap
     c_bands:  1 eigenvalues not converged
     c_bands:  1 eigenvalues not converged
     ethr =  9.70E-11,  avg # of iterations =  9.8

     negative rho (up, down):  1.314E-02 0.000E+00
 
     Adding external electric field

     Computed dipole along edir(3) : 
        Dipole                1.3412 Ry au,          3.4089 Debye
        Dipole field          0.0025 Ry au, 
 
        Potential amp.       -0.2346 Ry
        Total length         46.3494 bohr
 

     total cpu time spent up to now is     1132.9 secs

     total energy              =   -2976.32698417 Ry
     estimated scf accuracy    <       0.00000049 Ry

     iteration # 66     ecut=    29.40 Ry     beta= 0.05
     Davidson diagonalization with overlap
     ethr =  9.70E-11,  avg # of iterations = 11.3

     negative rho (up, down):  1.312E-02 0.000E+00
 
     Adding external electric field

     Computed dipole along edir(3) : 
        Dipole                1.3409 Ry au,          3.4083 Debye
        Dipole field          0.0025 Ry au, 
 
        Potential amp.       -0.2346 Ry
        Total length         46.3494 bohr
 

     total cpu time spent up to now is     1147.7 secs

     total energy              =   -2976.32698779 Ry
     estimated scf accuracy    <       0.00000024 Ry

     iteration # 67     ecut=    29.40 Ry     beta= 0.05
     Davidson diagonalization with overlap
     ethr =  5.88E-11,  avg # of iterations =  9.1

     negative rho (up, down):  1.310E-02 0.000E+00
 
     Adding external electric field

     Computed dipole along edir(3) : 
        Dipole                1.3407 Ry au,          3.4076 Debye
        Dipole field          0.0025 Ry au, 
 
        Potential amp.       -0.2345 Ry
        Total length         46.3494 bohr
 

     total cpu time spent up to now is     1161.7 secs

     total energy              =   -2976.32699105 Ry
     estimated scf accuracy    <       0.00000010 Ry

     iteration # 68     ecut=    29.40 Ry     beta= 0.05
     Davidson diagonalization with overlap
     c_bands:  1 eigenvalues not converged
     ethr =  2.45E-11,  avg # of iterations = 12.1

     negative rho (up, down):  1.313E-02 0.000E+00
 
     Adding external electric field

     Computed dipole along edir(3) : 
        Dipole                1.3404 Ry au,          3.4069 Debye
        Dipole field          0.0025 Ry au, 
 
        Potential amp.       -0.2345 Ry
        Total length         46.3494 bohr
 

     total cpu time spent up to now is     1178.7 secs

     End of self-consistent calculation

          k = 0.0000 0.0000 0.0000 ( 18029 PWs)   bands (ev):

   -55.1689 -55.1399 -55.1278 -55.1057 -55.0895 -55.0463 -55.0052 -54.9789
   -54.9679 -54.9524 -54.9433 -54.9352 -54.8689 -54.7225 -54.1516 -54.1176
   -31.7355 -31.6297 -31.5337 -31.4999 -31.4786 -31.4711 -31.4680 -31.4296
   -31.4067 -31.3847 -31.3787 -31.3765 -31.3647 -31.3432 -31.3168 -31.3138
   -31.3038 -31.2926 -31.2867 -31.2821 -31.2512 -31.2339 -31.2274 -31.2080
   -31.1968 -31.1790 -31.1770 -31.1764 -31.1671 -31.1648 -31.1481 -31.1390
   -31.1289 -31.1275 -31.1055 -31.0982 -31.0942 -31.0764 -31.0504 -31.0144
   -30.9993 -30.8682 -30.5600 -30.4681 -30.4460 -30.3767 -30.2900 -30.1789
   -19.1216 -18.8040 -16.0065 -15.7493 -15.6219 -15.4439 -15.3637 -15.2103
   -15.1410 -15.0586 -15.0340 -14.9660 -14.9289 -14.8968 -14.7841 -14.7769
   -14.7039 -14.7033 -14.6959 -14.6629 -14.6589 -14.6575 -14.5988 -14.5956
   -14.5562 -14.5451 -14.5329 -14.3910 -14.3158 -14.2587 -14.1288 -13.9875
   -12.6540 -12.5369  -8.9997  -7.6966  -6.9499  -6.5534  -5.8017  -3.7852
    -3.3434  -3.2088  -3.1729  -3.1147  -3.0691  -2.9878  -2.8917  -2.7711
    -2.5525  -2.4768  -2.4345  -2.3865  -2.3778  -2.3312  -2.2451  -2.1592
    -2.1262  -2.0908  -2.0417  -2.0254  -1.9840  -1.9580  -1.9388  -1.8973
    -1.8895  -1.7421  -1.6883  -1.6297  -1.5846  -1.5656  -1.5571  -1.4992
    -1.4863  -1.4638  -1.4606  -1.4506  -1.4221  -1.3851  -1.3795  -1.3279
    -1.2957  -1.1631  -1.0909  -0.9776  -0.9218  -0.8831  -0.7976  -0.7293
    -0.7130  -0.6407  -0.5776  -0.5569  -0.4996  -0.4647  -0.3724  -0.3396
    -0.2903  -0.2630  -0.1547  -0.1409  -0.1265  -0.0555   0.0350   0.0434
     0.0681   0.1090   0.1971   0.2313   0.2861   0.3125   0.4125   0.4438
     0.4853   0.5024   0.5284   0.6104   0.6796   0.7184   0.7793   0.7886
     0.8232   0.8282   0.8504   0.9450   0.9751   0.9810   1.0291   1.1957
     1.2513   1.4527   1.4544   1.7851   1.8205   1.8712   2.0575   2.4450
     2.4923   3.9300   3.9962   4.0447   4.0617   4.0801   4.1393   4.1729
     4.4005   4.4234   4.4376   4.4498

          k = 0.0000 0.0419 0.0000 ( 17933 PWs)   bands (ev):

   -55.1644 -55.1348 -55.1321 -55.1107 -55.0884 -55.0423 -55.0090 -54.9738
   -54.9631 -54.9534 -54.9483 -54.9398 -54.8680 -54.7232 -54.1466 -54.1225
   -31.6783 -31.5756 -31.4793 -31.4710 -31.4466 -31.4304 -31.4247 -31.4161
   -31.4119 -31.4038 -31.3773 -31.3669 -31.3557 -31.3382 -31.3309 -31.3139
   -31.3088 -31.3079 -31.2791 -31.2787 -31.2679 -31.2395 -31.2223 -31.2108
   -31.2055 -31.2034 -31.1946 -31.1833 -31.1822 -31.1759 -31.1595 -31.1574
   -31.1495 -31.1361 -31.1313 -31.1274 -31.1250 -31.1072 -31.0521 -31.0165
   -30.9992 -30.9014 -30.5059 -30.4647 -30.4490 -30.3641 -30.3026 -30.2360
   -19.1191 -18.8048 -15.8762 -15.6373 -15.5158 -15.3772 -15.2579 -15.1766
   -15.1401 -15.0694 -15.0400 -14.9902 -14.9613 -14.9469 -14.8261 -14.7906
   -14.7326 -14.7180 -14.6935 -14.6710 -14.6529 -14.6459 -14.6141 -14.6007
   -14.5997 -14.5608 -14.5222 -14.4474 -14.3718 -14.3178 -14.1832 -14.0355
   -12.6578 -12.5762  -9.0024  -7.6983  -6.9502  -6.5549  -5.7972  -3.7397
    -3.1893  -3.1229  -3.0078  -2.9833  -2.9103  -2.8914  -2.7464  -2.5485
    -2.4890  -2.4041  -2.3876  -2.3130  -2.2983  -2.2779  -2.2348  -2.2063
    -2.1759  -2.1591  -2.1277  -2.1108  -2.0994  -2.0210  -1.9596  -1.9561
    -1.9330  -1.8913  -1.8813  -1.7964  -1.7455  -1.7143  -1.7048  -1.6477
    -1.5959  -1.5532  -1.4710  -1.4424  -1.3714  -1.3139  -1.2916  -1.2254
    -1.1115  -1.0721  -0.9952  -0.9434  -0.8780  -0.8076  -0.7493  -0.7181
    -0.5679  -0.5146  -0.4779  -0.4592  -0.4365  -0.3699  -0.3427  -0.2849
    -0.2325  -0.1659  -0.1317  -0.1144  -0.1071  -0.0711  -0.0260   0.0133
     0.0405   0.0738   0.1506   0.2115   0.2466   0.2818   0.3258   0.3370
     0.4350   0.4499   0.4878   0.5396   0.5885   0.6096   0.6435   0.6596
     0.6926   0.8172   0.8435   0.8773   0.9047   0.9617   1.0542   1.1109
     1.1327   1.1592   1.3301   1.4823   1.6917   2.0563   2.1360   2.3998
     2.4031   3.8981   4.0974   4.1568   4.1707   4.2262   4.3122   4.3205
     4.3398   4.3826   4.4326   4.4519

          k = 0.0000-0.0839 0.0000 ( 17884 PWs)   bands (ev):

   -55.1581 -55.1383 -55.1228 -55.1226 -55.0873 -55.0370 -55.0142 -54.9639
   -54.9584 -54.9544 -54.9519 -54.9507 -54.8670 -54.7241 -54.1345 -54.1345
   -31.5461 -31.5311 -31.4444 -31.4433 -31.4432 -31.4342 -31.4149 -31.4148
   -31.3723 -31.3632 -31.3577 -31.3437 -31.3357 -31.3327 -31.3325 -31.3010
   -31.3002 -31.2871 -31.2812 -31.2798 -31.2742 -31.2516 -31.2449 -31.2447
   -31.2442 -31.2387 -31.2339 -31.2315 -31.2142 -31.1965 -31.1924 -31.1884
   -31.1820 -31.1329 -31.1315 -31.1306 -31.1287 -31.1265 -31.0697 -31.0059
   -30.9979 -30.9424 -30.4566 -30.4566 -30.3728 -30.3726 -30.3334 -30.3333
   -19.1166 -18.8057 -15.5858 -15.5368 -15.3911 -15.3287 -15.2579 -15.1956
   -15.1691 -15.0866 -15.0110 -14.9961 -14.9597 -14.9554 -14.9342 -14.8622
   -14.7660 -14.7553 -14.7320 -14.7156 -14.6633 -14.6020 -14.5698 -14.5661
   -14.5630 -14.5087 -14.5076 -14.4606 -14.4589 -14.4330 -14.3289 -14.0688
   -12.6390 -12.6389  -9.0052  -7.7001  -6.9507  -6.5564  -5.7928  -3.6824
    -3.1993  -2.7734  -2.6868  -2.6503  -2.6274  -2.6133  -2.5951  -2.5805
    -2.4971  -2.4627  -2.4521  -2.4453  -2.3582  -2.3320  -2.3166  -2.3026
    -2.2770  -2.2043  -2.1677  -2.1491  -2.1025  -2.0952  -2.0294  -2.0167
    -1.9998  -1.9726  -1.9327  -1.9061  -1.8412  -1.7840  -1.7391  -1.6069
    -1.5923  -1.5486  -1.4133  -1.3197  -1.2827  -1.2169  -1.1782  -1.1194
    -1.0895  -0.9573  -0.9292  -0.9140  -0.8980  -0.7620  -0.6687  -0.6333
    -0.6214  -0.5992  -0.5823  -0.5554  -0.5327  -0.5161  -0.4508  -0.3908
    -0.2785  -0.2615  -0.1434  -0.0890  -0.0484   0.0779   0.1095   0.1156
     0.1491   0.1913   0.2065   0.2235   0.2565   0.2743   0.2866   0.3568
     0.3595   0.4049   0.4249   0.4710   0.5057   0.5128   0.5516   0.6148
     0.6174   0.6258   0.6589   0.6898   0.7659   0.9410   1.0302   1.0490
     1.0501   1.1844   1.2422   1.4113   1.4410   2.1988   2.2002   2.3356
     2.3359   3.7647   4.1785   4.2094   4.2574   4.2776   4.3893   4.4063
     4.4281   4.5055   4.5328   4.5446

          k = 0.0380 0.0000 0.0000 ( 17913 PWs)   bands (ev):

   -55.1687 -55.1397 -55.1277 -55.1056 -55.0894 -55.0462 -55.0051 -54.9783
   -54.9684 -54.9523 -54.9432 -54.9351 -54.8688 -54.7223 -54.1515 -54.1175
   -31.7356 -31.6305 -31.5391 -31.5022 -31.4785 -31.4724 -31.4712 -31.4293
   -31.4065 -31.3847 -31.3768 -31.3656 -31.3607 -31.3430 -31.3134 -31.3081
   -31.2973 -31.2893 -31.2865 -31.2621 -31.2509 -31.2448 -31.2338 -31.2077
   -31.1967 -31.1789 -31.1767 -31.1693 -31.1661 -31.1634 -31.1597 -31.1480
   -31.1314 -31.1297 -31.1056 -31.0979 -31.0924 -31.0776 -31.0507 -31.0142
   -31.0009 -30.8681 -30.5595 -30.4716 -30.4439 -30.3765 -30.2899 -30.1787
   -19.1192 -18.8058 -15.9332 -15.6623 -15.5693 -15.4472 -15.2679 -15.2189
   -15.1697 -15.1306 -15.0673 -14.9684 -14.9321 -14.8960 -14.8628 -14.8502
   -14.8432 -14.7890 -14.7546 -14.7417 -14.6251 -14.5838 -14.5589 -14.5341
   -14.5024 -14.4633 -14.4091 -14.3973 -14.3837 -14.3484 -14.1432 -13.9904
   -12.6507 -12.5366  -8.9932  -7.7018  -6.9336  -6.5488  -5.8086  -3.7607
    -3.2625  -3.1228  -3.0239  -2.9358  -2.9120  -2.8033  -2.7730  -2.7516
    -2.6857  -2.5623  -2.5330  -2.4912  -2.4718  -2.3203  -2.2488  -2.2101
    -2.1302  -2.1062  -1.9666  -1.9548  -1.9165  -1.8955  -1.8771  -1.8213
    -1.7820  -1.7513  -1.7072  -1.6159  -1.5869  -1.5315  -1.5152  -1.4879
    -1.4624  -1.4496  -1.4393  -1.4231  -1.4030  -1.3022  -1.2370  -1.2120
    -1.1629  -1.1240  -1.0588  -0.9871  -0.9653  -0.8466  -0.8003  -0.7821
    -0.7086  -0.6494  -0.6217  -0.5891  -0.5612  -0.5313  -0.4929  -0.4759
    -0.3983  -0.2507  -0.2017  -0.1434  -0.1276  -0.0557  -0.0415  -0.0018
     0.0290   0.1284   0.1706   0.1927   0.2420   0.2910   0.3397   0.3727
     0.4609   0.4741   0.5212   0.5505   0.5785   0.6129   0.6259   0.6599
     0.7015   0.7869   0.8179   0.8655   0.9074   0.9461   0.9865   1.0561
     1.0829   1.3110   1.4990   1.6824   1.7908   1.8831   2.0266   2.3328
     2.4096   3.9489   4.0195   4.0992   4.1591   4.2339   4.2632   4.3242
     4.3636   4.3967   4.4174   4.4356

          k = 0.0380 0.0419 0.0000 ( 17878 PWs)   bands (ev):

   -55.1643 -55.1347 -55.1321 -55.1106 -55.0883 -55.0423 -55.0090 -54.9733
   -54.9635 -54.9533 -54.9482 -54.9399 -54.8679 -54.7232 -54.1465 -54.1225
   -31.6785 -31.5765 -31.4856 -31.4713 -31.4487 -31.4306 -31.4245 -31.4201
   -31.4124 -31.4040 -31.3776 -31.3565 -31.3520 -31.3383 -31.3322 -31.3081
   -31.3040 -31.3002 -31.2789 -31.2758 -31.2505 -31.2402 -31.2377 -31.2104
   -31.2037 -31.2025 -31.1864 -31.1831 -31.1816 -31.1767 -31.1635 -31.1572
   -31.1557 -31.1411 -31.1335 -31.1304 -31.1295 -31.1072 -31.0523 -31.0165
   -31.0010 -30.9013 -30.5055 -30.4674 -30.4479 -30.3639 -30.3027 -30.2359
   -19.1178 -18.8055 -15.8088 -15.5538 -15.4743 -15.3683 -15.2022 -15.1651
   -15.1381 -15.0978 -15.0679 -15.0068 -14.9531 -14.9303 -14.8629 -14.8484
   -14.8233 -14.7984 -14.7701 -14.6985 -14.6681 -14.6114 -14.5877 -14.5593
   -14.5314 -14.5156 -14.4913 -14.4518 -14.4313 -14.4021 -14.1848 -14.0421
   -12.6555 -12.5765  -8.9937  -7.7039  -6.9273  -6.5499  -5.8089  -3.8249
    -3.1081  -3.0180  -2.8664  -2.7692  -2.7547  -2.6461  -2.6061  -2.5572
    -2.5156  -2.4276  -2.3998  -2.3601  -2.3001  -2.2389  -2.2283  -2.1819
    -2.1674  -2.1192  -2.0691  -2.0598  -2.0121  -1.9880  -1.9627  -1.9162
    -1.8818  -1.8545  -1.8502  -1.7694  -1.7556  -1.7240  -1.6780  -1.6295
    -1.5662  -1.5159  -1.4533  -1.3941  -1.3316  -1.2784  -1.2585  -1.2136
    -1.1617  -1.0386  -0.9655  -0.9083  -0.8892  -0.8486  -0.7459  -0.6846
    -0.6242  -0.5999  -0.5685  -0.5223  -0.4960  -0.4483  -0.4197  -0.3704
    -0.3386  -0.2622  -0.2076  -0.1851  -0.1426  -0.1206  -0.0807  -0.0340
    -0.0025   0.0631   0.0904   0.1190   0.1573   0.1757   0.2178   0.2469
     0.2857   0.3150   0.3910   0.4204   0.4715   0.5092   0.5645   0.6194
     0.6882   0.7572   0.8155   0.8760   0.9506   1.0027   1.0152   1.0541
     1.1290   1.2507   1.2900   1.4340   1.6432   2.0671   2.1395   2.3221
     2.3846   3.8774   4.0947   4.1453   4.1620   4.2694   4.3248   4.3578
     4.3737   4.4219   4.4965   4.5131

          k = 0.0380-0.0839 0.0000 ( 17916 PWs)   bands (ev):

   -55.1581 -55.1383 -55.1228 -55.1226 -55.0873 -55.0371 -55.0143 -54.9636
   -54.9580 -54.9544 -54.9523 -54.9510 -54.8671 -54.7241 -54.1346 -54.1345
   -31.5464 -31.5314 -31.4445 -31.4441 -31.4439 -31.4345 -31.4150 -31.4148
   -31.3736 -31.3726 -31.3635 -31.3584 -31.3331 -31.3127 -31.3098 -31.3031
   -31.2940 -31.2933 -31.2875 -31.2819 -31.2745 -31.2551 -31.2449 -31.2435
   -31.2433 -31.2395 -31.2237 -31.2129 -31.2106 -31.2007 -31.1965 -31.1884
   -31.1725 -31.1435 -31.1411 -31.1344 -31.1323 -31.1306 -31.0691 -31.0061
   -31.0005 -30.9423 -30.4577 -30.4576 -30.3728 -30.3725 -30.3334 -30.3333
   -19.1155 -18.8061 -15.5490 -15.4836 -15.3391 -15.2795 -15.2301 -15.1883
   -15.1387 -15.0625 -15.0347 -15.0040 -14.9719 -14.9495 -14.8940 -14.8369
   -14.7939 -14.7807 -14.7754 -14.7236 -14.6807 -14.6354 -14.6137 -14.5962
   -14.5900 -14.5281 -14.5258 -14.5102 -14.5089 -14.4224 -14.3239 -14.0750
   -12.6388 -12.6386  -8.9963  -7.7063  -6.9291  -6.5498  -5.8039  -3.7836
    -3.0945  -2.7670  -2.5853  -2.5638  -2.4765  -2.4416  -2.4264  -2.3997
    -2.3787  -2.3458  -2.3180  -2.2789  -2.2585  -2.2523  -2.2486  -2.2221
    -2.2030  -2.1553  -2.1273  -2.0960  -2.0645  -2.0492  -2.0408  -2.0181
    -1.9689  -1.9246  -1.8988  -1.8598  -1.8497  -1.7714  -1.7536  -1.6786
    -1.5070  -1.4297  -1.3666  -1.3397  -1.2715  -1.2079  -1.1718  -1.1224
    -1.0933  -1.0770  -1.0450  -1.0141  -0.9995  -0.9146  -0.8687  -0.8429
    -0.8324  -0.7541  -0.7077  -0.5991  -0.5413  -0.5222  -0.4649  -0.4037
    -0.3385  -0.3128  -0.2498  -0.1903  -0.1502  -0.0930  -0.0677   0.0006
     0.0224   0.0278   0.0462   0.0533   0.1222   0.1970   0.2029   0.2482
     0.2701   0.3116   0.3280   0.3622   0.3797   0.5230   0.5755   0.5990
     0.6475   0.7880   0.8014   0.9087   0.9108   0.9445   0.9790   1.0711
     1.0823   1.1647   1.2106   1.4034   1.4304   2.2122   2.2136   2.3258
     2.3265   3.7720   4.1002   4.2026   4.2495   4.2794   4.3582   4.3827
     4.4244   4.5195   4.5424   4.5811

          k = 0.0380-0.0419 0.0000 ( 17876 PWs)   bands (ev):

   -55.1643 -55.1347 -55.1321 -55.1106 -55.0883 -55.0423 -55.0090 -54.9733
   -54.9635 -54.9533 -54.9482 -54.9399 -54.8679 -54.7232 -54.1465 -54.1225
   -31.6785 -31.5765 -31.4856 -31.4713 -31.4485 -31.4306 -31.4245 -31.4201
   -31.4124 -31.4040 -31.3776 -31.3568 -31.3517 -31.3380 -31.3322 -31.3080
   -31.3040 -31.3014 -31.2789 -31.2759 -31.2504 -31.2405 -31.2374 -31.2104
   -31.2038 -31.2025 -31.1863 -31.1831 -31.1816 -31.1728 -31.1638 -31.1581
   -31.1568 -31.1410 -31.1335 -31.1307 -31.1298 -31.1072 -31.0519 -31.0170
   -31.0013 -30.9012 -30.5055 -30.4674 -30.4479 -30.3639 -30.3026 -30.2359
   -19.1169 -18.8065 -15.8099 -15.5586 -15.4778 -15.3651 -15.2003 -15.1577
   -15.1379 -15.1049 -15.0649 -15.0107 -14.9545 -14.9230 -14.8620 -14.8488
   -14.8237 -14.7911 -14.7648 -14.6984 -14.6680 -14.6119 -14.5872 -14.5603
   -14.5362 -14.5155 -14.4906 -14.4518 -14.4317 -14.4024 -14.1953 -14.0399
   -12.6555 -12.5765  -8.9958  -7.7040  -6.9350  -6.5484  -5.8037  -3.7077
    -3.2045  -3.0549  -2.8603  -2.7691  -2.7618  -2.6469  -2.6063  -2.5645
    -2.5128  -2.4323  -2.4015  -2.3449  -2.3019  -2.2357  -2.2294  -2.1907
    -2.1557  -2.1066  -2.0748  -2.0577  -2.0194  -1.9870  -1.9672  -1.9161
    -1.8917  -1.8563  -1.8430  -1.7803  -1.7356  -1.7073  -1.6818  -1.6083
    -1.5759  -1.5272  -1.4491  -1.3775  -1.3381  -1.2950  -1.2486  -1.2111
    -1.1667  -1.0256  -0.9699  -0.9135  -0.8854  -0.8326  -0.7686  -0.6881
    -0.6351  -0.5964  -0.5569  -0.5216  -0.4980  -0.4694  -0.4027  -0.3615
    -0.3376  -0.2721  -0.2409  -0.2024  -0.1415  -0.1055  -0.0779  -0.0323
    -0.0047   0.0552   0.0925   0.1057   0.1532   0.1754   0.2177   0.2455
     0.2894   0.3273   0.3709   0.4209   0.4711   0.5104   0.5695   0.6388
     0.6828   0.7696   0.8309   0.8758   0.9507   1.0026   1.0127   1.0623
     1.1247   1.2505   1.2852   1.4342   1.6428   2.0671   2.1395   2.3219
     2.3852   3.9244   4.1082   4.1506   4.1682   4.2710   4.3352   4.3511
     4.3751   4.4160   4.4970   4.5162

          k =-0.0760-0.0000 0.0000 ( 17886 PWs)   bands (ev):

   -55.1686 -55.1397 -55.1277 -55.1057 -55.0893 -55.0462 -55.0051 -54.9776
   -54.9689 -54.9523 -54.9432 -54.9351 -54.8688 -54.7223 -54.1515 -54.1175
   -31.7358 -31.6315 -31.5442 -31.5045 -31.4784 -31.4766 -31.4716 -31.4292
   -31.4065 -31.3847 -31.3767 -31.3665 -31.3430 -31.3349 -31.3133 -31.2990
   -31.2914 -31.2862 -31.2861 -31.2715 -31.2509 -31.2338 -31.2209 -31.2092
   -31.1999 -31.1971 -31.1788 -31.1767 -31.1658 -31.1625 -31.1601 -31.1481
   -31.1381 -31.1314 -31.1059 -31.0977 -31.0904 -31.0795 -31.0512 -31.0142
   -31.0024 -30.8681 -30.5592 -30.4750 -30.4426 -30.3764 -30.2898 -30.1787
   -19.1168 -18.8078 -15.8313 -15.5983 -15.4996 -15.4133 -15.2820 -15.1980
   -15.1680 -15.1412 -15.0564 -15.0098 -14.9751 -14.9322 -14.9271 -14.9061
   -14.8927 -14.8614 -14.7625 -14.7406 -14.6193 -14.5676 -14.5633 -14.5538
   -14.5263 -14.4720 -14.4186 -14.4180 -14.3159 -14.3127 -14.1575 -13.9926
   -12.6476 -12.5363  -8.9868  -7.7070  -6.9173  -6.5444  -5.8154  -3.7315
    -3.2524  -3.1324  -2.9839  -2.8117  -2.7654  -2.7031  -2.6455  -2.6315
    -2.6093  -2.5617  -2.5273  -2.4575  -2.4230  -2.4076  -2.2408  -2.1148
    -2.0679  -2.0033  -1.8999  -1.8898  -1.8210  -1.7992  -1.7878  -1.7717
    -1.7307  -1.6836  -1.6600  -1.6292  -1.6136  -1.5817  -1.5420  -1.4856
    -1.4653  -1.4601  -1.4527  -1.4286  -1.3845  -1.3720  -1.3171  -1.2044
    -1.1257  -1.1041  -0.9986  -0.9008  -0.8422  -0.8161  -0.7917  -0.7802
    -0.7510  -0.7387  -0.6881  -0.6284  -0.6163  -0.5429  -0.5304  -0.5010
    -0.4821  -0.4202  -0.3933  -0.3578  -0.1429  -0.1249  -0.0712  -0.0496
    -0.0035   0.0452   0.1182   0.1415   0.2105   0.2465   0.2607   0.3474
     0.3741   0.3977   0.4421   0.4770   0.5081   0.5391   0.5772   0.6005
     0.6363   0.6918   0.7499   0.8220   0.8411   0.8997   0.9835   1.1518
     1.1717   1.3450   1.4014   1.5184   1.7959   1.9044   2.0018   2.2031
     2.3545   3.9489   3.9825   4.0523   4.0950   4.2104   4.2414   4.3036
     4.3657   4.4142   4.4313   4.4459

          k =-0.0760 0.0419 0.0000 ( 17914 PWs)   bands (ev):

   -55.1643 -55.1347 -55.1321 -55.1107 -55.0883 -55.0423 -55.0090 -54.9727
   -54.9640 -54.9533 -54.9481 -54.9401 -54.8680 -54.7232 -54.1465 -54.1225
   -31.6788 -31.5775 -31.4917 -31.4719 -31.4507 -31.4310 -31.4247 -31.4245
   -31.4126 -31.4041 -31.3778 -31.3560 -31.3383 -31.3349 -31.3328 -31.3083
   -31.2942 -31.2928 -31.2787 -31.2736 -31.2590 -31.2394 -31.2103 -31.2094
   -31.2086 -31.2018 -31.2006 -31.1896 -31.1822 -31.1760 -31.1661 -31.1572
   -31.1490 -31.1444 -31.1394 -31.1385 -31.1329 -31.1073 -31.0521 -31.0172
   -31.0031 -30.9013 -30.5052 -30.4703 -30.4472 -30.3639 -30.3027 -30.2360
   -19.1156 -18.8072 -15.7175 -15.4974 -15.4100 -15.3385 -15.2290 -15.1681
   -15.1141 -15.0788 -15.0650 -14.9711 -14.9519 -14.9445 -14.9037 -14.8838
   -14.8777 -14.8498 -14.8167 -14.7599 -14.6791 -14.6076 -14.5903 -14.5831
   -14.5435 -14.5131 -14.4970 -14.4599 -14.4190 -14.4046 -14.1973 -14.0456
   -12.6533 -12.5769  -8.9871  -7.7096  -6.9120  -6.5437  -5.8155  -3.8048
    -3.1183  -3.0164  -2.8277  -2.5883  -2.5617  -2.4898  -2.4492  -2.4387
    -2.4239  -2.3570  -2.3220  -2.3049  -2.2832  -2.2073  -2.2022  -2.1569
    -2.1219  -2.1116  -2.0601  -1.9812  -1.9685  -1.9231  -1.8953  -1.8638
    -1.8454  -1.7841  -1.7647  -1.7390  -1.7102  -1.7074  -1.6573  -1.6396
    -1.5555  -1.4570  -1.3951  -1.3508  -1.3356  -1.3149  -1.2700  -1.1962
    -1.1532  -1.0901  -0.9624  -0.9464  -0.8581  -0.7970  -0.7782  -0.7560
    -0.7379  -0.6701  -0.6459  -0.5779  -0.5579  -0.5275  -0.4939  -0.4627
    -0.4115  -0.3913  -0.3852  -0.3724  -0.3191  -0.2786  -0.2354  -0.2132
    -0.1411  -0.1019  -0.0211   0.0315   0.0660   0.0761   0.1347   0.1467
     0.2039   0.2895   0.3049   0.3907   0.4383   0.4864   0.5975   0.6020
     0.6518   0.7418   0.8238   0.8948   0.9839   1.0355   1.1129   1.1247
     1.2258   1.2849   1.3285   1.3644   1.5055   2.0822   2.1418   2.2445
     2.3739   3.9031   4.1012   4.1436   4.1504   4.1652   4.2533   4.3257
     4.3393   4.4156   4.4291   4.5512

          k =-0.0760-0.0839 0.0000 ( 17948 PWs)   bands (ev):

   -55.1581 -55.1383 -55.1228 -55.1227 -55.0873 -55.0371 -55.0143 -54.9634
   -54.9575 -54.9544 -54.9527 -54.9514 -54.8671 -54.7241 -54.1346 -54.1345
   -31.5467 -31.5317 -31.4449 -31.4447 -31.4446 -31.4349 -31.4150 -31.4149
   -31.3806 -31.3750 -31.3654 -31.3636 -31.3335 -31.3054 -31.2981 -31.2958
   -31.2933 -31.2896 -31.2871 -31.2823 -31.2734 -31.2593 -31.2455 -31.2421
   -31.2420 -31.2398 -31.2374 -31.2112 -31.1966 -31.1884 -31.1777 -31.1729
   -31.1725 -31.1722 -31.1529 -31.1518 -31.1327 -31.1307 -31.0686 -31.0067
   -31.0030 -30.9423 -30.4587 -30.4586 -30.3727 -30.3725 -30.3334 -30.3334
   -19.1145 -18.8066 -15.5085 -15.3732 -15.3334 -15.2460 -15.1618 -15.1450
   -15.1374 -15.1045 -15.0515 -14.9922 -14.9465 -14.9117 -14.8705 -14.8693
   -14.8565 -14.7560 -14.7448 -14.7374 -14.7206 -14.6722 -14.6625 -14.6457
   -14.6204 -14.6187 -14.5937 -14.5129 -14.5119 -14.4150 -14.3199 -14.0809
   -12.6386 -12.6384  -8.9874  -7.7123  -6.9067  -6.5433  -5.8155  -3.8656
    -3.0070  -2.7659  -2.5720  -2.5429  -2.4246  -2.3733  -2.3266  -2.3071
    -2.2199  -2.1786  -2.1621  -2.1566  -2.1360  -2.0809  -2.0577  -2.0190
    -1.9986  -1.9846  -1.9783  -1.9520  -1.9470  -1.9166  -1.9006  -1.8802
    -1.8743  -1.8381  -1.7990  -1.7881  -1.7502  -1.7317  -1.7212  -1.6662
    -1.5652  -1.5350  -1.4887  -1.4241  -1.3589  -1.3552  -1.2904  -1.2751
    -1.2508  -1.2292  -1.1932  -1.1812  -1.0910  -1.0126  -0.9072  -0.8949
    -0.8895  -0.7858  -0.7507  -0.7086  -0.6794  -0.6411  -0.5859  -0.5091
    -0.5025  -0.4258  -0.3872  -0.3757  -0.3566  -0.2179  -0.1854  -0.1522
    -0.1273  -0.1228  -0.0711  -0.0260   0.0043   0.0418   0.0690   0.1018
     0.1180   0.1936   0.3291   0.3626   0.4030   0.5358   0.5644   0.6787
     0.7050   0.8254   0.8992   0.9434   0.9643   1.0417   1.1176   1.1405
     1.1463   1.2573   1.3082   1.3102   1.3274   2.2300   2.2315   2.3123
     2.3125   3.7839   4.0751   4.2010   4.2172   4.2584   4.3817   4.4475
     4.4826   4.5048   4.5075   4.5916

     the Fermi energy is     3.9789 ev

!    total energy              =   -2976.32702058 Ry
     estimated scf accuracy    <       0.00000007 Ry
     smearing contrib. (-TS)   =      -0.04072507 Ry
     internal energy E=F+TS    =   -2976.28629551 Ry

     The total energy is F=E-TS. E is the sum of the following terms:
     one-electron contribution =  -23820.86707129 Ry
     hartree contribution      =   12009.29070730 Ry
     xc contribution           =    -495.76165269 Ry
     ewald contribution        =    9331.04833078 Ry
     electric field correction =       0.00339039 Ry

     convergence has been achieved in  68 iterations

     Forces acting on atoms (cartesian axes, Ry/au):

     atom    1 type  1   force =     0.00015781   -0.00020263    0.09426763
     atom    2 type  1   force =    -0.00010703   -0.00035299   -0.17721724
     atom    3 type  2   force =     0.00008487    0.00003183   -0.02133332
     atom    4 type  2   force =     0.00001812   -0.00174427    0.05667972
     atom    5 type  2   force =    -0.01044071   -0.00127743    0.00673634
     atom    6 type  2   force =     0.01219911   -0.00072312    0.00625032
     atom    7 type  1   force =    -0.00028166    0.00287581   -0.01265575
     atom    8 type  1   force =    -0.00014464    0.00439405    0.00453099
     atom    9 type  2   force =    -0.00036392    0.00009230    0.00077465
     atom   10 type  2   force =    -0.00008223   -0.00089923   -0.00639591
     atom   11 type  2   force =    -0.00041849   -0.00033262    0.00007039
     atom   12 type  2   force =    -0.00032008   -0.00042657    0.00015878
     atom   13 type  1   force =    -0.00035397   -0.00016525   -0.00038348
     atom   14 type  1   force =     0.00003338   -0.00043931   -0.00038630
     atom   15 type  2   force =    -0.00018564   -0.00003543    0.00009554
     atom   16 type  2   force =    -0.00065761    0.00023371   -0.00030370
     atom   17 type  2   force =     0.00000112    0.00013349    0.00032115
     atom   18 type  2   force =     0.00027651   -0.00003463    0.00038134
     atom   19 type  1   force =     0.00029872   -0.00103411   -0.00015283
     atom   20 type  1   force =     0.00023226   -0.00059922   -0.00016817
     atom   21 type  2   force =     0.00004839    0.00001541    0.10365606
     atom   22 type  2   force =    -0.00028617    0.00009931    0.00096324
     atom   23 type  2   force =    -0.07082258   -0.00011362   -0.02715262
     atom   24 type  2   force =     0.07071826    0.00032361   -0.02718179
     atom   25 type  1   force =    -0.00006802   -0.00022518    0.09369826
     atom   26 type  1   force =    -0.00013669   -0.00042395   -0.17734926
     atom   27 type  2   force =     0.00014918   -0.00038816   -0.02029184
     atom   28 type  2   force =     0.00005356   -0.00137702    0.05582986
     atom   29 type  2   force =    -0.01030551   -0.00030065    0.00538887
     atom   30 type  2   force =     0.01197706    0.00009656    0.00502699
     atom   31 type  1   force =    -0.00017465    0.00359012   -0.01532358
     atom   32 type  1   force =    -0.00018870   -0.00485337    0.00436888
     atom   33 type  2   force =    -0.00006670   -0.00017157    0.00032703
     atom   34 type  2   force =     0.00120599    0.00259406   -0.00428046
     atom   35 type  2   force =    -0.00070844   -0.00015946    0.00018797
     atom   36 type  2   force =    -0.00001002   -0.00002611    0.00046740
     atom   37 type  1   force =     0.00038699    0.00041998   -0.00033213
     atom   38 type  1   force =    -0.00000616    0.00053138   -0.00161469
     atom   39 type  2   force =     0.00027633   -0.00042058   -0.00004625
     atom   40 type  2   force =     0.00004681    0.00005089    0.00062720
     atom   41 type  2   force =    -0.00015051   -0.00032628   -0.00010498
     atom   42 type  2   force =     0.00037462   -0.00043367    0.00020741
     atom   43 type  1   force =    -0.00065838    0.00072815    0.00047188
     atom   44 type  1   force =    -0.00016156    0.00026955   -0.00057206
     atom   45 type  2   force =     0.00003937   -0.00002376    0.10365875
     atom   46 type  2   force =    -0.07085887   -0.00005846   -0.02715248
     atom   47 type  2   force =     0.07075381    0.00034220   -0.02718333
     atom   48 type  3   force =    -0.00744280    0.00199838   -0.00463255
     atom   49 type  4   force =     0.02143671   -0.00828413    0.00450947
     atom   50 type  5   force =    -0.00063561    0.00059517   -0.00041840
     atom   51 type  5   force =    -0.00973261    0.00553371    0.00180904
     atom   52 type  3   force =    -0.00156525    0.00064660   -0.00103593
     atom   53 type  5   force =    -0.00123726   -0.00010169    0.00028528
     atom   54 type  5   force =     0.00009724   -0.00022982    0.00050507
     atom   55 type  5   force =    -0.00058126   -0.00019543    0.00028937
     atom   56 type  2   force =    -0.00033714    0.00111286   -0.00047912
     atom   57 type  5   force =    -0.00027107   -0.00076273    0.00037511
     atom   58 type  5   force =    -0.00110429    0.00043331    0.00122816

     Total force =     0.366349     Total SCF correction =     0.000486
  @ DRIVER MODE: Message from server: STATUS
  @ DRIVER MODE: Message from server: GETFORCE
  @ DRIVER MODE: Returning v,forces,stress,ensemble 

     Writing output data file ./calc.save/
  @ DRIVER MODE: Message from server: EXIT
  @ DRIVE MODE: Exiting  
 
     init_run     :     10.92s CPU     11.16s WALL (       1 calls)
     electrons    :   1150.52s CPU   1167.30s WALL (       1 calls)
     forces       :      2.45s CPU      2.54s WALL (       1 calls)

     Called by init_run:
     wfcinit      :      4.91s CPU      4.97s WALL (       1 calls)
     potinit      :      5.38s CPU      5.44s WALL (       1 calls)
     hinit0       :      0.29s CPU      0.31s WALL (       1 calls)

     Called by electrons:
     c_bands      :    987.49s CPU    994.93s WALL (      68 calls)
     sum_band     :    111.67s CPU    115.43s WALL (      68 calls)
     v_of_rho     :     38.78s CPU     40.78s WALL (      69 calls)
     newd         :     15.80s CPU     19.28s WALL (      69 calls)
     mix_rho      :      1.41s CPU      1.49s WALL (      68 calls)
     vdW_kernel   :      4.55s CPU      4.57s WALL (       1 calls)

     Called by c_bands:
     init_us_2    :      6.33s CPU      6.38s WALL (    1380 calls)
     cegterg      :    968.99s CPU    976.08s WALL (     697 calls)

     Called by *egterg:
     cdiaghg      :    162.12s CPU    162.92s WALL (    7511 calls)
     h_psi        :    508.55s CPU    513.29s WALL (    7526 calls)
     s_psi        :     69.73s CPU     69.99s WALL (    7526 calls)
     g_psi        :      1.88s CPU      1.89s WALL (    6819 calls)

     Called by h_psi:
     h_psi:calbec :     67.44s CPU     67.82s WALL (    7526 calls)
     vloc_psi     :    367.39s CPU    371.12s WALL (    7526 calls)
     add_vuspsi   :     70.38s CPU     70.77s WALL (    7526 calls)

     General routines
     calbec       :     88.29s CPU     88.76s WALL (    8246 calls)
     fft          :     19.45s CPU     19.62s WALL (    4347 calls)
     ffts         :      0.13s CPU      0.13s WALL (     137 calls)
     fftw         :    409.77s CPU    413.91s WALL (  982050 calls)
     interpolate  :      0.40s CPU      0.40s WALL (      69 calls)
     davcio       :      0.00s CPU      0.35s WALL (      10 calls)
 
     Parallel routines
 
     PWSCF        :  19m24.18s CPU  19m42.12s WALL

 
   This run was terminated on:  18:22:34  15Sep2021            

=------------------------------------------------------------------------------=
   JOB DONE.
=------------------------------------------------------------------------------=
