
     Program PWSCF v.6.7GPU starts on  9Sep2021 at 15:50:42 

     This program is part of the open-source Quantum ESPRESSO suite
     for quantum simulation of materials; please cite
         "P. Giannozzi et al., J. Phys.:Condens. Matter 21 395502 (2009);
         "P. Giannozzi et al., J. Phys.:Condens. Matter 29 465901 (2017);
         "P. Giannozzi et al., J. Chem. Phys. 152 154105 (2020);
          URL http://www.quantum-espresso.org", 
     in publications or presentations arising from this work. More details at
     http://www.quantum-espresso.org/quote

     Parallel version (MPI), running on    10 processors

     MPI processes distributed on     1 nodes
     R & G space division:  proc/nbgrp/npool/nimage =      10
     Reading input from /storage/home/hcoda1/3/ntian30/research/carbon/CxH_vib/CH3_calc/ads_slab/CH3NH2NH_c/out_0053/pw.inp
Warning: card &CELL ignored
Warning: card   CELL_DYNAMICS='IPI', ignored
Warning: card / ignored

     Current dimensions of program PWSCF are:
     Max number of different atomic species (ntypx) = 10
     Max number of k-points (npk) =  40000
     Max angular momentum in pseudopotentials (lmaxx) =  3
     Presently no symmetry can be used with electric field

     Message from routine cell_base_init:
     DEPRECATED: use true lattice parameter, not A to a.u. conversion factor

     **************************************************************************
     Initializing libbeef V0.1.2 with the BEEF-vdW functional.
     Citation: Wellendorff et al., PRB 85, 235149 (2012).
     **************************************************************************


     IMPORTANT: XC functional enforced from input :
     Exchange-correlation= BEEF-VDW
                           (   1   4  43  14   2   0   0)
     Any further DFT definition will be discarded
     Please, verify this is what you really want


     Subspace diagonalization in iterative solution of the eigenvalue problem:
     one sub-group per band group will be used
     scalapack distributed-memory algorithm (size of sub-group:  3*  3 procs)

  @ DRIVER MODE: Connecting to 
 qe_1139763_2767400.sched-torque.pace.gatech.edugr0csbrp_scratch
  using UNIX socket
  @ DRIVER MODE: Message from server: STATUS
  @ DRIVER MODE: Message from server: INIT
  @ DRIVER MODE: Receiving replica           0          -1
  @ DRIVER MODE: Receiving encoded integer          25
  @ DRIVER MODE:  SCF:  T  FORCE:  T  STRESS:  F  VC:  F  ENSEMBLE:  F
  @ DRIVER MODE:  SCF:  T  FORCE:  T  STRESS:  F  VC:  F  ENSEMBLE:  F
 
     Parallelization info
     --------------------
     sticks:   dense  smooth     PW     G-vecs:    dense   smooth      PW
     Min         327     131     37                56683    14340    2191
     Max         328     133     38                56694    14346    2206
     Sum        3275    1317    379               566857   143421   21985
 
     Using Slab Decomposition
 


     bravais-lattice index     =            0
     lattice parameter (alat)  =       1.8897  a.u.
     unit-cell volume          =    6658.9804 (a.u.)^3
     number of atoms/cell      =           56
     number of atomic types    =            5
     number of electrons       =       398.00
     number of Kohn-Sham states=          209
     kinetic-energy cutoff     =      29.3995  Ry
     charge density cutoff     =     293.9946  Ry
     scf convergence threshold =      7.3E-08
     mixing beta               =       0.0500
     number of iterations used =            8  plain     mixing
     Exchange-correlation= BEEF-VDW
                           (   1   4  43  14   2   0   0)

     celldm(1)=   1.889726  celldm(2)=   0.000000  celldm(3)=   0.000000
     celldm(4)=   0.000000  celldm(5)=   0.000000  celldm(6)=   0.000000

     crystal axes: (cart. coord. in units of alat)
               a(1) = (   6.579727   0.000000   0.000000 )  
               a(2) = (  -0.000775   5.961596   0.000000 )  
               a(3) = (   0.000000   0.000000  25.155947 )  

     reciprocal axes: (cart. coord. in units 2 pi/alat)
               b(1) = (  0.151982  0.000020  0.000000 )  
               b(2) = (  0.000000  0.167740  0.000000 )  
               b(3) = (  0.000000  0.000000  0.039752 )  


     PseudoPot. # 1 for Ti read from file:
     /storage/coda1/p-amedford6/0/shared/rich_project_chbe-medford/medford-share/data/pseudos_module/espresso/nninc/pbe/van/Ti.UPF
     MD5 check sum: 8e4df49b7f0d34bbd5052bf3f5ea0213
     Pseudo is Ultrasoft, Zval = 12.0
     Generated by new atomic code, or converted to UPF format
     Using radial grid of  851 points,  6 beta functions with: 
                l(1) =   0
                l(2) =   0
                l(3) =   1
                l(4) =   1
                l(5) =   2
                l(6) =   2
     Q(r) pseudized with  8 coefficients,  rinner =    1.000   1.000   1.000
                                                       1.000   1.000

     PseudoPot. # 2 for O  read from file:
     /storage/coda1/p-amedford6/0/shared/rich_project_chbe-medford/medford-share/data/pseudos_module/espresso/nninc/pbe/van/O.UPF
     MD5 check sum: 78c19812648e8988a0fe644b0f25305e
     Pseudo is Ultrasoft, Zval =  6.0
     Generated by new atomic code, or converted to UPF format
     Using radial grid of  737 points,  4 beta functions with: 
                l(1) =   0
                l(2) =   0
                l(3) =   1
                l(4) =   1
     Q(r) pseudized with  8 coefficients,  rinner =    0.800   0.800   0.800


     PseudoPot. # 3 for N  read from file:
     /storage/coda1/p-amedford6/0/shared/rich_project_chbe-medford/medford-share/data/pseudos_module/espresso/nninc/pbe/van/N.UPF
     MD5 check sum: 90d10febe142ad51ac9d5be1deb811c4
     Pseudo is Ultrasoft, Zval =  5.0
     Generated by new atomic code, or converted to UPF format
     Using radial grid of  729 points,  4 beta functions with: 
                l(1) =   0
                l(2) =   0
                l(3) =   1
                l(4) =   1
     Q(r) pseudized with  8 coefficients,  rinner =    0.800   0.800   0.800


     PseudoPot. # 4 for C  read from file:
     /storage/coda1/p-amedford6/0/shared/rich_project_chbe-medford/medford-share/data/pseudos_module/espresso/nninc/pbe/van/C.UPF
     MD5 check sum: 1a69bf6b8db32088f5b2163dbdb77a27
     Pseudo is Ultrasoft, Zval =  4.0
     Generated by new atomic code, or converted to UPF format
     Using radial grid of  721 points,  4 beta functions with: 
                l(1) =   0
                l(2) =   0
                l(3) =   1
                l(4) =   1
     Q(r) pseudized with  8 coefficients,  rinner =    0.800   0.800   0.800


     PseudoPot. # 5 for H  read from file:
     /storage/coda1/p-amedford6/0/shared/rich_project_chbe-medford/medford-share/data/pseudos_module/espresso/nninc/pbe/van/H.UPF
     MD5 check sum: b5ee9d7bfd3a09ee7748110bda690ff7
     Pseudo is Ultrasoft, Zval =  1.0
     Generated by new atomic code, or converted to UPF format
     Using radial grid of  615 points,  1 beta functions with: 
                l(1) =   0
     Q(r) pseudized with  8 coefficients,  rinner =    0.800

     atomic species   valence    mass     pseudopotential
        Ti1           12.00    47.86700     Ti( 1.00)
        O1             6.00    15.99900     O ( 1.00)
        N1             5.00    14.00700     N ( 1.00)
        C1             4.00    12.01100     C ( 1.00)
        H1             1.00     1.00800     H ( 1.00)

     No symmetry found



   Cartesian axes

     site n.     atom                  positions (alat units)
         1           Ti1 tau(   1) = (   0.0004258   2.9801865   6.0000000  )
         2           Ti1 tau(   2) = (   3.2906075   1.4906267   6.0002472  )
         3           O1  tau(   3) = (   0.0006271   0.0005054   7.9858123  )
         4           O1  tau(   4) = (   3.2906025   0.0005020   7.3038282  )
         5           O1  tau(   5) = (   4.5942328   1.4918067   9.2879030  )
         6           O1  tau(   6) = (   1.9868534   1.4903216   9.2879459  )
         7           Ti1 tau(   7) = (   3.2907910   2.8959150   9.1758416  )
         8           Ti1 tau(   8) = (   0.0015273   1.4827037   9.2680791  )
         9           O1  tau(   9) = (   3.3032705   0.0110091  11.3485381  )
        10           O1  tau(  10) = (   0.0116148   5.9584955  10.6183126  )
        11           O1  tau(  11) = (   1.3020657   1.4959176  12.6398190  )
        12           O1  tau(  12) = (   5.2896457   1.4919019  12.6612249  )
        13           Ti1 tau(  13) = (   0.0353884   3.0012823  12.5523301  )
        14           Ti1 tau(  14) = (   3.3275346   1.5008247  12.4978572  )
        15           O1  tau(  15) = (   0.0424128   0.0047235  14.7277795  )
        16           O1  tau(  16) = (   3.2762846   0.0047332  13.9819514  )
        17           O1  tau(  17) = (   4.5591522   1.5298593  16.0930730  )
        18           O1  tau(  18) = (   2.0612242   1.5646392  16.2256692  )
        19           Ti1 tau(  19) = (   3.3170857   3.0293758  15.7013767  )
        20           Ti1 tau(  20) = (   6.5267591   1.5471840  15.7818195  )
        21           O1  tau(  21) = (   3.2904802   0.0005063   4.7018136  )
        22           O1  tau(  22) = (   0.0258072   0.0396315  17.3287798  )
        23           O1  tau(  23) = (   1.3043587   1.4918075   6.0039043  )
        24           O1  tau(  24) = (   5.2767064   1.4903225   6.0039473  )
        25           Ti1 tau(  25) = (   0.0000382   5.9609847   6.0000000  )
        26           Ti1 tau(  26) = (   3.2902200   4.4714249   6.0002472  )
        27           O1  tau(  27) = (   0.0002396   2.9813036   7.9858123  )
        28           O1  tau(  28) = (   3.2902150   2.9813002   7.3038282  )
        29           O1  tau(  29) = (   4.5938453   4.4726049   9.2879030  )
        30           O1  tau(  30) = (   1.9864658   4.4711199   9.2879459  )
        31           Ti1 tau(  31) = (   3.2891106   5.8743827   9.1763621  )
        32           Ti1 tau(  32) = (   0.0006254   4.4649316   9.2693709  )
        33           O1  tau(  33) = (   3.3047253   2.9863606  11.3412877  )
        34           O1  tau(  34) = (   0.0092240   2.9805883  10.6323155  )
        35           O1  tau(  35) = (   1.3023160   4.4818153  12.6295520  )
        36           O1  tau(  36) = (   5.2910779   4.4839738  12.6480862  )
        37           Ti1 tau(  37) = (   0.0306270   0.0097343  12.5156175  )
        38           Ti1 tau(  38) = (   3.3295341   4.4791655  12.4867326  )
        39           O1  tau(  39) = (   0.0319336   2.9935560  14.7343221  )
        40           O1  tau(  40) = (   3.2835893   3.0037955  13.9224844  )
        41           O1  tau(  41) = (   4.5669158   4.4809188  16.1713821  )
        42           O1  tau(  42) = (   2.0542530   4.4668402  16.2247519  )
        43           Ti1 tau(  43) = (   3.3000170   0.0150779  15.7669526  )
        44           Ti1 tau(  44) = (   0.0416703   4.6955124  16.1636639  )
        45           O1  tau(  45) = (   3.2900926   2.9813045   4.7018136  )
        46           O1  tau(  46) = (   1.3039711   4.4726057   6.0039043  )
        47           O1  tau(  47) = (   5.2763189   4.4711207   6.0039473  )
        48           N1  tau(  48) = (   0.9019483   2.4226080  18.4567899  )
        49           N1  tau(  49) = (   6.4923839   2.9153054  17.5348467  )
        50           C1  tau(  50) = (   1.2734633   3.3482217  19.5544901  )
        51           H1  tau(  51) = (   0.3921683   3.5464126  20.1615046  )
        52           H1  tau(  52) = (   2.0553077   2.8833093  20.1573268  )
        53           H1  tau(  53) = (   1.6239766   4.2728770  19.1044814  )
        54           H1  tau(  54) = (   0.5870980   1.4942747  18.7832689  )
        55           H1  tau(  55) = (   5.5983569   2.8486818  18.0159164  )
        56           H1  tau(  56) = (   1.7025450   2.1792920  17.8134971  )

     number of k points=    10  Fermi-Dirac smearing, width (Ry)=  0.0073
                       cart. coord. in units 2pi/alat
        k(    1) = (   0.0000000   0.0000000   0.0000000), wk =   0.1250000
        k(    2) = (   0.0000000   0.0419351   0.0000000), wk =   0.2500000
        k(    3) = (   0.0000000  -0.0838702   0.0000000), wk =   0.1250000
        k(    4) = (   0.0379955   0.0000049   0.0000000), wk =   0.2500000
        k(    5) = (   0.0379955   0.0419400   0.0000000), wk =   0.2500000
        k(    6) = (   0.0379955  -0.0838652   0.0000000), wk =   0.2500000
        k(    7) = (   0.0379955  -0.0419301   0.0000000), wk =   0.2500000
        k(    8) = (  -0.0759910  -0.0000099   0.0000000), wk =   0.1250000
        k(    9) = (  -0.0759910   0.0419252   0.0000000), wk =   0.2500000
        k(   10) = (  -0.0759910  -0.0838800   0.0000000), wk =   0.1250000

     Dense  grid:   566857 G-vectors     FFT dimensions: (  72,  64, 270)

     Smooth grid:   143421 G-vectors     FFT dimensions: (  45,  40, 180)

     Estimated max dynamical RAM per process >     364.09 MB

     Estimated total dynamical RAM >       3.56 GB
     Cannot read rho : file not found

     Initial potential from superposition of free atoms

     starting charge  381.99914, renormalised to  398.00000

     negative rho (up, down):  1.484E-02 0.000E+00


     %%%%%%%%%%%%%%%%%%%%%%%%%%%%%%%%%%%%%%%%%%%%%%%%%%%%%%%%%%%%%%%%%%%%%%%%
     %                                                                      %
     % You are using vdW-DF, which was implemented by the Thonhauser group. %
     % Please cite the following two papers that made this development      %
     % possible and the two reviews that describe the various versions:     %
     %                                                                      %
     %   T. Thonhauser et al., PRL 115, 136402 (2015).                      %
     %   T. Thonhauser et al., PRB 76, 125112 (2007).                       %
     %   K. Berland et al., Rep. Prog. Phys. 78, 066501 (2015).             %
     %   D.C. Langreth et al., J. Phys.: Condens. Matter 21, 084203 (2009). %
     %                                                                      %
     %                                                                      %
     % If you are calculating the stress with vdW-DF, please also cite:     %
     %                                                                      %
     %   R. Sabatini et al., J. Phys.: Condens. Matter 24, 424209 (2012).   %
     %                                                                      %
     %%%%%%%%%%%%%%%%%%%%%%%%%%%%%%%%%%%%%%%%%%%%%%%%%%%%%%%%%%%%%%%%%%%%%%%%


 
     Adding external electric field

     Computed dipole along edir(3) : 
        Dipole              -10.9098 Ry au,        -27.7300 Debye
        Dipole field         -0.0206 Ry au, 
 
        Potential amp.        1.9085 Ry
        Total length         46.3494 bohr
 
     Starting wfcs are  302 atomic wfcs
  @ DRIVER MODE: Message from server: STATUS
  @ DRIVER MODE: Message from server: POSDATA
  @ DRIVER MODE: Reading and sharing cell 
  @ DRIVER MODE: Reading and sharing positions 
  @ DRIVER MODE: Received positions 

     total cpu time spent up to now is       11.5 secs

     Self-consistent Calculation

     iteration #  1     ecut=    29.40 Ry     beta= 0.05
     Davidson diagonalization with overlap
     c_bands:  5 eigenvalues not converged
     c_bands:  3 eigenvalues not converged
     c_bands:  1 eigenvalues not converged
     c_bands:  2 eigenvalues not converged
     c_bands:  3 eigenvalues not converged
     c_bands:  4 eigenvalues not converged
     c_bands:  4 eigenvalues not converged
     ethr =  1.00E-05,  avg # of iterations = 24.3

     negative rho (up, down):  1.061E-02 0.000E+00
 
     Adding external electric field

     Computed dipole along edir(3) : 
        Dipole               47.8451 Ry au,        121.6102 Debye
        Dipole field          0.0903 Ry au, 
 
        Potential amp.       -8.3698 Ry
        Total length         46.3494 bohr
 

     total cpu time spent up to now is       57.1 secs

     total energy              =   -2445.36943675 Ry
     estimated scf accuracy    <    5568.54384730 Ry

     iteration #  2     ecut=    29.40 Ry     beta= 0.05
     Davidson diagonalization with overlap
     ethr =  1.00E-02,  avg # of iterations = 22.4

     negative rho (up, down):  2.122E-03 0.000E+00
 
     Adding external electric field

     Computed dipole along edir(3) : 
        Dipole               -1.7676 Ry au,         -4.4927 Debye
        Dipole field         -0.0033 Ry au, 
 
        Potential amp.        0.3092 Ry
        Total length         46.3494 bohr
 

     total cpu time spent up to now is      135.0 secs

     total energy              =   -2432.38959047 Ry
     estimated scf accuracy    <   71236.05521146 Ry

     iteration #  3     ecut=    29.40 Ry     beta= 0.05
     Davidson diagonalization with overlap
     ethr =  1.00E-02,  avg # of iterations = 15.9

     negative rho (up, down):  2.192E-03 0.000E+00
 
     Adding external electric field

     Computed dipole along edir(3) : 
        Dipole               -4.2639 Ry au,        -10.8379 Debye
        Dipole field         -0.0080 Ry au, 
 
        Potential amp.        0.7459 Ry
        Total length         46.3494 bohr
 

     total cpu time spent up to now is      184.3 secs

     total energy              =   -2928.44420315 Ry
     estimated scf accuracy    <    4983.81664796 Ry

     iteration #  4     ecut=    29.40 Ry     beta= 0.05
     Davidson diagonalization with overlap
     ethr =  1.00E-02,  avg # of iterations = 11.0

     negative rho (up, down):  2.238E-03 0.000E+00
 
     Adding external electric field

     Computed dipole along edir(3) : 
        Dipole               -6.0458 Ry au,        -15.3668 Debye
        Dipole field         -0.0114 Ry au, 
 
        Potential amp.        1.0576 Ry
        Total length         46.3494 bohr
 

     total cpu time spent up to now is      203.2 secs

     total energy              =   -2928.10095765 Ry
     estimated scf accuracy    <    1962.90774179 Ry

     iteration #  5     ecut=    29.40 Ry     beta= 0.05
     Davidson diagonalization with overlap
     c_bands:  4 eigenvalues not converged
     c_bands:  1 eigenvalues not converged
     ethr =  1.00E-02,  avg # of iterations =  8.9

     negative rho (up, down):  2.315E-03 0.000E+00
 
     Adding external electric field

     Computed dipole along edir(3) : 
        Dipole               -6.8937 Ry au,        -17.5222 Debye
        Dipole field         -0.0130 Ry au, 
 
        Potential amp.        1.2060 Ry
        Total length         46.3494 bohr
 

     total cpu time spent up to now is      218.0 secs

     total energy              =   -2929.06162758 Ry
     estimated scf accuracy    <     759.56594966 Ry

     iteration #  6     ecut=    29.40 Ry     beta= 0.05
     Davidson diagonalization with overlap
     ethr =  1.00E-02,  avg # of iterations =  7.6

     negative rho (up, down):  2.307E-03 0.000E+00
 
     Adding external electric field

     Computed dipole along edir(3) : 
        Dipole               -6.2256 Ry au,        -15.8240 Debye
        Dipole field         -0.0117 Ry au, 
 
        Potential amp.        1.0891 Ry
        Total length         46.3494 bohr
 

     total cpu time spent up to now is      234.6 secs

     total energy              =   -2946.47834472 Ry
     estimated scf accuracy    <      17.59966369 Ry

     iteration #  7     ecut=    29.40 Ry     beta= 0.05
     Davidson diagonalization with overlap
     ethr =  4.42E-03,  avg # of iterations =  1.5

     negative rho (up, down):  2.465E-03 0.000E+00
 
     Adding external electric field

     Computed dipole along edir(3) : 
        Dipole               -1.1308 Ry au,         -2.8742 Debye
        Dipole field         -0.0021 Ry au, 
 
        Potential amp.        0.1978 Ry
        Total length         46.3494 bohr
 

     total cpu time spent up to now is      245.1 secs

     total energy              =   -2943.45294110 Ry
     estimated scf accuracy    <      16.18242142 Ry

     iteration #  8     ecut=    29.40 Ry     beta= 0.05
     Davidson diagonalization with overlap
     c_bands:  1 eigenvalues not converged
     c_bands:  2 eigenvalues not converged
     ethr =  4.07E-03,  avg # of iterations = 19.0

     negative rho (up, down):  2.545E-03 0.000E+00
 
     Adding external electric field

     Computed dipole along edir(3) : 
        Dipole               -1.0016 Ry au,         -2.5459 Debye
        Dipole field         -0.0019 Ry au, 
 
        Potential amp.        0.1752 Ry
        Total length         46.3494 bohr
 

     total cpu time spent up to now is      267.8 secs

     total energy              =   -2959.14403156 Ry
     estimated scf accuracy    <    2111.01157995 Ry

     iteration #  9     ecut=    29.40 Ry     beta= 0.05
     Davidson diagonalization with overlap
     ethr =  4.07E-03,  avg # of iterations =  1.3

     negative rho (up, down):  2.662E-03 0.000E+00
 
     Adding external electric field

     Computed dipole along edir(3) : 
        Dipole               -1.2708 Ry au,         -3.2302 Debye
        Dipole field         -0.0024 Ry au, 
 
        Potential amp.        0.2223 Ry
        Total length         46.3494 bohr
 

     total cpu time spent up to now is      278.0 secs

     total energy              =   -2954.01419084 Ry
     estimated scf accuracy    <    1940.54380877 Ry

     iteration # 10     ecut=    29.40 Ry     beta= 0.05
     Davidson diagonalization with overlap
     ethr =  4.07E-03,  avg # of iterations =  1.1

     negative rho (up, down):  3.179E-03 0.000E+00
 
     Adding external electric field

     Computed dipole along edir(3) : 
        Dipole               -2.2558 Ry au,         -5.7336 Debye
        Dipole field         -0.0043 Ry au, 
 
        Potential amp.        0.3946 Ry
        Total length         46.3494 bohr
 

     total cpu time spent up to now is      288.2 secs

     total energy              =   -2936.54721149 Ry
     estimated scf accuracy    <    1730.12344664 Ry

     iteration # 11     ecut=    29.40 Ry     beta= 0.05
     Davidson diagonalization with overlap
     c_bands:  2 eigenvalues not converged
     c_bands:  2 eigenvalues not converged
     c_bands:  1 eigenvalues not converged
     ethr =  4.07E-03,  avg # of iterations = 16.3

     negative rho (up, down):  3.020E-03 0.000E+00
 
     Adding external electric field

     Computed dipole along edir(3) : 
        Dipole               -3.1456 Ry au,         -7.9953 Debye
        Dipole field         -0.0059 Ry au, 
 
        Potential amp.        0.5503 Ry
        Total length         46.3494 bohr
 

     total cpu time spent up to now is      308.9 secs

     total energy              =   -2940.92495800 Ry
     estimated scf accuracy    <     139.28208260 Ry

     iteration # 12     ecut=    29.40 Ry     beta= 0.05
     Davidson diagonalization with overlap
     c_bands:  2 eigenvalues not converged
     c_bands:  3 eigenvalues not converged
     c_bands:  2 eigenvalues not converged
     ethr =  4.07E-03,  avg # of iterations = 15.1

     negative rho (up, down):  2.999E-03 0.000E+00
 
     Adding external electric field

     Computed dipole along edir(3) : 
        Dipole               -3.3036 Ry au,         -8.3968 Debye
        Dipole field         -0.0062 Ry au, 
 
        Potential amp.        0.5779 Ry
        Total length         46.3494 bohr
 

     total cpu time spent up to now is      324.3 secs

     total energy              =   -2942.35751695 Ry
     estimated scf accuracy    <       8.49738260 Ry

     iteration # 13     ecut=    29.40 Ry     beta= 0.05
     Davidson diagonalization with overlap
     c_bands:  2 eigenvalues not converged
     ethr =  2.14E-03,  avg # of iterations =  8.6

     negative rho (up, down):  3.069E-03 0.000E+00
 
     Adding external electric field

     Computed dipole along edir(3) : 
        Dipole               -2.2107 Ry au,         -5.6190 Debye
        Dipole field         -0.0042 Ry au, 
 
        Potential amp.        0.3867 Ry
        Total length         46.3494 bohr
 

     total cpu time spent up to now is      337.9 secs

     total energy              =   -2942.95114665 Ry
     estimated scf accuracy    <       5.64129878 Ry

     iteration # 14     ecut=    29.40 Ry     beta= 0.05
     Davidson diagonalization with overlap
     ethr =  1.42E-03,  avg # of iterations =  2.0

     negative rho (up, down):  3.096E-03 0.000E+00
 
     Adding external electric field

     Computed dipole along edir(3) : 
        Dipole               -1.5258 Ry au,         -3.8782 Debye
        Dipole field         -0.0029 Ry au, 
 
        Potential amp.        0.2669 Ry
        Total length         46.3494 bohr
 

     total cpu time spent up to now is      348.9 secs

     total energy              =   -2943.10647524 Ry
     estimated scf accuracy    <       3.83293198 Ry

     iteration # 15     ecut=    29.40 Ry     beta= 0.05
     Davidson diagonalization with overlap
     ethr =  9.63E-04,  avg # of iterations =  4.7

     negative rho (up, down):  3.297E-03 0.000E+00
 
     Adding external electric field

     Computed dipole along edir(3) : 
        Dipole               -1.0706 Ry au,         -2.7213 Debye
        Dipole field         -0.0020 Ry au, 
 
        Potential amp.        0.1873 Ry
        Total length         46.3494 bohr
 

     total cpu time spent up to now is      360.7 secs

     total energy              =   -2942.36694591 Ry
     estimated scf accuracy    <      42.69833270 Ry

     iteration # 16     ecut=    29.40 Ry     beta= 0.05
     Davidson diagonalization with overlap
     ethr =  9.63E-04,  avg # of iterations =  3.1

     negative rho (up, down):  3.497E-03 0.000E+00
 
     Adding external electric field

     Computed dipole along edir(3) : 
        Dipole               -0.8236 Ry au,         -2.0933 Debye
        Dipole field         -0.0016 Ry au, 
 
        Potential amp.        0.1441 Ry
        Total length         46.3494 bohr
 

     total cpu time spent up to now is      372.0 secs

     total energy              =   -2942.82125720 Ry
     estimated scf accuracy    <       1.67693102 Ry

     iteration # 17     ecut=    29.40 Ry     beta= 0.05
     Davidson diagonalization with overlap
     ethr =  4.21E-04,  avg # of iterations =  7.5

     negative rho (up, down):  3.709E-03 0.000E+00
 
     Adding external electric field

     Computed dipole along edir(3) : 
        Dipole               -0.6776 Ry au,         -1.7224 Debye
        Dipole field         -0.0013 Ry au, 
 
        Potential amp.        0.1185 Ry
        Total length         46.3494 bohr
 

     total cpu time spent up to now is      385.4 secs

     total energy              =   -2942.87429367 Ry
     estimated scf accuracy    <       0.98605248 Ry

     iteration # 18     ecut=    29.40 Ry     beta= 0.05
     Davidson diagonalization with overlap
     c_bands:  2 eigenvalues not converged
     c_bands:  3 eigenvalues not converged
     c_bands:  1 eigenvalues not converged
     c_bands:  1 eigenvalues not converged
     c_bands:  1 eigenvalues not converged
     ethr =  2.48E-04,  avg # of iterations = 17.8

     negative rho (up, down):  4.322E-03 0.000E+00
 
     Adding external electric field

     Computed dipole along edir(3) : 
        Dipole                0.4484 Ry au,          1.1398 Debye
        Dipole field          0.0008 Ry au, 
 
        Potential amp.       -0.0784 Ry
        Total length         46.3494 bohr
 

     total cpu time spent up to now is      402.9 secs

     total energy              =   -2942.87236154 Ry
     estimated scf accuracy    <       3.07254955 Ry

     iteration # 19     ecut=    29.40 Ry     beta= 0.05
     Davidson diagonalization with overlap
     c_bands:  2 eigenvalues not converged
     ethr =  2.48E-04,  avg # of iterations =  7.0

     negative rho (up, down):  4.381E-03 0.000E+00
 
     Adding external electric field

     Computed dipole along edir(3) : 
        Dipole                0.5645 Ry au,          1.4349 Debye
        Dipole field          0.0011 Ry au, 
 
        Potential amp.       -0.0988 Ry
        Total length         46.3494 bohr
 

     total cpu time spent up to now is      415.3 secs

     total energy              =   -2942.88722230 Ry
     estimated scf accuracy    <       1.11820443 Ry

     iteration # 20     ecut=    29.40 Ry     beta= 0.05
     Davidson diagonalization with overlap
     ethr =  2.48E-04,  avg # of iterations =  4.9

     negative rho (up, down):  4.403E-03 0.000E+00
 
     Adding external electric field

     Computed dipole along edir(3) : 
        Dipole                0.6431 Ry au,          1.6346 Debye
        Dipole field          0.0012 Ry au, 
 
        Potential amp.       -0.1125 Ry
        Total length         46.3494 bohr
 

     total cpu time spent up to now is      426.7 secs

     total energy              =   -2942.90209292 Ry
     estimated scf accuracy    <       0.67854885 Ry

     iteration # 21     ecut=    29.40 Ry     beta= 0.05
     Davidson diagonalization with overlap
     c_bands:  2 eigenvalues not converged
     ethr =  1.70E-04,  avg # of iterations =  5.3

     negative rho (up, down):  4.877E-03 0.000E+00
 
     Adding external electric field

     Computed dipole along edir(3) : 
        Dipole                1.1618 Ry au,          2.9529 Debye
        Dipole field          0.0022 Ry au, 
 
        Potential amp.       -0.2032 Ry
        Total length         46.3494 bohr
 

     total cpu time spent up to now is      438.4 secs

     total energy              =   -2942.84689779 Ry
     estimated scf accuracy    <       0.78416583 Ry

     iteration # 22     ecut=    29.40 Ry     beta= 0.05
     Davidson diagonalization with overlap
     c_bands:  2 eigenvalues not converged
     c_bands:  1 eigenvalues not converged
     c_bands:  1 eigenvalues not converged
     ethr =  1.70E-04,  avg # of iterations = 17.3

     negative rho (up, down):  4.783E-03 0.000E+00
 
     Adding external electric field

     Computed dipole along edir(3) : 
        Dipole                0.9998 Ry au,          2.5412 Debye
        Dipole field          0.0019 Ry au, 
 
        Potential amp.       -0.1749 Ry
        Total length         46.3494 bohr
 

     total cpu time spent up to now is      454.7 secs

     total energy              =   -2942.85431552 Ry
     estimated scf accuracy    <       1.51987391 Ry

     iteration # 23     ecut=    29.40 Ry     beta= 0.05
     Davidson diagonalization with overlap
     ethr =  1.70E-04,  avg # of iterations =  4.2

     negative rho (up, down):  4.983E-03 0.000E+00
 
     Adding external electric field

     Computed dipole along edir(3) : 
        Dipole                1.0584 Ry au,          2.6902 Debye
        Dipole field          0.0020 Ry au, 
 
        Potential amp.       -0.1851 Ry
        Total length         46.3494 bohr
 

     total cpu time spent up to now is      466.0 secs

     total energy              =   -2942.86381911 Ry
     estimated scf accuracy    <       0.85989874 Ry

     iteration # 24     ecut=    29.40 Ry     beta= 0.05
     Davidson diagonalization with overlap
     ethr =  1.70E-04,  avg # of iterations =  1.0

     negative rho (up, down):  5.130E-03 0.000E+00
 
     Adding external electric field

     Computed dipole along edir(3) : 
        Dipole                0.9207 Ry au,          2.3402 Debye
        Dipole field          0.0017 Ry au, 
 
        Potential amp.       -0.1611 Ry
        Total length         46.3494 bohr
 

     total cpu time spent up to now is      476.0 secs

     total energy              =   -2942.83825394 Ry
     estimated scf accuracy    <       0.76621376 Ry

     iteration # 25     ecut=    29.40 Ry     beta= 0.05
     Davidson diagonalization with overlap
     ethr =  1.70E-04,  avg # of iterations =  1.7

     negative rho (up, down):  5.558E-03 0.000E+00
 
     Adding external electric field

     Computed dipole along edir(3) : 
        Dipole                0.9466 Ry au,          2.4059 Debye
        Dipole field          0.0018 Ry au, 
 
        Potential amp.       -0.1656 Ry
        Total length         46.3494 bohr
 

     total cpu time spent up to now is      486.4 secs

     total energy              =   -2942.81848849 Ry
     estimated scf accuracy    <       0.24165132 Ry

     iteration # 26     ecut=    29.40 Ry     beta= 0.05
     Davidson diagonalization with overlap
     c_bands:  2 eigenvalues not converged
     c_bands:  1 eigenvalues not converged
     ethr =  6.07E-05,  avg # of iterations = 15.5

     negative rho (up, down):  6.094E-03 0.000E+00
 
     Adding external electric field

     Computed dipole along edir(3) : 
        Dipole                1.4897 Ry au,          3.7864 Debye
        Dipole field          0.0028 Ry au, 
 
        Potential amp.       -0.2606 Ry
        Total length         46.3494 bohr
 

     total cpu time spent up to now is      505.4 secs

     total energy              =   -2942.82215724 Ry
     estimated scf accuracy    <       0.36814814 Ry

     iteration # 27     ecut=    29.40 Ry     beta= 0.05
     Davidson diagonalization with overlap
     c_bands:  1 eigenvalues not converged
     c_bands:  3 eigenvalues not converged
     c_bands:  2 eigenvalues not converged
     c_bands:  1 eigenvalues not converged
     ethr =  6.07E-05,  avg # of iterations = 13.8

     negative rho (up, down):  5.988E-03 0.000E+00
 
     Adding external electric field

     Computed dipole along edir(3) : 
        Dipole                1.3280 Ry au,          3.3755 Debye
        Dipole field          0.0025 Ry au, 
 
        Potential amp.       -0.2323 Ry
        Total length         46.3494 bohr
 

     total cpu time spent up to now is      520.8 secs

     total energy              =   -2942.83856252 Ry
     estimated scf accuracy    <       0.15341965 Ry

     iteration # 28     ecut=    29.40 Ry     beta= 0.05
     Davidson diagonalization with overlap
     c_bands:  1 eigenvalues not converged
     ethr =  3.85E-05,  avg # of iterations =  4.8

     negative rho (up, down):  5.855E-03 0.000E+00
 
     Adding external electric field

     Computed dipole along edir(3) : 
        Dipole                1.2775 Ry au,          3.2470 Debye
        Dipole field          0.0024 Ry au, 
 
        Potential amp.       -0.2235 Ry
        Total length         46.3494 bohr
 

     total cpu time spent up to now is      532.3 secs

     total energy              =   -2942.83591759 Ry
     estimated scf accuracy    <       0.06505406 Ry

     iteration # 29     ecut=    29.40 Ry     beta= 0.05
     Davidson diagonalization with overlap
     c_bands:  1 eigenvalues not converged
     c_bands:  1 eigenvalues not converged
     c_bands:  2 eigenvalues not converged
     ethr =  1.63E-05,  avg # of iterations = 15.2

     negative rho (up, down):  5.962E-03 0.000E+00
 
     Adding external electric field

     Computed dipole along edir(3) : 
        Dipole                1.4196 Ry au,          3.6082 Debye
        Dipole field          0.0027 Ry au, 
 
        Potential amp.       -0.2483 Ry
        Total length         46.3494 bohr
 

     total cpu time spent up to now is      548.2 secs

     total energy              =   -2942.83530038 Ry
     estimated scf accuracy    <       0.05030110 Ry

     iteration # 30     ecut=    29.40 Ry     beta= 0.05
     Davidson diagonalization with overlap
     c_bands:  2 eigenvalues not converged
     c_bands:  2 eigenvalues not converged
     c_bands:  1 eigenvalues not converged
     ethr =  1.26E-05,  avg # of iterations = 12.3

     negative rho (up, down):  6.368E-03 0.000E+00
 
     Adding external electric field

     Computed dipole along edir(3) : 
        Dipole                1.4298 Ry au,          3.6343 Debye
        Dipole field          0.0027 Ry au, 
 
        Potential amp.       -0.2501 Ry
        Total length         46.3494 bohr
 

     total cpu time spent up to now is      562.8 secs

     total energy              =   -2942.83722972 Ry
     estimated scf accuracy    <       0.03471282 Ry

     iteration # 31     ecut=    29.40 Ry     beta= 0.05
     Davidson diagonalization with overlap
     c_bands:  1 eigenvalues not converged
     c_bands:  1 eigenvalues not converged
     ethr =  8.72E-06,  avg # of iterations =  9.8

     negative rho (up, down):  7.331E-03 0.000E+00
 
     Adding external electric field

     Computed dipole along edir(3) : 
        Dipole                1.6693 Ry au,          4.2428 Debye
        Dipole field          0.0032 Ry au, 
 
        Potential amp.       -0.2920 Ry
        Total length         46.3494 bohr
 

     total cpu time spent up to now is      575.5 secs

     total energy              =   -2942.83886364 Ry
     estimated scf accuracy    <       0.01523091 Ry

     iteration # 32     ecut=    29.40 Ry     beta= 0.05
     Davidson diagonalization with overlap
     c_bands:  1 eigenvalues not converged
     c_bands:  2 eigenvalues not converged
     c_bands:  1 eigenvalues not converged
     c_bands:  1 eigenvalues not converged
     c_bands:  1 eigenvalues not converged
     c_bands:  2 eigenvalues not converged
     c_bands:  2 eigenvalues not converged
     c_bands:  2 eigenvalues not converged
     c_bands:  2 eigenvalues not converged
     ethr =  3.83E-06,  avg # of iterations = 19.8

     negative rho (up, down):  7.452E-03 0.000E+00
 
     Adding external electric field

     Computed dipole along edir(3) : 
        Dipole                1.6164 Ry au,          4.1086 Debye
        Dipole field          0.0031 Ry au, 
 
        Potential amp.       -0.2828 Ry
        Total length         46.3494 bohr
 

     total cpu time spent up to now is      596.6 secs

     total energy              =   -2942.84182622 Ry
     estimated scf accuracy    <       0.09482950 Ry

     iteration # 33     ecut=    29.40 Ry     beta= 0.05
     Davidson diagonalization with overlap
     c_bands:  2 eigenvalues not converged
     c_bands:  1 eigenvalues not converged
     ethr =  3.83E-06,  avg # of iterations =  9.8

     negative rho (up, down):  7.590E-03 0.000E+00
 
     Adding external electric field

     Computed dipole along edir(3) : 
        Dipole                1.5574 Ry au,          3.9585 Debye
        Dipole field          0.0029 Ry au, 
 
        Potential amp.       -0.2724 Ry
        Total length         46.3494 bohr
 

     total cpu time spent up to now is      609.4 secs

     total energy              =   -2942.84139588 Ry
     estimated scf accuracy    <       0.06370273 Ry

     iteration # 34     ecut=    29.40 Ry     beta= 0.05
     Davidson diagonalization with overlap
     c_bands:  1 eigenvalues not converged
     ethr =  3.83E-06,  avg # of iterations =  7.4

     negative rho (up, down):  8.551E-03 0.000E+00
 
     Adding external electric field

     Computed dipole along edir(3) : 
        Dipole                1.5054 Ry au,          3.8264 Debye
        Dipole field          0.0028 Ry au, 
 
        Potential amp.       -0.2634 Ry
        Total length         46.3494 bohr
 

     total cpu time spent up to now is      621.8 secs

     total energy              =   -2942.83839981 Ry
     estimated scf accuracy    <       0.04744752 Ry

     iteration # 35     ecut=    29.40 Ry     beta= 0.05
     Davidson diagonalization with overlap
     c_bands:  1 eigenvalues not converged
     c_bands:  1 eigenvalues not converged
     c_bands:  1 eigenvalues not converged
     c_bands:  1 eigenvalues not converged
     c_bands:  1 eigenvalues not converged
     c_bands:  1 eigenvalues not converged
     ethr =  3.83E-06,  avg # of iterations = 18.7

     negative rho (up, down):  8.518E-03 0.000E+00
 
     Adding external electric field

     Computed dipole along edir(3) : 
        Dipole                1.4786 Ry au,          3.7582 Debye
        Dipole field          0.0028 Ry au, 
 
        Potential amp.       -0.2587 Ry
        Total length         46.3494 bohr
 

     total cpu time spent up to now is      641.1 secs

     total energy              =   -2942.84069220 Ry
     estimated scf accuracy    <       0.00522871 Ry

     iteration # 36     ecut=    29.40 Ry     beta= 0.05
     Davidson diagonalization with overlap
     c_bands:  1 eigenvalues not converged
     c_bands:  1 eigenvalues not converged
     c_bands:  1 eigenvalues not converged
     ethr =  1.31E-06,  avg # of iterations = 10.8

     negative rho (up, down):  8.775E-03 0.000E+00
 
     Adding external electric field

     Computed dipole along edir(3) : 
        Dipole                1.5398 Ry au,          3.9137 Debye
        Dipole field          0.0029 Ry au, 
 
        Potential amp.       -0.2694 Ry
        Total length         46.3494 bohr
 

     total cpu time spent up to now is      654.8 secs

     total energy              =   -2942.84036740 Ry
     estimated scf accuracy    <       0.00686639 Ry

     iteration # 37     ecut=    29.40 Ry     beta= 0.05
     Davidson diagonalization with overlap
     c_bands:  1 eigenvalues not converged
     c_bands:  1 eigenvalues not converged
     ethr =  1.31E-06,  avg # of iterations =  9.2

     negative rho (up, down):  9.055E-03 0.000E+00
 
     Adding external electric field

     Computed dipole along edir(3) : 
        Dipole                1.5555 Ry au,          3.9536 Debye
        Dipole field          0.0029 Ry au, 
 
        Potential amp.       -0.2721 Ry
        Total length         46.3494 bohr
 

     total cpu time spent up to now is      668.7 secs

     total energy              =   -2942.84079684 Ry
     estimated scf accuracy    <       0.00273313 Ry

     iteration # 38     ecut=    29.40 Ry     beta= 0.05
     Davidson diagonalization with overlap
     c_bands:  1 eigenvalues not converged
     ethr =  6.87E-07,  avg # of iterations =  9.2

     negative rho (up, down):  9.294E-03 0.000E+00
 
     Adding external electric field

     Computed dipole along edir(3) : 
        Dipole                1.5647 Ry au,          3.9771 Debye
        Dipole field          0.0030 Ry au, 
 
        Potential amp.       -0.2737 Ry
        Total length         46.3494 bohr
 

     total cpu time spent up to now is      682.1 secs

     total energy              =   -2942.84096493 Ry
     estimated scf accuracy    <       0.00103332 Ry

     iteration # 39     ecut=    29.40 Ry     beta= 0.05
     Davidson diagonalization with overlap
     ethr =  2.60E-07,  avg # of iterations = 13.4

     negative rho (up, down):  9.432E-03 0.000E+00
 
     Adding external electric field

     Computed dipole along edir(3) : 
        Dipole                1.5648 Ry au,          3.9774 Debye
        Dipole field          0.0030 Ry au, 
 
        Potential amp.       -0.2737 Ry
        Total length         46.3494 bohr
 

     total cpu time spent up to now is      700.7 secs

     total energy              =   -2942.84096945 Ry
     estimated scf accuracy    <       0.00131245 Ry

     iteration # 40     ecut=    29.40 Ry     beta= 0.05
     Davidson diagonalization with overlap
     ethr =  2.60E-07,  avg # of iterations =  7.0

     negative rho (up, down):  9.992E-03 0.000E+00
 
     Adding external electric field

     Computed dipole along edir(3) : 
        Dipole                1.5742 Ry au,          4.0013 Debye
        Dipole field          0.0030 Ry au, 
 
        Potential amp.       -0.2754 Ry
        Total length         46.3494 bohr
 

     total cpu time spent up to now is      713.8 secs

     total energy              =   -2942.84110115 Ry
     estimated scf accuracy    <       0.00032569 Ry

     iteration # 41     ecut=    29.40 Ry     beta= 0.05
     Davidson diagonalization with overlap
     c_bands:  1 eigenvalues not converged
     c_bands:  1 eigenvalues not converged
     ethr =  8.18E-08,  avg # of iterations = 13.3

     negative rho (up, down):  1.004E-02 0.000E+00
 
     Adding external electric field

     Computed dipole along edir(3) : 
        Dipole                1.5773 Ry au,          4.0092 Debye
        Dipole field          0.0030 Ry au, 
 
        Potential amp.       -0.2759 Ry
        Total length         46.3494 bohr
 

     total cpu time spent up to now is      733.3 secs

     total energy              =   -2942.84120128 Ry
     estimated scf accuracy    <       0.00015789 Ry

     iteration # 42     ecut=    29.40 Ry     beta= 0.05
     Davidson diagonalization with overlap
     ethr =  3.97E-08,  avg # of iterations =  3.0

     negative rho (up, down):  1.015E-02 0.000E+00
 
     Adding external electric field

     Computed dipole along edir(3) : 
        Dipole                1.5812 Ry au,          4.0190 Debye
        Dipole field          0.0030 Ry au, 
 
        Potential amp.       -0.2766 Ry
        Total length         46.3494 bohr
 

     total cpu time spent up to now is      744.2 secs

     total energy              =   -2942.84122825 Ry
     estimated scf accuracy    <       0.00012096 Ry

     iteration # 43     ecut=    29.40 Ry     beta= 0.05
     Davidson diagonalization with overlap
     c_bands:  1 eigenvalues not converged
     ethr =  3.04E-08,  avg # of iterations = 13.2

     negative rho (up, down):  1.024E-02 0.000E+00
 
     Adding external electric field

     Computed dipole along edir(3) : 
        Dipole                1.5806 Ry au,          4.0176 Debye
        Dipole field          0.0030 Ry au, 
 
        Potential amp.       -0.2765 Ry
        Total length         46.3494 bohr
 

     total cpu time spent up to now is      759.4 secs

     total energy              =   -2942.84126454 Ry
     estimated scf accuracy    <       0.00006417 Ry

     iteration # 44     ecut=    29.40 Ry     beta= 0.05
     Davidson diagonalization with overlap
     ethr =  1.61E-08,  avg # of iterations =  3.9

     negative rho (up, down):  1.036E-02 0.000E+00
 
     Adding external electric field

     Computed dipole along edir(3) : 
        Dipole                1.5827 Ry au,          4.0228 Debye
        Dipole field          0.0030 Ry au, 
 
        Potential amp.       -0.2769 Ry
        Total length         46.3494 bohr
 

     total cpu time spent up to now is      770.9 secs

     total energy              =   -2942.84128437 Ry
     estimated scf accuracy    <       0.00004885 Ry

     iteration # 45     ecut=    29.40 Ry     beta= 0.05
     Davidson diagonalization with overlap
     c_bands:  2 eigenvalues not converged
     c_bands:  1 eigenvalues not converged
     c_bands:  1 eigenvalues not converged
     ethr =  1.23E-08,  avg # of iterations = 15.2

     negative rho (up, down):  1.033E-02 0.000E+00
 
     Adding external electric field

     Computed dipole along edir(3) : 
        Dipole                1.5813 Ry au,          4.0193 Debye
        Dipole field          0.0030 Ry au, 
 
        Potential amp.       -0.2766 Ry
        Total length         46.3494 bohr
 

     total cpu time spent up to now is      789.2 secs

     total energy              =   -2942.84130680 Ry
     estimated scf accuracy    <       0.00004298 Ry

     iteration # 46     ecut=    29.40 Ry     beta= 0.05
     Davidson diagonalization with overlap
     ethr =  1.08E-08,  avg # of iterations =  5.0

     negative rho (up, down):  1.029E-02 0.000E+00
 
     Adding external electric field

     Computed dipole along edir(3) : 
        Dipole                1.5788 Ry au,          4.0129 Debye
        Dipole field          0.0030 Ry au, 
 
        Potential amp.       -0.2762 Ry
        Total length         46.3494 bohr
 

     total cpu time spent up to now is      801.2 secs

     total energy              =   -2942.84132143 Ry
     estimated scf accuracy    <       0.00002457 Ry

     iteration # 47     ecut=    29.40 Ry     beta= 0.05
     Davidson diagonalization with overlap
     c_bands:  1 eigenvalues not converged
     c_bands:  2 eigenvalues not converged
     c_bands:  2 eigenvalues not converged
     ethr =  6.17E-09,  avg # of iterations = 15.7

     negative rho (up, down):  1.035E-02 0.000E+00
 
     Adding external electric field

     Computed dipole along edir(3) : 
        Dipole                1.5806 Ry au,          4.0175 Debye
        Dipole field          0.0030 Ry au, 
 
        Potential amp.       -0.2765 Ry
        Total length         46.3494 bohr
 

     total cpu time spent up to now is      819.8 secs

     total energy              =   -2942.84134189 Ry
     estimated scf accuracy    <       0.00001429 Ry

     iteration # 48     ecut=    29.40 Ry     beta= 0.05
     Davidson diagonalization with overlap
     c_bands:  1 eigenvalues not converged
     ethr =  3.59E-09,  avg # of iterations = 10.3

     negative rho (up, down):  1.035E-02 0.000E+00
 
     Adding external electric field

     Computed dipole along edir(3) : 
        Dipole                1.5802 Ry au,          4.0164 Debye
        Dipole field          0.0030 Ry au, 
 
        Potential amp.       -0.2764 Ry
        Total length         46.3494 bohr
 

     total cpu time spent up to now is      834.0 secs

     total energy              =   -2942.84135934 Ry
     estimated scf accuracy    <       0.00000591 Ry

     iteration # 49     ecut=    29.40 Ry     beta= 0.05
     Davidson diagonalization with overlap
     ethr =  1.49E-09,  avg # of iterations =  8.5

     negative rho (up, down):  1.037E-02 0.000E+00
 
     Adding external electric field

     Computed dipole along edir(3) : 
        Dipole                1.5803 Ry au,          4.0167 Debye
        Dipole field          0.0030 Ry au, 
 
        Potential amp.       -0.2764 Ry
        Total length         46.3494 bohr
 

     total cpu time spent up to now is      847.6 secs

     total energy              =   -2942.84137366 Ry
     estimated scf accuracy    <       0.00000425 Ry

     iteration # 50     ecut=    29.40 Ry     beta= 0.05
     Davidson diagonalization with overlap
     ethr =  1.07E-09,  avg # of iterations =  7.7

     negative rho (up, down):  1.038E-02 0.000E+00
 
     Adding external electric field

     Computed dipole along edir(3) : 
        Dipole                1.5812 Ry au,          4.0189 Debye
        Dipole field          0.0030 Ry au, 
 
        Potential amp.       -0.2766 Ry
        Total length         46.3494 bohr
 

     total cpu time spent up to now is      861.9 secs

     total energy              =   -2942.84138731 Ry
     estimated scf accuracy    <       0.00000262 Ry

     iteration # 51     ecut=    29.40 Ry     beta= 0.05
     Davidson diagonalization with overlap
     c_bands:  1 eigenvalues not converged
     ethr =  6.58E-10,  avg # of iterations = 12.2

     negative rho (up, down):  1.042E-02 0.000E+00
 
     Adding external electric field

     Computed dipole along edir(3) : 
        Dipole                1.5821 Ry au,          4.0214 Debye
        Dipole field          0.0030 Ry au, 
 
        Potential amp.       -0.2768 Ry
        Total length         46.3494 bohr
 

     total cpu time spent up to now is      876.8 secs

     total energy              =   -2942.84139939 Ry
     estimated scf accuracy    <       0.00000168 Ry

     iteration # 52     ecut=    29.40 Ry     beta= 0.05
     Davidson diagonalization with overlap
     c_bands:  1 eigenvalues not converged
     c_bands:  2 eigenvalues not converged
     ethr =  4.22E-10,  avg # of iterations = 13.6

     negative rho (up, down):  1.043E-02 0.000E+00
 
     Adding external electric field

     Computed dipole along edir(3) : 
        Dipole                1.5822 Ry au,          4.0214 Debye
        Dipole field          0.0030 Ry au, 
 
        Potential amp.       -0.2768 Ry
        Total length         46.3494 bohr
 

     total cpu time spent up to now is      893.2 secs

     total energy              =   -2942.84141002 Ry
     estimated scf accuracy    <       0.00000239 Ry

     iteration # 53     ecut=    29.40 Ry     beta= 0.05
     Davidson diagonalization with overlap
     c_bands:  1 eigenvalues not converged
     c_bands:  1 eigenvalues not converged
     ethr =  4.22E-10,  avg # of iterations = 12.5

     negative rho (up, down):  1.043E-02 0.000E+00
 
     Adding external electric field

     Computed dipole along edir(3) : 
        Dipole                1.5819 Ry au,          4.0208 Debye
        Dipole field          0.0030 Ry au, 
 
        Potential amp.       -0.2767 Ry
        Total length         46.3494 bohr
 

     total cpu time spent up to now is      908.9 secs

     total energy              =   -2942.84141980 Ry
     estimated scf accuracy    <       0.00000056 Ry

     iteration # 54     ecut=    29.40 Ry     beta= 0.05
     Davidson diagonalization with overlap
     c_bands:  1 eigenvalues not converged
     c_bands:  1 eigenvalues not converged
     ethr =  1.41E-10,  avg # of iterations = 13.8

     negative rho (up, down):  1.043E-02 0.000E+00
 
     Adding external electric field

     Computed dipole along edir(3) : 
        Dipole                1.5820 Ry au,          4.0210 Debye
        Dipole field          0.0030 Ry au, 
 
        Potential amp.       -0.2767 Ry
        Total length         46.3494 bohr
 

     total cpu time spent up to now is      929.9 secs

     total energy              =   -2942.84142851 Ry
     estimated scf accuracy    <       0.00000104 Ry

     iteration # 55     ecut=    29.40 Ry     beta= 0.05
     Davidson diagonalization with overlap
     ethr =  1.41E-10,  avg # of iterations =  3.3

     negative rho (up, down):  1.044E-02 0.000E+00
 
     Adding external electric field

     Computed dipole along edir(3) : 
        Dipole                1.5824 Ry au,          4.0222 Debye
        Dipole field          0.0030 Ry au, 
 
        Potential amp.       -0.2768 Ry
        Total length         46.3494 bohr
 

     total cpu time spent up to now is      941.2 secs

     total energy              =   -2942.84143611 Ry
     estimated scf accuracy    <       0.00000058 Ry

     iteration # 56     ecut=    29.40 Ry     beta= 0.05
     Davidson diagonalization with overlap
     c_bands:  1 eigenvalues not converged
     ethr =  1.41E-10,  avg # of iterations = 12.7

     negative rho (up, down):  1.043E-02 0.000E+00
 
     Adding external electric field

     Computed dipole along edir(3) : 
        Dipole                1.5822 Ry au,          4.0215 Debye
        Dipole field          0.0030 Ry au, 
 
        Potential amp.       -0.2768 Ry
        Total length         46.3494 bohr
 

     total cpu time spent up to now is      963.2 secs

     total energy              =   -2942.84144336 Ry
     estimated scf accuracy    <       0.00000144 Ry

     iteration # 57     ecut=    29.40 Ry     beta= 0.05
     Davidson diagonalization with overlap
     ethr =  1.41E-10,  avg # of iterations =  6.0

     negative rho (up, down):  1.044E-02 0.000E+00
 
     Adding external electric field

     Computed dipole along edir(3) : 
        Dipole                1.5821 Ry au,          4.0214 Debye
        Dipole field          0.0030 Ry au, 
 
        Potential amp.       -0.2768 Ry
        Total length         46.3494 bohr
 

     total cpu time spent up to now is      976.3 secs

     total energy              =   -2942.84144978 Ry
     estimated scf accuracy    <       0.00000022 Ry

     iteration # 58     ecut=    29.40 Ry     beta= 0.05
     Davidson diagonalization with overlap
     c_bands:  1 eigenvalues not converged
     ethr =  5.63E-11,  avg # of iterations = 13.4

     negative rho (up, down):  1.044E-02 0.000E+00
 
     Adding external electric field

     Computed dipole along edir(3) : 
        Dipole                1.5822 Ry au,          4.0215 Debye
        Dipole field          0.0030 Ry au, 
 
        Potential amp.       -0.2768 Ry
        Total length         46.3494 bohr
 

     total cpu time spent up to now is      997.3 secs

     total energy              =   -2942.84145560 Ry
     estimated scf accuracy    <       0.00000014 Ry

     iteration # 59     ecut=    29.40 Ry     beta= 0.05
     Davidson diagonalization with overlap
     ethr =  3.51E-11,  avg # of iterations =  2.0

     negative rho (up, down):  1.044E-02 0.000E+00
 
     Adding external electric field

     Computed dipole along edir(3) : 
        Dipole                1.5822 Ry au,          4.0216 Debye
        Dipole field          0.0030 Ry au, 
 
        Potential amp.       -0.2768 Ry
        Total length         46.3494 bohr
 

     total cpu time spent up to now is     1008.3 secs

     total energy              =   -2942.84146080 Ry
     estimated scf accuracy    <       0.00000008 Ry

     iteration # 60     ecut=    29.40 Ry     beta= 0.05
     Davidson diagonalization with overlap
     c_bands:  1 eigenvalues not converged
     c_bands:  1 eigenvalues not converged
     ethr =  2.09E-11,  avg # of iterations = 13.7

     negative rho (up, down):  1.045E-02 0.000E+00
 
     Adding external electric field

     Computed dipole along edir(3) : 
        Dipole                1.5822 Ry au,          4.0215 Debye
        Dipole field          0.0030 Ry au, 
 
        Potential amp.       -0.2768 Ry
        Total length         46.3494 bohr
 

     total cpu time spent up to now is     1031.9 secs

     total energy              =   -2942.84146554 Ry
     estimated scf accuracy    <       0.00000024 Ry

     iteration # 61     ecut=    29.40 Ry     beta= 0.05
     Davidson diagonalization with overlap
     ethr =  2.09E-11,  avg # of iterations =  5.4

     negative rho (up, down):  1.045E-02 0.000E+00
 
     Adding external electric field

     Computed dipole along edir(3) : 
        Dipole                1.5822 Ry au,          4.0214 Debye
        Dipole field          0.0030 Ry au, 
 
        Potential amp.       -0.2768 Ry
        Total length         46.3494 bohr
 

     total cpu time spent up to now is     1044.1 secs

     total energy              =   -2942.84146974 Ry
     estimated scf accuracy    <       0.00000011 Ry

     iteration # 62     ecut=    29.40 Ry     beta= 0.05
     Davidson diagonalization with overlap
     ethr =  2.09E-11,  avg # of iterations =  8.9

     negative rho (up, down):  1.052E-02 0.000E+00
 
     Adding external electric field

     Computed dipole along edir(3) : 
        Dipole                1.5820 Ry au,          4.0210 Debye
        Dipole field          0.0030 Ry au, 
 
        Potential amp.       -0.2767 Ry
        Total length         46.3494 bohr
 

     total cpu time spent up to now is     1061.7 secs

     End of self-consistent calculation

          k = 0.0000 0.0000 0.0000 ( 18029 PWs)   bands (ev):

   -55.0894 -55.0540 -55.0502 -55.0199 -54.9666 -54.9641 -54.9266 -54.8899
   -54.8816 -54.8675 -54.8541 -54.8493 -54.8025 -54.7575 -54.0641 -54.0300
   -31.6633 -31.5434 -31.4535 -31.4239 -31.3847 -31.3803 -31.3785 -31.3488
   -31.3457 -31.3442 -31.3013 -31.2991 -31.2986 -31.2639 -31.2457 -31.2262
   -31.2065 -31.2027 -31.1934 -31.1917 -31.1650 -31.1476 -31.1461 -31.1201
   -31.1108 -31.0967 -31.0940 -31.0918 -31.0883 -31.0752 -31.0703 -31.0632
   -31.0505 -31.0398 -31.0217 -31.0132 -31.0056 -30.9997 -30.9955 -30.9895
   -30.9849 -30.9503 -30.4725 -30.3808 -30.3586 -30.2891 -30.2024 -30.0913
   -19.1394 -15.9328 -15.6590 -15.5362 -15.3246 -15.2750 -15.2023 -15.0068
   -14.9425 -14.8895 -14.8790 -14.8645 -14.8475 -14.7763 -14.6971 -14.6165
   -14.6139 -14.6075 -14.5981 -14.5785 -14.5713 -14.5087 -14.5015 -14.4695
   -14.4575 -14.4174 -14.3104 -14.2285 -14.1716 -14.0205 -13.3149 -12.5668
   -12.4498 -11.0886  -7.8632  -6.5335  -5.8532  -4.1070  -3.9349  -3.2775
    -3.0918  -3.0677  -3.0078  -2.9825  -2.8078  -2.7586  -2.5523  -2.4466
    -2.3593  -2.3205  -2.3080  -2.2914  -2.1413  -2.0735  -2.0397  -1.9918
    -1.9688  -1.9455  -1.9039  -1.8963  -1.8658  -1.8477  -1.8399  -1.6618
    -1.5861  -1.5373  -1.5078  -1.4693  -1.4198  -1.3911  -1.3731  -1.3684
    -1.3632  -1.3442  -1.3147  -1.2517  -1.2223  -1.1664  -1.0990  -1.0724
    -0.9825  -0.9021  -0.7130  -0.6683  -0.6497  -0.6134  -0.5533  -0.5048
    -0.4704  -0.4354  -0.4212  -0.3543  -0.2859  -0.2540  -0.1914  -0.1266
    -0.1164  -0.0528  -0.0455   0.1150   0.1275   0.1489   0.2385   0.3244
     0.3738   0.3818   0.4405   0.5147   0.5369   0.5460   0.5824   0.6035
     0.6801   0.7890   0.8138   0.8557   0.8672   0.9009   0.9239   0.9780
     1.0020   1.0652   1.0713   1.1754   1.2264   1.2572   1.5073   1.5405
     1.8710   1.9044   1.9583   2.1450   2.5322   2.5793   4.0188   4.0814
     4.0970   4.1444   4.1677   4.1871   4.2588   4.4795   4.5048   4.5110
     4.5184

          k = 0.0000 0.0419 0.0000 ( 17933 PWs)   bands (ev):

   -55.0846 -55.0549 -55.0489 -55.0248 -54.9651 -54.9596 -54.9309 -54.8847
   -54.8767 -54.8689 -54.8593 -54.8538 -54.7997 -54.7602 -54.0590 -54.0349
   -31.6059 -31.4894 -31.4131 -31.3992 -31.3541 -31.3445 -31.3394 -31.3344
   -31.3270 -31.3203 -31.3083 -31.2909 -31.2885 -31.2828 -31.2644 -31.2359
   -31.2217 -31.1958 -31.1926 -31.1812 -31.1793 -31.1538 -31.1412 -31.1270
   -31.1248 -31.1157 -31.1063 -31.1032 -31.0953 -31.0867 -31.0778 -31.0704
   -31.0606 -31.0483 -31.0476 -31.0447 -31.0385 -31.0227 -31.0218 -31.0128
   -30.9843 -30.9779 -30.4183 -30.3773 -30.3616 -30.2765 -30.2150 -30.1485
   -19.1377 -15.8012 -15.5477 -15.4273 -15.2453 -15.1724 -15.1653 -15.0566
   -14.9721 -14.9490 -14.9045 -14.8591 -14.8452 -14.7853 -14.7176 -14.6478
   -14.6385 -14.6267 -14.5845 -14.5656 -14.5590 -14.5292 -14.5198 -14.5134
   -14.4605 -14.4249 -14.3662 -14.2845 -14.2306 -14.0969 -13.3192 -12.5706
   -12.4891 -11.0896  -7.8654  -6.5293  -5.8503  -4.0930  -3.9244  -3.0880
    -2.9430  -2.9189  -2.8497  -2.8053  -2.6695  -2.5709  -2.4662  -2.4052
    -2.3236  -2.2417  -2.2257  -2.2001  -2.1458  -2.1310  -2.1183  -2.0949
    -2.0559  -2.0337  -2.0260  -1.9587  -1.9071  -1.8718  -1.8566  -1.8120
    -1.7991  -1.6691  -1.6537  -1.6281  -1.6141  -1.5390  -1.5076  -1.3905
    -1.3720  -1.3097  -1.2635  -1.1821  -1.0867  -1.0277  -1.0049  -0.9038
    -0.8675  -0.8452  -0.7588  -0.6426  -0.6270  -0.5053  -0.4728  -0.3969
    -0.3901  -0.3445  -0.2896  -0.2695  -0.2380  -0.1538  -0.1034  -0.0694
    -0.0441  -0.0218   0.0102   0.0795   0.0985   0.1036   0.1834   0.2611
     0.3124   0.3367   0.3938   0.4175   0.4474   0.4949   0.5169   0.5805
     0.6487   0.6869   0.6949   0.7343   0.7423   0.8037   0.8720   0.8863
     0.9509   1.0050   1.0409   1.0936   1.1482   1.2204   1.2410   1.3704
     1.5698   1.7739   2.1435   2.2226   2.4869   2.4901   4.1699   4.2362
     4.2529   4.2974   4.3123   4.3989   4.4103   4.4268   4.4734   4.5031
     4.5219

          k = 0.0000-0.0839 0.0000 ( 17884 PWs)   bands (ev):

   -55.0773 -55.0621 -55.0370 -55.0367 -54.9635 -54.9530 -54.9376 -54.8737
   -54.8705 -54.8704 -54.8662 -54.8640 -54.7964 -54.7633 -54.0470 -54.0468
   -31.4705 -31.4608 -31.3985 -31.3572 -31.3570 -31.3569 -31.3297 -31.3293
   -31.2944 -31.2828 -31.2740 -31.2655 -31.2577 -31.2571 -31.2561 -31.2198
   -31.2043 -31.1977 -31.1908 -31.1898 -31.1692 -31.1604 -31.1588 -31.1586
   -31.1568 -31.1492 -31.1458 -31.1425 -31.1313 -31.1134 -31.1068 -31.1032
   -31.0945 -31.0906 -31.0486 -31.0472 -31.0428 -31.0400 -31.0348 -31.0212
   -31.0046 -30.9783 -30.3693 -30.3692 -30.2853 -30.2851 -30.2458 -30.2457
   -19.1360 -15.4920 -15.4554 -15.3020 -15.2607 -15.1662 -15.1365 -15.0374
   -15.0167 -14.9878 -14.9389 -14.8691 -14.8512 -14.8006 -14.7873 -14.6819
   -14.6762 -14.6718 -14.6363 -14.5559 -14.5144 -14.4906 -14.4787 -14.4761
   -14.4257 -14.4173 -14.4020 -14.3768 -14.3675 -14.2146 -13.3235 -12.5519
   -12.5516 -11.0906  -7.8677  -6.5252  -5.8475  -4.0789  -3.9153  -2.6964
    -2.6845  -2.5981  -2.5796  -2.5386  -2.5193  -2.5155  -2.4930  -2.3708
    -2.3658  -2.3633  -2.3207  -2.2712  -2.2523  -2.2381  -2.2250  -2.1517
    -2.0947  -2.0764  -2.0345  -2.0113  -1.9589  -1.9246  -1.9191  -1.9011
    -1.8766  -1.7910  -1.7648  -1.7047  -1.6585  -1.5944  -1.5099  -1.4804
    -1.3101  -1.1828  -1.0935  -1.0798  -1.0102  -0.9433  -0.8855  -0.8201
    -0.8057  -0.6740  -0.6019  -0.5990  -0.5705  -0.5348  -0.5131  -0.4794
    -0.4737  -0.4490  -0.4336  -0.3609  -0.3236  -0.1779  -0.1145  -0.0811
    -0.0557  -0.0168   0.0958   0.1870   0.1949   0.2210   0.2671   0.2899
     0.3140   0.3199   0.3428   0.3554   0.4019   0.4460   0.4486   0.5159
     0.5489   0.5723   0.5778   0.6602   0.7013   0.7051   0.7296   0.7561
     0.7810   0.8952   1.0035   1.0698   1.1344   1.1386   1.2521   1.2705
     1.4984   1.5274   2.2863   2.2871   2.4227   2.4231   4.1859   4.2713
     4.3060   4.3539   4.3847   4.4904   4.4935   4.5884   4.6000   4.6161
     4.6301

          k = 0.0380 0.0000 0.0000 ( 17913 PWs)   bands (ev):

   -55.0892 -55.0539 -55.0501 -55.0198 -54.9665 -54.9640 -54.9265 -54.8890
   -54.8822 -54.8674 -54.8540 -54.8492 -54.8024 -54.7574 -54.0640 -54.0299
   -31.6634 -31.5443 -31.4590 -31.4239 -31.3850 -31.3835 -31.3818 -31.3486
   -31.3462 -31.3440 -31.3004 -31.2991 -31.2822 -31.2638 -31.2453 -31.2196
   -31.2033 -31.2025 -31.1813 -31.1733 -31.1647 -31.1635 -31.1475 -31.1198
   -31.1106 -31.0964 -31.0939 -31.0916 -31.0812 -31.0753 -31.0712 -31.0701
   -31.0601 -31.0405 -31.0291 -31.0130 -31.0035 -30.9994 -30.9946 -30.9909
   -30.9867 -30.9506 -30.4720 -30.3842 -30.3566 -30.2889 -30.2023 -30.0911
   -19.1390 -15.8641 -15.5740 -15.4765 -15.3274 -15.2083 -15.1721 -15.0587
   -14.9918 -14.9531 -14.8767 -14.8496 -14.8475 -14.7749 -14.7695 -14.7636
   -14.7553 -14.6967 -14.6605 -14.5535 -14.4952 -14.4731 -14.4222 -14.4164
   -14.3825 -14.3220 -14.3104 -14.2948 -14.2611 -14.0185 -13.3158 -12.5635
   -12.4495 -11.0901  -7.8684  -6.5251  -5.8517  -4.1070  -3.9255  -3.1968
    -2.9564  -2.8482  -2.8396  -2.7370  -2.7159  -2.6877  -2.6140  -2.5634
    -2.4391  -2.3927  -2.3545  -2.2550  -2.1635  -2.1592  -2.0905  -2.0172
    -1.9040  -1.9006  -1.8717  -1.8379  -1.8059  -1.7641  -1.7014  -1.6937
    -1.6289  -1.4918  -1.4688  -1.4272  -1.3875  -1.3686  -1.3601  -1.3344
    -1.3082  -1.2730  -1.2266  -1.1968  -1.1465  -1.1279  -1.0665  -1.0428
    -0.9584  -0.8934  -0.7449  -0.7112  -0.6880  -0.6387  -0.5544  -0.5124
    -0.5045  -0.4897  -0.4266  -0.4129  -0.4084  -0.3052  -0.1843  -0.1390
    -0.1228  -0.0810  -0.0206   0.0115   0.0234   0.1842   0.2044   0.2271
     0.2674   0.3331   0.4215   0.4286   0.5070   0.5441   0.5535   0.5788
     0.6329   0.6506   0.6949   0.7223   0.7747   0.7980   0.8236   0.9180
     0.9619   1.0031   1.0128   1.0652   1.1298   1.2150   1.3585   1.5864
     1.7669   1.8767   1.9702   2.1141   2.4200   2.4966   4.0410   4.1060
     4.1852   4.3180   4.3409   4.3534   4.4112   4.4497   4.4756   4.5022
     4.5208

          k = 0.0380 0.0419 0.0000 ( 17878 PWs)   bands (ev):

   -55.0845 -55.0549 -55.0489 -55.0248 -54.9650 -54.9596 -54.9309 -54.8840
   -54.8773 -54.8688 -54.8591 -54.8540 -54.7996 -54.7601 -54.0589 -54.0349
   -31.6060 -31.4903 -31.4130 -31.4056 -31.3543 -31.3447 -31.3392 -31.3358
   -31.3310 -31.3216 -31.3089 -31.2912 -31.2833 -31.2741 -31.2646 -31.2260
   -31.2218 -31.1957 -31.1898 -31.1717 -31.1619 -31.1573 -31.1537 -31.1245
   -31.1244 -31.1154 -31.1061 -31.0956 -31.0939 -31.0868 -31.0754 -31.0747
   -31.0700 -31.0530 -31.0487 -31.0446 -31.0429 -31.0262 -31.0221 -31.0126
   -30.9878 -30.9782 -30.4179 -30.3800 -30.3606 -30.2763 -30.2151 -30.1484
   -19.1373 -15.7385 -15.4671 -15.3746 -15.2359 -15.1781 -15.0776 -15.0502
   -14.9991 -14.9859 -14.9145 -14.8663 -14.8292 -14.7841 -14.7730 -14.7623
   -14.7358 -14.7045 -14.6089 -14.5855 -14.5268 -14.5000 -14.4653 -14.4506
   -14.4323 -14.4047 -14.3635 -14.3419 -14.3147 -14.0945 -13.3197 -12.5683
   -12.4894 -11.0896  -7.8692  -6.5250  -5.8476  -4.0926  -3.9282  -3.0235
    -2.8071  -2.6900  -2.6801  -2.5677  -2.5377  -2.5147  -2.4671  -2.4485
    -2.3435  -2.2470  -2.2099  -2.1564  -2.1460  -2.1274  -2.1119  -2.0456
    -2.0085  -1.9768  -1.9375  -1.9179  -1.8967  -1.8431  -1.8188  -1.7742
    -1.7668  -1.7025  -1.6483  -1.6085  -1.5904  -1.5104  -1.4693  -1.4016
    -1.3200  -1.2793  -1.1941  -1.1437  -1.0984  -1.0630  -1.0059  -0.9085
    -0.8660  -0.7926  -0.7345  -0.6568  -0.6120  -0.5762  -0.5326  -0.5019
    -0.4626  -0.4331  -0.3760  -0.3171  -0.2923  -0.2597  -0.2128  -0.1607
    -0.1187  -0.0489  -0.0215   0.0199   0.0321   0.1020   0.1627   0.1874
     0.2073   0.2509   0.2712   0.2912   0.3499   0.3722   0.4173   0.4612
     0.5315   0.5652   0.6225   0.6579   0.7106   0.7737   0.8182   0.8823
     0.9520   0.9936   1.0385   1.0900   1.1257   1.2083   1.3375   1.3382
     1.5193   1.7296   2.1543   2.2262   2.4092   2.4717   4.1727   4.2207
     4.2471   4.3613   4.3693   4.4223   4.4353   4.4982   4.5294   4.5877
     4.6044

          k = 0.0380-0.0839 0.0000 ( 17916 PWs)   bands (ev):

   -55.0773 -55.0621 -55.0370 -55.0367 -54.9635 -54.9530 -54.9376 -54.8733
   -54.8704 -54.8700 -54.8667 -54.8645 -54.7965 -54.7634 -54.0471 -54.0469
   -31.4707 -31.4611 -31.3986 -31.3579 -31.3577 -31.3572 -31.3298 -31.3294
   -31.2946 -31.2901 -31.2837 -31.2816 -31.2574 -31.2338 -31.2306 -31.2217
   -31.2053 -31.2035 -31.1979 -31.1934 -31.1656 -31.1611 -31.1575 -31.1573
   -31.1572 -31.1498 -31.1406 -31.1248 -31.1221 -31.1210 -31.1067 -31.1031
   -31.0962 -31.0792 -31.0551 -31.0522 -31.0485 -31.0472 -31.0353 -31.0255
   -31.0051 -30.9835 -30.3703 -30.3702 -30.2852 -30.2850 -30.2458 -30.2457
   -19.1357 -15.4561 -15.4043 -15.2490 -15.2049 -15.1288 -15.1152 -15.0404
   -15.0007 -14.9831 -14.9387 -14.8701 -14.8357 -14.8048 -14.7653 -14.7353
   -14.7026 -14.6971 -14.6322 -14.5978 -14.5460 -14.5229 -14.5088 -14.4969
   -14.4455 -14.4370 -14.4243 -14.4185 -14.3888 -14.2091 -13.3242 -12.5517
   -12.5514 -11.0909  -7.8707  -6.5212  -5.8448  -4.0784  -3.9216  -2.6837
    -2.5982  -2.5728  -2.4483  -2.3736  -2.3689  -2.3374  -2.2998  -2.2783
    -2.2518  -2.2152  -2.1752  -2.1668  -2.1644  -2.1567  -2.1304  -2.0922
    -2.0495  -2.0317  -1.9937  -1.9733  -1.9532  -1.9311  -1.8874  -1.8365
    -1.8139  -1.7865  -1.7687  -1.7002  -1.6735  -1.6490  -1.3867  -1.3112
    -1.2891  -1.1558  -1.1198  -1.0599  -1.0327  -1.0082  -0.9828  -0.9430
    -0.9261  -0.8417  -0.8253  -0.7616  -0.7548  -0.6629  -0.6384  -0.6205
    -0.5419  -0.5088  -0.4481  -0.4068  -0.3229  -0.2809  -0.2324  -0.1683
    -0.1433  -0.0712  -0.0225   0.0000   0.0817   0.0978   0.1103   0.1280
     0.1652   0.1943   0.2883   0.2989   0.3428   0.3628   0.3836   0.4164
     0.4443   0.4655   0.5945   0.6436   0.6602   0.7989   0.8469   0.9132
     0.9603   0.9874   0.9988   1.0214   1.1407   1.1466   1.2428   1.2723
     1.4912   1.5179   2.2996   2.3005   2.4129   2.4136   4.1534   4.2499
     4.3067   4.3450   4.3726   4.4686   4.4772   4.6079   4.6095   4.6621
     4.6712

          k = 0.0380-0.0419 0.0000 ( 17876 PWs)   bands (ev):

   -55.0845 -55.0549 -55.0489 -55.0248 -54.9650 -54.9596 -54.9309 -54.8840
   -54.8773 -54.8688 -54.8591 -54.8540 -54.7996 -54.7601 -54.0589 -54.0349
   -31.6060 -31.4902 -31.4130 -31.4056 -31.3543 -31.3447 -31.3392 -31.3358
   -31.3310 -31.3216 -31.3089 -31.2912 -31.2835 -31.2740 -31.2646 -31.2261
   -31.2218 -31.1956 -31.1898 -31.1726 -31.1619 -31.1571 -31.1536 -31.1249
   -31.1244 -31.1154 -31.1060 -31.0956 -31.0938 -31.0867 -31.0751 -31.0709
   -31.0694 -31.0539 -31.0529 -31.0447 -31.0428 -31.0256 -31.0221 -31.0126
   -30.9866 -30.9791 -30.4179 -30.3800 -30.3606 -30.2763 -30.2151 -30.1484
   -19.1373 -15.7389 -15.4690 -15.3755 -15.2371 -15.1766 -15.0778 -15.0505
   -15.0007 -14.9830 -14.9070 -14.8661 -14.8353 -14.7837 -14.7740 -14.7615
   -14.7362 -14.7035 -14.6089 -14.5851 -14.5267 -14.4997 -14.4656 -14.4506
   -14.4320 -14.4040 -14.3635 -14.3423 -14.3150 -14.0950 -13.3204 -12.5683
   -12.4894 -11.0911  -7.8697  -6.5212  -5.8487  -4.0926  -3.9183  -3.0236
    -2.8126  -2.6945  -2.6802  -2.5781  -2.5453  -2.5138  -2.4629  -2.4399
    -2.3339  -2.2474  -2.2161  -2.1647  -2.1490  -2.1365  -2.0901  -2.0439
    -2.0106  -1.9778  -1.9423  -1.9141  -1.8950  -1.8460  -1.8198  -1.7736
    -1.7668  -1.7010  -1.6442  -1.6028  -1.5864  -1.5052  -1.4778  -1.4128
    -1.3211  -1.2730  -1.1729  -1.1492  -1.1023  -1.0629  -0.9956  -0.9013
    -0.8740  -0.7931  -0.7346  -0.6589  -0.6256  -0.5857  -0.5382  -0.5031
    -0.4632  -0.4352  -0.3835  -0.3299  -0.2919  -0.2586  -0.2057  -0.1613
    -0.1069  -0.0479  -0.0180   0.0141   0.0252   0.0787   0.1519   0.1774
     0.2041   0.2426   0.2781   0.2837   0.3520   0.3804   0.4157   0.4658
     0.5396   0.5570   0.6051   0.6564   0.7125   0.7983   0.8626   0.8861
     0.9597   0.9936   1.0510   1.0857   1.1243   1.2097   1.3365   1.3389
     1.5194   1.7297   2.1543   2.2262   2.4090   2.4723   4.1865   4.2221
     4.2473   4.3561   4.3768   4.4179   4.4333   4.4871   4.5522   4.5904
     4.6004

          k =-0.0760-0.0000 0.0000 ( 17886 PWs)   bands (ev):

   -55.0891 -55.0538 -55.0501 -55.0198 -54.9664 -54.9640 -54.9265 -54.8880
   -54.8831 -54.8673 -54.8539 -54.8492 -54.8024 -54.7574 -54.0639 -54.0299
   -31.6636 -31.5452 -31.4642 -31.4240 -31.3875 -31.3852 -31.3841 -31.3481
   -31.3471 -31.3439 -31.3004 -31.2991 -31.2639 -31.2571 -31.2452 -31.2135
   -31.2024 -31.2002 -31.1893 -31.1696 -31.1647 -31.1475 -31.1316 -31.1213
   -31.1119 -31.1110 -31.0964 -31.0940 -31.0914 -31.0752 -31.0744 -31.0702
   -31.0529 -31.0442 -31.0422 -31.0128 -31.0010 -30.9992 -30.9945 -30.9933
   -30.9870 -30.9511 -30.4716 -30.3876 -30.3552 -30.2889 -30.2022 -30.0912
   -19.1385 -15.7749 -15.4836 -15.4219 -15.2763 -15.2160 -15.1561 -15.0507
   -15.0202 -14.9609 -14.9272 -14.8759 -14.8521 -14.8458 -14.8391 -14.8063
   -14.7620 -14.7384 -14.7099 -14.5439 -14.4830 -14.4824 -14.4790 -14.4222
   -14.3736 -14.3313 -14.3308 -14.2279 -14.2263 -14.0170 -13.3169 -12.5605
   -12.4491 -11.0917  -7.8735  -6.5171  -5.8502  -4.1068  -3.9185  -3.1729
    -2.9078  -2.7375  -2.7215  -2.6274  -2.5553  -2.5530  -2.5393  -2.4819
    -2.4346  -2.3699  -2.3363  -2.3230  -2.1737  -2.0882  -1.9812  -1.9240
    -1.9150  -1.8751  -1.7245  -1.7232  -1.7046  -1.6709  -1.6384  -1.5947
    -1.5792  -1.5139  -1.4950  -1.4576  -1.4415  -1.4329  -1.3808  -1.3699
    -1.3451  -1.2981  -1.2796  -1.2705  -1.1875  -1.1649  -0.9434  -0.9307
    -0.7917  -0.7779  -0.7452  -0.7123  -0.6981  -0.6852  -0.6564  -0.6119
    -0.5764  -0.5387  -0.5134  -0.4252  -0.4126  -0.3502  -0.3396  -0.2837
    -0.2772  -0.1310  -0.0840  -0.0635   0.0545   0.0699   0.1637   0.1919
     0.1993   0.2888   0.3180   0.3641   0.4374   0.4780   0.5032   0.5547
     0.5696   0.5848   0.6185   0.6704   0.7194   0.7413   0.7630   0.7827
     0.7943   0.9163   1.0725   1.1062   1.2279   1.2607   1.4283   1.4909
     1.6056   1.8819   1.9915   2.0894   2.2903   2.4416   4.0436   4.0712
     4.1518   4.2453   4.2999   4.3912   4.4439   4.4991   4.5348   4.5630
     4.5682

          k =-0.0760 0.0419 0.0000 ( 17914 PWs)   bands (ev):

   -55.0844 -55.0549 -55.0489 -55.0248 -54.9650 -54.9596 -54.9310 -54.8831
   -54.8782 -54.8688 -54.8589 -54.8542 -54.7997 -54.7602 -54.0590 -54.0349
   -31.6063 -31.4913 -31.4132 -31.4118 -31.3546 -31.3450 -31.3392 -31.3375
   -31.3353 -31.3224 -31.3096 -31.2915 -31.2833 -31.2650 -31.2564 -31.2221
   -31.2163 -31.1957 -31.1876 -31.1768 -31.1622 -31.1538 -31.1243 -31.1241
   -31.1206 -31.1199 -31.1123 -31.1092 -31.0953 -31.0868 -31.0780 -31.0703
   -31.0694 -31.0552 -31.0546 -31.0493 -31.0468 -31.0295 -31.0223 -31.0128
   -30.9903 -30.9792 -30.4177 -30.3830 -30.3599 -30.2763 -30.2151 -30.1484
   -19.1370 -15.6586 -15.3721 -15.3309 -15.1936 -15.1834 -15.0867 -15.0350
   -15.0224 -14.9564 -14.8739 -14.8640 -14.8440 -14.8235 -14.8152 -14.8012
   -14.7865 -14.7568 -14.7011 -14.5905 -14.5368 -14.5054 -14.4988 -14.4581
   -14.4140 -14.4095 -14.3731 -14.3323 -14.3167 -14.0931 -13.3210 -12.5661
   -12.4897 -11.0913  -7.8735  -6.5172  -5.8460  -4.0922  -3.9235  -3.0076
    -2.7589  -2.5588  -2.5023  -2.4759  -2.3820  -2.3708  -2.3326  -2.2754
    -2.2329  -2.2149  -2.2006  -2.1361  -2.1233  -2.1079  -2.0703  -2.0332
    -1.9902  -1.9143  -1.8966  -1.8267  -1.8186  -1.7867  -1.7439  -1.6897
    -1.6720  -1.6597  -1.6208  -1.6117  -1.5600  -1.5537  -1.4602  -1.3798
    -1.3189  -1.2512  -1.2446  -1.1655  -1.1474  -1.0583  -0.9006  -0.8595
    -0.8537  -0.8184  -0.7168  -0.7099  -0.6936  -0.6464  -0.5979  -0.5769
    -0.5244  -0.5088  -0.4742  -0.4468  -0.4026  -0.3622  -0.3193  -0.2995
    -0.2986  -0.2544  -0.2114  -0.1376  -0.1211  -0.0395  -0.0025   0.0850
     0.1103   0.1459   0.1952   0.2239   0.2782   0.3122   0.3372   0.4308
     0.4921   0.5415   0.5934   0.6848   0.7090   0.7382   0.8423   0.8887
     0.9128   0.9644   1.1038   1.1903   1.2108   1.3017   1.3710   1.4161
     1.4502   1.5964   2.1695   2.2286   2.3317   2.4610   4.1874   4.2229
     4.2374   4.2440   4.3294   4.3816   4.4132   4.4873   4.4965   4.6314
     4.6921

          k =-0.0760-0.0839 0.0000 ( 17948 PWs)   bands (ev):

   -55.0773 -55.0621 -55.0370 -55.0367 -54.9636 -54.9530 -54.9376 -54.8728
   -54.8704 -54.8693 -54.8674 -54.8651 -54.7965 -54.7634 -54.0471 -54.0469
   -31.4710 -31.4613 -31.3988 -31.3587 -31.3584 -31.3574 -31.3298 -31.3294
   -31.2984 -31.2944 -31.2895 -31.2836 -31.2580 -31.2237 -31.2165 -31.2104
   -31.2084 -31.2046 -31.2038 -31.1950 -31.1630 -31.1619 -31.1582 -31.1562
   -31.1559 -31.1531 -31.1487 -31.1322 -31.1068 -31.1031 -31.0970 -31.0878
   -31.0859 -31.0839 -31.0829 -31.0671 -31.0485 -31.0472 -31.0364 -31.0309
   -31.0056 -30.9892 -30.3713 -30.3712 -30.2852 -30.2850 -30.2458 -30.2458
   -19.1355 -15.4162 -15.3257 -15.1769 -15.1603 -15.1085 -15.0606 -15.0439
   -15.0286 -14.9715 -14.9331 -14.8854 -14.8365 -14.7930 -14.7908 -14.7524
   -14.6802 -14.6587 -14.6566 -14.6421 -14.5911 -14.5804 -14.5529 -14.5341
   -14.5290 -14.4858 -14.4263 -14.4227 -14.3837 -14.2042 -13.3250 -12.5515
   -12.5512 -11.0911  -7.8737  -6.5173  -5.8420  -4.0778  -3.9281  -2.6847
    -2.5853  -2.5215  -2.4186  -2.3318  -2.2915  -2.2567  -2.1222  -2.1039
    -2.0842  -2.0581  -2.0453  -2.0117  -2.0042  -1.9552  -1.9263  -1.9158
    -1.9094  -1.8965  -1.8742  -1.8263  -1.8041  -1.7943  -1.7850  -1.7462
    -1.7325  -1.7003  -1.6945  -1.6554  -1.6340  -1.5499  -1.4596  -1.4202
    -1.3723  -1.3046  -1.2702  -1.2635  -1.1710  -1.1626  -1.1390  -1.1057
    -1.0604  -0.9405  -0.8831  -0.8196  -0.8156  -0.8024  -0.6964  -0.6585
    -0.6277  -0.5930  -0.5549  -0.5253  -0.4871  -0.4397  -0.3631  -0.3320
    -0.2926  -0.2564  -0.1841  -0.0962  -0.0772  -0.0456  -0.0414   0.0445
     0.0695   0.1082   0.1172   0.1364   0.1930   0.2063   0.2930   0.3832
     0.4476   0.5353   0.6493   0.6534   0.7303   0.8234   0.9113   0.9489
     1.0004   1.0662   1.0685   1.1022   1.2233   1.2306   1.3521   1.3910
     1.3997   1.4220   2.3173   2.3184   2.3994   2.3996   4.1475   4.2450
     4.2844   4.3255   4.3774   4.5230   4.5462   4.5918   4.5922   4.6627
     4.6758

     the Fermi energy is     4.0653 ev

!    total energy              =   -2942.84150895 Ry
     estimated scf accuracy    <       0.00000003 Ry
     smearing contrib. (-TS)   =      -0.03724818 Ry
     internal energy E=F+TS    =   -2942.80426078 Ry

     The total energy is F=E-TS. E is the sum of the following terms:
     one-electron contribution =  -23857.01794862 Ry
     hartree contribution      =   12023.85689205 Ry
     xc contribution           =    -487.75374580 Ry
     ewald contribution        =    9378.10581872 Ry
     electric field correction =       0.00472288 Ry

     convergence has been achieved in  62 iterations

     Forces acting on atoms (cartesian axes, Ry/au):

     atom    1 type  1   force =     0.00001997   -0.00023765    0.09433465
     atom    2 type  1   force =    -0.00016016   -0.00054378   -0.17707908
     atom    3 type  2   force =     0.00001824   -0.00024520   -0.02146584
     atom    4 type  2   force =    -0.00001308   -0.00167667    0.05642519
     atom    5 type  2   force =    -0.01050261   -0.00074934    0.00562246
     atom    6 type  2   force =     0.01226924   -0.00009363    0.00551665
     atom    7 type  1   force =    -0.00024247    0.00107877   -0.01570775
     atom    8 type  1   force =    -0.00006916    0.00525458    0.00656412
     atom    9 type  2   force =    -0.00030632    0.00055715    0.00022309
     atom   10 type  2   force =    -0.00199905    0.00266100   -0.00434747
     atom   11 type  2   force =     0.00040067   -0.00022520    0.00028629
     atom   12 type  2   force =    -0.00007745   -0.00029351   -0.00019312
     atom   13 type  1   force =    -0.00073968    0.00044238   -0.00006188
     atom   14 type  1   force =     0.00039118   -0.00016895   -0.00000148
     atom   15 type  2   force =    -0.00015417   -0.00056879   -0.00039705
     atom   16 type  2   force =     0.00003196    0.00040432   -0.00025599
     atom   17 type  2   force =     0.00072738    0.00016235    0.00040665
     atom   18 type  2   force =    -0.00053999    0.00045309    0.00047925
     atom   19 type  1   force =     0.00069442    0.00117504    0.00014209
     atom   20 type  1   force =    -0.00087005    0.00018498    0.00048977
     atom   21 type  2   force =    -0.00002000   -0.00011606    0.10364515
     atom   22 type  2   force =     0.00016860    0.00031150    0.00031947
     atom   23 type  2   force =    -0.07091298   -0.00021743   -0.02719276
     atom   24 type  2   force =     0.07071367    0.00023423   -0.02724149
     atom   25 type  1   force =     0.00001457   -0.00027572    0.09401365
     atom   26 type  1   force =    -0.00024754   -0.00055360   -0.17735440
     atom   27 type  2   force =     0.00005949   -0.00007898   -0.02059644
     atom   28 type  2   force =     0.00002592   -0.00136454    0.05571624
     atom   29 type  2   force =    -0.01080446   -0.00000115    0.00591757
     atom   30 type  2   force =     0.01249359    0.00028495    0.00576763
     atom   31 type  1   force =    -0.00017480    0.00518479   -0.01629258
     atom   32 type  1   force =    -0.00009026   -0.00625437    0.00669839
     atom   33 type  2   force =    -0.00009917   -0.00047497    0.00025052
     atom   34 type  2   force =    -0.00163602    0.00066953   -0.00774491
     atom   35 type  2   force =    -0.00033237    0.00005993    0.00042297
     atom   36 type  2   force =     0.00057983    0.00005893   -0.00006314
     atom   37 type  1   force =    -0.00083833   -0.00079535   -0.00010139
     atom   38 type  1   force =     0.00048743    0.00001847    0.00040924
     atom   39 type  2   force =    -0.00026100   -0.00021578    0.00059088
     atom   40 type  2   force =    -0.00006464   -0.00021195   -0.00015826
     atom   41 type  2   force =     0.00005603   -0.00044934    0.00023758
     atom   42 type  2   force =    -0.00022122   -0.00033384    0.00052177
     atom   43 type  1   force =     0.00031318   -0.00107567   -0.00024874
     atom   44 type  1   force =     0.00023949    0.00037086    0.00044287
     atom   45 type  2   force =    -0.00002407   -0.00011581    0.10365441
     atom   46 type  2   force =    -0.07092153   -0.00013682   -0.02716480
     atom   47 type  2   force =     0.07072424    0.00028531   -0.02723718
     atom   48 type  3   force =     0.00406708    0.00011653   -0.00416099
     atom   49 type  3   force =    -0.00049062   -0.00076107    0.00119417
     atom   50 type  4   force =     0.00104228   -0.00034070   -0.00073668
     atom   51 type  5   force =     0.00014255   -0.00054517    0.00067083
     atom   52 type  5   force =    -0.00042339    0.00041870    0.00007107
     atom   53 type  5   force =     0.00042480   -0.00041894    0.00029621
     atom   54 type  5   force =     0.00063031   -0.00016622   -0.00030020
     atom   55 type  5   force =    -0.00032291   -0.00042822    0.00001201
     atom   56 type  5   force =    -0.00317663   -0.00025299    0.00476080

     Total force =     0.365753     Total SCF correction =     0.000490
  @ DRIVER MODE: Message from server: STATUS
  @ DRIVER MODE: Message from server: GETFORCE
  @ DRIVER MODE: Returning v,forces,stress,ensemble 

     Writing output data file ./calc.save/
  @ DRIVER MODE: Message from server: EXIT
  @ DRIVE MODE: Exiting  
 
     init_run     :     11.00s CPU     11.23s WALL (       1 calls)
     electrons    :   1035.82s CPU   1050.25s WALL (       1 calls)
     forces       :      2.45s CPU      2.54s WALL (       1 calls)

     Called by init_run:
     wfcinit      :      4.89s CPU      4.96s WALL (       1 calls)
     potinit      :      5.34s CPU      5.41s WALL (       1 calls)
     hinit0       :      0.41s CPU      0.42s WALL (       1 calls)

     Called by electrons:
     c_bands      :    884.98s CPU    890.93s WALL (      62 calls)
     sum_band     :    101.85s CPU    105.27s WALL (      62 calls)
     v_of_rho     :     37.32s CPU     39.09s WALL (      63 calls)
     newd         :     15.05s CPU     18.32s WALL (      63 calls)
     mix_rho      :      1.35s CPU      1.37s WALL (      62 calls)
     vdW_kernel   :      4.54s CPU      4.56s WALL (       1 calls)

     Called by c_bands:
     init_us_2    :      7.09s CPU      7.13s WALL (    1260 calls)
     cegterg      :    867.24s CPU    872.90s WALL (     633 calls)

     Called by *egterg:
     cdiaghg      :    143.80s CPU    144.44s WALL (    6825 calls)
     h_psi        :    455.77s CPU    459.67s WALL (    6838 calls)
     s_psi        :     63.05s CPU     63.24s WALL (    6838 calls)
     g_psi        :      1.77s CPU      1.78s WALL (    6195 calls)

     Called by h_psi:
     h_psi:calbec :     59.91s CPU     60.21s WALL (    6838 calls)
     vloc_psi     :    327.75s CPU    330.81s WALL (    6838 calls)
     add_vuspsi   :     64.56s CPU     64.88s WALL (    6838 calls)

     General routines
     calbec       :     78.47s CPU     78.82s WALL (    7498 calls)
     fft          :     19.07s CPU     19.20s WALL (    3969 calls)
     ffts         :      0.12s CPU      0.12s WALL (     125 calls)
     fftw         :    365.94s CPU    369.39s WALL (  869732 calls)
     interpolate  :      0.39s CPU      0.39s WALL (      63 calls)
     davcio       :      0.00s CPU      0.35s WALL (      10 calls)
 
     Parallel routines
 
     PWSCF        :  17m29.57s CPU  17m44.85s WALL

 
   This run was terminated on:  16: 8:26   9Sep2021            

=------------------------------------------------------------------------------=
   JOB DONE.
=------------------------------------------------------------------------------=
