
     Program PWSCF v.6.7GPU starts on 21Jul2021 at 12:22:56 

     This program is part of the open-source Quantum ESPRESSO suite
     for quantum simulation of materials; please cite
         "P. Giannozzi et al., J. Phys.:Condens. Matter 21 395502 (2009);
         "P. Giannozzi et al., J. Phys.:Condens. Matter 29 465901 (2017);
         "P. Giannozzi et al., J. Chem. Phys. 152 154105 (2020);
          URL http://www.quantum-espresso.org", 
     in publications or presentations arising from this work. More details at
     http://www.quantum-espresso.org/quote

     Parallel version (MPI), running on    16 processors

     MPI processes distributed on     1 nodes
     R & G space division:  proc/nbgrp/npool/nimage =      16
     Reading input from /storage/home/hcoda1/3/ntian30/research/carbon/15Jul_vib/ads_slab/CH3NHH_a/out_0038/pw.inp
Warning: card &CELL ignored
Warning: card   CELL_DYNAMICS='IPI', ignored
Warning: card / ignored

     Current dimensions of program PWSCF are:
     Max number of different atomic species (ntypx) = 10
     Max number of k-points (npk) =  40000
     Max angular momentum in pseudopotentials (lmaxx) =  3
     Presently no symmetry can be used with electric field

     Message from routine cell_base_init:
     DEPRECATED: use true lattice parameter, not A to a.u. conversion factor

     **************************************************************************
     Initializing libbeef V0.1.2 with the BEEF-vdW functional.
     Citation: Wellendorff et al., PRB 85, 235149 (2012).
     **************************************************************************


     IMPORTANT: XC functional enforced from input :
     Exchange-correlation= BEEF-VDW
                           (   1   4  43  14   2   0   0)
     Any further DFT definition will be discarded
     Please, verify this is what you really want


     Subspace diagonalization in iterative solution of the eigenvalue problem:
     one sub-group per band group will be used
     scalapack distributed-memory algorithm (size of sub-group:  4*  4 procs)

  @ DRIVER MODE: Connecting to 
 qe_1139763_2382402.sched-torque.pace.gatech.eduxtauu3vy_scratch
  using UNIX socket
  @ DRIVER MODE: Message from server: STATUS
  @ DRIVER MODE: Message from server: INIT
  @ DRIVER MODE: Receiving replica           0          -1
  @ DRIVER MODE: Receiving encoded integer          25
  @ DRIVER MODE:  SCF:  T  FORCE:  T  STRESS:  F  VC:  F  ENSEMBLE:  F
  @ DRIVER MODE:  SCF:  T  FORCE:  T  STRESS:  F  VC:  F  ENSEMBLE:  F
 
     Parallelization info
     --------------------
     sticks:   dense  smooth     PW     G-vecs:    dense   smooth      PW
     Min         204      82     23                35422     8962    1367
     Max         205      84     24                35435     8968    1382
     Sum        3275    1317    379               566857   143421   21985
 
     Using Slab Decomposition
 


     bravais-lattice index     =            0
     lattice parameter (alat)  =       1.8897  a.u.
     unit-cell volume          =    6658.9804 (a.u.)^3
     number of atoms/cell      =           54
     number of atomic types    =            5
     number of electrons       =       392.00
     number of Kohn-Sham states=          206
     kinetic-energy cutoff     =      29.3995  Ry
     charge density cutoff     =     293.9946  Ry
     scf convergence threshold =      7.3E-08
     mixing beta               =       0.0500
     number of iterations used =            8  plain     mixing
     Exchange-correlation= BEEF-VDW
                           (   1   4  43  14   2   0   0)

     celldm(1)=   1.889726  celldm(2)=   0.000000  celldm(3)=   0.000000
     celldm(4)=   0.000000  celldm(5)=   0.000000  celldm(6)=   0.000000

     crystal axes: (cart. coord. in units of alat)
               a(1) = (   6.579727   0.000000   0.000000 )  
               a(2) = (  -0.000775   5.961596   0.000000 )  
               a(3) = (   0.000000   0.000000  25.155947 )  

     reciprocal axes: (cart. coord. in units 2 pi/alat)
               b(1) = (  0.151982  0.000020  0.000000 )  
               b(2) = (  0.000000  0.167740  0.000000 )  
               b(3) = (  0.000000  0.000000  0.039752 )  


     PseudoPot. # 1 for Ti read from file:
     /storage/coda1/p-amedford6/0/shared/rich_project_chbe-medford/medford-share/data/pseudos_module/espresso/nninc/pbe/van/Ti.UPF
     MD5 check sum: 8e4df49b7f0d34bbd5052bf3f5ea0213
     Pseudo is Ultrasoft, Zval = 12.0
     Generated by new atomic code, or converted to UPF format
     Using radial grid of  851 points,  6 beta functions with: 
                l(1) =   0
                l(2) =   0
                l(3) =   1
                l(4) =   1
                l(5) =   2
                l(6) =   2
     Q(r) pseudized with  8 coefficients,  rinner =    1.000   1.000   1.000
                                                       1.000   1.000

     PseudoPot. # 2 for O  read from file:
     /storage/coda1/p-amedford6/0/shared/rich_project_chbe-medford/medford-share/data/pseudos_module/espresso/nninc/pbe/van/O.UPF
     MD5 check sum: 78c19812648e8988a0fe644b0f25305e
     Pseudo is Ultrasoft, Zval =  6.0
     Generated by new atomic code, or converted to UPF format
     Using radial grid of  737 points,  4 beta functions with: 
                l(1) =   0
                l(2) =   0
                l(3) =   1
                l(4) =   1
     Q(r) pseudized with  8 coefficients,  rinner =    0.800   0.800   0.800


     PseudoPot. # 3 for N  read from file:
     /storage/coda1/p-amedford6/0/shared/rich_project_chbe-medford/medford-share/data/pseudos_module/espresso/nninc/pbe/van/N.UPF
     MD5 check sum: 90d10febe142ad51ac9d5be1deb811c4
     Pseudo is Ultrasoft, Zval =  5.0
     Generated by new atomic code, or converted to UPF format
     Using radial grid of  729 points,  4 beta functions with: 
                l(1) =   0
                l(2) =   0
                l(3) =   1
                l(4) =   1
     Q(r) pseudized with  8 coefficients,  rinner =    0.800   0.800   0.800


     PseudoPot. # 4 for C  read from file:
     /storage/coda1/p-amedford6/0/shared/rich_project_chbe-medford/medford-share/data/pseudos_module/espresso/nninc/pbe/van/C.UPF
     MD5 check sum: 1a69bf6b8db32088f5b2163dbdb77a27
     Pseudo is Ultrasoft, Zval =  4.0
     Generated by new atomic code, or converted to UPF format
     Using radial grid of  721 points,  4 beta functions with: 
                l(1) =   0
                l(2) =   0
                l(3) =   1
                l(4) =   1
     Q(r) pseudized with  8 coefficients,  rinner =    0.800   0.800   0.800


     PseudoPot. # 5 for H  read from file:
     /storage/coda1/p-amedford6/0/shared/rich_project_chbe-medford/medford-share/data/pseudos_module/espresso/nninc/pbe/van/H.UPF
     MD5 check sum: b5ee9d7bfd3a09ee7748110bda690ff7
     Pseudo is Ultrasoft, Zval =  1.0
     Generated by new atomic code, or converted to UPF format
     Using radial grid of  615 points,  1 beta functions with: 
                l(1) =   0
     Q(r) pseudized with  8 coefficients,  rinner =    0.800

     atomic species   valence    mass     pseudopotential
        Ti1           12.00    47.86700     Ti( 1.00)
        O1             6.00    15.99900     O ( 1.00)
        N1             5.00    14.00700     N ( 1.00)
        C1             4.00    12.01100     C ( 1.00)
        H1             1.00     1.00800     H ( 1.00)

     Starting magnetic structure 
     atomic species   magnetization
        Ti1          0.000
        O1           0.000
        N1           0.000
        C1           0.025
        H1           0.000

     No symmetry found



   Cartesian axes

     site n.     atom                  positions (alat units)
         1           Ti1 tau(   1) = (   0.0004258   2.9801865   6.0000000  )
         2           Ti1 tau(   2) = (   3.2906075   1.4906267   6.0002472  )
         3           O1  tau(   3) = (   0.0006271   0.0005054   7.9858123  )
         4           O1  tau(   4) = (   3.2906025   0.0005020   7.3038282  )
         5           O1  tau(   5) = (   4.5942328   1.4918067   9.2879030  )
         6           O1  tau(   6) = (   1.9868534   1.4903216   9.2879459  )
         7           Ti1 tau(   7) = (   3.2907910   2.8959150   9.1758416  )
         8           Ti1 tau(   8) = (   0.0015273   1.4827037   9.2680791  )
         9           O1  tau(   9) = (   3.2893523   5.9576907  11.3759447  )
        10           O1  tau(  10) = (   0.0116148   5.9584955  10.6183126  )
        11           O1  tau(  11) = (   1.2892553   1.4862333  12.6941169  )
        12           O1  tau(  12) = (   5.2958346   1.4833122  12.6807028  )
        13           Ti1 tau(  13) = (   0.0095698   2.9692159  12.5083673  )
        14           Ti1 tau(  14) = (   3.3108451   1.4743585  12.5306019  )
        15           O1  tau(  15) = (   6.5736105   5.8801748  14.6991865  )
        16           O1  tau(  16) = (   3.2979610   5.9450902  14.0010558  )
        17           O1  tau(  17) = (   4.5273680   1.5185660  16.1654609  )
        18           O1  tau(  18) = (   2.0122787   1.5163527  16.1384539  )
        19           Ti1 tau(  19) = (   3.2802752   2.9921964  15.7561315  )
        20           Ti1 tau(  20) = (   0.0093588   1.3049760  15.8672178  )
        21           O1  tau(  21) = (   3.2904802   0.0005063   4.7018136  )
        22           O1  tau(  22) = (   6.5538635   0.1342075  17.2452287  )
        23           O1  tau(  23) = (   1.3043587   1.4918075   6.0039043  )
        24           O1  tau(  24) = (   5.2767064   1.4903225   6.0039473  )
        25           Ti1 tau(  25) = (   0.0000382   5.9609847   6.0000000  )
        26           Ti1 tau(  26) = (   3.2902200   4.4714249   6.0002472  )
        27           O1  tau(  27) = (   0.0002396   2.9813036   7.9858123  )
        28           O1  tau(  28) = (   3.2902150   2.9813002   7.3038282  )
        29           O1  tau(  29) = (   4.5938453   4.4726049   9.2879030  )
        30           O1  tau(  30) = (   1.9864658   4.4711199   9.2879459  )
        31           Ti1 tau(  31) = (   3.2891106   5.8743827   9.1763621  )
        32           Ti1 tau(  32) = (   0.0006254   4.4649316   9.2693709  )
        33           O1  tau(  33) = (   3.2933707   2.9638296  11.3700534  )
        34           O1  tau(  34) = (   0.0092240   2.9805883  10.6323155  )
        35           O1  tau(  35) = (   1.2923283   4.4540072  12.6594629  )
        36           O1  tau(  36) = (   5.2938616   4.4568750  12.6477176  )
        37           Ti1 tau(  37) = (   0.0202681   5.9396231  12.5027719  )
        38           Ti1 tau(  38) = (   3.3116628   4.4527548  12.5215617  )
        39           O1  tau(  39) = (   6.5466975   3.0260875  14.9671898  )
        40           O1  tau(  40) = (   3.2966604   2.9917109  13.9679302  )
        41           O1  tau(  41) = (   4.5116687   4.4737236  16.2360857  )
        42           O1  tau(  42) = (   2.0028912   4.4646324  16.2202640  )
        43           Ti1 tau(  43) = (   3.2937213   0.0113368  15.7972781  )
        44           Ti1 tau(  44) = (   0.0208052   4.5175143  16.0574476  )
        45           O1  tau(  45) = (   3.2900926   2.9813045   4.7018136  )
        46           O1  tau(  46) = (   1.3039711   4.4726057   6.0039043  )
        47           O1  tau(  47) = (   5.2763189   4.4711207   6.0039473  )
        48           N1  tau(  48) = (   6.3337458   3.3624127  18.1270434  )
        49           C1  tau(  49) = (   0.8795605   3.2639204  19.0799812  )
        50           H1  tau(  50) = (   1.4196110   4.2071110  19.0760701  )
        51           H1  tau(  51) = (   0.5395241   3.0459488  20.0957609  )
        52           H1  tau(  52) = (   1.5475163   2.4696122  18.7548312  )
        53           H1  tau(  53) = (   5.6940081   4.0973896  18.4182617  )
        54           H1  tau(  54) = (   5.8006660   2.4998151  18.1411682  )

     number of k points=    10  Fermi-Dirac smearing, width (Ry)=  0.0073
                       cart. coord. in units 2pi/alat
        k(    1) = (   0.0000000   0.0000000   0.0000000), wk =   0.0625000
        k(    2) = (   0.0000000   0.0419351   0.0000000), wk =   0.1250000
        k(    3) = (   0.0000000  -0.0838702   0.0000000), wk =   0.0625000
        k(    4) = (   0.0379955   0.0000049   0.0000000), wk =   0.1250000
        k(    5) = (   0.0379955   0.0419400   0.0000000), wk =   0.1250000
        k(    6) = (   0.0379955  -0.0838652   0.0000000), wk =   0.1250000
        k(    7) = (   0.0379955  -0.0419301   0.0000000), wk =   0.1250000
        k(    8) = (  -0.0759910  -0.0000099   0.0000000), wk =   0.0625000
        k(    9) = (  -0.0759910   0.0419252   0.0000000), wk =   0.1250000
        k(   10) = (  -0.0759910  -0.0838800   0.0000000), wk =   0.0625000

     Dense  grid:   566857 G-vectors     FFT dimensions: (  72,  64, 270)

     Smooth grid:   143421 G-vectors     FFT dimensions: (  45,  40, 180)

     Estimated max dynamical RAM per process >     278.93 MB

     Estimated total dynamical RAM >       4.36 GB
     Generating pointlists ...
     new r_m :   0.7377 (alat units)  1.3940 (a.u.) for type    1
     new r_m :   0.7377 (alat units)  1.3940 (a.u.) for type    2
     new r_m :   0.4183 (alat units)  0.7905 (a.u.) for type    3
     new r_m :   0.4483 (alat units)  0.8472 (a.u.) for type    4
     new r_m :   0.4183 (alat units)  0.7905 (a.u.) for type    5
     Cannot read rho : file not found

     Initial potential from superposition of free atoms

     starting charge  375.99915, renormalised to  392.00000

     negative rho (up, down):  8.110E-03 8.117E-03


     %%%%%%%%%%%%%%%%%%%%%%%%%%%%%%%%%%%%%%%%%%%%%%%%%%%%%%%%%%%%%%%%%%%%%%%%
     %                                                                      %
     % You are using vdW-DF, which was implemented by the Thonhauser group. %
     % Please cite the following two papers that made this development      %
     % possible and the two reviews that describe the various versions:     %
     %                                                                      %
     %   T. Thonhauser et al., PRL 115, 136402 (2015).                      %
     %   T. Thonhauser et al., PRB 76, 125112 (2007).                       %
     %   K. Berland et al., Rep. Prog. Phys. 78, 066501 (2015).             %
     %   D.C. Langreth et al., J. Phys.: Condens. Matter 21, 084203 (2009). %
     %                                                                      %
     %                                                                      %
     % If you are calculating the stress with vdW-DF, please also cite:     %
     %                                                                      %
     %   R. Sabatini et al., J. Phys.: Condens. Matter 24, 424209 (2012).   %
     %                                                                      %
     %%%%%%%%%%%%%%%%%%%%%%%%%%%%%%%%%%%%%%%%%%%%%%%%%%%%%%%%%%%%%%%%%%%%%%%%


 
     Adding external electric field

     Computed dipole along edir(3) : 
        Dipole               -7.5471 Ry au,        -19.1827 Debye
        Dipole field         -0.0142 Ry au, 
 
        Potential amp.        1.3202 Ry
        Total length         46.3494 bohr
 
 
     Adding external electric field

     Computed dipole along edir(3) : 
        Dipole               -7.5471 Ry au,        -19.1827 Debye
        Dipole field         -0.0142 Ry au, 
 
        Potential amp.        1.3202 Ry
        Total length         46.3494 bohr
 
     Starting wfcs are  297 atomic wfcs
  @ DRIVER MODE: Message from server: STATUS
  @ DRIVER MODE: Message from server: POSDATA
  @ DRIVER MODE: Reading and sharing cell 
  @ DRIVER MODE: Reading and sharing positions 
  @ DRIVER MODE: Received positions 

     total cpu time spent up to now is       29.9 secs

     Self-consistent Calculation

     iteration #  1     ecut=    29.40 Ry     beta= 0.05
     Davidson diagonalization with overlap
     c_bands:  1 eigenvalues not converged
     c_bands:  2 eigenvalues not converged
     c_bands:  1 eigenvalues not converged
     c_bands:  1 eigenvalues not converged
     c_bands:  1 eigenvalues not converged
     c_bands:  1 eigenvalues not converged
     c_bands:  1 eigenvalues not converged
     c_bands:  2 eigenvalues not converged
     c_bands:  1 eigenvalues not converged
     c_bands:  1 eigenvalues not converged
     c_bands:  1 eigenvalues not converged
     c_bands:  1 eigenvalues not converged
     ethr =  1.00E-05,  avg # of iterations = 19.6

     negative rho (up, down):  7.733E-03 7.739E-03
 
     Adding external electric field

     Computed dipole along edir(3) : 
        Dipole               32.8559 Ry au,         83.5114 Debye
        Dipole field          0.0620 Ry au, 
 
        Potential amp.       -5.7476 Ry
        Total length         46.3494 bohr
 
 
     Adding external electric field

     Computed dipole along edir(3) : 
        Dipole               32.8559 Ry au,         83.5114 Debye
        Dipole field          0.0620 Ry au, 
 
        Potential amp.       -5.7476 Ry
        Total length         46.3494 bohr
 

     total cpu time spent up to now is       91.5 secs

     total energy              =   -2679.37404865 Ry
     estimated scf accuracy    <    2680.78613159 Ry

     total magnetization       =     0.00 Bohr mag/cell
     absolute magnetization    =     0.01 Bohr mag/cell

     iteration #  2     ecut=    29.40 Ry     beta= 0.05
     Davidson diagonalization with overlap
     c_bands:  1 eigenvalues not converged
     c_bands:  5 eigenvalues not converged
     c_bands:  1 eigenvalues not converged
     c_bands:  2 eigenvalues not converged
     c_bands:  5 eigenvalues not converged
     ethr =  1.00E-02,  avg # of iterations = 20.8

     negative rho (up, down):  2.816E-03 2.815E-03
 
     Adding external electric field

     Computed dipole along edir(3) : 
        Dipole               -3.1821 Ry au,         -8.0881 Debye
        Dipole field         -0.0060 Ry au, 
 
        Potential amp.        0.5567 Ry
        Total length         46.3494 bohr
 
 
     Adding external electric field

     Computed dipole along edir(3) : 
        Dipole               -3.1821 Ry au,         -8.0881 Debye
        Dipole field         -0.0060 Ry au, 
 
        Potential amp.        0.5567 Ry
        Total length         46.3494 bohr
 

     total cpu time spent up to now is      177.6 secs

     total energy              =   -2504.35006677 Ry
     estimated scf accuracy    <   54704.83898731 Ry

     total magnetization       =    -0.21 Bohr mag/cell
     absolute magnetization    =     0.44 Bohr mag/cell

     iteration #  3     ecut=    29.40 Ry     beta= 0.05
     Davidson diagonalization with overlap
     ethr =  1.00E-02,  avg # of iterations = 14.8

     negative rho (up, down):  2.853E-03 2.851E-03
 
     Adding external electric field

     Computed dipole along edir(3) : 
        Dipole               -4.7955 Ry au,        -12.1891 Debye
        Dipole field         -0.0090 Ry au, 
 
        Potential amp.        0.8389 Ry
        Total length         46.3494 bohr
 
 
     Adding external electric field

     Computed dipole along edir(3) : 
        Dipole               -4.7955 Ry au,        -12.1891 Debye
        Dipole field         -0.0090 Ry au, 
 
        Potential amp.        0.8389 Ry
        Total length         46.3494 bohr
 

     total cpu time spent up to now is      238.3 secs

     total energy              =   -2900.85393718 Ry
     estimated scf accuracy    <    2912.24112109 Ry

     total magnetization       =     0.34 Bohr mag/cell
     absolute magnetization    =     0.72 Bohr mag/cell

     iteration #  4     ecut=    29.40 Ry     beta= 0.05
     Davidson diagonalization with overlap
     c_bands:  1 eigenvalues not converged
     c_bands:  3 eigenvalues not converged
     c_bands:  1 eigenvalues not converged
     c_bands:  2 eigenvalues not converged
     c_bands:  1 eigenvalues not converged
     c_bands:  4 eigenvalues not converged
     ethr =  1.00E-02,  avg # of iterations = 17.7

     negative rho (up, down):  2.856E-03 2.855E-03
 
     Adding external electric field

     Computed dipole along edir(3) : 
        Dipole               -5.3371 Ry au,        -13.5655 Debye
        Dipole field         -0.0101 Ry au, 
 
        Potential amp.        0.9336 Ry
        Total length         46.3494 bohr
 
 
     Adding external electric field

     Computed dipole along edir(3) : 
        Dipole               -5.3371 Ry au,        -13.5655 Debye
        Dipole field         -0.0101 Ry au, 
 
        Potential amp.        0.9336 Ry
        Total length         46.3494 bohr
 

     total cpu time spent up to now is      270.3 secs

     total energy              =   -2919.68680029 Ry
     estimated scf accuracy    <     187.92532167 Ry

     total magnetization       =    -1.58 Bohr mag/cell
     absolute magnetization    =     1.67 Bohr mag/cell

     iteration #  5     ecut=    29.40 Ry     beta= 0.05
     Davidson diagonalization with overlap
     ethr =  1.00E-02,  avg # of iterations =  3.9

     negative rho (up, down):  2.862E-03 2.859E-03
 
     Adding external electric field

     Computed dipole along edir(3) : 
        Dipole               -5.8101 Ry au,        -14.7678 Debye
        Dipole field         -0.0110 Ry au, 
 
        Potential amp.        1.0164 Ry
        Total length         46.3494 bohr
 
 
     Adding external electric field

     Computed dipole along edir(3) : 
        Dipole               -5.8101 Ry au,        -14.7678 Debye
        Dipole field         -0.0110 Ry au, 
 
        Potential amp.        1.0164 Ry
        Total length         46.3494 bohr
 

     total cpu time spent up to now is      285.5 secs

     total energy              =   -2918.59711249 Ry
     estimated scf accuracy    <     123.86287191 Ry

     total magnetization       =    -1.38 Bohr mag/cell
     absolute magnetization    =     1.80 Bohr mag/cell

     iteration #  6     ecut=    29.40 Ry     beta= 0.05
     Davidson diagonalization with overlap
     ethr =  1.00E-02,  avg # of iterations =  3.5

     negative rho (up, down):  2.908E-03 2.907E-03
 
     Adding external electric field

     Computed dipole along edir(3) : 
        Dipole               -6.3644 Ry au,        -16.1766 Debye
        Dipole field         -0.0120 Ry au, 
 
        Potential amp.        1.1133 Ry
        Total length         46.3494 bohr
 
 
     Adding external electric field

     Computed dipole along edir(3) : 
        Dipole               -6.3644 Ry au,        -16.1766 Debye
        Dipole field         -0.0120 Ry au, 
 
        Potential amp.        1.1133 Ry
        Total length         46.3494 bohr
 

     total cpu time spent up to now is      300.4 secs

     total energy              =   -2916.70592609 Ry
     estimated scf accuracy    <      94.25782969 Ry

     total magnetization       =    -0.26 Bohr mag/cell
     absolute magnetization    =     0.98 Bohr mag/cell

     iteration #  7     ecut=    29.40 Ry     beta= 0.05
     Davidson diagonalization with overlap
     c_bands:  3 eigenvalues not converged
     c_bands:  1 eigenvalues not converged
     c_bands:  4 eigenvalues not converged
     ethr =  1.00E-02,  avg # of iterations = 11.3

     negative rho (up, down):  2.644E-03 2.697E-03
 
     Adding external electric field

     Computed dipole along edir(3) : 
        Dipole               -5.8881 Ry au,        -14.9661 Debye
        Dipole field         -0.0111 Ry au, 
 
        Potential amp.        1.0300 Ry
        Total length         46.3494 bohr
 
 
     Adding external electric field

     Computed dipole along edir(3) : 
        Dipole               -5.8881 Ry au,        -14.9661 Debye
        Dipole field         -0.0111 Ry au, 
 
        Potential amp.        1.0300 Ry
        Total length         46.3494 bohr
 

     total cpu time spent up to now is      322.2 secs

     total energy              =   -2923.38920633 Ry
     estimated scf accuracy    <      19.81761820 Ry

     total magnetization       =     0.58 Bohr mag/cell
     absolute magnetization    =     0.75 Bohr mag/cell

     iteration #  8     ecut=    29.40 Ry     beta= 0.05
     Davidson diagonalization with overlap
     ethr =  5.06E-03,  avg # of iterations =  1.8

     negative rho (up, down):  2.765E-03 2.751E-03
 
     Adding external electric field

     Computed dipole along edir(3) : 
        Dipole               -5.5735 Ry au,        -14.1665 Debye
        Dipole field         -0.0105 Ry au, 
 
        Potential amp.        0.9750 Ry
        Total length         46.3494 bohr
 
 
     Adding external electric field

     Computed dipole along edir(3) : 
        Dipole               -5.5735 Ry au,        -14.1665 Debye
        Dipole field         -0.0105 Ry au, 
 
        Potential amp.        0.9750 Ry
        Total length         46.3494 bohr
 

     total cpu time spent up to now is      336.2 secs

     total energy              =   -2923.51708301 Ry
     estimated scf accuracy    <      12.67218592 Ry

     total magnetization       =     0.18 Bohr mag/cell
     absolute magnetization    =     0.31 Bohr mag/cell

     iteration #  9     ecut=    29.40 Ry     beta= 0.05
     Davidson diagonalization with overlap
     ethr =  3.23E-03,  avg # of iterations =  1.6

     negative rho (up, down):  3.902E-03 3.423E-03
 
     Adding external electric field

     Computed dipole along edir(3) : 
        Dipole               -4.4416 Ry au,        -11.2893 Debye
        Dipole field         -0.0084 Ry au, 
 
        Potential amp.        0.7770 Ry
        Total length         46.3494 bohr
 
 
     Adding external electric field

     Computed dipole along edir(3) : 
        Dipole               -4.4416 Ry au,        -11.2893 Debye
        Dipole field         -0.0084 Ry au, 
 
        Potential amp.        0.7770 Ry
        Total length         46.3494 bohr
 

     total cpu time spent up to now is      349.8 secs

     total energy              =   -2922.98383531 Ry
     estimated scf accuracy    <      11.64480874 Ry

     total magnetization       =     0.25 Bohr mag/cell
     absolute magnetization    =     0.35 Bohr mag/cell

     iteration # 10     ecut=    29.40 Ry     beta= 0.05
     Davidson diagonalization with overlap
     ethr =  2.97E-03,  avg # of iterations =  3.8

     negative rho (up, down):  4.853E-03 3.912E-03
 
     Adding external electric field

     Computed dipole along edir(3) : 
        Dipole               -3.9342 Ry au,         -9.9998 Debye
        Dipole field         -0.0074 Ry au, 
 
        Potential amp.        0.6882 Ry
        Total length         46.3494 bohr
 
 
     Adding external electric field

     Computed dipole along edir(3) : 
        Dipole               -3.9342 Ry au,         -9.9998 Debye
        Dipole field         -0.0074 Ry au, 
 
        Potential amp.        0.6882 Ry
        Total length         46.3494 bohr
 

     total cpu time spent up to now is      368.5 secs

     total energy              =   -2923.38970123 Ry
     estimated scf accuracy    <       8.62593310 Ry

     total magnetization       =     0.01 Bohr mag/cell
     absolute magnetization    =     0.22 Bohr mag/cell

     iteration # 11     ecut=    29.40 Ry     beta= 0.05
     Davidson diagonalization with overlap
     ethr =  2.20E-03,  avg # of iterations =  4.0

     negative rho (up, down):  3.218E-03 2.816E-03
 
     Adding external electric field

     Computed dipole along edir(3) : 
        Dipole               -5.1329 Ry au,        -13.0466 Debye
        Dipole field         -0.0097 Ry au, 
 
        Potential amp.        0.8979 Ry
        Total length         46.3494 bohr
 
 
     Adding external electric field

     Computed dipole along edir(3) : 
        Dipole               -5.1329 Ry au,        -13.0466 Debye
        Dipole field         -0.0097 Ry au, 
 
        Potential amp.        0.8979 Ry
        Total length         46.3494 bohr
 

     total cpu time spent up to now is      392.2 secs

     total energy              =   -2922.80114924 Ry
     estimated scf accuracy    <      14.64238633 Ry

     total magnetization       =    -0.08 Bohr mag/cell
     absolute magnetization    =     0.23 Bohr mag/cell

     iteration # 12     ecut=    29.40 Ry     beta= 0.05
     Davidson diagonalization with overlap
     ethr =  2.20E-03,  avg # of iterations =  2.7

     negative rho (up, down):  1.422E-03 1.535E-03
 
     Adding external electric field

     Computed dipole along edir(3) : 
        Dipole               -9.3337 Ry au,        -23.7239 Debye
        Dipole field         -0.0176 Ry au, 
 
        Potential amp.        1.6328 Ry
        Total length         46.3494 bohr
 
 
     Adding external electric field

     Computed dipole along edir(3) : 
        Dipole               -9.3337 Ry au,        -23.7239 Debye
        Dipole field         -0.0176 Ry au, 
 
        Potential amp.        1.6328 Ry
        Total length         46.3494 bohr
 

     total cpu time spent up to now is      407.1 secs

     total energy              =   -2926.52463292 Ry
     estimated scf accuracy    <       8.96192987 Ry

     total magnetization       =     0.18 Bohr mag/cell
     absolute magnetization    =     0.29 Bohr mag/cell

     iteration # 13     ecut=    29.40 Ry     beta= 0.05
     Davidson diagonalization with overlap
     c_bands:  1 eigenvalues not converged
     c_bands:  2 eigenvalues not converged
     c_bands:  2 eigenvalues not converged
     c_bands:  1 eigenvalues not converged
     c_bands:  4 eigenvalues not converged
     ethr =  2.20E-03,  avg # of iterations = 18.8

     negative rho (up, down):  1.896E-04 1.841E-04
 
     Adding external electric field

     Computed dipole along edir(3) : 
        Dipole               -6.9337 Ry au,        -17.6236 Debye
        Dipole field         -0.0131 Ry au, 
 
        Potential amp.        1.2129 Ry
        Total length         46.3494 bohr
 
 
     Adding external electric field

     Computed dipole along edir(3) : 
        Dipole               -6.9337 Ry au,        -17.6236 Debye
        Dipole field         -0.0131 Ry au, 
 
        Potential amp.        1.2129 Ry
        Total length         46.3494 bohr
 

     total cpu time spent up to now is      465.3 secs

     total energy              =   -2925.46747697 Ry
     estimated scf accuracy    <    8229.57237212 Ry

     total magnetization       =    -0.01 Bohr mag/cell
     absolute magnetization    =     0.46 Bohr mag/cell

     iteration # 14     ecut=    29.40 Ry     beta= 0.05
     Davidson diagonalization with overlap
     c_bands:  1 eigenvalues not converged
     c_bands:  5 eigenvalues not converged
     c_bands:  4 eigenvalues not converged
     c_bands:  2 eigenvalues not converged
     c_bands:  1 eigenvalues not converged
     c_bands:  1 eigenvalues not converged
     c_bands:  1 eigenvalues not converged
     c_bands:  2 eigenvalues not converged
     c_bands:  3 eigenvalues not converged
     c_bands:  1 eigenvalues not converged
     c_bands:  2 eigenvalues not converged
     c_bands:  5 eigenvalues not converged
     c_bands:  1 eigenvalues not converged
     ethr =  2.20E-03,  avg # of iterations = 19.9

     negative rho (up, down):  2.106E-04 1.680E-04
 
     Adding external electric field

     Computed dipole along edir(3) : 
        Dipole               -4.1735 Ry au,        -10.6079 Debye
        Dipole field         -0.0079 Ry au, 
 
        Potential amp.        0.7301 Ry
        Total length         46.3494 bohr
 
 
     Adding external electric field

     Computed dipole along edir(3) : 
        Dipole               -4.1735 Ry au,        -10.6079 Debye
        Dipole field         -0.0079 Ry au, 
 
        Potential amp.        0.7301 Ry
        Total length         46.3494 bohr
 

     total cpu time spent up to now is      503.3 secs

     total energy              =   -2903.67700287 Ry
     estimated scf accuracy    <    2052.54509249 Ry

     total magnetization       =    -0.39 Bohr mag/cell
     absolute magnetization    =     0.87 Bohr mag/cell

     iteration # 15     ecut=    29.40 Ry     beta= 0.05
     Davidson diagonalization with overlap
     ethr =  2.20E-03,  avg # of iterations = 14.8

     negative rho (up, down):  1.938E-03 1.282E-03
 
     Adding external electric field

     Computed dipole along edir(3) : 
        Dipole               -2.9316 Ry au,         -7.4514 Debye
        Dipole field         -0.0055 Ry au, 
 
        Potential amp.        0.5128 Ry
        Total length         46.3494 bohr
 
 
     Adding external electric field

     Computed dipole along edir(3) : 
        Dipole               -2.9316 Ry au,         -7.4514 Debye
        Dipole field         -0.0055 Ry au, 
 
        Potential amp.        0.5128 Ry
        Total length         46.3494 bohr
 

     total cpu time spent up to now is      536.2 secs

     total energy              =   -2922.39631603 Ry
     estimated scf accuracy    <       9.78152246 Ry

     total magnetization       =     0.04 Bohr mag/cell
     absolute magnetization    =     0.23 Bohr mag/cell

     iteration # 16     ecut=    29.40 Ry     beta= 0.05
     Davidson diagonalization with overlap
     ethr =  2.20E-03,  avg # of iterations = 11.0

     negative rho (up, down):  1.060E-03 9.119E-04
 
     Adding external electric field

     Computed dipole along edir(3) : 
        Dipole                0.5255 Ry au,          1.3356 Debye
        Dipole field          0.0010 Ry au, 
 
        Potential amp.       -0.0919 Ry
        Total length         46.3494 bohr
 
 
     Adding external electric field

     Computed dipole along edir(3) : 
        Dipole                0.5255 Ry au,          1.3356 Debye
        Dipole field          0.0010 Ry au, 
 
        Potential amp.       -0.0919 Ry
        Total length         46.3494 bohr
 

     total cpu time spent up to now is      556.5 secs

     total energy              =   -2921.68322809 Ry
     estimated scf accuracy    <       6.40952190 Ry

     total magnetization       =    -0.03 Bohr mag/cell
     absolute magnetization    =     0.17 Bohr mag/cell

     iteration # 17     ecut=    29.40 Ry     beta= 0.05
     Davidson diagonalization with overlap
     ethr =  1.64E-03,  avg # of iterations = 16.7

     negative rho (up, down):  2.558E-04 2.229E-04
 
     Adding external electric field

     Computed dipole along edir(3) : 
        Dipole               -1.2114 Ry au,         -3.0791 Debye
        Dipole field         -0.0023 Ry au, 
 
        Potential amp.        0.2119 Ry
        Total length         46.3494 bohr
 
 
     Adding external electric field

     Computed dipole along edir(3) : 
        Dipole               -1.2114 Ry au,         -3.0791 Debye
        Dipole field         -0.0023 Ry au, 
 
        Potential amp.        0.2119 Ry
        Total length         46.3494 bohr
 

     total cpu time spent up to now is      594.7 secs

     total energy              =   -2916.87744923 Ry
     estimated scf accuracy    <    1607.13410976 Ry

     total magnetization       =     0.15 Bohr mag/cell
     absolute magnetization    =     0.41 Bohr mag/cell

     iteration # 18     ecut=    29.40 Ry     beta= 0.05
     Davidson diagonalization with overlap
     c_bands:  2 eigenvalues not converged
     c_bands:  1 eigenvalues not converged
     c_bands:  1 eigenvalues not converged
     c_bands:  1 eigenvalues not converged
     ethr =  1.64E-03,  avg # of iterations = 11.5

     negative rho (up, down):  1.823E-04 1.706E-04
 
     Adding external electric field

     Computed dipole along edir(3) : 
        Dipole               -5.0510 Ry au,        -12.8383 Debye
        Dipole field         -0.0095 Ry au, 
 
        Potential amp.        0.8836 Ry
        Total length         46.3494 bohr
 
 
     Adding external electric field

     Computed dipole along edir(3) : 
        Dipole               -5.0510 Ry au,        -12.8383 Debye
        Dipole field         -0.0095 Ry au, 
 
        Potential amp.        0.8836 Ry
        Total length         46.3494 bohr
 

     total cpu time spent up to now is      618.7 secs

     total energy              =   -2898.14927243 Ry
     estimated scf accuracy    <     623.06840759 Ry

     total magnetization       =    -1.23 Bohr mag/cell
     absolute magnetization    =     1.52 Bohr mag/cell

     iteration # 19     ecut=    29.40 Ry     beta= 0.05
     Davidson diagonalization with overlap
     c_bands:  4 eigenvalues not converged
     c_bands:  1 eigenvalues not converged
     c_bands:  2 eigenvalues not converged
     ethr =  1.64E-03,  avg # of iterations = 16.1

     negative rho (up, down):  2.720E-04 2.170E-04
 
     Adding external electric field

     Computed dipole along edir(3) : 
        Dipole               -3.0545 Ry au,         -7.7639 Debye
        Dipole field         -0.0058 Ry au, 
 
        Potential amp.        0.5343 Ry
        Total length         46.3494 bohr
 
 
     Adding external electric field

     Computed dipole along edir(3) : 
        Dipole               -3.0545 Ry au,         -7.7639 Debye
        Dipole field         -0.0058 Ry au, 
 
        Potential amp.        0.5343 Ry
        Total length         46.3494 bohr
 

     total cpu time spent up to now is      659.1 secs

     total energy              =   -2915.03853487 Ry
     estimated scf accuracy    <     545.05808076 Ry

     total magnetization       =     0.12 Bohr mag/cell
     absolute magnetization    =     0.48 Bohr mag/cell

     iteration # 20     ecut=    29.40 Ry     beta= 0.05
     Davidson diagonalization with overlap
     ethr =  1.64E-03,  avg # of iterations = 13.4

     negative rho (up, down):  3.925E-04 3.157E-04
 
     Adding external electric field

     Computed dipole along edir(3) : 
        Dipole               -1.4628 Ry au,         -3.7181 Debye
        Dipole field         -0.0028 Ry au, 
 
        Potential amp.        0.2559 Ry
        Total length         46.3494 bohr
 
 
     Adding external electric field

     Computed dipole along edir(3) : 
        Dipole               -1.4628 Ry au,         -3.7181 Debye
        Dipole field         -0.0028 Ry au, 
 
        Potential amp.        0.2559 Ry
        Total length         46.3494 bohr
 

     total cpu time spent up to now is      686.6 secs

     total energy              =   -2921.71484783 Ry
     estimated scf accuracy    <       6.26403572 Ry

     total magnetization       =     0.08 Bohr mag/cell
     absolute magnetization    =     0.25 Bohr mag/cell

     iteration # 21     ecut=    29.40 Ry     beta= 0.05
     Davidson diagonalization with overlap
     ethr =  1.60E-03,  avg # of iterations =  2.8

     negative rho (up, down):  2.905E-04 2.552E-04
 
     Adding external electric field

     Computed dipole along edir(3) : 
        Dipole               -1.0338 Ry au,         -2.6277 Debye
        Dipole field         -0.0020 Ry au, 
 
        Potential amp.        0.1808 Ry
        Total length         46.3494 bohr
 
 
     Adding external electric field

     Computed dipole along edir(3) : 
        Dipole               -1.0338 Ry au,         -2.6277 Debye
        Dipole field         -0.0020 Ry au, 
 
        Potential amp.        0.1808 Ry
        Total length         46.3494 bohr
 

     total cpu time spent up to now is      701.7 secs

     total energy              =   -2921.71291001 Ry
     estimated scf accuracy    <       3.07713522 Ry

     total magnetization       =     0.00 Bohr mag/cell
     absolute magnetization    =     0.22 Bohr mag/cell

     iteration # 22     ecut=    29.40 Ry     beta= 0.05
     Davidson diagonalization with overlap
     ethr =  7.85E-04,  avg # of iterations =  2.3

     negative rho (up, down):  2.794E-04 2.513E-04
 
     Adding external electric field

     Computed dipole along edir(3) : 
        Dipole                0.1028 Ry au,          0.2613 Debye
        Dipole field          0.0002 Ry au, 
 
        Potential amp.       -0.0180 Ry
        Total length         46.3494 bohr
 
 
     Adding external electric field

     Computed dipole along edir(3) : 
        Dipole                0.1028 Ry au,          0.2613 Debye
        Dipole field          0.0002 Ry au, 
 
        Potential amp.       -0.0180 Ry
        Total length         46.3494 bohr
 

     total cpu time spent up to now is      716.6 secs

     total energy              =   -2921.63338825 Ry
     estimated scf accuracy    <       4.44549961 Ry

     total magnetization       =     0.10 Bohr mag/cell
     absolute magnetization    =     0.23 Bohr mag/cell

     iteration # 23     ecut=    29.40 Ry     beta= 0.05
     Davidson diagonalization with overlap
     ethr =  7.85E-04,  avg # of iterations =  1.5

     negative rho (up, down):  2.728E-04 2.503E-04
 
     Adding external electric field

     Computed dipole along edir(3) : 
        Dipole                0.8167 Ry au,          2.0759 Debye
        Dipole field          0.0015 Ry au, 
 
        Potential amp.       -0.1429 Ry
        Total length         46.3494 bohr
 
 
     Adding external electric field

     Computed dipole along edir(3) : 
        Dipole                0.8167 Ry au,          2.0759 Debye
        Dipole field          0.0015 Ry au, 
 
        Potential amp.       -0.1429 Ry
        Total length         46.3494 bohr
 

     total cpu time spent up to now is      730.5 secs

     total energy              =   -2921.53476654 Ry
     estimated scf accuracy    <       3.10589191 Ry

     total magnetization       =     0.10 Bohr mag/cell
     absolute magnetization    =     0.26 Bohr mag/cell

     iteration # 24     ecut=    29.40 Ry     beta= 0.05
     Davidson diagonalization with overlap
     c_bands:  3 eigenvalues not converged
     c_bands:  2 eigenvalues not converged
     c_bands:  3 eigenvalues not converged
     c_bands:  5 eigenvalues not converged
     c_bands:  3 eigenvalues not converged
     c_bands:  5 eigenvalues not converged
     c_bands:  3 eigenvalues not converged
     c_bands:  4 eigenvalues not converged
     c_bands:  1 eigenvalues not converged
     c_bands:  4 eigenvalues not converged
     c_bands:  5 eigenvalues not converged
     c_bands:  4 eigenvalues not converged
     c_bands:  2 eigenvalues not converged
     c_bands:  1 eigenvalues not converged
     ethr =  7.85E-04,  avg # of iterations = 15.1

     negative rho (up, down):  3.223E-04 2.944E-04
 
     Adding external electric field

     Computed dipole along edir(3) : 
        Dipole                1.0120 Ry au,          2.5723 Debye
        Dipole field          0.0019 Ry au, 
 
        Potential amp.       -0.1770 Ry
        Total length         46.3494 bohr
 
 
     Adding external electric field

     Computed dipole along edir(3) : 
        Dipole                1.0120 Ry au,          2.5723 Debye
        Dipole field          0.0019 Ry au, 
 
        Potential amp.       -0.1770 Ry
        Total length         46.3494 bohr
 

     total cpu time spent up to now is      753.5 secs

     total energy              =   -2921.64526501 Ry
     estimated scf accuracy    <       1.10347944 Ry

     total magnetization       =     0.30 Bohr mag/cell
     absolute magnetization    =     0.55 Bohr mag/cell

     iteration # 25     ecut=    29.40 Ry     beta= 0.05
     Davidson diagonalization with overlap
     c_bands:  3 eigenvalues not converged
     c_bands:  4 eigenvalues not converged
     c_bands:  4 eigenvalues not converged
     c_bands:  1 eigenvalues not converged
     c_bands:  1 eigenvalues not converged
     c_bands:  1 eigenvalues not converged
     c_bands:  2 eigenvalues not converged
     c_bands:  4 eigenvalues not converged
     c_bands:  3 eigenvalues not converged
     c_bands:  2 eigenvalues not converged
     c_bands:  1 eigenvalues not converged
     c_bands:  4 eigenvalues not converged
     c_bands:  2 eigenvalues not converged
     ethr =  2.81E-04,  avg # of iterations = 20.7

     negative rho (up, down):  2.704E-04 2.482E-04
 
     Adding external electric field

     Computed dipole along edir(3) : 
        Dipole                0.8415 Ry au,          2.1389 Debye
        Dipole field          0.0016 Ry au, 
 
        Potential amp.       -0.1472 Ry
        Total length         46.3494 bohr
 
 
     Adding external electric field

     Computed dipole along edir(3) : 
        Dipole                0.8415 Ry au,          2.1389 Debye
        Dipole field          0.0016 Ry au, 
 
        Potential amp.       -0.1472 Ry
        Total length         46.3494 bohr
 

     total cpu time spent up to now is      794.1 secs

     total energy              =   -2921.69721599 Ry
     estimated scf accuracy    <       1.96892236 Ry

     total magnetization       =     0.05 Bohr mag/cell
     absolute magnetization    =     0.22 Bohr mag/cell

     iteration # 26     ecut=    29.40 Ry     beta= 0.05
     Davidson diagonalization with overlap
     ethr =  2.81E-04,  avg # of iterations =  3.5

     negative rho (up, down):  2.531E-04 2.322E-04
 
     Adding external electric field

     Computed dipole along edir(3) : 
        Dipole                0.6584 Ry au,          1.6735 Debye
        Dipole field          0.0012 Ry au, 
 
        Potential amp.       -0.1152 Ry
        Total length         46.3494 bohr
 
 
     Adding external electric field

     Computed dipole along edir(3) : 
        Dipole                0.6584 Ry au,          1.6735 Debye
        Dipole field          0.0012 Ry au, 
 
        Potential amp.       -0.1152 Ry
        Total length         46.3494 bohr
 

     total cpu time spent up to now is      809.1 secs

     total energy              =   -2921.69258165 Ry
     estimated scf accuracy    <       1.76146479 Ry

     total magnetization       =     0.02 Bohr mag/cell
     absolute magnetization    =     0.20 Bohr mag/cell

     iteration # 27     ecut=    29.40 Ry     beta= 0.05
     Davidson diagonalization with overlap
     ethr =  2.81E-04,  avg # of iterations =  1.9

     negative rho (up, down):  7.891E-04 7.116E-04
 
     Adding external electric field

     Computed dipole along edir(3) : 
        Dipole                1.9067 Ry au,          4.8462 Debye
        Dipole field          0.0036 Ry au, 
 
        Potential amp.       -0.3335 Ry
        Total length         46.3494 bohr
 
 
     Adding external electric field

     Computed dipole along edir(3) : 
        Dipole                1.9067 Ry au,          4.8462 Debye
        Dipole field          0.0036 Ry au, 
 
        Potential amp.       -0.3335 Ry
        Total length         46.3494 bohr
 

     total cpu time spent up to now is      826.6 secs

     total energy              =   -2921.75348906 Ry
     estimated scf accuracy    <       1.48303634 Ry

     total magnetization       =     0.02 Bohr mag/cell
     absolute magnetization    =     0.20 Bohr mag/cell

     iteration # 28     ecut=    29.40 Ry     beta= 0.05
     Davidson diagonalization with overlap
     c_bands:  2 eigenvalues not converged
     c_bands:  2 eigenvalues not converged
     c_bands:  1 eigenvalues not converged
     c_bands:  3 eigenvalues not converged
     c_bands:  5 eigenvalues not converged
     c_bands:  2 eigenvalues not converged
     c_bands:  1 eigenvalues not converged
     c_bands:  1 eigenvalues not converged
     ethr =  2.81E-04,  avg # of iterations = 18.7

     negative rho (up, down):  9.536E-04 8.534E-04
 
     Adding external electric field

     Computed dipole along edir(3) : 
        Dipole                2.2606 Ry au,          5.7459 Debye
        Dipole field          0.0043 Ry au, 
 
        Potential amp.       -0.3955 Ry
        Total length         46.3494 bohr
 
 
     Adding external electric field

     Computed dipole along edir(3) : 
        Dipole                2.2606 Ry au,          5.7459 Debye
        Dipole field          0.0043 Ry au, 
 
        Potential amp.       -0.3955 Ry
        Total length         46.3494 bohr
 

     total cpu time spent up to now is      853.9 secs

     total energy              =   -2922.96885834 Ry
     estimated scf accuracy    <     148.20252617 Ry

     total magnetization       =    -0.02 Bohr mag/cell
     absolute magnetization    =     0.28 Bohr mag/cell

     iteration # 29     ecut=    29.40 Ry     beta= 0.05
     Davidson diagonalization with overlap
     c_bands:  1 eigenvalues not converged
     c_bands:  3 eigenvalues not converged
     c_bands:  1 eigenvalues not converged
     c_bands:  1 eigenvalues not converged
     ethr =  2.81E-04,  avg # of iterations =  7.7

     negative rho (up, down):  7.108E-04 6.429E-04
 
     Adding external electric field

     Computed dipole along edir(3) : 
        Dipole                1.9443 Ry au,          4.9420 Debye
        Dipole field          0.0037 Ry au, 
 
        Potential amp.       -0.3401 Ry
        Total length         46.3494 bohr
 
 
     Adding external electric field

     Computed dipole along edir(3) : 
        Dipole                1.9443 Ry au,          4.9420 Debye
        Dipole field          0.0037 Ry au, 
 
        Potential amp.       -0.3401 Ry
        Total length         46.3494 bohr
 

     total cpu time spent up to now is      879.1 secs

     total energy              =   -2921.73155386 Ry
     estimated scf accuracy    <     229.89829152 Ry

     total magnetization       =    -0.10 Bohr mag/cell
     absolute magnetization    =     0.31 Bohr mag/cell

     iteration # 30     ecut=    29.40 Ry     beta= 0.05
     Davidson diagonalization with overlap
     c_bands:  3 eigenvalues not converged
     c_bands:  2 eigenvalues not converged
     c_bands:  1 eigenvalues not converged
     ethr =  2.81E-04,  avg # of iterations = 10.2

     negative rho (up, down):  5.906E-04 5.348E-04
 
     Adding external electric field

     Computed dipole along edir(3) : 
        Dipole                1.7392 Ry au,          4.4207 Debye
        Dipole field          0.0033 Ry au, 
 
        Potential amp.       -0.3043 Ry
        Total length         46.3494 bohr
 
 
     Adding external electric field

     Computed dipole along edir(3) : 
        Dipole                1.7392 Ry au,          4.4207 Debye
        Dipole field          0.0033 Ry au, 
 
        Potential amp.       -0.3043 Ry
        Total length         46.3494 bohr
 

     total cpu time spent up to now is      898.5 secs

     total energy              =   -2921.82934983 Ry
     estimated scf accuracy    <      99.57074861 Ry

     total magnetization       =    -0.08 Bohr mag/cell
     absolute magnetization    =     0.32 Bohr mag/cell

     iteration # 31     ecut=    29.40 Ry     beta= 0.05
     Davidson diagonalization with overlap
     ethr =  2.81E-04,  avg # of iterations =  2.9

     negative rho (up, down):  3.731E-04 3.371E-04
 
     Adding external electric field

     Computed dipole along edir(3) : 
        Dipole                0.7389 Ry au,          1.8780 Debye
        Dipole field          0.0014 Ry au, 
 
        Potential amp.       -0.1293 Ry
        Total length         46.3494 bohr
 
 
     Adding external electric field

     Computed dipole along edir(3) : 
        Dipole                0.7389 Ry au,          1.8780 Debye
        Dipole field          0.0014 Ry au, 
 
        Potential amp.       -0.1293 Ry
        Total length         46.3494 bohr
 

     total cpu time spent up to now is      918.0 secs

     total energy              =   -2921.04239310 Ry
     estimated scf accuracy    <      69.47750898 Ry

     total magnetization       =    -0.13 Bohr mag/cell
     absolute magnetization    =     0.38 Bohr mag/cell

     iteration # 32     ecut=    29.40 Ry     beta= 0.05
     Davidson diagonalization with overlap
     c_bands:  2 eigenvalues not converged
     ethr =  2.81E-04,  avg # of iterations = 14.7

     negative rho (up, down):  7.721E-04 7.067E-04
 
     Adding external electric field

     Computed dipole along edir(3) : 
        Dipole                1.1098 Ry au,          2.8208 Debye
        Dipole field          0.0021 Ry au, 
 
        Potential amp.       -0.1941 Ry
        Total length         46.3494 bohr
 
 
     Adding external electric field

     Computed dipole along edir(3) : 
        Dipole                1.1098 Ry au,          2.8208 Debye
        Dipole field          0.0021 Ry au, 
 
        Potential amp.       -0.1941 Ry
        Total length         46.3494 bohr
 

     total cpu time spent up to now is      947.1 secs

     total energy              =   -2921.63601477 Ry
     estimated scf accuracy    <       2.64166806 Ry

     total magnetization       =     0.17 Bohr mag/cell
     absolute magnetization    =     0.28 Bohr mag/cell

     iteration # 33     ecut=    29.40 Ry     beta= 0.05
     Davidson diagonalization with overlap
     ethr =  2.81E-04,  avg # of iterations =  3.1

     negative rho (up, down):  1.865E-03 1.710E-03
 
     Adding external electric field

     Computed dipole along edir(3) : 
        Dipole                1.1652 Ry au,          2.9615 Debye
        Dipole field          0.0022 Ry au, 
 
        Potential amp.       -0.2038 Ry
        Total length         46.3494 bohr
 
 
     Adding external electric field

     Computed dipole along edir(3) : 
        Dipole                1.1652 Ry au,          2.9615 Debye
        Dipole field          0.0022 Ry au, 
 
        Potential amp.       -0.2038 Ry
        Total length         46.3494 bohr
 

     total cpu time spent up to now is      964.9 secs

     total energy              =   -2921.70529368 Ry
     estimated scf accuracy    <       3.36455766 Ry

     total magnetization       =     0.20 Bohr mag/cell
     absolute magnetization    =     0.31 Bohr mag/cell

     iteration # 34     ecut=    29.40 Ry     beta= 0.05
     Davidson diagonalization with overlap
     ethr =  2.81E-04,  avg # of iterations =  6.7

     negative rho (up, down):  1.657E-03 1.543E-03
 
     Adding external electric field

     Computed dipole along edir(3) : 
        Dipole                0.5430 Ry au,          1.3802 Debye
        Dipole field          0.0010 Ry au, 
 
        Potential amp.       -0.0950 Ry
        Total length         46.3494 bohr
 
 
     Adding external electric field

     Computed dipole along edir(3) : 
        Dipole                0.5430 Ry au,          1.3802 Debye
        Dipole field          0.0010 Ry au, 
 
        Potential amp.       -0.0950 Ry
        Total length         46.3494 bohr
 

     total cpu time spent up to now is      982.2 secs

     total energy              =   -2921.24850440 Ry
     estimated scf accuracy    <      41.76734502 Ry

     total magnetization       =     0.11 Bohr mag/cell
     absolute magnetization    =     0.39 Bohr mag/cell

     iteration # 35     ecut=    29.40 Ry     beta= 0.05
     Davidson diagonalization with overlap
     c_bands:  2 eigenvalues not converged
     c_bands:  1 eigenvalues not converged
     c_bands:  1 eigenvalues not converged
     c_bands:  1 eigenvalues not converged
     c_bands:  2 eigenvalues not converged
     c_bands:  2 eigenvalues not converged
     c_bands:  1 eigenvalues not converged
     c_bands:  2 eigenvalues not converged
     c_bands:  1 eigenvalues not converged
     ethr =  2.81E-04,  avg # of iterations = 15.7

     negative rho (up, down):  1.027E-03 9.348E-04
 
     Adding external electric field

     Computed dipole along edir(3) : 
        Dipole                0.7322 Ry au,          1.8609 Debye
        Dipole field          0.0014 Ry au, 
 
        Potential amp.       -0.1281 Ry
        Total length         46.3494 bohr
 
 
     Adding external electric field

     Computed dipole along edir(3) : 
        Dipole                0.7322 Ry au,          1.8609 Debye
        Dipole field          0.0014 Ry au, 
 
        Potential amp.       -0.1281 Ry
        Total length         46.3494 bohr
 

     total cpu time spent up to now is     1005.9 secs

     total energy              =   -2921.60728079 Ry
     estimated scf accuracy    <       1.21498102 Ry

     total magnetization       =     0.02 Bohr mag/cell
     absolute magnetization    =     0.20 Bohr mag/cell

     iteration # 36     ecut=    29.40 Ry     beta= 0.05
     Davidson diagonalization with overlap
     ethr =  2.81E-04,  avg # of iterations =  2.5

     negative rho (up, down):  9.840E-04 9.026E-04
 
     Adding external electric field

     Computed dipole along edir(3) : 
        Dipole                0.8263 Ry au,          2.1002 Debye
        Dipole field          0.0016 Ry au, 
 
        Potential amp.       -0.1445 Ry
        Total length         46.3494 bohr
 
 
     Adding external electric field

     Computed dipole along edir(3) : 
        Dipole                0.8263 Ry au,          2.1002 Debye
        Dipole field          0.0016 Ry au, 
 
        Potential amp.       -0.1445 Ry
        Total length         46.3494 bohr
 

     total cpu time spent up to now is     1030.7 secs

     total energy              =   -2921.63496596 Ry
     estimated scf accuracy    <       0.73479219 Ry

     total magnetization       =     0.06 Bohr mag/cell
     absolute magnetization    =     0.22 Bohr mag/cell

     iteration # 37     ecut=    29.40 Ry     beta= 0.05
     Davidson diagonalization with overlap
     ethr =  1.87E-04,  avg # of iterations =  3.0

     negative rho (up, down):  1.179E-03 1.110E-03
 
     Adding external electric field

     Computed dipole along edir(3) : 
        Dipole                1.2615 Ry au,          3.2065 Debye
        Dipole field          0.0024 Ry au, 
 
        Potential amp.       -0.2207 Ry
        Total length         46.3494 bohr
 
 
     Adding external electric field

     Computed dipole along edir(3) : 
        Dipole                1.2615 Ry au,          3.2065 Debye
        Dipole field          0.0024 Ry au, 
 
        Potential amp.       -0.2207 Ry
        Total length         46.3494 bohr
 

     total cpu time spent up to now is     1045.7 secs

     total energy              =   -2921.62071180 Ry
     estimated scf accuracy    <       0.60823780 Ry

     total magnetization       =     0.05 Bohr mag/cell
     absolute magnetization    =     0.23 Bohr mag/cell

     iteration # 38     ecut=    29.40 Ry     beta= 0.05
     Davidson diagonalization with overlap
     ethr =  1.55E-04,  avg # of iterations =  5.5

     negative rho (up, down):  1.842E-03 1.769E-03
 
     Adding external electric field

     Computed dipole along edir(3) : 
        Dipole                1.4780 Ry au,          3.7566 Debye
        Dipole field          0.0028 Ry au, 
 
        Potential amp.       -0.2585 Ry
        Total length         46.3494 bohr
 
 
     Adding external electric field

     Computed dipole along edir(3) : 
        Dipole                1.4780 Ry au,          3.7566 Debye
        Dipole field          0.0028 Ry au, 
 
        Potential amp.       -0.2585 Ry
        Total length         46.3494 bohr
 

     total cpu time spent up to now is     1061.7 secs

     total energy              =   -2921.61553809 Ry
     estimated scf accuracy    <       0.44801277 Ry

     total magnetization       =     0.05 Bohr mag/cell
     absolute magnetization    =     0.19 Bohr mag/cell

     iteration # 39     ecut=    29.40 Ry     beta= 0.05
     Davidson diagonalization with overlap
     c_bands:  2 eigenvalues not converged
     c_bands:  1 eigenvalues not converged
     c_bands:  1 eigenvalues not converged
     c_bands:  4 eigenvalues not converged
     c_bands:  1 eigenvalues not converged
     c_bands:  3 eigenvalues not converged
     ethr =  1.14E-04,  avg # of iterations = 15.2

     negative rho (up, down):  2.475E-03 2.402E-03
 
     Adding external electric field

     Computed dipole along edir(3) : 
        Dipole                1.1804 Ry au,          3.0003 Debye
        Dipole field          0.0022 Ry au, 
 
        Potential amp.       -0.2065 Ry
        Total length         46.3494 bohr
 
 
     Adding external electric field

     Computed dipole along edir(3) : 
        Dipole                1.1804 Ry au,          3.0003 Debye
        Dipole field          0.0022 Ry au, 
 
        Potential amp.       -0.2065 Ry
        Total length         46.3494 bohr
 

     total cpu time spent up to now is     1084.8 secs

     total energy              =   -2921.61606917 Ry
     estimated scf accuracy    <       0.22825034 Ry

     total magnetization       =     0.04 Bohr mag/cell
     absolute magnetization    =     0.19 Bohr mag/cell

     iteration # 40     ecut=    29.40 Ry     beta= 0.05
     Davidson diagonalization with overlap
     c_bands:  1 eigenvalues not converged
     c_bands:  2 eigenvalues not converged
     c_bands:  2 eigenvalues not converged
     c_bands:  3 eigenvalues not converged
     c_bands:  4 eigenvalues not converged
     c_bands:  4 eigenvalues not converged
     c_bands:  1 eigenvalues not converged
     c_bands:  2 eigenvalues not converged
     c_bands:  4 eigenvalues not converged
     c_bands:  1 eigenvalues not converged
     c_bands:  3 eigenvalues not converged
     ethr =  5.82E-05,  avg # of iterations = 14.5

     negative rho (up, down):  2.578E-03 2.505E-03
 
     Adding external electric field

     Computed dipole along edir(3) : 
        Dipole                1.3100 Ry au,          3.3298 Debye
        Dipole field          0.0025 Ry au, 
 
        Potential amp.       -0.2292 Ry
        Total length         46.3494 bohr
 
 
     Adding external electric field

     Computed dipole along edir(3) : 
        Dipole                1.3100 Ry au,          3.3298 Debye
        Dipole field          0.0025 Ry au, 
 
        Potential amp.       -0.2292 Ry
        Total length         46.3494 bohr
 

     total cpu time spent up to now is     1107.1 secs

     total energy              =   -2921.61953420 Ry
     estimated scf accuracy    <       0.29051630 Ry

     total magnetization       =     0.06 Bohr mag/cell
     absolute magnetization    =     0.19 Bohr mag/cell

     iteration # 41     ecut=    29.40 Ry     beta= 0.05
     Davidson diagonalization with overlap
     c_bands:  2 eigenvalues not converged
     c_bands:  1 eigenvalues not converged
     c_bands:  1 eigenvalues not converged
     ethr =  5.82E-05,  avg # of iterations =  6.2

     negative rho (up, down):  3.066E-03 2.994E-03
 
     Adding external electric field

     Computed dipole along edir(3) : 
        Dipole                1.2215 Ry au,          3.1048 Debye
        Dipole field          0.0023 Ry au, 
 
        Potential amp.       -0.2137 Ry
        Total length         46.3494 bohr
 
 
     Adding external electric field

     Computed dipole along edir(3) : 
        Dipole                1.2215 Ry au,          3.1048 Debye
        Dipole field          0.0023 Ry au, 
 
        Potential amp.       -0.2137 Ry
        Total length         46.3494 bohr
 

     total cpu time spent up to now is     1123.7 secs

     total energy              =   -2921.62815724 Ry
     estimated scf accuracy    <       0.10644945 Ry

     total magnetization       =     0.04 Bohr mag/cell
     absolute magnetization    =     0.16 Bohr mag/cell

     iteration # 42     ecut=    29.40 Ry     beta= 0.05
     Davidson diagonalization with overlap
     c_bands:  3 eigenvalues not converged
     c_bands:  1 eigenvalues not converged
     c_bands:  1 eigenvalues not converged
     ethr =  2.72E-05,  avg # of iterations = 12.1

     negative rho (up, down):  4.706E-03 4.644E-03
 
     Adding external electric field

     Computed dipole along edir(3) : 
        Dipole                1.2729 Ry au,          3.2353 Debye
        Dipole field          0.0024 Ry au, 
 
        Potential amp.       -0.2227 Ry
        Total length         46.3494 bohr
 
 
     Adding external electric field

     Computed dipole along edir(3) : 
        Dipole                1.2729 Ry au,          3.2353 Debye
        Dipole field          0.0024 Ry au, 
 
        Potential amp.       -0.2227 Ry
        Total length         46.3494 bohr
 

     total cpu time spent up to now is     1145.2 secs

     total energy              =   -2921.62882653 Ry
     estimated scf accuracy    <       0.03605591 Ry

     total magnetization       =     0.05 Bohr mag/cell
     absolute magnetization    =     0.17 Bohr mag/cell

     iteration # 43     ecut=    29.40 Ry     beta= 0.05
     Davidson diagonalization with overlap
     c_bands:  3 eigenvalues not converged
     c_bands:  4 eigenvalues not converged
     c_bands:  1 eigenvalues not converged
     c_bands:  4 eigenvalues not converged
     c_bands:  1 eigenvalues not converged
     c_bands:  2 eigenvalues not converged
     c_bands:  1 eigenvalues not converged
     c_bands:  3 eigenvalues not converged
     c_bands:  1 eigenvalues not converged
     c_bands:  4 eigenvalues not converged
     c_bands:  1 eigenvalues not converged
     c_bands:  4 eigenvalues not converged
     c_bands:  3 eigenvalues not converged
     ethr =  9.20E-06,  avg # of iterations = 18.1

     negative rho (up, down):  4.820E-03 4.756E-03
 
     Adding external electric field

     Computed dipole along edir(3) : 
        Dipole                1.2996 Ry au,          3.3032 Debye
        Dipole field          0.0025 Ry au, 
 
        Potential amp.       -0.2273 Ry
        Total length         46.3494 bohr
 
 
     Adding external electric field

     Computed dipole along edir(3) : 
        Dipole                1.2996 Ry au,          3.3032 Debye
        Dipole field          0.0025 Ry au, 
 
        Potential amp.       -0.2273 Ry
        Total length         46.3494 bohr
 

     total cpu time spent up to now is     1185.9 secs

     total energy              =   -2921.63223508 Ry
     estimated scf accuracy    <       0.01849105 Ry

     total magnetization       =     0.06 Bohr mag/cell
     absolute magnetization    =     0.15 Bohr mag/cell

     iteration # 44     ecut=    29.40 Ry     beta= 0.05
     Davidson diagonalization with overlap
     c_bands:  2 eigenvalues not converged
     c_bands:  2 eigenvalues not converged
     c_bands:  1 eigenvalues not converged
     c_bands:  3 eigenvalues not converged
     ethr =  4.72E-06,  avg # of iterations = 11.8

     negative rho (up, down):  4.628E-03 4.561E-03
 
     Adding external electric field

     Computed dipole along edir(3) : 
        Dipole                1.3208 Ry au,          3.3570 Debye
        Dipole field          0.0025 Ry au, 
 
        Potential amp.       -0.2310 Ry
        Total length         46.3494 bohr
 
 
     Adding external electric field

     Computed dipole along edir(3) : 
        Dipole                1.3208 Ry au,          3.3570 Debye
        Dipole field          0.0025 Ry au, 
 
        Potential amp.       -0.2310 Ry
        Total length         46.3494 bohr
 

     total cpu time spent up to now is     1205.3 secs

     total energy              =   -2921.63102472 Ry
     estimated scf accuracy    <       0.01844253 Ry

     total magnetization       =     0.06 Bohr mag/cell
     absolute magnetization    =     0.15 Bohr mag/cell

     iteration # 45     ecut=    29.40 Ry     beta= 0.05
     Davidson diagonalization with overlap
     c_bands:  2 eigenvalues not converged
     c_bands:  3 eigenvalues not converged
     c_bands:  1 eigenvalues not converged
     ethr =  4.70E-06,  avg # of iterations = 10.2

     negative rho (up, down):  6.460E-03 6.410E-03
 
     Adding external electric field

     Computed dipole along edir(3) : 
        Dipole                1.3324 Ry au,          3.3866 Debye
        Dipole field          0.0025 Ry au, 
 
        Potential amp.       -0.2331 Ry
        Total length         46.3494 bohr
 
 
     Adding external electric field

     Computed dipole along edir(3) : 
        Dipole                1.3324 Ry au,          3.3866 Debye
        Dipole field          0.0025 Ry au, 
 
        Potential amp.       -0.2331 Ry
        Total length         46.3494 bohr
 

     total cpu time spent up to now is     1224.4 secs

     total energy              =   -2921.63059609 Ry
     estimated scf accuracy    <       0.01054926 Ry

     total magnetization       =     0.06 Bohr mag/cell
     absolute magnetization    =     0.15 Bohr mag/cell

     iteration # 46     ecut=    29.40 Ry     beta= 0.05
     Davidson diagonalization with overlap
     c_bands:  2 eigenvalues not converged
     c_bands:  3 eigenvalues not converged
     c_bands:  2 eigenvalues not converged
     c_bands:  3 eigenvalues not converged
     c_bands:  4 eigenvalues not converged
     c_bands:  3 eigenvalues not converged
     c_bands:  4 eigenvalues not converged
     c_bands:  1 eigenvalues not converged
     c_bands:  1 eigenvalues not converged
     c_bands:  4 eigenvalues not converged
     c_bands:  1 eigenvalues not converged
     c_bands:  2 eigenvalues not converged
     c_bands:  4 eigenvalues not converged
     c_bands:  1 eigenvalues not converged
     c_bands:  3 eigenvalues not converged
     c_bands:  2 eigenvalues not converged
     c_bands:  2 eigenvalues not converged
     ethr =  2.69E-06,  avg # of iterations = 19.6

     negative rho (up, down):  7.681E-03 7.659E-03
 
     Adding external electric field

     Computed dipole along edir(3) : 
        Dipole                1.2926 Ry au,          3.2855 Debye
        Dipole field          0.0024 Ry au, 
 
        Potential amp.       -0.2261 Ry
        Total length         46.3494 bohr
 
 
     Adding external electric field

     Computed dipole along edir(3) : 
        Dipole                1.2926 Ry au,          3.2855 Debye
        Dipole field          0.0024 Ry au, 
 
        Potential amp.       -0.2261 Ry
        Total length         46.3494 bohr
 

     total cpu time spent up to now is     1267.0 secs

     total energy              =   -2921.63035002 Ry
     estimated scf accuracy    <       0.01643020 Ry

     total magnetization       =     0.07 Bohr mag/cell
     absolute magnetization    =     0.14 Bohr mag/cell

     iteration # 47     ecut=    29.40 Ry     beta= 0.05
     Davidson diagonalization with overlap
     c_bands:  1 eigenvalues not converged
     c_bands:  1 eigenvalues not converged
     c_bands:  1 eigenvalues not converged
     c_bands:  1 eigenvalues not converged
     c_bands:  3 eigenvalues not converged
     c_bands:  1 eigenvalues not converged
     c_bands:  1 eigenvalues not converged
     c_bands:  2 eigenvalues not converged
     c_bands:  2 eigenvalues not converged
     c_bands:  2 eigenvalues not converged
     c_bands:  1 eigenvalues not converged
     c_bands:  1 eigenvalues not converged
     c_bands:  1 eigenvalues not converged
     c_bands:  1 eigenvalues not converged
     c_bands:  1 eigenvalues not converged
     ethr =  2.69E-06,  avg # of iterations = 19.2

     negative rho (up, down):  7.312E-03 7.282E-03
 
     Adding external electric field

     Computed dipole along edir(3) : 
        Dipole                1.2928 Ry au,          3.2859 Debye
        Dipole field          0.0024 Ry au, 
 
        Potential amp.       -0.2261 Ry
        Total length         46.3494 bohr
 
 
     Adding external electric field

     Computed dipole along edir(3) : 
        Dipole                1.2928 Ry au,          3.2859 Debye
        Dipole field          0.0024 Ry au, 
 
        Potential amp.       -0.2261 Ry
        Total length         46.3494 bohr
 

     total cpu time spent up to now is     1306.5 secs

     total energy              =   -2921.63241031 Ry
     estimated scf accuracy    <       0.00628021 Ry

     total magnetization       =     0.06 Bohr mag/cell
     absolute magnetization    =     0.13 Bohr mag/cell

     iteration # 48     ecut=    29.40 Ry     beta= 0.05
     Davidson diagonalization with overlap
     c_bands:  1 eigenvalues not converged
     c_bands:  1 eigenvalues not converged
     c_bands:  3 eigenvalues not converged
     ethr =  1.60E-06,  avg # of iterations = 13.4

     negative rho (up, down):  7.443E-03 7.410E-03
 
     Adding external electric field

     Computed dipole along edir(3) : 
        Dipole                1.3277 Ry au,          3.3747 Debye
        Dipole field          0.0025 Ry au, 
 
        Potential amp.       -0.2323 Ry
        Total length         46.3494 bohr
 
 
     Adding external electric field

     Computed dipole along edir(3) : 
        Dipole                1.3277 Ry au,          3.3747 Debye
        Dipole field          0.0025 Ry au, 
 
        Potential amp.       -0.2323 Ry
        Total length         46.3494 bohr
 

     total cpu time spent up to now is     1327.6 secs

     total energy              =   -2921.63241334 Ry
     estimated scf accuracy    <       0.00246965 Ry

     total magnetization       =     0.06 Bohr mag/cell
     absolute magnetization    =     0.13 Bohr mag/cell

     iteration # 49     ecut=    29.40 Ry     beta= 0.05
     Davidson diagonalization with overlap
     c_bands:  3 eigenvalues not converged
     c_bands:  2 eigenvalues not converged
     c_bands:  1 eigenvalues not converged
     c_bands:  1 eigenvalues not converged
     c_bands:  1 eigenvalues not converged
     c_bands:  1 eigenvalues not converged
     c_bands:  1 eigenvalues not converged
     c_bands:  2 eigenvalues not converged
     c_bands:  2 eigenvalues not converged
     c_bands:  1 eigenvalues not converged
     c_bands:  1 eigenvalues not converged
     c_bands:  1 eigenvalues not converged
     ethr =  6.30E-07,  avg # of iterations = 19.4

     negative rho (up, down):  8.187E-03 8.176E-03
 
     Adding external electric field

     Computed dipole along edir(3) : 
        Dipole                1.3020 Ry au,          3.3095 Debye
        Dipole field          0.0025 Ry au, 
 
        Potential amp.       -0.2278 Ry
        Total length         46.3494 bohr
 
 
     Adding external electric field

     Computed dipole along edir(3) : 
        Dipole                1.3020 Ry au,          3.3095 Debye
        Dipole field          0.0025 Ry au, 
 
        Potential amp.       -0.2278 Ry
        Total length         46.3494 bohr
 

     total cpu time spent up to now is     1359.8 secs

     total energy              =   -2921.63283323 Ry
     estimated scf accuracy    <       0.00177531 Ry

     total magnetization       =     0.06 Bohr mag/cell
     absolute magnetization    =     0.13 Bohr mag/cell

     iteration # 50     ecut=    29.40 Ry     beta= 0.05
     Davidson diagonalization with overlap
     c_bands:  1 eigenvalues not converged
     c_bands:  3 eigenvalues not converged
     ethr =  4.53E-07,  avg # of iterations = 15.0

     negative rho (up, down):  8.684E-03 8.684E-03
 
     Adding external electric field

     Computed dipole along edir(3) : 
        Dipole                1.3149 Ry au,          3.3421 Debye
        Dipole field          0.0025 Ry au, 
 
        Potential amp.       -0.2300 Ry
        Total length         46.3494 bohr
 
 
     Adding external electric field

     Computed dipole along edir(3) : 
        Dipole                1.3149 Ry au,          3.3421 Debye
        Dipole field          0.0025 Ry au, 
 
        Potential amp.       -0.2300 Ry
        Total length         46.3494 bohr
 

     total cpu time spent up to now is     1383.8 secs

     total energy              =   -2921.63303222 Ry
     estimated scf accuracy    <       0.00078049 Ry

     total magnetization       =     0.07 Bohr mag/cell
     absolute magnetization    =     0.13 Bohr mag/cell

     iteration # 51     ecut=    29.40 Ry     beta= 0.05
     Davidson diagonalization with overlap
     c_bands:  1 eigenvalues not converged
     c_bands:  2 eigenvalues not converged
     c_bands:  1 eigenvalues not converged
     c_bands:  2 eigenvalues not converged
     ethr =  1.99E-07,  avg # of iterations = 17.2

     negative rho (up, down):  8.455E-03 8.453E-03
 
     Adding external electric field

     Computed dipole along edir(3) : 
        Dipole                1.2997 Ry au,          3.3035 Debye
        Dipole field          0.0025 Ry au, 
 
        Potential amp.       -0.2274 Ry
        Total length         46.3494 bohr
 
 
     Adding external electric field

     Computed dipole along edir(3) : 
        Dipole                1.2997 Ry au,          3.3035 Debye
        Dipole field          0.0025 Ry au, 
 
        Potential amp.       -0.2274 Ry
        Total length         46.3494 bohr
 

     total cpu time spent up to now is     1408.9 secs

     total energy              =   -2921.63304926 Ry
     estimated scf accuracy    <       0.00076440 Ry

     total magnetization       =     0.07 Bohr mag/cell
     absolute magnetization    =     0.13 Bohr mag/cell

     iteration # 52     ecut=    29.40 Ry     beta= 0.05
     Davidson diagonalization with overlap
     ethr =  1.95E-07,  avg # of iterations =  1.6

     negative rho (up, down):  8.354E-03 8.351E-03
 
     Adding external electric field

     Computed dipole along edir(3) : 
        Dipole                1.2918 Ry au,          3.2833 Debye
        Dipole field          0.0024 Ry au, 
 
        Potential amp.       -0.2260 Ry
        Total length         46.3494 bohr
 
 
     Adding external electric field

     Computed dipole along edir(3) : 
        Dipole                1.2918 Ry au,          3.2833 Debye
        Dipole field          0.0024 Ry au, 
 
        Potential amp.       -0.2260 Ry
        Total length         46.3494 bohr
 

     total cpu time spent up to now is     1423.0 secs

     total energy              =   -2921.63305787 Ry
     estimated scf accuracy    <       0.00027057 Ry

     total magnetization       =     0.07 Bohr mag/cell
     absolute magnetization    =     0.12 Bohr mag/cell

     iteration # 53     ecut=    29.40 Ry     beta= 0.05
     Davidson diagonalization with overlap
     c_bands:  1 eigenvalues not converged
     c_bands:  1 eigenvalues not converged
     c_bands:  2 eigenvalues not converged
     c_bands:  1 eigenvalues not converged
     ethr =  6.90E-08,  avg # of iterations = 16.4

     negative rho (up, down):  8.535E-03 8.536E-03
 
     Adding external electric field

     Computed dipole along edir(3) : 
        Dipole                1.2932 Ry au,          3.2870 Debye
        Dipole field          0.0024 Ry au, 
 
        Potential amp.       -0.2262 Ry
        Total length         46.3494 bohr
 
 
     Adding external electric field

     Computed dipole along edir(3) : 
        Dipole                1.2932 Ry au,          3.2870 Debye
        Dipole field          0.0024 Ry au, 
 
        Potential amp.       -0.2262 Ry
        Total length         46.3494 bohr
 

     total cpu time spent up to now is     1448.2 secs

     total energy              =   -2921.63310376 Ry
     estimated scf accuracy    <       0.00011711 Ry

     total magnetization       =     0.07 Bohr mag/cell
     absolute magnetization    =     0.12 Bohr mag/cell

     iteration # 54     ecut=    29.40 Ry     beta= 0.05
     Davidson diagonalization with overlap
     c_bands:  1 eigenvalues not converged
     c_bands:  1 eigenvalues not converged
     ethr =  2.99E-08,  avg # of iterations = 14.3

     negative rho (up, down):  8.662E-03 8.665E-03
 
     Adding external electric field

     Computed dipole along edir(3) : 
        Dipole                1.3009 Ry au,          3.3066 Debye
        Dipole field          0.0025 Ry au, 
 
        Potential amp.       -0.2276 Ry
        Total length         46.3494 bohr
 
 
     Adding external electric field

     Computed dipole along edir(3) : 
        Dipole                1.3009 Ry au,          3.3066 Debye
        Dipole field          0.0025 Ry au, 
 
        Potential amp.       -0.2276 Ry
        Total length         46.3494 bohr
 

[...]
    -0.3181  -0.2953  -0.2671  -0.1323  -0.1255  -0.0697  -0.0469  -0.0042
     0.0532   0.0947   0.1100   0.1788   0.2121   0.2562   0.2965   0.3040
     0.3281   0.3840   0.4211   0.4942   0.5085   0.5368   0.5759   0.5881
     0.6704   0.7581   0.8434   0.9825   1.2302   1.3659   1.5197   1.6205
     1.7609   2.0719   2.1501   3.6847   3.7782   3.9305   3.9703   3.9956
     4.0593   4.1099   4.1229   4.1601   4.1683   4.1810

          k = 0.0380 0.0419 0.0000 ( 17878 PWs)   bands (ev):

   -55.4256 -55.3994 -55.3712 -55.3539 -55.3471 -55.3091 -55.3049 -55.2804
   -55.2476 -55.2336 -55.2232 -55.2070 -55.1831 -55.1159 -54.4084 -54.3844
   -31.9438 -31.8497 -31.8201 -31.7505 -31.7343 -31.6935 -31.6914 -31.6787
   -31.6733 -31.6627 -31.6589 -31.6229 -31.6176 -31.6159 -31.6091 -31.6035
   -31.5758 -31.5699 -31.5686 -31.5513 -31.5344 -31.5170 -31.5106 -31.5060
   -31.4977 -31.4936 -31.4788 -31.4681 -31.4589 -31.4502 -31.4455 -31.4425
   -31.4315 -31.4148 -31.4069 -31.4066 -31.4018 -31.4005 -31.3769 -31.3507
   -31.3375 -31.3224 -30.7683 -30.7277 -30.7083 -30.6262 -30.5649 -30.4986
   -16.1811 -16.0556 -15.8002 -15.7756 -15.6181 -15.4856 -15.4666 -15.4231
   -15.3608 -15.3184 -15.2421 -15.2280 -15.1823 -15.1279 -15.1125 -15.0919
   -15.0798 -15.0402 -14.9892 -14.9637 -14.9089 -14.8873 -14.8596 -14.8505
   -14.8122 -14.7580 -14.7249 -14.7154 -14.6609 -14.3989 -12.9182 -12.8390
   -10.2345  -6.3037  -4.8310  -3.9334  -3.3189  -3.1686  -3.0558  -2.9858
    -2.9303  -2.8970  -2.8634  -2.8332  -2.7935  -2.7444  -2.6946  -2.6289
    -2.5553  -2.5271  -2.4807  -2.4584  -2.4289  -2.3807  -2.3393  -2.3022
    -2.2656  -2.2451  -2.2226  -2.1940  -2.1391  -2.1298  -2.0737  -2.0401
    -2.0158  -1.9440  -1.8995  -1.8818  -1.8337  -1.7984  -1.7312  -1.6467
    -1.5046  -1.4529  -1.4398  -1.3803  -1.2614  -1.2262  -1.1614  -1.0830
    -1.0193  -0.9751  -0.9241  -0.8720  -0.8634  -0.8120  -0.7874  -0.7503
    -0.7040  -0.6742  -0.6103  -0.5655  -0.5296  -0.5147  -0.4054  -0.3857
    -0.3754  -0.3339  -0.2772  -0.2204  -0.1946  -0.1548  -0.1317  -0.0940
    -0.0744  -0.0531  -0.0191   0.0359   0.1184   0.1308   0.1724   0.2157
     0.2860   0.3064   0.3699   0.4543   0.5090   0.5534   0.6244   0.6680
     0.7181   0.8032   0.8449   0.9731   0.9867   1.1606   1.3371   1.8029
     1.8714   2.0616   2.1250   3.8532   3.8703   3.8960   4.0114   4.0340
     4.0724   4.0995   4.1719   4.2195   4.2447   4.2753

          k = 0.0380-0.0839 0.0000 ( 17916 PWs)   bands (ev):

   -55.4159 -55.4093 -55.3596 -55.3588 -55.3532 -55.3072 -55.2945 -55.2908
   -55.2374 -55.2356 -55.2335 -55.1954 -55.1948 -55.1166 -54.3966 -54.3963
   -31.8067 -31.8048 -31.8019 -31.7156 -31.6906 -31.6878 -31.6872 -31.6496
   -31.6490 -31.6331 -31.6294 -31.6259 -31.6219 -31.5981 -31.5856 -31.5777
   -31.5754 -31.5688 -31.5652 -31.5635 -31.5616 -31.5588 -31.5149 -31.5122
   -31.5039 -31.5023 -31.4989 -31.4796 -31.4790 -31.4773 -31.4756 -31.4745
   -31.4719 -31.4702 -31.4663 -31.4239 -31.4065 -31.4038 -31.3802 -31.3763
   -31.3748 -31.3216 -30.7181 -30.7179 -30.6355 -30.6353 -30.5957 -30.5955
   -16.1546 -15.8358 -15.7400 -15.6226 -15.5386 -15.5212 -15.4085 -15.3920
   -15.3219 -15.3058 -15.3020 -15.2507 -15.1787 -15.1483 -15.0653 -15.0583
   -15.0573 -15.0272 -15.0201 -15.0159 -14.9368 -14.9192 -14.8703 -14.8638
   -14.8287 -14.8078 -14.7959 -14.7762 -14.7752 -14.5803 -12.9012 -12.9011
   -10.2338  -6.2916  -4.8277  -3.9306  -2.9617  -2.9342  -2.9005  -2.8958
    -2.7291  -2.7011  -2.6996  -2.6525  -2.6271  -2.6109  -2.5785  -2.5537
    -2.5392  -2.5132  -2.5095  -2.4882  -2.4803  -2.4188  -2.4141  -2.3742
    -2.3470  -2.3189  -2.2825  -2.2737  -2.2062  -2.1694  -2.1357  -2.1121
    -2.0892  -2.0573  -2.0103  -1.9342  -1.7202  -1.6682  -1.6203  -1.5815
    -1.4974  -1.4458  -1.4021  -1.3698  -1.3252  -1.2991  -1.2153  -1.1815
    -1.1593  -1.1159  -1.1142  -1.0364  -0.9997  -0.9064  -0.8578  -0.7895
    -0.7743  -0.7354  -0.6994  -0.5305  -0.5164  -0.4802  -0.4453  -0.4027
    -0.3754  -0.2951  -0.2632  -0.2450  -0.2312  -0.1994  -0.1454  -0.0779
    -0.0706  -0.0476  -0.0051   0.0344   0.0504   0.0691   0.0888   0.2621
     0.2871   0.3004   0.3330   0.4317   0.4582   0.6266   0.6293   0.6470
     0.7023   0.7851   0.8062   0.8816   0.8878   1.1148   1.1222   1.9475
     1.9481   2.0657   2.0664   3.8478   3.9114   3.9577   3.9812   4.0708
     4.1272   4.1410   4.1492   4.2551   4.2764   4.3193

          k = 0.0380-0.0419 0.0000 ( 17876 PWs)   bands (ev):

   -55.4256 -55.3994 -55.3712 -55.3539 -55.3471 -55.3091 -55.3049 -55.2804
   -55.2476 -55.2336 -55.2232 -55.2070 -55.1831 -55.1159 -54.4084 -54.3844
   -31.9438 -31.8497 -31.8201 -31.7505 -31.7343 -31.6935 -31.6914 -31.6787
   -31.6733 -31.6627 -31.6589 -31.6229 -31.6176 -31.6159 -31.6090 -31.6035
   -31.5757 -31.5699 -31.5686 -31.5513 -31.5344 -31.5169 -31.5106 -31.5057
   -31.4978 -31.4937 -31.4788 -31.4679 -31.4589 -31.4502 -31.4454 -31.4425
   -31.4317 -31.4156 -31.4067 -31.4061 -31.4018 -31.4005 -31.3769 -31.3507
   -31.3375 -31.3223 -30.7683 -30.7277 -30.7083 -30.6262 -30.5649 -30.4986
   -16.1819 -16.0546 -15.7986 -15.7761 -15.6184 -15.4865 -15.4666 -15.4228
   -15.3603 -15.3184 -15.2439 -15.2257 -15.1835 -15.1288 -15.1128 -15.0957
   -15.0802 -15.0374 -14.9891 -14.9637 -14.9087 -14.8869 -14.8584 -14.8498
   -14.8121 -14.7573 -14.7248 -14.7157 -14.6612 -14.3993 -12.9182 -12.8390
   -10.2345  -6.3041  -4.8307  -3.9312  -3.3188  -3.1687  -3.0561  -2.9889
    -2.9281  -2.9004  -2.8635  -2.8206  -2.7897  -2.7456  -2.6965  -2.6324
    -2.5605  -2.5261  -2.4806  -2.4634  -2.4286  -2.3790  -2.3385  -2.3062
    -2.2661  -2.2412  -2.2333  -2.1936  -2.1375  -2.1299  -2.0742  -2.0430
    -2.0157  -1.9457  -1.8975  -1.8733  -1.8395  -1.7944  -1.7280  -1.6446
    -1.5058  -1.4534  -1.4353  -1.3790  -1.2585  -1.2270  -1.1605  -1.0967
    -1.0111  -0.9796  -0.9246  -0.8747  -0.8557  -0.8200  -0.7888  -0.7468
    -0.7069  -0.6782  -0.6098  -0.5515  -0.5350  -0.5184  -0.4072  -0.3870
    -0.3747  -0.3353  -0.2628  -0.2329  -0.1979  -0.1468  -0.1298  -0.0910
    -0.0650  -0.0541  -0.0215   0.0354   0.1139   0.1320   0.1721   0.2155
     0.2866   0.3054   0.3694   0.4528   0.5149   0.5511   0.6176   0.6658
     0.7170   0.8068   0.8458   0.9728   0.9863   1.1608   1.3371   1.8030
     1.8714   2.0614   2.1256   3.8556   3.8694   3.8964   4.0114   4.0354
     4.0742   4.0981   4.1786   4.2235   4.2434   4.2791

          k =-0.0760-0.0000 0.0000 ( 17886 PWs)   bands (ev):

   -55.4307 -55.3943 -55.3762 -55.3545 -55.3421 -55.3109 -55.3099 -55.2754
   -55.2524 -55.2317 -55.2182 -55.2121 -55.1782 -55.1152 -54.4134 -54.3794
   -32.0011 -31.8878 -31.8752 -31.8094 -31.7504 -31.7468 -31.7427 -31.7177
   -31.6712 -31.6637 -31.6398 -31.6203 -31.6170 -31.6002 -31.5989 -31.5869
   -31.5737 -31.5583 -31.5568 -31.5306 -31.5301 -31.5230 -31.5214 -31.4951
   -31.4942 -31.4846 -31.4834 -31.4552 -31.4543 -31.4395 -31.4318 -31.4160
   -31.4132 -31.4110 -31.4058 -31.4055 -31.3644 -31.3518 -31.3400 -31.3271
   -31.3240 -31.2993 -30.8220 -30.7354 -30.7030 -30.6388 -30.5520 -30.4414
   -16.1828 -16.0639 -15.9238 -15.7534 -15.6591 -15.5170 -15.4897 -15.4714
   -15.3409 -15.3178 -15.2962 -15.2809 -15.2418 -15.2118 -15.1859 -15.1571
   -15.1475 -15.0655 -14.9340 -14.9231 -14.8674 -14.8565 -14.8467 -14.8414
   -14.7647 -14.7210 -14.6781 -14.6000 -14.5663 -14.2793 -12.9105 -12.7988
   -10.2379  -6.3168  -4.8380  -3.9108  -3.4614  -3.3033  -3.0825  -3.0160
    -2.9648  -2.9342  -2.9273  -2.9137  -2.8628  -2.8510  -2.7924  -2.7469
    -2.6783  -2.6625  -2.5028  -2.3809  -2.3486  -2.2778  -2.1758  -2.1737
    -2.0766  -2.0476  -2.0222  -1.9939  -1.9853  -1.9493  -1.9148  -1.8818
    -1.8327  -1.8025  -1.7876  -1.7656  -1.7552  -1.7391  -1.7219  -1.6356
    -1.5792  -1.5348  -1.4296  -1.3960  -1.2598  -1.1709  -1.1338  -1.0868
    -1.0786  -1.0493  -1.0440  -1.0045  -0.9979  -0.9715  -0.9366  -0.8740
    -0.8270  -0.7889  -0.7335  -0.7123  -0.6356  -0.6108  -0.4296  -0.3995
    -0.3560  -0.3423  -0.2958  -0.2106  -0.1529  -0.1411  -0.0964  -0.0391
    -0.0150   0.0420   0.0633   0.0793   0.1440   0.1605   0.2220   0.2514
     0.3069   0.3221   0.3650   0.3891   0.4100   0.4504   0.5071   0.5591
     0.6901   0.7978   0.8148   1.0502   1.0913   1.2561   1.5243   1.6419
     1.7360   1.9418   2.0948   3.6848   3.7349   3.8135   3.9398   3.9892
     4.0534   4.1109   4.1528   4.1590   4.1808   4.2449

          k =-0.0760 0.0419 0.0000 ( 17914 PWs)   bands (ev):

   -55.4256 -55.3995 -55.3712 -55.3538 -55.3471 -55.3091 -55.3050 -55.2804
   -55.2475 -55.2336 -55.2232 -55.2071 -55.1832 -55.1159 -54.4084 -54.3844
   -31.9441 -31.8499 -31.8212 -31.7566 -31.7344 -31.6978 -31.6956 -31.6789
   -31.6739 -31.6628 -31.6589 -31.6227 -31.6178 -31.6097 -31.6037 -31.5981
   -31.5696 -31.5596 -31.5578 -31.5516 -31.5344 -31.5174 -31.5158 -31.5087
   -31.4938 -31.4832 -31.4796 -31.4674 -31.4616 -31.4589 -31.4529 -31.4452
   -31.4198 -31.4185 -31.4148 -31.4090 -31.4067 -31.4022 -31.3774 -31.3508
   -31.3374 -31.3261 -30.7680 -30.7307 -30.7076 -30.6262 -30.5649 -30.4987
   -16.1659 -15.9477 -15.8502 -15.6782 -15.5681 -15.4762 -15.4131 -15.3965
   -15.3604 -15.2828 -15.2457 -15.2353 -15.2250 -15.1942 -15.1676 -15.1400
   -15.1311 -15.0556 -15.0231 -14.9841 -14.9041 -14.9007 -14.8714 -14.8607
   -14.8179 -14.8124 -14.7220 -14.6877 -14.6733 -14.3980 -12.9160 -12.8393
   -10.2369  -6.3025  -4.8323  -3.9182  -3.2955  -3.1483  -2.9376  -2.8500
    -2.8251  -2.7667  -2.7361  -2.7001  -2.6546  -2.6443  -2.6382  -2.5823
    -2.5414  -2.4626  -2.4532  -2.4094  -2.3860  -2.3758  -2.3187  -2.2537
    -2.2402  -2.1601  -2.1534  -2.1153  -2.0639  -2.0400  -2.0218  -1.9905
    -1.9879  -1.9640  -1.9303  -1.8944  -1.8398  -1.6653  -1.6485  -1.6081
    -1.5854  -1.5101  -1.4172  -1.2916  -1.2115  -1.1961  -1.1830  -1.1083
    -1.0700  -1.0252  -1.0099  -0.9683  -0.9385  -0.8598  -0.8447  -0.8218
    -0.7877  -0.7685  -0.7110  -0.6922  -0.6475  -0.6398  -0.6172  -0.5559
    -0.5243  -0.4882  -0.4199  -0.4069  -0.3516  -0.2402  -0.2341  -0.1977
    -0.1779  -0.1334  -0.1127   0.0088   0.0400   0.1027   0.1165   0.2199
     0.2917   0.3109   0.3859   0.4372   0.4659   0.5169   0.6527   0.7593
     0.7799   0.8359   0.8952   0.9791   1.0637   1.0793   1.2204   1.8182
     1.8736   1.9839   2.1140   3.8442   3.8692   3.8951   3.9028   3.9820
     4.0285   4.0708   4.1327   4.1908   4.2814   4.3070

          k =-0.0760-0.0839 0.0000 ( 17948 PWs)   bands (ev):

   -55.4159 -55.4093 -55.3596 -55.3588 -55.3532 -55.3072 -55.2945 -55.2909
   -55.2373 -55.2356 -55.2334 -55.1955 -55.1949 -55.1166 -54.3966 -54.3963
   -31.8070 -31.8050 -31.8022 -31.7157 -31.6909 -31.6886 -31.6880 -31.6497
   -31.6491 -31.6410 -31.6336 -31.6295 -31.6237 -31.5982 -31.5873 -31.5709
   -31.5700 -31.5658 -31.5623 -31.5578 -31.5572 -31.5534 -31.5154 -31.5071
   -31.5052 -31.5034 -31.5016 -31.4874 -31.4829 -31.4776 -31.4770 -31.4702
   -31.4664 -31.4502 -31.4463 -31.4289 -31.4262 -31.4244 -31.3795 -31.3764
   -31.3747 -31.3262 -30.7191 -30.7189 -30.6355 -30.6353 -30.5957 -30.5956
   -16.1514 -15.7796 -15.6877 -15.6403 -15.4668 -15.4377 -15.4211 -15.4060
   -15.2738 -15.2552 -15.2315 -15.2036 -15.1816 -15.1470 -15.1375 -15.1348
   -15.0552 -15.0411 -15.0341 -15.0183 -14.9522 -14.9423 -14.9401 -14.9327
   -14.8828 -14.8791 -14.8160 -14.7862 -14.7831 -14.5727 -12.9010 -12.9009
   -10.2359  -6.2898  -4.8268  -3.9245  -2.9585  -2.9368  -2.8944  -2.8901
    -2.6817  -2.6406  -2.6052  -2.5797  -2.4897  -2.4501  -2.4345  -2.4269
    -2.3554  -2.3382  -2.3208  -2.2758  -2.2696  -2.2561  -2.2339  -2.2038
    -2.1814  -2.1624  -2.1530  -2.1341  -2.0880  -2.0768  -2.0528  -2.0372
    -2.0341  -2.0160  -1.9881  -1.9418  -1.8149  -1.8068  -1.7394  -1.6401
    -1.6354  -1.5589  -1.5457  -1.5102  -1.4851  -1.4659  -1.4235  -1.2502
    -1.2064  -1.1799  -1.1703  -1.1135  -1.0489  -1.0255  -0.9553  -0.9398
    -0.9210  -0.8171  -0.7725  -0.7577  -0.6680  -0.6556  -0.5774  -0.5126
    -0.4682  -0.4419  -0.3959  -0.3898  -0.3876  -0.3397  -0.3322  -0.2509
    -0.2037  -0.1679  -0.1538  -0.1234   0.0731   0.0839   0.1102   0.2505
     0.2789   0.4027   0.4369   0.4887   0.5639   0.5964   0.6780   0.7135
     0.8431   0.8720   0.8735   0.9460   0.9574   1.0196   1.0291   1.9652
     1.9658   2.0529   2.0532   3.8272   3.9049   3.9289   3.9708   4.0829
     4.1559   4.1842   4.2048   4.2528   4.2554   4.3206

     the Fermi energy is     3.7280 ev

!    total energy              =   -2921.63325392 Ry
     estimated scf accuracy    <       0.00000007 Ry
     smearing contrib. (-TS)   =      -0.03707689 Ry
     internal energy E=F+TS    =   -2921.59617702 Ry

     The total energy is F=E-TS. E is the sum of the following terms:
     one-electron contribution =  -24028.65308849 Ry
     hartree contribution      =   12103.40497331 Ry
     xc contribution           =    -481.75442892 Ry
     ewald contribution        =    9485.40319335 Ry
     electric field correction =       0.00317372 Ry

     total magnetization       =     0.08 Bohr mag/cell
     absolute magnetization    =     0.11 Bohr mag/cell

     convergence has been achieved in  79 iterations

     Forces acting on atoms (cartesian axes, Ry/au):

     atom    1 type  1   force =     0.00002963   -0.00021593    0.09330026
     atom    2 type  1   force =    -0.00019149   -0.00036708   -0.17831578
     atom    3 type  2   force =     0.00002844   -0.00039724   -0.02020781
     atom    4 type  2   force =    -0.00002659   -0.00194991    0.05878977
     atom    5 type  2   force =    -0.01020263   -0.00112009    0.00777348
     atom    6 type  2   force =     0.01167691   -0.00040126    0.00693821
     atom    7 type  1   force =    -0.00049065    0.00210693   -0.01457567
     atom    8 type  1   force =     0.00024502   -0.00049961   -0.00480423
     atom    9 type  2   force =     0.00015228    0.00011722   -0.00005801
     atom   10 type  2   force =    -0.00113617    0.00137686    0.00052420
     atom   11 type  2   force =    -0.00011187    0.00015888    0.00005954
     atom   12 type  2   force =    -0.00002386    0.00036431    0.00023504
     atom   13 type  1   force =    -0.00005097   -0.00018667   -0.00018802
     atom   14 type  1   force =    -0.00014832    0.00011929    0.00029655
     atom   15 type  2   force =    -0.00020213   -0.00028817    0.00008916
     atom   16 type  2   force =    -0.00022620    0.00019491    0.00016068
     atom   17 type  2   force =     0.00014103   -0.00013034    0.00002740
     atom   18 type  2   force =    -0.00008047   -0.00019728    0.00019285
     atom   19 type  1   force =    -0.00023966    0.00029027    0.00046219
     atom   20 type  1   force =    -0.00005616   -0.00012944   -0.00055971
     atom   21 type  2   force =     0.00002966   -0.00006241    0.10395231
     atom   22 type  2   force =     0.00025210    0.00042545    0.00016016
     atom   23 type  2   force =    -0.07043451   -0.00015268   -0.02693927
     atom   24 type  2   force =     0.07027593    0.00028844   -0.02698686
     atom   25 type  1   force =    -0.00001316   -0.00015145    0.09281340
     atom   26 type  1   force =    -0.00021167   -0.00048225   -0.17833199
     atom   27 type  2   force =     0.00008686   -0.00026740   -0.01927640
     atom   28 type  2   force =     0.00004274   -0.00171594    0.05813232
     atom   29 type  2   force =    -0.01072600   -0.00111326    0.00833298
     atom   30 type  2   force =     0.01207324   -0.00083656    0.00745526
     atom   31 type  1   force =    -0.00039842    0.00595484   -0.01544704
     atom   32 type  1   force =     0.00022271   -0.00004079   -0.00517951
     atom   33 type  2   force =    -0.00007873    0.00001246    0.00008777
     atom   34 type  2   force =    -0.00101412   -0.00248390   -0.00001974
     atom   35 type  2   force =    -0.00006505    0.00023704   -0.00006188
     atom   36 type  2   force =    -0.00011939    0.00009393    0.00000118
     atom   37 type  1   force =    -0.00002982    0.00006160   -0.00022207
     atom   38 type  1   force =    -0.00007675    0.00000123    0.00011841
     atom   39 type  2   force =     0.00022183   -0.00003662    0.00017566
     atom   40 type  2   force =    -0.00030418    0.00024258   -0.00005996
     atom   41 type  2   force =     0.00019021    0.00046603    0.00007962
     atom   42 type  2   force =    -0.00006966    0.00013544    0.00034113
     atom   43 type  1   force =    -0.00027716    0.00030561    0.00009880
     atom   44 type  1   force =     0.00000210   -0.00025641    0.00003242
     atom   45 type  2   force =     0.00001869   -0.00007395    0.10391803
     atom   46 type  2   force =    -0.07040906   -0.00010241   -0.02688966
     atom   47 type  2   force =     0.07025633    0.00032688   -0.02693846
     atom   48 type  3   force =     0.00560339    0.00482348   -0.00013784
     atom   49 type  4   force =     0.00032337    0.00058531   -0.00017539
     atom   50 type  5   force =     0.00081014    0.00092161    0.00006228
     atom   51 type  5   force =     0.00017249    0.00024625   -0.00053786
     atom   52 type  5   force =     0.00014500   -0.00038189    0.00001296
     atom   53 type  5   force =    -0.00038247   -0.00009000    0.00152834
     atom   54 type  5   force =    -0.00520279   -0.00572591   -0.00023919

     Total force =     0.366409     Total SCF correction =     0.000416
  @ DRIVER MODE: Message from server: STATUS
  @ DRIVER MODE: Message from server: GETFORCE
  @ DRIVER MODE: Returning v,forces,stress,ensemble 

     Writing output data file ./calc.save/
  @ DRIVER MODE: Message from server: EXIT
  @ DRIVE MODE: Exiting  
 
     init_run     :     19.32s CPU     19.51s WALL (       1 calls)
     electrons    :   2060.11s CPU   2086.76s WALL (       1 calls)
     forces       :      3.19s CPU      3.26s WALL (       1 calls)

     Called by init_run:
     wfcinit      :      8.76s CPU      8.85s WALL (       1 calls)
     potinit      :      8.48s CPU      8.54s WALL (       1 calls)
     hinit0       :      1.03s CPU      1.04s WALL (       1 calls)

     Called by electrons:
     c_bands      :   1762.99s CPU   1778.10s WALL (      79 calls)
     sum_band     :    221.34s CPU    226.57s WALL (      79 calls)
     v_of_rho     :     54.06s CPU     56.77s WALL (      80 calls)
     newd         :     16.19s CPU     18.95s WALL (      80 calls)
     mix_rho      :     11.06s CPU     11.49s WALL (      79 calls)
     vdW_kernel   :      6.15s CPU      6.17s WALL (       1 calls)

     Called by c_bands:
     init_us_2    :      9.67s CPU      9.71s WALL (    3200 calls)
     cegterg      :   1734.50s CPU   1748.76s WALL (    1600 calls)

     Called by *egterg:
     cdiaghg      :    426.94s CPU    428.71s WALL (   18338 calls)
     h_psi        :    825.59s CPU    836.26s WALL (   18358 calls)
     s_psi        :     97.11s CPU     97.44s WALL (   18358 calls)
     g_psi        :      2.38s CPU      2.40s WALL (   16738 calls)

     Called by h_psi:
     h_psi:calbec :     99.17s CPU     99.62s WALL (   18358 calls)
     vloc_psi     :    623.49s CPU    633.34s WALL (   18358 calls)
     add_vuspsi   :     98.39s CPU     98.76s WALL (   18358 calls)

     General routines
     calbec       :    130.82s CPU    131.43s WALL (   20018 calls)
     fft          :     33.02s CPU     34.36s WALL (    7117 calls)
     ffts         :      0.39s CPU      0.40s WALL (     318 calls)
     fftw         :    746.00s CPU    758.75s WALL ( 2096156 calls)
     interpolate  :      0.99s CPU      1.02s WALL (     160 calls)
     davcio       :      0.00s CPU      0.26s WALL (      20 calls)
 
     Parallel routines
 
     PWSCF        :  34m53.07s CPU  35m20.41s WALL

 
   This run was terminated on:  12:58:17  21Jul2021            

=------------------------------------------------------------------------------=
   JOB DONE.
=------------------------------------------------------------------------------=
