
     Program PWSCF v.6.7GPU starts on 16Sep2021 at  1:27:44 

     This program is part of the open-source Quantum ESPRESSO suite
     for quantum simulation of materials; please cite
         "P. Giannozzi et al., J. Phys.:Condens. Matter 21 395502 (2009);
         "P. Giannozzi et al., J. Phys.:Condens. Matter 29 465901 (2017);
         "P. Giannozzi et al., J. Chem. Phys. 152 154105 (2020);
          URL http://www.quantum-espresso.org", 
     in publications or presentations arising from this work. More details at
     http://www.quantum-espresso.org/quote

     Parallel version (MPI), running on    10 processors

     MPI processes distributed on     1 nodes
     R & G space division:  proc/nbgrp/npool/nimage =      10
     Reading input from /storage/home/hcoda1/3/ntian30/research/carbon/CxH_vib/H2O_calc/ads_slab/CH3OHH2O_e/out_0031/pw.inp
Warning: card &CELL ignored
Warning: card   CELL_DYNAMICS='IPI', ignored
Warning: card / ignored

     Current dimensions of program PWSCF are:
     Max number of different atomic species (ntypx) = 10
     Max number of k-points (npk) =  40000
     Max angular momentum in pseudopotentials (lmaxx) =  3
     Presently no symmetry can be used with electric field

     Message from routine cell_base_init:
     DEPRECATED: use true lattice parameter, not A to a.u. conversion factor

     **************************************************************************
     Initializing libbeef V0.1.2 with the BEEF-vdW functional.
     Citation: Wellendorff et al., PRB 85, 235149 (2012).
     **************************************************************************


     IMPORTANT: XC functional enforced from input :
     Exchange-correlation= BEEF-VDW
                           (   1   4  43  14   2   0   0)
     Any further DFT definition will be discarded
     Please, verify this is what you really want


     Subspace diagonalization in iterative solution of the eigenvalue problem:
     one sub-group per band group will be used
     scalapack distributed-memory algorithm (size of sub-group:  3*  3 procs)

  @ DRIVER MODE: Connecting to 
 qe_1139763_2852623.sched-torque.pace.gatech.edu2pj_soi3_scratch
  using UNIX socket
  @ DRIVER MODE: Message from server: STATUS
  @ DRIVER MODE: Message from server: INIT
  @ DRIVER MODE: Receiving replica           0          -1
  @ DRIVER MODE: Receiving encoded integer          25
  @ DRIVER MODE:  SCF:  T  FORCE:  T  STRESS:  F  VC:  F  ENSEMBLE:  F
  @ DRIVER MODE:  SCF:  T  FORCE:  T  STRESS:  F  VC:  F  ENSEMBLE:  F
 
     Parallelization info
     --------------------
     sticks:   dense  smooth     PW     G-vecs:    dense   smooth      PW
     Min         327     131     37                56683    14340    2191
     Max         328     133     38                56694    14346    2206
     Sum        3275    1317    379               566857   143421   21985
 
     Using Slab Decomposition
 


     bravais-lattice index     =            0
     lattice parameter (alat)  =       1.8897  a.u.
     unit-cell volume          =    6658.9804 (a.u.)^3
     number of atoms/cell      =           56
     number of atomic types    =            4
     number of electrons       =       400.00
     number of Kohn-Sham states=          210
     kinetic-energy cutoff     =      29.3995  Ry
     charge density cutoff     =     293.9946  Ry
     scf convergence threshold =      7.3E-08
     mixing beta               =       0.0500
     number of iterations used =            8  plain     mixing
     Exchange-correlation= BEEF-VDW
                           (   1   4  43  14   2   0   0)

     celldm(1)=   1.889726  celldm(2)=   0.000000  celldm(3)=   0.000000
     celldm(4)=   0.000000  celldm(5)=   0.000000  celldm(6)=   0.000000

     crystal axes: (cart. coord. in units of alat)
               a(1) = (   6.579727   0.000000   0.000000 )  
               a(2) = (  -0.000775   5.961596   0.000000 )  
               a(3) = (   0.000000   0.000000  25.155947 )  

     reciprocal axes: (cart. coord. in units 2 pi/alat)
               b(1) = (  0.151982  0.000020  0.000000 )  
               b(2) = (  0.000000  0.167740  0.000000 )  
               b(3) = (  0.000000  0.000000  0.039752 )  


     PseudoPot. # 1 for Ti read from file:
     /storage/coda1/p-amedford6/0/shared/rich_project_chbe-medford/medford-share/data/pseudos_module/espresso/nninc/pbe/van/Ti.UPF
     MD5 check sum: 8e4df49b7f0d34bbd5052bf3f5ea0213
     Pseudo is Ultrasoft, Zval = 12.0
     Generated by new atomic code, or converted to UPF format
     Using radial grid of  851 points,  6 beta functions with: 
                l(1) =   0
                l(2) =   0
                l(3) =   1
                l(4) =   1
                l(5) =   2
                l(6) =   2
     Q(r) pseudized with  8 coefficients,  rinner =    1.000   1.000   1.000
                                                       1.000   1.000

     PseudoPot. # 2 for O  read from file:
     /storage/coda1/p-amedford6/0/shared/rich_project_chbe-medford/medford-share/data/pseudos_module/espresso/nninc/pbe/van/O.UPF
     MD5 check sum: 78c19812648e8988a0fe644b0f25305e
     Pseudo is Ultrasoft, Zval =  6.0
     Generated by new atomic code, or converted to UPF format
     Using radial grid of  737 points,  4 beta functions with: 
                l(1) =   0
                l(2) =   0
                l(3) =   1
                l(4) =   1
     Q(r) pseudized with  8 coefficients,  rinner =    0.800   0.800   0.800


     PseudoPot. # 3 for C  read from file:
     /storage/coda1/p-amedford6/0/shared/rich_project_chbe-medford/medford-share/data/pseudos_module/espresso/nninc/pbe/van/C.UPF
     MD5 check sum: 1a69bf6b8db32088f5b2163dbdb77a27
     Pseudo is Ultrasoft, Zval =  4.0
     Generated by new atomic code, or converted to UPF format
     Using radial grid of  721 points,  4 beta functions with: 
                l(1) =   0
                l(2) =   0
                l(3) =   1
                l(4) =   1
     Q(r) pseudized with  8 coefficients,  rinner =    0.800   0.800   0.800


     PseudoPot. # 4 for H  read from file:
     /storage/coda1/p-amedford6/0/shared/rich_project_chbe-medford/medford-share/data/pseudos_module/espresso/nninc/pbe/van/H.UPF
     MD5 check sum: b5ee9d7bfd3a09ee7748110bda690ff7
     Pseudo is Ultrasoft, Zval =  1.0
     Generated by new atomic code, or converted to UPF format
     Using radial grid of  615 points,  1 beta functions with: 
                l(1) =   0
     Q(r) pseudized with  8 coefficients,  rinner =    0.800

     atomic species   valence    mass     pseudopotential
        Ti1           12.00    47.86700     Ti( 1.00)
        O1             6.00    15.99900     O ( 1.00)
        C1             4.00    12.01100     C ( 1.00)
        H1             1.00     1.00800     H ( 1.00)

     No symmetry found



   Cartesian axes

     site n.     atom                  positions (alat units)
         1           Ti1 tau(   1) = (   0.0004258   2.9801865   6.0000000  )
         2           Ti1 tau(   2) = (   3.2906075   1.4906267   6.0002472  )
         3           O1  tau(   3) = (   0.0006271   0.0005054   7.9858123  )
         4           O1  tau(   4) = (   3.2906025   0.0005020   7.3038282  )
         5           O1  tau(   5) = (   4.5942328   1.4918067   9.2879030  )
         6           O1  tau(   6) = (   1.9868534   1.4903216   9.2879459  )
         7           Ti1 tau(   7) = (   3.3179988   2.9667087   9.1587561  )
         8           Ti1 tau(   8) = (   0.0368451   1.4888401   9.2646154  )
         9           O1  tau(   9) = (   3.2981896   5.9413050  11.3756853  )
        10           O1  tau(  10) = (   0.0022081   5.9550161  10.6068466  )
        11           O1  tau(  11) = (   1.2930414   1.4711740  12.6526869  )
        12           O1  tau(  12) = (   5.2963464   1.4745835  12.6500758  )
        13           Ti1 tau(  13) = (   0.0229324   2.9590759  12.5385950  )
        14           Ti1 tau(  14) = (   3.3157970   1.4644123  12.5194148  )
        15           O1  tau(  15) = (   6.5691168   5.9481840  14.6869282  )
        16           O1  tau(  16) = (   3.2964787   5.9455965  14.0277316  )
        17           O1  tau(  17) = (   4.5665908   1.5027878  16.2081754  )
        18           O1  tau(  18) = (   2.0283028   1.5092035  16.1774433  )
        19           Ti1 tau(  19) = (   3.2999954   2.9453206  15.7178785  )
        20           Ti1 tau(  20) = (   6.5724188   1.3235339  15.9896992  )
        21           O1  tau(  21) = (   3.2904802   0.0005063   4.7018136  )
        22           O1  tau(  22) = (   0.0286320   5.9425150  17.2304330  )
        23           O1  tau(  23) = (   1.3043587   1.4918075   6.0039043  )
        24           O1  tau(  24) = (   5.2767064   1.4903225   6.0039473  )
        25           Ti1 tau(  25) = (   0.0000382   5.9609847   6.0000000  )
        26           Ti1 tau(  26) = (   3.2902200   4.4714249   6.0002472  )
        27           O1  tau(  27) = (   0.0002396   2.9813036   7.9858123  )
        28           O1  tau(  28) = (   3.2902150   2.9813002   7.3038282  )
        29           O1  tau(  29) = (   4.5938453   4.4726049   9.2879030  )
        30           O1  tau(  30) = (   1.9864658   4.4711199   9.2879459  )
        31           Ti1 tau(  31) = (   3.3176359   5.9492212   9.1540102  )
        32           Ti1 tau(  32) = (   0.0367062   4.4560090   9.2708352  )
        33           O1  tau(  33) = (   3.2951800   2.9650663  11.3684769  )
        34           O1  tau(  34) = (   0.0080098   2.9764013  10.6279654  )
        35           O1  tau(  35) = (   1.2931912   4.4560454  12.6592269  )
        36           O1  tau(  36) = (   5.2946864   4.4524020  12.6579832  )
        37           Ti1 tau(  37) = (   0.0159028   5.9413441  12.4831893  )
        38           Ti1 tau(  38) = (   3.3151975   4.4500431  12.5204281  )
        39           O1  tau(  39) = (   0.0034497   2.9621527  14.8596962  )
        40           O1  tau(  40) = (   3.2989893   2.9535984  13.9376031  )
        41           O1  tau(  41) = (   4.5724332   4.4114593  16.1445292  )
        42           O1  tau(  42) = (   2.0255208   4.3883007  16.1585022  )
        43           Ti1 tau(  43) = (   3.2821299   5.9114753  15.8432964  )
        44           Ti1 tau(  44) = (   6.5414858   4.5242847  15.8739915  )
        45           O1  tau(  45) = (   3.2900926   2.9813045   4.7018136  )
        46           O1  tau(  46) = (   1.3039711   4.4726057   6.0039043  )
        47           O1  tau(  47) = (   5.2763189   4.4711207   6.0039473  )
        48           C1  tau(  48) = (   5.9754720   3.1749164  18.9278073  )
        49           O1  tau(  49) = (   0.1533887   3.0270296  17.7012840  )
        50           H1  tau(  50) = (   4.9293134   3.0706859  18.6584277  )
        51           H1  tau(  51) = (   1.0910173   3.2466920  17.8500278  )
        52           H1  tau(  52) = (   6.2690755   2.3937635  19.6305738  )
        53           H1  tau(  53) = (   6.1331946   4.1694627  19.3379575  )
        54           O1  tau(  54) = (   3.1723115   5.9428592  18.3689464  )
        55           H1  tau(  55) = (   3.8852673   0.6353712  18.4582360  )
        56           H1  tau(  56) = (   2.3406934   0.4831942  18.3201771  )

     number of k points=    10  Fermi-Dirac smearing, width (Ry)=  0.0073
                       cart. coord. in units 2pi/alat
        k(    1) = (   0.0000000   0.0000000   0.0000000), wk =   0.1250000
        k(    2) = (   0.0000000   0.0419351   0.0000000), wk =   0.2500000
        k(    3) = (   0.0000000  -0.0838702   0.0000000), wk =   0.1250000
        k(    4) = (   0.0379955   0.0000049   0.0000000), wk =   0.2500000
        k(    5) = (   0.0379955   0.0419400   0.0000000), wk =   0.2500000
        k(    6) = (   0.0379955  -0.0838652   0.0000000), wk =   0.2500000
        k(    7) = (   0.0379955  -0.0419301   0.0000000), wk =   0.2500000
        k(    8) = (  -0.0759910  -0.0000099   0.0000000), wk =   0.1250000
        k(    9) = (  -0.0759910   0.0419252   0.0000000), wk =   0.2500000
        k(   10) = (  -0.0759910  -0.0838800   0.0000000), wk =   0.1250000

     Dense  grid:   566857 G-vectors     FFT dimensions: (  72,  64, 270)

     Smooth grid:   143421 G-vectors     FFT dimensions: (  45,  40, 180)

     Estimated max dynamical RAM per process >     366.48 MB

     Estimated total dynamical RAM >       3.58 GB
     Cannot read rho : file not found

     Initial potential from superposition of free atoms

     starting charge  383.99915, renormalised to  400.00000

     negative rho (up, down):  1.599E-02 0.000E+00


     %%%%%%%%%%%%%%%%%%%%%%%%%%%%%%%%%%%%%%%%%%%%%%%%%%%%%%%%%%%%%%%%%%%%%%%%
     %                                                                      %
     % You are using vdW-DF, which was implemented by the Thonhauser group. %
     % Please cite the following two papers that made this development      %
     % possible and the two reviews that describe the various versions:     %
     %                                                                      %
     %   T. Thonhauser et al., PRL 115, 136402 (2015).                      %
     %   T. Thonhauser et al., PRB 76, 125112 (2007).                       %
     %   K. Berland et al., Rep. Prog. Phys. 78, 066501 (2015).             %
     %   D.C. Langreth et al., J. Phys.: Condens. Matter 21, 084203 (2009). %
     %                                                                      %
     %                                                                      %
     % If you are calculating the stress with vdW-DF, please also cite:     %
     %                                                                      %
     %   R. Sabatini et al., J. Phys.: Condens. Matter 24, 424209 (2012).   %
     %                                                                      %
     %%%%%%%%%%%%%%%%%%%%%%%%%%%%%%%%%%%%%%%%%%%%%%%%%%%%%%%%%%%%%%%%%%%%%%%%


 
     Adding external electric field

     Computed dipole along edir(3) : 
        Dipole              -11.7400 Ry au,        -29.8402 Debye
        Dipole field         -0.0222 Ry au, 
 
        Potential amp.        2.0537 Ry
        Total length         46.3494 bohr
 
     Starting wfcs are  302 atomic wfcs
  @ DRIVER MODE: Message from server: STATUS
  @ DRIVER MODE: Message from server: POSDATA
  @ DRIVER MODE: Reading and sharing cell 
  @ DRIVER MODE: Reading and sharing positions 
  @ DRIVER MODE: Received positions 

     total cpu time spent up to now is       11.3 secs

     Self-consistent Calculation

     iteration #  1     ecut=    29.40 Ry     beta= 0.05
     Davidson diagonalization with overlap
     c_bands:  2 eigenvalues not converged
     c_bands:  2 eigenvalues not converged
     c_bands:  4 eigenvalues not converged
     c_bands:  3 eigenvalues not converged
     c_bands:  4 eigenvalues not converged
     c_bands:  4 eigenvalues not converged
     c_bands:  3 eigenvalues not converged
     c_bands:  2 eigenvalues not converged
     ethr =  1.00E-05,  avg # of iterations = 21.3

     negative rho (up, down):  1.000E-02 0.000E+00
 
     Adding external electric field

     Computed dipole along edir(3) : 
        Dipole               50.0830 Ry au,        127.2983 Debye
        Dipole field          0.0945 Ry au, 
 
        Potential amp.       -8.7613 Ry
        Total length         46.3494 bohr
 

     total cpu time spent up to now is       53.6 secs

     total energy              =   -2420.22231549 Ry
     estimated scf accuracy    <    6189.13469938 Ry

     iteration #  2     ecut=    29.40 Ry     beta= 0.05
     Davidson diagonalization with overlap
     ethr =  1.00E-02,  avg # of iterations = 29.7

     negative rho (up, down):  1.172E-03 0.000E+00
 
     Adding external electric field

     Computed dipole along edir(3) : 
        Dipole               -1.1963 Ry au,         -3.0408 Debye
        Dipole field         -0.0023 Ry au, 
 
        Potential amp.        0.2093 Ry
        Total length         46.3494 bohr
 

     total cpu time spent up to now is      131.8 secs

     total energy              =   -2452.97955730 Ry
     estimated scf accuracy    <   70363.08240786 Ry

     iteration #  3     ecut=    29.40 Ry     beta= 0.05
     Davidson diagonalization with overlap
     c_bands:  1 eigenvalues not converged
     c_bands:  2 eigenvalues not converged
     ethr =  1.00E-02,  avg # of iterations = 17.3

     negative rho (up, down):  1.240E-03 0.000E+00
 
     Adding external electric field

     Computed dipole along edir(3) : 
        Dipole               -4.0425 Ry au,        -10.2749 Debye
        Dipole field         -0.0076 Ry au, 
 
        Potential amp.        0.7072 Ry
        Total length         46.3494 bohr
 

     total cpu time spent up to now is      180.4 secs

     total energy              =   -2955.48432140 Ry
     estimated scf accuracy    <    5108.54669812 Ry

     iteration #  4     ecut=    29.40 Ry     beta= 0.05
     Davidson diagonalization with overlap
     ethr =  1.00E-02,  avg # of iterations = 10.7

     negative rho (up, down):  1.286E-03 0.000E+00
 
     Adding external electric field

     Computed dipole along edir(3) : 
        Dipole               -6.0270 Ry au,        -15.3191 Debye
        Dipole field         -0.0114 Ry au, 
 
        Potential amp.        1.0543 Ry
        Total length         46.3494 bohr
 

     total cpu time spent up to now is      198.9 secs

     total energy              =   -2951.94102672 Ry
     estimated scf accuracy    <    2076.74931548 Ry

     iteration #  5     ecut=    29.40 Ry     beta= 0.05
     Davidson diagonalization with overlap
     ethr =  1.00E-02,  avg # of iterations = 10.1

     negative rho (up, down):  1.371E-03 0.000E+00
 
     Adding external electric field

     Computed dipole along edir(3) : 
        Dipole               -7.3645 Ry au,        -18.7186 Debye
        Dipole field         -0.0139 Ry au, 
 
        Potential amp.        1.2883 Ry
        Total length         46.3494 bohr
 

     total cpu time spent up to now is      214.8 secs

     total energy              =   -2949.32188805 Ry
     estimated scf accuracy    <     846.79923437 Ry

     iteration #  6     ecut=    29.40 Ry     beta= 0.05
     Davidson diagonalization with overlap
     ethr =  1.00E-02,  avg # of iterations =  9.1

     negative rho (up, down):  1.327E-03 0.000E+00
 
     Adding external electric field

     Computed dipole along edir(3) : 
        Dipole               -6.3911 Ry au,        -16.2445 Debye
        Dipole field         -0.0121 Ry au, 
 
        Potential amp.        1.1180 Ry
        Total length         46.3494 bohr
 

     total cpu time spent up to now is      233.7 secs

     total energy              =   -2970.77242918 Ry
     estimated scf accuracy    <      29.95095026 Ry

     iteration #  7     ecut=    29.40 Ry     beta= 0.05
     Davidson diagonalization with overlap
     ethr =  7.49E-03,  avg # of iterations =  1.4

     negative rho (up, down):  1.336E-03 0.000E+00
 
     Adding external electric field

     Computed dipole along edir(3) : 
        Dipole               -6.1664 Ry au,        -15.6734 Debye
        Dipole field         -0.0116 Ry au, 
 
        Potential amp.        1.0787 Ry
        Total length         46.3494 bohr
 

     total cpu time spent up to now is      243.8 secs

     total energy              =   -2970.84368574 Ry
     estimated scf accuracy    <      15.83431441 Ry

     iteration #  8     ecut=    29.40 Ry     beta= 0.05
     Davidson diagonalization with overlap
     ethr =  3.96E-03,  avg # of iterations =  1.8

     negative rho (up, down):  1.409E-03 0.000E+00
 
     Adding external electric field

     Computed dipole along edir(3) : 
        Dipole               -5.2312 Ry au,        -13.2963 Debye
        Dipole field         -0.0099 Ry au, 
 
        Potential amp.        0.9151 Ry
        Total length         46.3494 bohr
 

     total cpu time spent up to now is      253.8 secs

     total energy              =   -2970.17799227 Ry
     estimated scf accuracy    <      15.58119124 Ry

     iteration #  9     ecut=    29.40 Ry     beta= 0.05
     Davidson diagonalization with overlap
     ethr =  3.90E-03,  avg # of iterations =  1.8

     negative rho (up, down):  2.449E-03 0.000E+00
 
     Adding external electric field

     Computed dipole along edir(3) : 
        Dipole                0.4311 Ry au,          1.0957 Debye
        Dipole field          0.0008 Ry au, 
 
        Potential amp.       -0.0754 Ry
        Total length         46.3494 bohr
 

     total cpu time spent up to now is      263.8 secs

     total energy              =   -2968.61229413 Ry
     estimated scf accuracy    <      13.37544091 Ry

     iteration # 10     ecut=    29.40 Ry     beta= 0.05
     Davidson diagonalization with overlap
     ethr =  3.34E-03,  avg # of iterations = 14.1

     negative rho (up, down):  1.538E-02 0.000E+00
 
     Adding external electric field

     Computed dipole along edir(3) : 
        Dipole                3.7089 Ry au,          9.4272 Debye
        Dipole field          0.0070 Ry au, 
 
        Potential amp.       -0.6488 Ry
        Total length         46.3494 bohr
 

     total cpu time spent up to now is      286.3 secs

     total energy              =   -3042.21648986 Ry
     estimated scf accuracy    <    3579.01674692 Ry

     iteration # 11     ecut=    29.40 Ry     beta= 0.05
     Davidson diagonalization with overlap
     ethr =  3.34E-03,  avg # of iterations =  9.9

     negative rho (up, down):  9.511E-03 0.000E+00
 
     Adding external electric field

     Computed dipole along edir(3) : 
        Dipole                2.2660 Ry au,          5.7597 Debye
        Dipole field          0.0043 Ry au, 
 
        Potential amp.       -0.3964 Ry
        Total length         46.3494 bohr
 

     total cpu time spent up to now is      299.8 secs

     total energy              =   -3013.76628022 Ry
     estimated scf accuracy    <    5574.98791171 Ry

     iteration # 12     ecut=    29.40 Ry     beta= 0.05
     Davidson diagonalization with overlap
     ethr =  3.34E-03,  avg # of iterations =  2.5

     negative rho (up, down):  6.227E-03 0.000E+00
 
     Adding external electric field

     Computed dipole along edir(3) : 
        Dipole                1.3193 Ry au,          3.3532 Debye
        Dipole field          0.0025 Ry au, 
 
        Potential amp.       -0.2308 Ry
        Total length         46.3494 bohr
 

     total cpu time spent up to now is      310.4 secs

     total energy              =   -3001.07452762 Ry
     estimated scf accuracy    <    3713.75812838 Ry

     iteration # 13     ecut=    29.40 Ry     beta= 0.05
     Davidson diagonalization with overlap
     ethr =  3.34E-03,  avg # of iterations =  5.3

     negative rho (up, down):  2.961E-03 0.000E+00
 
     Adding external electric field

     Computed dipole along edir(3) : 
        Dipole               -2.0923 Ry au,         -5.3181 Debye
        Dipole field         -0.0039 Ry au, 
 
        Potential amp.        0.3660 Ry
        Total length         46.3494 bohr
 

     total cpu time spent up to now is      322.1 secs

     total energy              =   -2951.41394792 Ry
     estimated scf accuracy    <    3463.46872438 Ry

     iteration # 14     ecut=    29.40 Ry     beta= 0.05
     Davidson diagonalization with overlap
     ethr =  3.34E-03,  avg # of iterations = 17.7

     negative rho (up, down):  2.472E-03 0.000E+00
 
     Adding external electric field

     Computed dipole along edir(3) : 
        Dipole               -3.4237 Ry au,         -8.7021 Debye
        Dipole field         -0.0065 Ry au, 
 
        Potential amp.        0.5989 Ry
        Total length         46.3494 bohr
 

     total cpu time spent up to now is      350.1 secs

     total energy              =   -2966.60398470 Ry
     estimated scf accuracy    <     101.12594951 Ry

     iteration # 15     ecut=    29.40 Ry     beta= 0.05
     Davidson diagonalization with overlap
     c_bands:  1 eigenvalues not converged
     c_bands:  1 eigenvalues not converged
     c_bands:  2 eigenvalues not converged
     c_bands:  1 eigenvalues not converged
     ethr =  3.34E-03,  avg # of iterations = 18.7

     negative rho (up, down):  2.834E-03 0.000E+00
 
     Adding external electric field

     Computed dipole along edir(3) : 
        Dipole               -2.2242 Ry au,         -5.6534 Debye
        Dipole field         -0.0042 Ry au, 
 
        Potential amp.        0.3891 Ry
        Total length         46.3494 bohr
 

     total cpu time spent up to now is      369.9 secs

     total energy              =   -2968.71603062 Ry
     estimated scf accuracy    <     157.77195841 Ry

     iteration # 16     ecut=    29.40 Ry     beta= 0.05
     Davidson diagonalization with overlap
     ethr =  3.34E-03,  avg # of iterations =  1.2

     negative rho (up, down):  3.101E-03 0.000E+00
 
     Adding external electric field

     Computed dipole along edir(3) : 
        Dipole               -1.9749 Ry au,         -5.0196 Debye
        Dipole field         -0.0037 Ry au, 
 
        Potential amp.        0.3455 Ry
        Total length         46.3494 bohr
 

     total cpu time spent up to now is      379.7 secs

     total energy              =   -2970.30151059 Ry
     estimated scf accuracy    <      53.91327392 Ry

     iteration # 17     ecut=    29.40 Ry     beta= 0.05
     Davidson diagonalization with overlap
     ethr =  3.34E-03,  avg # of iterations =  1.1

     negative rho (up, down):  2.292E-03 0.000E+00
 
     Adding external electric field

     Computed dipole along edir(3) : 
        Dipole               -3.4102 Ry au,         -8.6678 Debye
        Dipole field         -0.0064 Ry au, 
 
        Potential amp.        0.5966 Ry
        Total length         46.3494 bohr
 

     total cpu time spent up to now is      389.5 secs

     total energy              =   -2967.31219058 Ry
     estimated scf accuracy    <      63.32208342 Ry

     iteration # 18     ecut=    29.40 Ry     beta= 0.05
     Davidson diagonalization with overlap
     ethr =  3.34E-03,  avg # of iterations =  1.1

     negative rho (up, down):  2.227E-03 0.000E+00
 
     Adding external electric field

     Computed dipole along edir(3) : 
        Dipole               -2.8710 Ry au,         -7.2972 Debye
        Dipole field         -0.0054 Ry au, 
 
        Potential amp.        0.5022 Ry
        Total length         46.3494 bohr
 

     total cpu time spent up to now is      399.3 secs

     total energy              =   -2966.51916555 Ry
     estimated scf accuracy    <      87.11855023 Ry

     iteration # 19     ecut=    29.40 Ry     beta= 0.05
     Davidson diagonalization with overlap
     ethr =  3.34E-03,  avg # of iterations =  4.5

     negative rho (up, down):  2.275E-03 0.000E+00
 
     Adding external electric field

     Computed dipole along edir(3) : 
        Dipole               -2.5556 Ry au,         -6.4956 Debye
        Dipole field         -0.0048 Ry au, 
 
        Potential amp.        0.4471 Ry
        Total length         46.3494 bohr
 

     total cpu time spent up to now is      410.7 secs

     total energy              =   -2967.73306480 Ry
     estimated scf accuracy    <       3.88146519 Ry

     iteration # 20     ecut=    29.40 Ry     beta= 0.05
     Davidson diagonalization with overlap
     ethr =  9.70E-04,  avg # of iterations =  5.3

     negative rho (up, down):  2.370E-03 0.000E+00
 
     Adding external electric field

     Computed dipole along edir(3) : 
        Dipole               -2.3295 Ry au,         -5.9211 Debye
        Dipole field         -0.0044 Ry au, 
 
        Potential amp.        0.4075 Ry
        Total length         46.3494 bohr
 

     total cpu time spent up to now is      422.3 secs

     total energy              =   -2967.77090865 Ry
     estimated scf accuracy    <       3.37277912 Ry

     iteration # 21     ecut=    29.40 Ry     beta= 0.05
     Davidson diagonalization with overlap
     ethr =  8.43E-04,  avg # of iterations =  1.3

     negative rho (up, down):  2.496E-03 0.000E+00
 
     Adding external electric field

     Computed dipole along edir(3) : 
        Dipole               -2.1257 Ry au,         -5.4029 Debye
        Dipole field         -0.0040 Ry au, 
 
        Potential amp.        0.3719 Ry
        Total length         46.3494 bohr
 

     total cpu time spent up to now is      432.2 secs

     total energy              =   -2967.80494341 Ry
     estimated scf accuracy    <       4.28137879 Ry

     iteration # 22     ecut=    29.40 Ry     beta= 0.05
     Davidson diagonalization with overlap
     ethr =  8.43E-04,  avg # of iterations =  1.3

     negative rho (up, down):  2.491E-03 0.000E+00
 
     Adding external electric field

     Computed dipole along edir(3) : 
        Dipole               -2.1830 Ry au,         -5.5486 Debye
        Dipole field         -0.0041 Ry au, 
 
        Potential amp.        0.3819 Ry
        Total length         46.3494 bohr
 

     total cpu time spent up to now is      442.1 secs

     total energy              =   -2967.98932045 Ry
     estimated scf accuracy    <      31.26141857 Ry

     iteration # 23     ecut=    29.40 Ry     beta= 0.05
     Davidson diagonalization with overlap
     ethr =  8.43E-04,  avg # of iterations =  1.5

     negative rho (up, down):  2.638E-03 0.000E+00
 
     Adding external electric field

     Computed dipole along edir(3) : 
        Dipole               -1.8536 Ry au,         -4.7115 Debye
        Dipole field         -0.0035 Ry au, 
 
        Potential amp.        0.3243 Ry
        Total length         46.3494 bohr
 

     total cpu time spent up to now is      452.0 secs

     total energy              =   -2967.89986115 Ry
     estimated scf accuracy    <      61.41105621 Ry

     iteration # 24     ecut=    29.40 Ry     beta= 0.05
     Davidson diagonalization with overlap
     ethr =  8.43E-04,  avg # of iterations =  3.8

     negative rho (up, down):  2.660E-03 0.000E+00
 
     Adding external electric field

     Computed dipole along edir(3) : 
        Dipole               -1.7520 Ry au,         -4.4532 Debye
        Dipole field         -0.0033 Ry au, 
 
        Potential amp.        0.3065 Ry
        Total length         46.3494 bohr
 

     total cpu time spent up to now is      462.8 secs

     total energy              =   -2967.74801220 Ry
     estimated scf accuracy    <      47.36382788 Ry

     iteration # 25     ecut=    29.40 Ry     beta= 0.05
     Davidson diagonalization with overlap
     ethr =  8.43E-04,  avg # of iterations =  1.0

     negative rho (up, down):  2.810E-03 0.000E+00
 
     Adding external electric field

     Computed dipole along edir(3) : 
        Dipole               -1.6055 Ry au,         -4.0807 Debye
        Dipole field         -0.0030 Ry au, 
 
        Potential amp.        0.2809 Ry
        Total length         46.3494 bohr
 

     total cpu time spent up to now is      472.5 secs

     total energy              =   -2967.66371725 Ry
     estimated scf accuracy    <      14.70664558 Ry

     iteration # 26     ecut=    29.40 Ry     beta= 0.05
     Davidson diagonalization with overlap
     ethr =  8.43E-04,  avg # of iterations =  1.0

     negative rho (up, down):  3.494E-03 0.000E+00
 
     Adding external electric field

     Computed dipole along edir(3) : 
        Dipole               -0.8600 Ry au,         -2.1860 Debye
        Dipole field         -0.0016 Ry au, 
 
        Potential amp.        0.1505 Ry
        Total length         46.3494 bohr
 

     total cpu time spent up to now is      482.2 secs

     total energy              =   -2967.57484989 Ry
     estimated scf accuracy    <       4.66079889 Ry

     iteration # 27     ecut=    29.40 Ry     beta= 0.05
     Davidson diagonalization with overlap
     ethr =  8.43E-04,  avg # of iterations =  2.2

     negative rho (up, down):  3.787E-03 0.000E+00
 
     Adding external electric field

     Computed dipole along edir(3) : 
        Dipole               -0.5006 Ry au,         -1.2723 Debye
        Dipole field         -0.0009 Ry au, 
 
        Potential amp.        0.0876 Ry
        Total length         46.3494 bohr
 

     total cpu time spent up to now is      492.9 secs

     total energy              =   -2967.64362298 Ry
     estimated scf accuracy    <       2.62263220 Ry

     iteration # 28     ecut=    29.40 Ry     beta= 0.05
     Davidson diagonalization with overlap
     ethr =  6.56E-04,  avg # of iterations =  1.8

     negative rho (up, down):  3.818E-03 0.000E+00
 
     Adding external electric field

     Computed dipole along edir(3) : 
        Dipole               -0.5138 Ry au,         -1.3060 Debye
        Dipole field         -0.0010 Ry au, 
 
        Potential amp.        0.0899 Ry
        Total length         46.3494 bohr
 

     total cpu time spent up to now is      503.1 secs

     total energy              =   -2967.68063846 Ry
     estimated scf accuracy    <       7.93919343 Ry

     iteration # 29     ecut=    29.40 Ry     beta= 0.05
     Davidson diagonalization with overlap
     ethr =  6.56E-04,  avg # of iterations =  1.2

     negative rho (up, down):  4.418E-03 0.000E+00
 
     Adding external electric field

     Computed dipole along edir(3) : 
        Dipole               -0.2913 Ry au,         -0.7405 Debye
        Dipole field         -0.0005 Ry au, 
 
        Potential amp.        0.0510 Ry
        Total length         46.3494 bohr
 

     total cpu time spent up to now is      513.0 secs

     total energy              =   -2967.59165931 Ry
     estimated scf accuracy    <       8.12585579 Ry

     iteration # 30     ecut=    29.40 Ry     beta= 0.05
     Davidson diagonalization with overlap
     ethr =  6.56E-04,  avg # of iterations =  1.0

     negative rho (up, down):  5.918E-03 0.000E+00
 
     Adding external electric field

     Computed dipole along edir(3) : 
        Dipole                0.2333 Ry au,          0.5931 Debye
        Dipole field          0.0004 Ry au, 
 
        Potential amp.       -0.0408 Ry
        Total length         46.3494 bohr
 

     total cpu time spent up to now is      522.7 secs

     total energy              =   -2967.57560347 Ry
     estimated scf accuracy    <       2.88982103 Ry

     iteration # 31     ecut=    29.40 Ry     beta= 0.05
     Davidson diagonalization with overlap
     ethr =  6.56E-04,  avg # of iterations =  1.0

     negative rho (up, down):  7.202E-03 0.000E+00
 
     Adding external electric field

     Computed dipole along edir(3) : 
        Dipole                0.4888 Ry au,          1.2425 Debye
        Dipole field          0.0009 Ry au, 
 
        Potential amp.       -0.0855 Ry
        Total length         46.3494 bohr
 

     total cpu time spent up to now is      532.4 secs

     total energy              =   -2967.57418184 Ry
     estimated scf accuracy    <       2.34599080 Ry

     iteration # 32     ecut=    29.40 Ry     beta= 0.05
     Davidson diagonalization with overlap
     ethr =  5.86E-04,  avg # of iterations =  1.0

     negative rho (up, down):  9.337E-03 0.000E+00
 
     Adding external electric field

     Computed dipole along edir(3) : 
        Dipole                0.7402 Ry au,          1.8815 Debye
        Dipole field          0.0014 Ry au, 
 
        Potential amp.       -0.1295 Ry
        Total length         46.3494 bohr
 

     total cpu time spent up to now is      542.0 secs

     total energy              =   -2967.56489188 Ry
     estimated scf accuracy    <       2.21717416 Ry

     iteration # 33     ecut=    29.40 Ry     beta= 0.05
     Davidson diagonalization with overlap
     ethr =  5.54E-04,  avg # of iterations =  1.0

     negative rho (up, down):  1.621E-02 0.000E+00
 
     Adding external electric field

     Computed dipole along edir(3) : 
        Dipole                1.0190 Ry au,          2.5901 Debye
        Dipole field          0.0019 Ry au, 
 
        Potential amp.       -0.1783 Ry
        Total length         46.3494 bohr
 

     total cpu time spent up to now is      551.7 secs

     total energy              =   -2967.53411657 Ry
     estimated scf accuracy    <       1.89698765 Ry

     iteration # 34     ecut=    29.40 Ry     beta= 0.05
     Davidson diagonalization with overlap
     ethr =  4.74E-04,  avg # of iterations =  1.0

     negative rho (up, down):  2.387E-02 0.000E+00
 
     Adding external electric field

     Computed dipole along edir(3) : 
        Dipole                1.1978 Ry au,          3.0446 Debye
        Dipole field          0.0023 Ry au, 
 
        Potential amp.       -0.2095 Ry
        Total length         46.3494 bohr
 

     total cpu time spent up to now is      561.4 secs

     total energy              =   -2967.51529285 Ry
     estimated scf accuracy    <       1.67621854 Ry

     iteration # 35     ecut=    29.40 Ry     beta= 0.05
     Davidson diagonalization with overlap
     ethr =  4.19E-04,  avg # of iterations =  1.0

     negative rho (up, down):  2.495E-02 0.000E+00
 
     Adding external electric field

     Computed dipole along edir(3) : 
        Dipole                1.2303 Ry au,          3.1272 Debye
        Dipole field          0.0023 Ry au, 
 
        Potential amp.       -0.2152 Ry
        Total length         46.3494 bohr
 

     total cpu time spent up to now is      571.1 secs

     total energy              =   -2967.51271636 Ry
     estimated scf accuracy    <       1.55807530 Ry

     iteration # 36     ecut=    29.40 Ry     beta= 0.05
     Davidson diagonalization with overlap
     ethr =  3.90E-04,  avg # of iterations =  1.1

     negative rho (up, down):  1.955E-02 0.000E+00
 
     Adding external electric field

     Computed dipole along edir(3) : 
        Dipole                1.2000 Ry au,          3.0502 Debye
        Dipole field          0.0023 Ry au, 
 
        Potential amp.       -0.2099 Ry
        Total length         46.3494 bohr
 

     total cpu time spent up to now is      580.8 secs

     total energy              =   -2967.48903552 Ry
     estimated scf accuracy    <       1.50574308 Ry

     iteration # 37     ecut=    29.40 Ry     beta= 0.05
     Davidson diagonalization with overlap
     c_bands:  5 eigenvalues not converged
     ethr =  3.76E-04,  avg # of iterations =  5.3

     negative rho (up, down):  1.672E-02 0.000E+00
 
     Adding external electric field

     Computed dipole along edir(3) : 
        Dipole                1.0803 Ry au,          2.7457 Debye
        Dipole field          0.0020 Ry au, 
 
        Potential amp.       -0.1890 Ry
        Total length         46.3494 bohr
 

     total cpu time spent up to now is      592.0 secs

     total energy              =   -2967.49470085 Ry
     estimated scf accuracy    <       0.64017627 Ry

     iteration # 38     ecut=    29.40 Ry     beta= 0.05
     Davidson diagonalization with overlap
     c_bands:  3 eigenvalues not converged
     c_bands:  5 eigenvalues not converged
     c_bands:  2 eigenvalues not converged
     ethr =  1.60E-04,  avg # of iterations =  7.4

     negative rho (up, down):  2.709E-02 0.000E+00
 
     Adding external electric field

     Computed dipole along edir(3) : 
        Dipole                1.5198 Ry au,          3.8630 Debye
        Dipole field          0.0029 Ry au, 
 
        Potential amp.       -0.2659 Ry
        Total length         46.3494 bohr
 

     total cpu time spent up to now is      604.7 secs

     total energy              =   -2967.45862347 Ry
     estimated scf accuracy    <       0.50433473 Ry

     iteration # 39     ecut=    29.40 Ry     beta= 0.05
     Davidson diagonalization with overlap
     c_bands:  5 eigenvalues not converged
     c_bands:  2 eigenvalues not converged
     c_bands:  2 eigenvalues not converged
     c_bands:  4 eigenvalues not converged
     ethr =  1.26E-04,  avg # of iterations = 15.9

     negative rho (up, down):  2.284E-02 0.000E+00
 
     Adding external electric field

     Computed dipole along edir(3) : 
        Dipole                1.3430 Ry au,          3.4135 Debye
        Dipole field          0.0025 Ry au, 
 
        Potential amp.       -0.2349 Ry
        Total length         46.3494 bohr
 

     total cpu time spent up to now is      622.4 secs

     total energy              =   -2967.44604194 Ry
     estimated scf accuracy    <       1.10277604 Ry

     iteration # 40     ecut=    29.40 Ry     beta= 0.05
     Davidson diagonalization with overlap
     c_bands:  3 eigenvalues not converged
     ethr =  1.26E-04,  avg # of iterations =  9.8

     negative rho (up, down):  1.878E-02 0.000E+00
 
     Adding external electric field

     Computed dipole along edir(3) : 
        Dipole                1.4442 Ry au,          3.6709 Debye
        Dipole field          0.0027 Ry au, 
 
        Potential amp.       -0.2526 Ry
        Total length         46.3494 bohr
 

     total cpu time spent up to now is      635.5 secs

     total energy              =   -2967.45733403 Ry
     estimated scf accuracy    <       0.17027924 Ry

     iteration # 41     ecut=    29.40 Ry     beta= 0.05
     Davidson diagonalization with overlap
     c_bands:  5 eigenvalues not converged
     c_bands:  5 eigenvalues not converged
     c_bands:  2 eigenvalues not converged
     c_bands:  5 eigenvalues not converged
     ethr =  4.26E-05,  avg # of iterations = 16.0

     negative rho (up, down):  1.399E-02 0.000E+00
 
     Adding external electric field

     Computed dipole along edir(3) : 
        Dipole                1.2897 Ry au,          3.2781 Debye
        Dipole field          0.0024 Ry au, 
 
        Potential amp.       -0.2256 Ry
        Total length         46.3494 bohr
 

     total cpu time spent up to now is      653.3 secs

     total energy              =   -2967.47534609 Ry
     estimated scf accuracy    <       0.03583111 Ry

     iteration # 42     ecut=    29.40 Ry     beta= 0.05
     Davidson diagonalization with overlap
     c_bands:  2 eigenvalues not converged
     c_bands:  1 eigenvalues not converged
     c_bands:  2 eigenvalues not converged
     c_bands:  1 eigenvalues not converged
     c_bands:  1 eigenvalues not converged
     c_bands:  2 eigenvalues not converged
     c_bands:  2 eigenvalues not converged
     c_bands:  1 eigenvalues not converged
     ethr =  8.96E-06,  avg # of iterations = 19.1

     negative rho (up, down):  1.380E-02 0.000E+00
 
     Adding external electric field

     Computed dipole along edir(3) : 
        Dipole                1.2789 Ry au,          3.2508 Debye
        Dipole field          0.0024 Ry au, 
 
        Potential amp.       -0.2237 Ry
        Total length         46.3494 bohr
 

     total cpu time spent up to now is      672.9 secs

     total energy              =   -2967.47949814 Ry
     estimated scf accuracy    <       0.05147422 Ry

     iteration # 43     ecut=    29.40 Ry     beta= 0.05
     Davidson diagonalization with overlap
     c_bands:  4 eigenvalues not converged
     c_bands:  1 eigenvalues not converged
     c_bands:  1 eigenvalues not converged
     c_bands:  1 eigenvalues not converged
     c_bands:  2 eigenvalues not converged
     c_bands:  2 eigenvalues not converged
     ethr =  8.96E-06,  avg # of iterations = 18.0

     negative rho (up, down):  1.538E-02 0.000E+00
 
     Adding external electric field

     Computed dipole along edir(3) : 
        Dipole                1.2913 Ry au,          3.2821 Debye
        Dipole field          0.0024 Ry au, 
 
        Potential amp.       -0.2259 Ry
        Total length         46.3494 bohr
 

     total cpu time spent up to now is      689.2 secs

     total energy              =   -2967.46233480 Ry
     estimated scf accuracy    <       0.45130939 Ry

     iteration # 44     ecut=    29.40 Ry     beta= 0.05
     Davidson diagonalization with overlap
     c_bands:  2 eigenvalues not converged
     c_bands:  1 eigenvalues not converged
     c_bands:  2 eigenvalues not converged
     c_bands:  2 eigenvalues not converged
     c_bands:  2 eigenvalues not converged
     c_bands:  2 eigenvalues not converged
     c_bands:  2 eigenvalues not converged
     c_bands:  1 eigenvalues not converged
     c_bands:  1 eigenvalues not converged
     ethr =  8.96E-06,  avg # of iterations = 19.9

     negative rho (up, down):  1.578E-02 0.000E+00
 
     Adding external electric field

     Computed dipole along edir(3) : 
        Dipole                1.3164 Ry au,          3.3459 Debye
        Dipole field          0.0025 Ry au, 
 
        Potential amp.       -0.2303 Ry
        Total length         46.3494 bohr
 

     total cpu time spent up to now is      710.0 secs

     total energy              =   -2967.48168697 Ry
     estimated scf accuracy    <       0.14637688 Ry

     iteration # 45     ecut=    29.40 Ry     beta= 0.05
     Davidson diagonalization with overlap
     c_bands:  1 eigenvalues not converged
     c_bands:  1 eigenvalues not converged
     ethr =  8.96E-06,  avg # of iterations =  5.9

     negative rho (up, down):  1.514E-02 0.000E+00
 
     Adding external electric field

     Computed dipole along edir(3) : 
        Dipole                1.3376 Ry au,          3.4000 Debye
        Dipole field          0.0025 Ry au, 
 
        Potential amp.       -0.2340 Ry
        Total length         46.3494 bohr
 

     total cpu time spent up to now is      721.5 secs

     total energy              =   -2967.47239645 Ry
     estimated scf accuracy    <       0.13820978 Ry

     iteration # 46     ecut=    29.40 Ry     beta= 0.05
     Davidson diagonalization with overlap
     c_bands:  1 eigenvalues not converged
     c_bands:  1 eigenvalues not converged
     c_bands:  3 eigenvalues not converged
     c_bands:  1 eigenvalues not converged
     c_bands:  2 eigenvalues not converged
     ethr =  8.96E-06,  avg # of iterations = 18.5

     negative rho (up, down):  1.623E-02 0.000E+00
 
     Adding external electric field

     Computed dipole along edir(3) : 
        Dipole                1.3914 Ry au,          3.5366 Debye
        Dipole field          0.0026 Ry au, 
 
        Potential amp.       -0.2434 Ry
        Total length         46.3494 bohr
 

     total cpu time spent up to now is      738.4 secs

     total energy              =   -2967.47593081 Ry
     estimated scf accuracy    <       0.01446395 Ry

     iteration # 47     ecut=    29.40 Ry     beta= 0.05
     Davidson diagonalization with overlap
     c_bands:  2 eigenvalues not converged
     c_bands:  1 eigenvalues not converged
     ethr =  3.62E-06,  avg # of iterations = 11.1

     negative rho (up, down):  1.781E-02 0.000E+00
 
     Adding external electric field

     Computed dipole along edir(3) : 
        Dipole                1.4658 Ry au,          3.7256 Debye
        Dipole field          0.0028 Ry au, 
 
        Potential amp.       -0.2564 Ry
        Total length         46.3494 bohr
 

     total cpu time spent up to now is      751.5 secs

     total energy              =   -2967.47573854 Ry
     estimated scf accuracy    <       0.00531199 Ry

     iteration # 48     ecut=    29.40 Ry     beta= 0.05
     Davidson diagonalization with overlap
     c_bands:  1 eigenvalues not converged
     c_bands:  3 eigenvalues not converged
     c_bands:  2 eigenvalues not converged
     c_bands:  1 eigenvalues not converged
     c_bands:  2 eigenvalues not converged
     c_bands:  2 eigenvalues not converged
     ethr =  1.33E-06,  avg # of iterations = 18.8

     negative rho (up, down):  1.624E-02 0.000E+00
 
     Adding external electric field

     Computed dipole along edir(3) : 
        Dipole                1.3952 Ry au,          3.5462 Debye
        Dipole field          0.0026 Ry au, 
 
        Potential amp.       -0.2441 Ry
        Total length         46.3494 bohr
 

     total cpu time spent up to now is      770.8 secs

     total energy              =   -2967.47589334 Ry
     estimated scf accuracy    <       0.00964597 Ry

     iteration # 49     ecut=    29.40 Ry     beta= 0.05
     Davidson diagonalization with overlap
     c_bands:  1 eigenvalues not converged
     ethr =  1.33E-06,  avg # of iterations = 13.4

     negative rho (up, down):  1.580E-02 0.000E+00
 
     Adding external electric field

     Computed dipole along edir(3) : 
        Dipole                1.3633 Ry au,          3.4653 Debye
        Dipole field          0.0026 Ry au, 
 
        Potential amp.       -0.2385 Ry
        Total length         46.3494 bohr
 

     total cpu time spent up to now is      784.8 secs

     total energy              =   -2967.47559169 Ry
     estimated scf accuracy    <       0.00408118 Ry

     iteration # 50     ecut=    29.40 Ry     beta= 0.05
     Davidson diagonalization with overlap
     c_bands:  1 eigenvalues not converged
     c_bands:  2 eigenvalues not converged
     c_bands:  1 eigenvalues not converged
     c_bands:  1 eigenvalues not converged
     ethr =  1.02E-06,  avg # of iterations = 16.9

     negative rho (up, down):  1.537E-02 0.000E+00
 
     Adding external electric field

     Computed dipole along edir(3) : 
        Dipole                1.3468 Ry au,          3.4233 Debye
        Dipole field          0.0025 Ry au, 
 
        Potential amp.       -0.2356 Ry
        Total length         46.3494 bohr
 

     total cpu time spent up to now is      800.9 secs

     total energy              =   -2967.47583183 Ry
     estimated scf accuracy    <       0.00362277 Ry

     iteration # 51     ecut=    29.40 Ry     beta= 0.05
     Davidson diagonalization with overlap
     ethr =  9.06E-07,  avg # of iterations =  4.7

     negative rho (up, down):  1.501E-02 0.000E+00
 
     Adding external electric field

     Computed dipole along edir(3) : 
        Dipole                1.3422 Ry au,          3.4114 Debye
        Dipole field          0.0025 Ry au, 
 
        Potential amp.       -0.2348 Ry
        Total length         46.3494 bohr
 

     total cpu time spent up to now is      812.1 secs

     total energy              =   -2967.47570362 Ry
     estimated scf accuracy    <       0.00256608 Ry

     iteration # 52     ecut=    29.40 Ry     beta= 0.05
     Davidson diagonalization with overlap
     c_bands:  2 eigenvalues not converged
     ethr =  6.42E-07,  avg # of iterations = 14.9

     negative rho (up, down):  1.536E-02 0.000E+00
 
     Adding external electric field

     Computed dipole along edir(3) : 
        Dipole                1.3600 Ry au,          3.4567 Debye
        Dipole field          0.0026 Ry au, 
 
        Potential amp.       -0.2379 Ry
        Total length         46.3494 bohr
 

     total cpu time spent up to now is      826.8 secs

     total energy              =   -2967.47580933 Ry
     estimated scf accuracy    <       0.00058998 Ry

     iteration # 53     ecut=    29.40 Ry     beta= 0.05
     Davidson diagonalization with overlap
     ethr =  1.47E-07,  avg # of iterations = 12.4

     negative rho (up, down):  1.610E-02 0.000E+00
 
     Adding external electric field

     Computed dipole along edir(3) : 
        Dipole                1.3923 Ry au,          3.5389 Debye
        Dipole field          0.0026 Ry au, 
 
        Potential amp.       -0.2436 Ry
        Total length         46.3494 bohr
 

     total cpu time spent up to now is      840.9 secs

     total energy              =   -2967.47582606 Ry
     estimated scf accuracy    <       0.00030531 Ry

     iteration # 54     ecut=    29.40 Ry     beta= 0.05
     Davidson diagonalization with overlap
     ethr =  7.63E-08,  avg # of iterations = 11.9

     negative rho (up, down):  1.578E-02 0.000E+00
 
     Adding external electric field

     Computed dipole along edir(3) : 
        Dipole                1.3825 Ry au,          3.5140 Debye
        Dipole field          0.0026 Ry au, 
 
        Potential amp.       -0.2418 Ry
        Total length         46.3494 bohr
 

     total cpu time spent up to now is      856.3 secs

     total energy              =   -2967.47585618 Ry
     estimated scf accuracy    <       0.00016183 Ry

     iteration # 55     ecut=    29.40 Ry     beta= 0.05
     Davidson diagonalization with overlap
     c_bands:  1 eigenvalues not converged
     c_bands:  1 eigenvalues not converged
     ethr =  4.05E-08,  avg # of iterations = 13.3

     negative rho (up, down):  1.561E-02 0.000E+00
 
     Adding external electric field

     Computed dipole along edir(3) : 
        Dipole                1.3739 Ry au,          3.4922 Debye
        Dipole field          0.0026 Ry au, 
 
        Potential amp.       -0.2403 Ry
        Total length         46.3494 bohr
 

     total cpu time spent up to now is      874.0 secs

     total energy              =   -2967.47588683 Ry
     estimated scf accuracy    <       0.00014081 Ry

     iteration # 56     ecut=    29.40 Ry     beta= 0.05
     Davidson diagonalization with overlap
     ethr =  3.52E-08,  avg # of iterations =  6.6

     negative rho (up, down):  1.581E-02 0.000E+00
 
     Adding external electric field

     Computed dipole along edir(3) : 
        Dipole                1.3783 Ry au,          3.5032 Debye
        Dipole field          0.0026 Ry au, 
 
        Potential amp.       -0.2411 Ry
        Total length         46.3494 bohr
 

     total cpu time spent up to now is      885.7 secs

     total energy              =   -2967.47588991 Ry
     estimated scf accuracy    <       0.00006471 Ry

     iteration # 57     ecut=    29.40 Ry     beta= 0.05
     Davidson diagonalization with overlap
     c_bands:  1 eigenvalues not converged
     ethr =  1.62E-08,  avg # of iterations = 16.1

     negative rho (up, down):  1.587E-02 0.000E+00
 
     Adding external electric field

     Computed dipole along edir(3) : 
        Dipole                1.3836 Ry au,          3.5169 Debye
        Dipole field          0.0026 Ry au, 
 
        Potential amp.       -0.2420 Ry
        Total length         46.3494 bohr
 

     total cpu time spent up to now is      905.5 secs

     total energy              =   -2967.47590320 Ry
     estimated scf accuracy    <       0.00006452 Ry

     iteration # 58     ecut=    29.40 Ry     beta= 0.05
     Davidson diagonalization with overlap
     c_bands:  2 eigenvalues not converged
     ethr =  1.61E-08,  avg # of iterations = 14.4

     negative rho (up, down):  1.590E-02 0.000E+00
 
     Adding external electric field

     Computed dipole along edir(3) : 
        Dipole                1.3848 Ry au,          3.5198 Debye
        Dipole field          0.0026 Ry au, 
 
        Potential amp.       -0.2422 Ry
        Total length         46.3494 bohr
 

     total cpu time spent up to now is      922.5 secs

     total energy              =   -2967.47591815 Ry
     estimated scf accuracy    <       0.00002653 Ry

     iteration # 59     ecut=    29.40 Ry     beta= 0.05
     Davidson diagonalization with overlap
     ethr =  6.63E-09,  avg # of iterations =  4.9

     negative rho (up, down):  1.588E-02 0.000E+00
 
     Adding external electric field

     Computed dipole along edir(3) : 
        Dipole                1.3820 Ry au,          3.5126 Debye
        Dipole field          0.0026 Ry au, 
 
        Potential amp.       -0.2418 Ry
        Total length         46.3494 bohr
 

     total cpu time spent up to now is      933.8 secs

     total energy              =   -2967.47592441 Ry
     estimated scf accuracy    <       0.00002966 Ry

     iteration # 60     ecut=    29.40 Ry     beta= 0.05
     Davidson diagonalization with overlap
     c_bands:  1 eigenvalues not converged
     ethr =  6.63E-09,  avg # of iterations = 11.0

     negative rho (up, down):  1.585E-02 0.000E+00
 
     Adding external electric field

     Computed dipole along edir(3) : 
        Dipole                1.3790 Ry au,          3.5051 Debye
        Dipole field          0.0026 Ry au, 
 
        Potential amp.       -0.2412 Ry
        Total length         46.3494 bohr
 

     total cpu time spent up to now is      947.5 secs

     total energy              =   -2967.47593307 Ry
     estimated scf accuracy    <       0.00001002 Ry

     iteration # 61     ecut=    29.40 Ry     beta= 0.05
     Davidson diagonalization with overlap
     c_bands:  1 eigenvalues not converged
     ethr =  2.50E-09,  avg # of iterations = 13.2

     negative rho (up, down):  1.586E-02 0.000E+00
 
     Adding external electric field

     Computed dipole along edir(3) : 
        Dipole                1.3793 Ry au,          3.5059 Debye
        Dipole field          0.0026 Ry au, 
 
        Potential amp.       -0.2413 Ry
        Total length         46.3494 bohr
 

     total cpu time spent up to now is      963.7 secs

     total energy              =   -2967.47594050 Ry
     estimated scf accuracy    <       0.00000640 Ry

     iteration # 62     ecut=    29.40 Ry     beta= 0.05
     Davidson diagonalization with overlap
     c_bands:  1 eigenvalues not converged
     ethr =  1.60E-09,  avg # of iterations = 12.6

     negative rho (up, down):  1.583E-02 0.000E+00
 
     Adding external electric field

     Computed dipole along edir(3) : 
        Dipole                1.3772 Ry au,          3.5006 Debye
        Dipole field          0.0026 Ry au, 
 
        Potential amp.       -0.2409 Ry
        Total length         46.3494 bohr
 

     total cpu time spent up to now is      980.5 secs

     total energy              =   -2967.47594620 Ry
     estimated scf accuracy    <       0.00000510 Ry

     iteration # 63     ecut=    29.40 Ry     beta= 0.05
     Davidson diagonalization with overlap
     ethr =  1.27E-09,  avg # of iterations = 10.9

     negative rho (up, down):  1.586E-02 0.000E+00
 
     Adding external electric field

     Computed dipole along edir(3) : 
        Dipole                1.3778 Ry au,          3.5020 Debye
        Dipole field          0.0026 Ry au, 
 
        Potential amp.       -0.2410 Ry
        Total length         46.3494 bohr
 

     total cpu time spent up to now is      994.4 secs

     total energy              =   -2967.47595151 Ry
     estimated scf accuracy    <       0.00000209 Ry

     iteration # 64     ecut=    29.40 Ry     beta= 0.05
     Davidson diagonalization with overlap
     ethr =  5.23E-10,  avg # of iterations = 12.6

     negative rho (up, down):  1.586E-02 0.000E+00
 
     Adding external electric field

     Computed dipole along edir(3) : 
        Dipole                1.3783 Ry au,          3.5033 Debye
        Dipole field          0.0026 Ry au, 
 
        Potential amp.       -0.2411 Ry
        Total length         46.3494 bohr
 

     total cpu time spent up to now is     1012.0 secs

     total energy              =   -2967.47595600 Ry
     estimated scf accuracy    <       0.00000156 Ry

     iteration # 65     ecut=    29.40 Ry     beta= 0.05
     Davidson diagonalization with overlap
     c_bands:  1 eigenvalues not converged
     ethr =  3.90E-10,  avg # of iterations =  8.2

     negative rho (up, down):  1.584E-02 0.000E+00
 
     Adding external electric field

     Computed dipole along edir(3) : 
        Dipole                1.3773 Ry au,          3.5007 Debye
        Dipole field          0.0026 Ry au, 
 
        Potential amp.       -0.2409 Ry
        Total length         46.3494 bohr
 

     total cpu time spent up to now is     1025.2 secs

     total energy              =   -2967.47596007 Ry
     estimated scf accuracy    <       0.00000087 Ry

     iteration # 66     ecut=    29.40 Ry     beta= 0.05
     Davidson diagonalization with overlap
     c_bands:  1 eigenvalues not converged
     ethr =  2.18E-10,  avg # of iterations = 14.6

     negative rho (up, down):  1.584E-02 0.000E+00
 
     Adding external electric field

     Computed dipole along edir(3) : 
        Dipole                1.3776 Ry au,          3.5015 Debye
        Dipole field          0.0026 Ry au, 
 
        Potential amp.       -0.2410 Ry
        Total length         46.3494 bohr
 

     total cpu time spent up to now is     1042.3 secs

     total energy              =   -2967.47596365 Ry
     estimated scf accuracy    <       0.00000045 Ry

     iteration # 67     ecut=    29.40 Ry     beta= 0.05
     Davidson diagonalization with overlap
     c_bands:  1 eigenvalues not converged
     ethr =  1.13E-10,  avg # of iterations = 11.8

     negative rho (up, down):  1.584E-02 0.000E+00
 
     Adding external electric field

     Computed dipole along edir(3) : 
        Dipole                1.3776 Ry au,          3.5015 Debye
        Dipole field          0.0026 Ry au, 
 
        Potential amp.       -0.2410 Ry
        Total length         46.3494 bohr
 

     total cpu time spent up to now is     1059.0 secs

     total energy              =   -2967.47596685 Ry
     estimated scf accuracy    <       0.00000017 Ry

     iteration # 68     ecut=    29.40 Ry     beta= 0.05
     Davidson diagonalization with overlap
     ethr =  4.35E-11,  avg # of iterations =  6.0

     negative rho (up, down):  1.584E-02 0.000E+00
 
     Adding external electric field

     Computed dipole along edir(3) : 
        Dipole                1.3776 Ry au,          3.5016 Debye
        Dipole field          0.0026 Ry au, 
 
        Potential amp.       -0.2410 Ry
        Total length         46.3494 bohr
 

     total cpu time spent up to now is     1070.6 secs

     total energy              =   -2967.47596967 Ry
     estimated scf accuracy    <       0.00000015 Ry

     iteration # 69     ecut=    29.40 Ry     beta= 0.05
     Davidson diagonalization with overlap
     c_bands:  1 eigenvalues not converged
     ethr =  3.73E-11,  avg # of iterations = 12.2

     negative rho (up, down):  1.585E-02 0.000E+00
 
     Adding external electric field

     Computed dipole along edir(3) : 
        Dipole                1.3780 Ry au,          3.5025 Debye
        Dipole field          0.0026 Ry au, 
 
        Potential amp.       -0.2411 Ry
        Total length         46.3494 bohr
 

     total cpu time spent up to now is     1087.3 secs

     total energy              =   -2967.47597222 Ry
     estimated scf accuracy    <       0.00000014 Ry

     iteration # 70     ecut=    29.40 Ry     beta= 0.05
     Davidson diagonalization with overlap
     ethr =  3.62E-11,  avg # of iterations =  8.3

     negative rho (up, down):  1.588E-02 0.000E+00
 
     Adding external electric field

     Computed dipole along edir(3) : 
        Dipole                1.3778 Ry au,          3.5019 Debye
        Dipole field          0.0026 Ry au, 
 
        Potential amp.       -0.2410 Ry
        Total length         46.3494 bohr
 

     total cpu time spent up to now is     1100.0 secs

     End of self-consistent calculation

          k = 0.0000 0.0000 0.0000 ( 18029 PWs)   bands (ev):

   -55.2503 -55.2228 -55.2143 -55.1884 -55.1569 -55.1491 -55.1433 -55.0965
   -55.0963 -55.0898 -55.0555 -55.0377 -55.0081 -55.0037 -54.3121 -54.2780
   -31.8170 -31.7669 -31.7179 -31.6277 -31.5652 -31.5552 -31.5505 -31.5478
   -31.5114 -31.4822 -31.4658 -31.4637 -31.4528 -31.4426 -31.4284 -31.4142
   -31.3968 -31.3909 -31.3874 -31.3831 -31.3768 -31.3679 -31.3451 -31.3406
   -31.3388 -31.3189 -31.3160 -31.3145 -31.2936 -31.2800 -31.2643 -31.2436
   -31.2423 -31.2415 -31.2301 -31.2209 -31.2032 -31.1891 -31.1773 -31.1726
   -31.1597 -31.1489 -30.7241 -30.6216 -30.6000 -30.5404 -30.4540 -30.3429
   -20.1702 -19.0858 -16.0799 -15.8328 -15.6930 -15.5946 -15.4735 -15.3401
   -15.2798 -15.1651 -15.0739 -14.9841 -14.9691 -14.9508 -14.9216 -14.8984
   -14.8739 -14.8356 -14.8093 -14.7655 -14.7569 -14.7402 -14.7335 -14.6967
   -14.6939 -14.6486 -14.6402 -14.4835 -14.4131 -14.3529 -14.1316 -12.8128
   -12.6934 -11.1921  -6.9280  -6.8529  -5.1423  -5.0177  -3.4191  -3.2626
    -3.2241  -3.2020  -3.1833  -3.1434  -3.0565  -2.9587  -2.7892  -2.6795
    -2.5414  -2.5347  -2.4883  -2.4615  -2.4044  -2.3230  -2.2342  -2.2075
    -2.1725  -2.1393  -2.1359  -2.1201  -2.1100  -2.0540  -2.0183  -1.9603
    -1.8647  -1.8148  -1.7745  -1.7565  -1.6954  -1.6516  -1.6170  -1.5890
    -1.5824  -1.5759  -1.5176  -1.5156  -1.5076  -1.4959  -1.4784  -1.2897
    -1.2505  -1.1176  -1.0263  -0.9873  -0.9720  -0.8178  -0.8112  -0.7669
    -0.7338  -0.6992  -0.6587  -0.6011  -0.5038  -0.4730  -0.4218  -0.3835
    -0.2754  -0.2433  -0.2125  -0.1578  -0.0502  -0.0419  -0.0161   0.0028
     0.0772   0.1730   0.2020   0.2234   0.3004   0.3056   0.3666   0.4073
     0.4411   0.5160   0.5611   0.5726   0.6642   0.6810   0.6948   0.7212
     0.7246   0.8233   0.8591   0.9041   0.9223   1.0739   1.1681   1.3079
     1.3365   1.6032   1.6985   1.7139   1.8742   2.2998   2.3546   3.8409
     3.9092   3.9475   3.9553   3.9685   4.0482   4.3319   4.3471   4.3590
     4.3687   4.3867

          k = 0.0000 0.0419 0.0000 ( 17933 PWs)   bands (ev):

   -55.2450 -55.2195 -55.2178 -55.1933 -55.1556 -55.1461 -55.1400 -55.0999
   -55.0993 -55.0847 -55.0604 -55.0328 -55.0089 -55.0086 -54.3070 -54.2829
   -31.7597 -31.7289 -31.6638 -31.5733 -31.5428 -31.5127 -31.5108 -31.5038
   -31.5034 -31.4902 -31.4783 -31.4568 -31.4521 -31.4403 -31.4311 -31.4208
   -31.4059 -31.4013 -31.3977 -31.3956 -31.3775 -31.3627 -31.3532 -31.3453
   -31.3410 -31.3211 -31.3190 -31.3144 -31.2994 -31.2941 -31.2940 -31.2722
   -31.2696 -31.2456 -31.2454 -31.2325 -31.2194 -31.2173 -31.2119 -31.2059
   -31.1804 -31.1779 -30.6700 -30.6183 -30.6029 -30.5278 -30.4665 -30.4001
   -20.1686 -19.0856 -15.9527 -15.7194 -15.6068 -15.5314 -15.3689 -15.2795
   -15.2422 -15.1585 -15.1154 -15.0590 -15.0302 -14.9284 -14.9212 -14.8895
   -14.8493 -14.8402 -14.8167 -14.8008 -14.7790 -14.7507 -14.7343 -14.7300
   -14.7216 -14.6838 -14.6552 -14.5403 -14.4704 -14.4100 -14.2459 -12.8154
   -12.7321 -11.1920  -6.9252  -6.8559  -5.1408  -5.0109  -3.2675  -3.2018
    -3.0937  -3.0638  -3.0176  -3.0082  -2.9505  -2.8377  -2.6000  -2.5674
    -2.5070  -2.4828  -2.4185  -2.4135  -2.3707  -2.3322  -2.2872  -2.2727
    -2.2534  -2.2158  -2.2013  -2.1491  -2.1362  -2.0830  -2.0484  -2.0322
    -2.0183  -1.9118  -1.8699  -1.8497  -1.8340  -1.8184  -1.7606  -1.6957
    -1.6768  -1.6020  -1.5881  -1.5333  -1.5229  -1.4085  -1.2484  -1.1957
    -1.1284  -1.0702  -1.0490  -1.0128  -0.8626  -0.8350  -0.6739  -0.6283
    -0.5973  -0.5646  -0.5518  -0.5314  -0.4403  -0.4141  -0.3471  -0.2570
    -0.2399  -0.2203  -0.2043  -0.1683  -0.1325  -0.0917  -0.0634  -0.0495
     0.0683   0.1094   0.1350   0.1702   0.1985   0.2323   0.3010   0.3468
     0.3906   0.4499   0.4896   0.4996   0.5052   0.5406   0.5766   0.7166
     0.7207   0.7650   0.7966   0.8410   0.9566   0.9873   1.0076   1.0311
     1.2076   1.3103   1.5738   1.8963   1.9650   2.2527   2.2654   4.0254
     4.0594   4.0630   4.1319   4.1652   4.2297   4.2442   4.2948   4.3060
     4.3545   4.4033

          k = 0.0000-0.0839 0.0000 ( 17884 PWs)   bands (ev):

   -55.2333 -55.2311 -55.2075 -55.2035 -55.1544 -55.1427 -55.1359 -55.1038
   -55.1029 -55.0740 -55.0711 -55.0225 -55.0188 -55.0099 -54.2949 -54.2948
   -31.6834 -31.6236 -31.6164 -31.5331 -31.5292 -31.5172 -31.5051 -31.5004
   -31.4928 -31.4520 -31.4457 -31.4416 -31.4332 -31.4273 -31.4233 -31.4211
   -31.4030 -31.4002 -31.3931 -31.3826 -31.3798 -31.3779 -31.3752 -31.3371
   -31.3342 -31.3303 -31.3297 -31.3271 -31.3245 -31.3204 -31.3166 -31.3143
   -31.3084 -31.2994 -31.2973 -31.2930 -31.2765 -31.2163 -31.2141 -31.2088
   -31.2045 -31.1792 -30.6104 -30.6103 -30.5370 -30.5367 -30.4972 -30.4971
   -20.1670 -19.0854 -15.7057 -15.6223 -15.4662 -15.4272 -15.3177 -15.3016
   -15.2747 -15.1769 -15.1131 -15.0902 -15.0786 -15.0432 -14.9461 -14.8773
   -14.8696 -14.8576 -14.8413 -14.8025 -14.7998 -14.7471 -14.7391 -14.6820
   -14.6743 -14.6113 -14.6087 -14.6063 -14.5522 -14.5421 -14.4544 -12.7950
   -12.7946 -11.1919  -6.9221  -6.8591  -5.1393  -5.0065  -3.2657  -2.9395
    -2.8293  -2.7922  -2.7278  -2.7200  -2.6785  -2.6704  -2.6596  -2.5938
    -2.5715  -2.5684  -2.5415  -2.4328  -2.4213  -2.4113  -2.3909  -2.3725
    -2.3024  -2.2668  -2.2367  -2.2107  -2.1602  -2.1590  -2.1330  -2.1045
    -2.1028  -2.0218  -1.9940  -1.9541  -1.9142  -1.7238  -1.6769  -1.6353
    -1.6232  -1.5335  -1.4661  -1.4162  -1.3373  -1.3146  -1.2048  -1.1843
    -1.1017  -1.0912  -1.0503  -0.9350  -0.7740  -0.7641  -0.7317  -0.7214
    -0.7012  -0.6939  -0.6652  -0.6563  -0.6347  -0.4795  -0.4023  -0.3470
    -0.3053  -0.2270  -0.1569   0.0109   0.0153   0.0365   0.0636   0.0874
     0.0963   0.1314   0.1473   0.1778   0.1894   0.2207   0.2376   0.2915
     0.3365   0.3831   0.3890   0.4139   0.4391   0.4825   0.4920   0.4955
     0.5507   0.5672   0.6144   0.8224   0.9025   0.9063   0.9145   1.0833
     1.1305   1.3085   1.3332   2.0322   2.0352   2.1893   2.1901   4.1164
     4.1361   4.1504   4.1715   4.2373   4.3139   4.3191   4.3800   4.4155
     4.4214   4.4370

          k = 0.0380 0.0000 0.0000 ( 17913 PWs)   bands (ev):

   -55.2502 -55.2227 -55.2142 -55.1883 -55.1563 -55.1495 -55.1433 -55.0964
   -55.0962 -55.0896 -55.0554 -55.0377 -55.0080 -55.0036 -54.3119 -54.2779
   -31.8171 -31.7669 -31.7189 -31.6329 -31.5691 -31.5555 -31.5543 -31.5481
   -31.5112 -31.4821 -31.4657 -31.4530 -31.4457 -31.4428 -31.4283 -31.3967
   -31.3963 -31.3906 -31.3829 -31.3811 -31.3732 -31.3500 -31.3443 -31.3405
   -31.3385 -31.3360 -31.3203 -31.3159 -31.2968 -31.2798 -31.2646 -31.2423
   -31.2417 -31.2407 -31.2375 -31.2291 -31.2025 -31.1882 -31.1798 -31.1726
   -31.1597 -31.1492 -30.7236 -30.6254 -30.5979 -30.5402 -30.4539 -30.3427
   -20.1699 -19.0856 -16.0014 -15.7440 -15.6835 -15.5552 -15.3880 -15.3437
   -15.2823 -15.1869 -15.1026 -15.0771 -15.0219 -14.9953 -14.9650 -14.9628
   -14.9259 -14.9188 -14.8352 -14.8287 -14.7651 -14.7393 -14.7057 -14.6476
   -14.5999 -14.5573 -14.5160 -14.4856 -14.4823 -14.4524 -14.1308 -12.8093
   -12.6931 -11.1936  -6.9374  -6.8434  -5.1358  -5.0151  -3.3019  -3.1967
    -3.1471  -3.0495  -3.0185  -2.9347  -2.9103  -2.8632  -2.7803  -2.7656
    -2.6751  -2.6305  -2.5666  -2.5411  -2.4436  -2.3767  -2.3196  -2.2816
    -2.2010  -2.1254  -2.0440  -1.9998  -1.9759  -1.9572  -1.9235  -1.8678
    -1.8524  -1.8183  -1.7815  -1.6713  -1.6486  -1.6366  -1.6086  -1.5835
    -1.5507  -1.5362  -1.4613  -1.4407  -1.3912  -1.3438  -1.3228  -1.2591
    -1.1972  -1.0945  -1.0304  -1.0182  -0.9916  -0.8994  -0.8490  -0.7690
    -0.7359  -0.7083  -0.7026  -0.6909  -0.6291  -0.5890  -0.5795  -0.3636
    -0.3202  -0.2528  -0.1855  -0.1591  -0.1425  -0.1033  -0.0296   0.0534
     0.0785   0.0968   0.1202   0.1624   0.2298   0.2661   0.3306   0.3645
     0.4053   0.4252   0.4582   0.4897   0.5324   0.5503   0.6007   0.6702
     0.7131   0.7473   0.7930   0.8050   0.8829   0.9257   0.9681   1.1811
     1.3552   1.5583   1.6131   1.7258   1.8415   2.1843   2.2699   3.8605
     3.9289   4.0284   4.1595   4.1715   4.2265   4.2717   4.3065   4.3239
     4.3501   4.3778

          k = 0.0380 0.0419 0.0000 ( 17878 PWs)   bands (ev):

   -55.2449 -55.2194 -55.2177 -55.1933 -55.1552 -55.1464 -55.1399 -55.0998
   -55.0992 -55.0846 -55.0604 -55.0328 -55.0089 -55.0086 -54.3069 -54.2829
   -31.7599 -31.7290 -31.6647 -31.5792 -31.5427 -31.5161 -31.5115 -31.5081
   -31.5038 -31.4901 -31.4785 -31.4571 -31.4408 -31.4375 -31.4307 -31.4210
   -31.4021 -31.3957 -31.3898 -31.3882 -31.3772 -31.3596 -31.3454 -31.3417
   -31.3359 -31.3307 -31.3209 -31.3191 -31.3009 -31.2968 -31.2936 -31.2733
   -31.2612 -31.2529 -31.2453 -31.2329 -31.2278 -31.2232 -31.2110 -31.2056
   -31.1816 -31.1804 -30.6696 -30.6212 -30.6019 -30.5276 -30.4666 -30.4000
   -20.1684 -19.0854 -15.8815 -15.6454 -15.6132 -15.4656 -15.3123 -15.2658
   -15.2319 -15.1574 -15.1350 -15.0858 -15.0451 -14.9815 -14.9468 -14.9350
   -14.9167 -14.8915 -14.8670 -14.8507 -14.7784 -14.7725 -14.7247 -14.6882
   -14.6660 -14.6105 -14.5985 -14.5511 -14.5346 -14.5037 -14.2455 -12.8130
   -12.7324 -11.1932  -6.9289  -6.8516  -5.1393  -5.0061  -3.2209  -3.1141
    -3.0492  -2.9220  -2.8622  -2.7919  -2.7395  -2.7126  -2.6268  -2.5852
    -2.5234  -2.5075  -2.4540  -2.3903  -2.3423  -2.3196  -2.2618  -2.2506
    -2.2041  -2.1835  -2.1490  -2.1045  -2.0896  -2.0712  -2.0507  -1.9846
    -1.9435  -1.9277  -1.8804  -1.8447  -1.7919  -1.7490  -1.7259  -1.6934
    -1.6316  -1.6221  -1.5320  -1.4757  -1.4452  -1.3263  -1.2698  -1.1544
    -1.1267  -1.1013  -1.0374  -0.9588  -0.8990  -0.8233  -0.7456  -0.7118
    -0.6691  -0.6559  -0.6252  -0.5922  -0.5331  -0.4861  -0.4361  -0.3680
    -0.3567  -0.3075  -0.2542  -0.2023  -0.1730  -0.1336  -0.1109  -0.0262
    -0.0077   0.0190   0.0383   0.0657   0.1100   0.1355   0.1630   0.2016
     0.2542   0.2999   0.3443   0.3698   0.4644   0.5023   0.5824   0.6336
     0.7188   0.7547   0.8328   0.8782   0.8968   0.9622   1.0162   1.1102
     1.1654   1.2653   1.5205   1.9072   1.9684   2.1739   2.2448   3.9992
     4.0522   4.0574   4.1851   4.2268   4.2550   4.2839   4.3301   4.3877
     4.4087   4.4399

          k = 0.0380-0.0839 0.0000 ( 17916 PWs)   bands (ev):

   -55.2333 -55.2311 -55.2075 -55.2035 -55.1541 -55.1429 -55.1360 -55.1039
   -55.1030 -55.0739 -55.0711 -55.0225 -55.0188 -55.0099 -54.2950 -54.2949
   -31.6836 -31.6238 -31.6167 -31.5339 -31.5300 -31.5172 -31.5053 -31.5005
   -31.4928 -31.4648 -31.4477 -31.4465 -31.4435 -31.4310 -31.4047 -31.4027
   -31.3986 -31.3963 -31.3871 -31.3846 -31.3826 -31.3800 -31.3764 -31.3384
   -31.3343 -31.3284 -31.3259 -31.3255 -31.3243 -31.3222 -31.3184 -31.3135
   -31.2986 -31.2975 -31.2961 -31.2849 -31.2817 -31.2274 -31.2249 -31.2088
   -31.2045 -31.1851 -30.6115 -30.6115 -30.5369 -30.5366 -30.4972 -30.4971
   -20.1669 -19.0853 -15.6740 -15.5837 -15.4276 -15.3715 -15.2949 -15.2612
   -15.2182 -15.1474 -15.1198 -15.1156 -15.0528 -15.0057 -14.9427 -14.9238
   -14.9012 -14.8964 -14.8687 -14.8323 -14.7955 -14.7412 -14.7335 -14.7281
   -14.7161 -14.6489 -14.6477 -14.6162 -14.6052 -14.5863 -14.4469 -12.7948
   -12.7944 -11.1929  -6.9233  -6.8560  -5.1418  -5.0011  -3.2241  -2.9532
    -2.8106  -2.7397  -2.6355  -2.5382  -2.5310  -2.5037  -2.4913  -2.4421
    -2.4324  -2.3779  -2.3641  -2.3623  -2.3482  -2.3326  -2.3105  -2.2939
    -2.2591  -2.2401  -2.1954  -2.1584  -2.1484  -2.1276  -2.1132  -2.0848
    -2.0622  -2.0145  -1.9667  -1.9194  -1.9037  -1.7629  -1.7348  -1.6030
    -1.5180  -1.5017  -1.4725  -1.3834  -1.2957  -1.2634  -1.2537  -1.2340
    -1.2145  -1.1564  -1.0964  -1.0499  -0.9927  -0.9466  -0.9248  -0.9171
    -0.8778  -0.8418  -0.7436  -0.6162  -0.5928  -0.5299  -0.5051  -0.4008
    -0.3569  -0.3104  -0.2815  -0.1970  -0.1774  -0.1209  -0.0731  -0.0651
    -0.0616  -0.0521   0.0342   0.0847   0.0979   0.1285   0.1633   0.1891
     0.2322   0.2562   0.2811   0.4327   0.4669   0.4706   0.5319   0.6342
     0.6921   0.7717   0.7838   0.8199   0.8660   0.9481   0.9510   1.0566
     1.0882   1.2935   1.3165   2.0466   2.0493   2.1815   2.1831   4.0191
     4.0792   4.1491   4.1794   4.2294   4.2868   4.2992   4.4009   4.4298
     4.4672   4.4892

          k = 0.0380-0.0419 0.0000 ( 17876 PWs)   bands (ev):

   -55.2449 -55.2194 -55.2177 -55.1933 -55.1552 -55.1464 -55.1399 -55.0998
   -55.0992 -55.0846 -55.0604 -55.0328 -55.0089 -55.0086 -54.3069 -54.2829
   -31.7599 -31.7290 -31.6647 -31.5792 -31.5427 -31.5162 -31.5115 -31.5082
   -31.5038 -31.4901 -31.4785 -31.4571 -31.4408 -31.4374 -31.4308 -31.4211
   -31.4017 -31.3957 -31.3893 -31.3882 -31.3772 -31.3596 -31.3454 -31.3417
   -31.3358 -31.3308 -31.3220 -31.3191 -31.3003 -31.2967 -31.2936 -31.2733
   -31.2611 -31.2532 -31.2456 -31.2329 -31.2276 -31.2233 -31.2102 -31.2056
   -31.1820 -31.1804 -30.6696 -30.6212 -30.6019 -30.5276 -30.4666 -30.4000
   -20.1684 -19.0854 -15.8818 -15.6460 -15.6123 -15.4633 -15.3109 -15.2663
   -15.2318 -15.1579 -15.1407 -15.0851 -15.0465 -14.9817 -14.9465 -14.9352
   -14.9140 -14.8914 -14.8658 -14.8501 -14.7791 -14.7722 -14.7253 -14.6888
   -14.6664 -14.6106 -14.5978 -14.5505 -14.5350 -14.5041 -14.2452 -12.8130
   -12.7324 -11.1932  -6.9327  -6.8466  -5.1387  -5.0072  -3.2075  -3.1216
    -3.0432  -2.9259  -2.8627  -2.8081  -2.7390  -2.7117  -2.6271  -2.5870
    -2.5227  -2.5094  -2.4621  -2.3903  -2.3377  -2.3194  -2.2619  -2.2481
    -2.2050  -2.1841  -2.1462  -2.0980  -2.0835  -2.0714  -2.0507  -1.9847
    -1.9423  -1.9283  -1.8837  -1.8469  -1.7937  -1.7527  -1.7336  -1.6887
    -1.6712  -1.6161  -1.5142  -1.4719  -1.4434  -1.3239  -1.2685  -1.1534
    -1.1368  -1.0927  -1.0346  -0.9596  -0.8939  -0.8185  -0.7298  -0.7042
    -0.6694  -0.6499  -0.6324  -0.5953  -0.5269  -0.4877  -0.4354  -0.3761
    -0.3578  -0.3083  -0.2536  -0.2046  -0.1809  -0.1323  -0.1071  -0.0276
    -0.0082   0.0244   0.0441   0.0703   0.1139   0.1404   0.1652   0.2023
     0.2633   0.2966   0.3423   0.3681   0.4630   0.4997   0.5827   0.6329
     0.7207   0.7495   0.8300   0.8769   0.8912   0.9484   1.0119   1.1101
     1.1659   1.2656   1.5211   1.9073   1.9684   2.1738   2.2454   3.9972
     4.0514   4.0575   4.1818   4.2326   4.2629   4.2859   4.3262   4.3949
     4.4126   4.4371

          k =-0.0760-0.0000 0.0000 ( 17886 PWs)   bands (ev):

   -55.2501 -55.2226 -55.2142 -55.1883 -55.1557 -55.1500 -55.1433 -55.0964
   -55.0962 -55.0894 -55.0554 -55.0378 -55.0080 -55.0036 -54.3119 -54.2778
   -31.8173 -31.7671 -31.7199 -31.6378 -31.5729 -31.5592 -31.5546 -31.5484
   -31.5110 -31.4820 -31.4657 -31.4530 -31.4431 -31.4283 -31.4176 -31.3963
   -31.3908 -31.3828 -31.3759 -31.3698 -31.3641 -31.3610 -31.3493 -31.3449
   -31.3405 -31.3384 -31.3182 -31.3159 -31.2953 -31.2801 -31.2718 -31.2651
   -31.2423 -31.2414 -31.2340 -31.2288 -31.2020 -31.1874 -31.1825 -31.1726
   -31.1601 -31.1499 -30.7231 -30.6291 -30.5965 -30.5401 -30.4538 -30.3428
   -20.1697 -19.0855 -15.8681 -15.7670 -15.5901 -15.4961 -15.3680 -15.2975
   -15.2393 -15.1824 -15.1592 -15.1205 -15.0998 -15.0527 -15.0459 -15.0287
   -15.0013 -14.9581 -14.8267 -14.7772 -14.7646 -14.7443 -14.7089 -14.6439
   -14.6377 -14.5612 -14.5570 -14.5170 -14.4257 -14.3981 -14.1303 -12.8060
   -12.6928 -11.1952  -6.9455  -6.8351  -5.1300  -5.0126  -3.2654  -3.1820
    -3.1359  -3.0051  -2.8866  -2.8115  -2.7571  -2.7324  -2.7167  -2.6769
    -2.6691  -2.5670  -2.5534  -2.5446  -2.5269  -2.3773  -2.2546  -2.1987
    -2.1792  -1.9566  -1.9334  -1.9238  -1.9023  -1.8700  -1.8669  -1.8393
    -1.8172  -1.7741  -1.7579  -1.7534  -1.7136  -1.6158  -1.5850  -1.5797
    -1.5470  -1.4949  -1.4606  -1.4537  -1.4175  -1.3435  -1.2644  -1.1905
    -1.1502  -1.0083  -1.0058  -0.9955  -0.9698  -0.9357  -0.8691  -0.8539
    -0.8250  -0.7501  -0.7402  -0.7198  -0.6770  -0.6225  -0.5930  -0.5425
    -0.5307  -0.4866  -0.2271  -0.2074  -0.1814  -0.1582  -0.0751  -0.0567
    -0.0056   0.0432   0.1172   0.1243   0.1855   0.2130   0.2440   0.2599
     0.3256   0.3674   0.4066   0.4413   0.4498   0.4778   0.5200   0.5694
     0.6455   0.6999   0.7005   0.7419   0.8975   1.0197   1.0370   1.2110
     1.3029   1.3670   1.6168   1.7479   1.8152   2.0485   2.2115   3.8620
     3.8957   3.9799   4.0895   4.1326   4.1983   4.2845   4.3226   4.3307
     4.3653   4.3961

          k =-0.0760 0.0419 0.0000 ( 17914 PWs)   bands (ev):

   -55.2449 -55.2194 -55.2177 -55.1933 -55.1547 -55.1469 -55.1400 -55.0999
   -55.0993 -55.0845 -55.0604 -55.0329 -55.0089 -55.0086 -54.3069 -54.2829
   -31.7602 -31.7292 -31.6658 -31.5850 -31.5428 -31.5202 -31.5129 -31.5119
   -31.5039 -31.4901 -31.4785 -31.4574 -31.4407 -31.4317 -31.4212 -31.4171
   -31.4018 -31.3960 -31.3791 -31.3773 -31.3572 -31.3571 -31.3521 -31.3480
   -31.3453 -31.3410 -31.3192 -31.3064 -31.2981 -31.2958 -31.2935 -31.2803
   -31.2770 -31.2455 -31.2425 -31.2373 -31.2326 -31.2310 -31.2095 -31.2064
   -31.1863 -31.1805 -30.6693 -30.6244 -30.6012 -30.5276 -30.4666 -30.4001
   -20.1682 -19.0853 -15.7544 -15.6998 -15.5032 -15.4061 -15.2959 -15.2178
   -15.1971 -15.1583 -15.1311 -15.0994 -15.0609 -15.0348 -15.0218 -14.9992
   -14.9863 -14.9407 -14.8706 -14.8353 -14.7946 -14.7798 -14.7111 -14.6970
   -14.6768 -14.6143 -14.6105 -14.6040 -14.5310 -14.4959 -14.2452 -12.8107
   -12.7328 -11.1946  -6.9359  -6.8431  -5.1376  -5.0026  -3.1815  -3.0950
    -3.0512  -2.9056  -2.6538  -2.6255  -2.5522  -2.5421  -2.5238  -2.4910
    -2.4679  -2.4411  -2.3780  -2.3439  -2.3307  -2.2995  -2.2556  -2.2021
    -2.1929  -2.1583  -2.1189  -2.0565  -2.0275  -1.9947  -1.9710  -1.9465
    -1.9123  -1.8516  -1.8291  -1.7942  -1.7708  -1.7570  -1.7448  -1.6897
    -1.6041  -1.4958  -1.4876  -1.4412  -1.4024  -1.3320  -1.2733  -1.2593
    -1.0916  -1.0687  -0.9980  -0.9689  -0.9253  -0.8722  -0.8420  -0.7684
    -0.7612  -0.7238  -0.6608  -0.6424  -0.6380  -0.5833  -0.5158  -0.5100
    -0.5043  -0.5001  -0.4277  -0.4080  -0.3494  -0.3218  -0.2483  -0.2191
    -0.1293  -0.0911  -0.0473  -0.0267  -0.0027   0.0362   0.0734   0.1799
     0.2207   0.2436   0.3200   0.3768   0.4449   0.4820   0.5296   0.6502
     0.7158   0.7600   0.8677   0.9272   0.9908   1.0153   1.1145   1.1347
     1.1933   1.2272   1.3621   1.9219   1.9707   2.0962   2.2322   4.0095
     4.0293   4.0519   4.0647   4.1559   4.2091   4.2365   4.3120   4.3313
     4.4580   4.5011

          k =-0.0760-0.0839 0.0000 ( 17948 PWs)   bands (ev):

   -55.2333 -55.2311 -55.2075 -55.2035 -55.1538 -55.1432 -55.1360 -55.1039
   -55.1030 -55.0739 -55.0711 -55.0226 -55.0189 -55.0099 -54.2950 -54.2949
   -31.6838 -31.6241 -31.6171 -31.5348 -31.5309 -31.5173 -31.5056 -31.5005
   -31.4929 -31.4725 -31.4543 -31.4488 -31.4446 -31.4313 -31.4054 -31.4032
   -31.3912 -31.3887 -31.3817 -31.3808 -31.3773 -31.3740 -31.3615 -31.3476
   -31.3394 -31.3343 -31.3337 -31.3273 -31.3240 -31.3240 -31.3234 -31.3054
   -31.2984 -31.2954 -31.2769 -31.2723 -31.2717 -31.2477 -31.2438 -31.2089
   -31.2045 -31.1917 -30.6126 -30.6126 -30.5369 -30.5366 -30.4973 -30.4971
   -20.1668 -19.0851 -15.6384 -15.5395 -15.3892 -15.2659 -15.2536 -15.2410
   -15.1890 -15.1247 -15.1110 -15.0606 -15.0480 -15.0170 -15.0011 -14.9951
   -14.9591 -14.8507 -14.8467 -14.8364 -14.8157 -14.7705 -14.7595 -14.7524
   -14.7401 -14.7040 -14.6955 -14.6812 -14.6709 -14.5797 -14.4408 -12.7945
   -12.7942 -11.1939  -6.9243  -6.8530  -5.1442  -4.9957  -3.1810  -2.9776
    -2.8075  -2.7288  -2.6311  -2.4838  -2.4691  -2.3880  -2.3760  -2.3258
    -2.2549  -2.2519  -2.2482  -2.1670  -2.1547  -2.1546  -2.1335  -2.1141
    -2.0739  -2.0652  -2.0415  -2.0310  -1.9896  -1.9588  -1.9457  -1.9286
    -1.9183  -1.9144  -1.8834  -1.8688  -1.8534  -1.8124  -1.7894  -1.7286
    -1.6427  -1.6035  -1.4807  -1.4781  -1.4433  -1.4134  -1.3875  -1.3472
    -1.3271  -1.2795  -1.2603  -1.2337  -1.0500  -1.0340  -0.9797  -0.9398
    -0.9202  -0.9065  -0.8445  -0.7729  -0.7459  -0.7144  -0.6486  -0.5755
    -0.4795  -0.4553  -0.4469  -0.3411  -0.2886  -0.2491  -0.2447  -0.2354
    -0.2115  -0.1629  -0.1431  -0.0813  -0.0422   0.0015   0.0269   0.0437
     0.2246   0.2632   0.3215   0.4127   0.4416   0.5868   0.6352   0.6871
     0.7477   0.8241   0.8350   0.9011   1.0155   1.0276   1.0574   1.1346
     1.1780   1.1837   1.2087   2.0652   2.0672   2.1690   2.1718   3.9706
     4.0781   4.0967   4.1756   4.2418   4.3499   4.3632   4.3923   4.4028
     4.4475   4.4799

     the Fermi energy is     3.8972 ev

!    total energy              =   -2967.47599555 Ry
     estimated scf accuracy    <       0.00000007 Ry
     smearing contrib. (-TS)   =      -0.03654156 Ry
     internal energy E=F+TS    =   -2967.43945399 Ry

     The total energy is F=E-TS. E is the sum of the following terms:
     one-electron contribution =  -23962.79843191 Ry
     hartree contribution      =   12076.99346357 Ry
     xc contribution           =    -491.86066862 Ry
     ewald contribution        =    9410.22260082 Ry
     electric field correction =       0.00358215 Ry

     convergence has been achieved in  70 iterations

     Forces acting on atoms (cartesian axes, Ry/au):

     atom    1 type  1   force =    -0.00026269    0.00019672    0.09245664
     atom    2 type  1   force =    -0.00035848    0.00103653   -0.18341107
     atom    3 type  2   force =     0.00050505   -0.00072202   -0.02346622
     atom    4 type  2   force =     0.00072381   -0.00018853    0.05069833
     atom    5 type  2   force =    -0.01404274   -0.00132041    0.00495844
     atom    6 type  2   force =     0.01520621   -0.00065325    0.00509879
     atom    7 type  1   force =    -0.00049091    0.00106525   -0.00012184
     atom    8 type  1   force =     0.00016042   -0.00053699    0.00039460
     atom    9 type  2   force =    -0.00044100    0.00017326    0.00040800
     atom   10 type  2   force =     0.00040752    0.00016167    0.00047325
     atom   11 type  2   force =     0.00035418    0.00043906    0.00034241
     atom   12 type  2   force =     0.00006225    0.00013984    0.00027165
     atom   13 type  1   force =    -0.00088392   -0.00118619   -0.00013029
     atom   14 type  1   force =     0.00059522   -0.00004770    0.00021112
     atom   15 type  2   force =     0.00051368    0.00077005    0.00007818
     atom   16 type  2   force =    -0.00061545   -0.00036787    0.00006251
     atom   17 type  2   force =     0.00004587    0.00020506   -0.00041693
     atom   18 type  2   force =    -0.00015207    0.00029667   -0.00015351
     atom   19 type  1   force =     0.00066117   -0.00006358   -0.00032875
     atom   20 type  1   force =    -0.00006400    0.00013208   -0.00019463
     atom   21 type  2   force =    -0.00004070    0.00015627    0.10498939
     atom   22 type  2   force =    -0.00037020    0.00058572   -0.00088434
     atom   23 type  2   force =    -0.06801406    0.00012652   -0.02679944
     atom   24 type  2   force =     0.06773357    0.00053207   -0.02686655
     atom   25 type  1   force =    -0.00038448   -0.00008715    0.09625265
     atom   26 type  1   force =    -0.00035549   -0.00098411   -0.18319847
     atom   27 type  2   force =     0.00042127   -0.00125307   -0.02223141
     atom   28 type  2   force =     0.00070066   -0.00032998    0.05102248
     atom   29 type  2   force =    -0.01422972   -0.00105575    0.00466718
     atom   30 type  2   force =     0.01517795    0.00021673    0.00485113
     atom   31 type  1   force =    -0.00050462   -0.00146180    0.00018037
     atom   32 type  1   force =     0.00013000    0.00071404   -0.00027758
     atom   33 type  2   force =     0.00002270   -0.00020401    0.00007774
     atom   34 type  2   force =     0.00002406   -0.00006595   -0.00008432
     atom   35 type  2   force =     0.00020897    0.00008595    0.00031133
     atom   36 type  2   force =     0.00040134    0.00045321    0.00005697
     atom   37 type  1   force =    -0.00106358    0.00125593   -0.00007486
     atom   38 type  1   force =     0.00037806    0.00010506   -0.00044141
     atom   39 type  2   force =     0.00038989    0.00022956   -0.00031952
     atom   40 type  2   force =    -0.00008237    0.00019591    0.00007174
     atom   41 type  2   force =    -0.00021551    0.00019839   -0.00050192
     atom   42 type  2   force =     0.00013879   -0.00001603    0.00019007
     atom   43 type  1   force =    -0.00058913    0.00014162    0.00018408
     atom   44 type  1   force =    -0.00003297    0.00005904   -0.00088883
     atom   45 type  2   force =    -0.00005420    0.00015517    0.10489431
     atom   46 type  2   force =    -0.06806091   -0.00038055   -0.02680673
     atom   47 type  2   force =     0.06778089    0.00004883   -0.02689048
     atom   48 type  3   force =    -0.00222520   -0.00115532   -0.00103728
     atom   49 type  2   force =    -0.00114422    0.00102202    0.00158976
     atom   50 type  4   force =     0.00037304   -0.00049346   -0.00031308
     atom   51 type  4   force =     0.00077492    0.00090760   -0.00002572
     atom   52 type  4   force =    -0.00032956    0.00097791   -0.00012094
     atom   53 type  4   force =     0.00199465    0.00136966    0.00054938
     atom   54 type  2   force =     0.00089286   -0.00024610    0.00106848
     atom   55 type  4   force =    -0.00084639   -0.00034970   -0.00059191
     atom   56 type  4   force =    -0.00092440   -0.00098389    0.00016707

     Total force =     0.368228     Total SCF correction =     0.000658
  @ DRIVER MODE: Message from server: STATUS
  @ DRIVER MODE: Message from server: GETFORCE
  @ DRIVER MODE: Returning v,forces,stress,ensemble 

     Writing output data file ./calc.save/
  @ DRIVER MODE: Message from server: EXIT
  @ DRIVE MODE: Exiting  
 
     init_run     :     10.59s CPU     10.81s WALL (       1 calls)
     electrons    :   1073.16s CPU   1088.77s WALL (       1 calls)
     forces       :      2.24s CPU      2.32s WALL (       1 calls)

     Called by init_run:
     wfcinit      :      4.75s CPU      4.82s WALL (       1 calls)
     potinit      :      5.27s CPU      5.33s WALL (       1 calls)
     hinit0       :      0.24s CPU      0.25s WALL (       1 calls)

     Called by electrons:
     c_bands      :    912.79s CPU    919.15s WALL (      70 calls)
     sum_band     :    109.59s CPU    113.25s WALL (      70 calls)
     v_of_rho     :     39.25s CPU     41.22s WALL (      71 calls)
     newd         :     14.72s CPU     18.28s WALL (      71 calls)
     mix_rho      :      1.44s CPU      1.49s WALL (      70 calls)
     vdW_kernel   :      4.54s CPU      4.55s WALL (       1 calls)

     Called by c_bands:
     init_us_2    :      6.41s CPU      6.44s WALL (    1420 calls)
     cegterg      :    894.05s CPU    900.13s WALL (     715 calls)

     Called by *egterg:
     cdiaghg      :    147.79s CPU    148.41s WALL (    6948 calls)
     h_psi        :    482.34s CPU    486.67s WALL (    6959 calls)
     s_psi        :     63.79s CPU     63.98s WALL (    6959 calls)
     g_psi        :      1.74s CPU      1.75s WALL (    6234 calls)

     Called by h_psi:
     h_psi:calbec :     59.78s CPU     60.07s WALL (    6959 calls)
     vloc_psi     :    355.25s CPU    358.70s WALL (    6959 calls)
     add_vuspsi   :     64.14s CPU     64.52s WALL (    6959 calls)

     General routines
     calbec       :     79.31s CPU     79.67s WALL (    7699 calls)
     fft          :     19.90s CPU     20.05s WALL (    4473 calls)
     ffts         :      0.12s CPU      0.13s WALL (     141 calls)
     fftw         :    398.94s CPU    402.79s WALL (  953964 calls)
     interpolate  :      0.40s CPU      0.40s WALL (      71 calls)
     davcio       :      0.00s CPU      0.16s WALL (      10 calls)
 
     Parallel routines
 
     PWSCF        :  18m 6.22s CPU  18m22.86s WALL

 
   This run was terminated on:   1:46: 7  16Sep2021            

=------------------------------------------------------------------------------=
   JOB DONE.
=------------------------------------------------------------------------------=
