
     Program PWSCF v.6.7GPU starts on 16Sep2021 at  4:16:12 

     This program is part of the open-source Quantum ESPRESSO suite
     for quantum simulation of materials; please cite
         "P. Giannozzi et al., J. Phys.:Condens. Matter 21 395502 (2009);
         "P. Giannozzi et al., J. Phys.:Condens. Matter 29 465901 (2017);
         "P. Giannozzi et al., J. Chem. Phys. 152 154105 (2020);
          URL http://www.quantum-espresso.org", 
     in publications or presentations arising from this work. More details at
     http://www.quantum-espresso.org/quote

     Parallel version (MPI), running on    10 processors

     MPI processes distributed on     1 nodes
     R & G space division:  proc/nbgrp/npool/nimage =      10
     Reading input from /storage/home/hcoda1/3/ntian30/research/carbon/CxH_vib/H2O_calc/ads_slab/CHN2H2O_c/out_0040/pw.inp
Warning: card &CELL ignored
Warning: card   CELL_DYNAMICS='IPI', ignored
Warning: card / ignored

     Current dimensions of program PWSCF are:
     Max number of different atomic species (ntypx) = 10
     Max number of k-points (npk) =  40000
     Max angular momentum in pseudopotentials (lmaxx) =  3
     Presently no symmetry can be used with electric field

     Message from routine cell_base_init:
     DEPRECATED: use true lattice parameter, not A to a.u. conversion factor

     **************************************************************************
     Initializing libbeef V0.1.2 with the BEEF-vdW functional.
     Citation: Wellendorff et al., PRB 85, 235149 (2012).
     **************************************************************************


     IMPORTANT: XC functional enforced from input :
     Exchange-correlation= BEEF-VDW
                           (   1   4  43  14   2   0   0)
     Any further DFT definition will be discarded
     Please, verify this is what you really want


     Subspace diagonalization in iterative solution of the eigenvalue problem:
     one sub-group per band group will be used
     scalapack distributed-memory algorithm (size of sub-group:  3*  3 procs)

  @ DRIVER MODE: Connecting to 
 qe_1139763_2852625.sched-torque.pace.gatech.eduig1wgnen_scratch
  using UNIX socket
  @ DRIVER MODE: Message from server: STATUS
  @ DRIVER MODE: Message from server: INIT
  @ DRIVER MODE: Receiving replica           0          -1
  @ DRIVER MODE: Receiving encoded integer          25
  @ DRIVER MODE:  SCF:  T  FORCE:  T  STRESS:  F  VC:  F  ENSEMBLE:  F
  @ DRIVER MODE:  SCF:  T  FORCE:  T  STRESS:  F  VC:  F  ENSEMBLE:  F
 
     Parallelization info
     --------------------
     sticks:   dense  smooth     PW     G-vecs:    dense   smooth      PW
     Min         327     131     37                56683    14340    2191
     Max         328     133     38                56694    14346    2206
     Sum        3275    1317    379               566857   143421   21985
 
     Using Slab Decomposition
 


     bravais-lattice index     =            0
     lattice parameter (alat)  =       1.8897  a.u.
     unit-cell volume          =    6658.9804 (a.u.)^3
     number of atoms/cell      =           54
     number of atomic types    =            5
     number of electrons       =       401.00
     number of Kohn-Sham states=          210
     kinetic-energy cutoff     =      29.3995  Ry
     charge density cutoff     =     293.9946  Ry
     scf convergence threshold =      7.3E-08
     mixing beta               =       0.0500
     number of iterations used =            8  plain     mixing
     Exchange-correlation= BEEF-VDW
                           (   1   4  43  14   2   0   0)

     celldm(1)=   1.889726  celldm(2)=   0.000000  celldm(3)=   0.000000
     celldm(4)=   0.000000  celldm(5)=   0.000000  celldm(6)=   0.000000

     crystal axes: (cart. coord. in units of alat)
               a(1) = (   6.579727   0.000000   0.000000 )  
               a(2) = (  -0.000775   5.961596   0.000000 )  
               a(3) = (   0.000000   0.000000  25.155947 )  

     reciprocal axes: (cart. coord. in units 2 pi/alat)
               b(1) = (  0.151982  0.000020  0.000000 )  
               b(2) = (  0.000000  0.167740  0.000000 )  
               b(3) = (  0.000000  0.000000  0.039752 )  


     PseudoPot. # 1 for Ti read from file:
     /storage/coda1/p-amedford6/0/shared/rich_project_chbe-medford/medford-share/data/pseudos_module/espresso/nninc/pbe/van/Ti.UPF
     MD5 check sum: 8e4df49b7f0d34bbd5052bf3f5ea0213
     Pseudo is Ultrasoft, Zval = 12.0
     Generated by new atomic code, or converted to UPF format
     Using radial grid of  851 points,  6 beta functions with: 
                l(1) =   0
                l(2) =   0
                l(3) =   1
                l(4) =   1
                l(5) =   2
                l(6) =   2
     Q(r) pseudized with  8 coefficients,  rinner =    1.000   1.000   1.000
                                                       1.000   1.000

     PseudoPot. # 2 for O  read from file:
     /storage/coda1/p-amedford6/0/shared/rich_project_chbe-medford/medford-share/data/pseudos_module/espresso/nninc/pbe/van/O.UPF
     MD5 check sum: 78c19812648e8988a0fe644b0f25305e
     Pseudo is Ultrasoft, Zval =  6.0
     Generated by new atomic code, or converted to UPF format
     Using radial grid of  737 points,  4 beta functions with: 
                l(1) =   0
                l(2) =   0
                l(3) =   1
                l(4) =   1
     Q(r) pseudized with  8 coefficients,  rinner =    0.800   0.800   0.800


     PseudoPot. # 3 for C  read from file:
     /storage/coda1/p-amedford6/0/shared/rich_project_chbe-medford/medford-share/data/pseudos_module/espresso/nninc/pbe/van/C.UPF
     MD5 check sum: 1a69bf6b8db32088f5b2163dbdb77a27
     Pseudo is Ultrasoft, Zval =  4.0
     Generated by new atomic code, or converted to UPF format
     Using radial grid of  721 points,  4 beta functions with: 
                l(1) =   0
                l(2) =   0
                l(3) =   1
                l(4) =   1
     Q(r) pseudized with  8 coefficients,  rinner =    0.800   0.800   0.800


     PseudoPot. # 4 for H  read from file:
     /storage/coda1/p-amedford6/0/shared/rich_project_chbe-medford/medford-share/data/pseudos_module/espresso/nninc/pbe/van/H.UPF
     MD5 check sum: b5ee9d7bfd3a09ee7748110bda690ff7
     Pseudo is Ultrasoft, Zval =  1.0
     Generated by new atomic code, or converted to UPF format
     Using radial grid of  615 points,  1 beta functions with: 
                l(1) =   0
     Q(r) pseudized with  8 coefficients,  rinner =    0.800

     PseudoPot. # 5 for N  read from file:
     /storage/coda1/p-amedford6/0/shared/rich_project_chbe-medford/medford-share/data/pseudos_module/espresso/nninc/pbe/van/N.UPF
     MD5 check sum: 90d10febe142ad51ac9d5be1deb811c4
     Pseudo is Ultrasoft, Zval =  5.0
     Generated by new atomic code, or converted to UPF format
     Using radial grid of  729 points,  4 beta functions with: 
                l(1) =   0
                l(2) =   0
                l(3) =   1
                l(4) =   1
     Q(r) pseudized with  8 coefficients,  rinner =    0.800   0.800   0.800


     atomic species   valence    mass     pseudopotential
        Ti1           12.00    47.86700     Ti( 1.00)
        O1             6.00    15.99900     O ( 1.00)
        C1             4.00    12.01100     C ( 1.00)
        H1             1.00     1.00800     H ( 1.00)
        N1             5.00    14.00700     N ( 1.00)

     No symmetry found



   Cartesian axes

     site n.     atom                  positions (alat units)
         1           Ti1 tau(   1) = (   0.0004258   2.9801865   6.0000000  )
         2           Ti1 tau(   2) = (   3.2906075   1.4906267   6.0002472  )
         3           O1  tau(   3) = (   0.0006271   0.0005054   7.9858123  )
         4           O1  tau(   4) = (   3.2906025   0.0005020   7.3038282  )
         5           O1  tau(   5) = (   4.5942328   1.4918067   9.2879030  )
         6           O1  tau(   6) = (   1.9868534   1.4903216   9.2879459  )
         7           Ti1 tau(   7) = (   3.2907910   2.8959150   9.1758416  )
         8           Ti1 tau(   8) = (   0.0015273   1.4827037   9.2680791  )
         9           O1  tau(   9) = (   3.2982821   5.9591942  11.3418950  )
        10           O1  tau(  10) = (   0.0116148   5.9584955  10.6183126  )
        11           O1  tau(  11) = (   1.2990089   1.4837789  12.6285733  )
        12           O1  tau(  12) = (   5.2904647   1.4888503  12.6163117  )
        13           Ti1 tau(  13) = (   0.0603338   2.9457994  12.6026339  )
        14           Ti1 tau(  14) = (   3.3706290   1.4705258  12.5092779  )
        15           O1  tau(  15) = (   6.5788109   0.0160518  14.6499261  )
        16           O1  tau(  16) = (   3.3158691   0.0087694  13.9605792  )
        17           O1  tau(  17) = (   4.5613999   1.5213109  16.0555727  )
        18           O1  tau(  18) = (   2.0390476   1.5587733  16.0026688  )
        19           Ti1 tau(  19) = (   3.2958454   3.0042652  15.6812246  )
        20           Ti1 tau(  20) = (   0.0477533   1.5223793  15.8108347  )
        21           O1  tau(  21) = (   3.2904802   0.0005063   4.7018136  )
        22           O1  tau(  22) = (   0.0778492   0.0082781  17.2116806  )
        23           O1  tau(  23) = (   1.3043587   1.4918075   6.0039043  )
        24           O1  tau(  24) = (   5.2767064   1.4903225   6.0039473  )
        25           Ti1 tau(  25) = (   0.0000382   5.9609847   6.0000000  )
        26           Ti1 tau(  26) = (   3.2902200   4.4714249   6.0002472  )
        27           O1  tau(  27) = (   0.0002396   2.9813036   7.9858123  )
        28           O1  tau(  28) = (   3.2902150   2.9813002   7.3038282  )
        29           O1  tau(  29) = (   4.5938453   4.4726049   9.2879030  )
        30           O1  tau(  30) = (   1.9864658   4.4711199   9.2879459  )
        31           Ti1 tau(  31) = (   3.2891106   5.8743827   9.1763621  )
        32           Ti1 tau(  32) = (   0.0006254   4.4649316   9.2693709  )
        33           O1  tau(  33) = (   3.3003553   2.9806904  11.3444413  )
        34           O1  tau(  34) = (   0.0092240   2.9805883  10.6323155  )
        35           O1  tau(  35) = (   1.2971990   4.4717445  12.6361083  )
        36           O1  tau(  36) = (   5.2938362   4.4783115  12.6231241  )
        37           Ti1 tau(  37) = (   0.0537182   5.9220384  12.5388396  )
        38           Ti1 tau(  38) = (   3.3696634   4.4695314  12.5002334  )
        39           O1  tau(  39) = (   0.0023790   2.9538485  14.6690360  )
        40           O1  tau(  40) = (   3.3142834   2.9899978  13.8932647  )
        41           O1  tau(  41) = (   4.5682027   4.4688565  16.0600133  )
        42           O1  tau(  42) = (   2.0418658   4.4415600  16.0251682  )
        43           Ti1 tau(  43) = (   3.3511655   0.0130708  15.8150828  )
        44           Ti1 tau(  44) = (   0.0311020   4.6533438  16.0685068  )
        45           O1  tau(  45) = (   3.2900926   2.9813045   4.7018136  )
        46           O1  tau(  46) = (   1.3039711   4.4726057   6.0039043  )
        47           O1  tau(  47) = (   5.2763189   4.4711207   6.0039473  )
        48           C1  tau(  48) = (   0.0453995   2.9433715  17.6444507  )
        49           H1  tau(  49) = (   0.9770157   2.9292850  18.2072415  )
        50           N1  tau(  50) = (   5.5932985   2.7872967  18.4085793  )
        51           N1  tau(  51) = (   4.6087457   2.6299947  18.9712495  )
        52           O1  tau(  52) = (   3.0556172   5.9408547  18.1262901  )
        53           H1  tau(  53) = (   3.4776725   0.7204629  18.5958315  )
        54           H1  tau(  54) = (   2.0935776   0.0731959  18.2589326  )

     number of k points=    10  Fermi-Dirac smearing, width (Ry)=  0.0073
                       cart. coord. in units 2pi/alat
        k(    1) = (   0.0000000   0.0000000   0.0000000), wk =   0.1250000
        k(    2) = (   0.0000000   0.0419351   0.0000000), wk =   0.2500000
        k(    3) = (   0.0000000  -0.0838702   0.0000000), wk =   0.1250000
        k(    4) = (   0.0379955   0.0000049   0.0000000), wk =   0.2500000
        k(    5) = (   0.0379955   0.0419400   0.0000000), wk =   0.2500000
        k(    6) = (   0.0379955  -0.0838652   0.0000000), wk =   0.2500000
        k(    7) = (   0.0379955  -0.0419301   0.0000000), wk =   0.2500000
        k(    8) = (  -0.0759910  -0.0000099   0.0000000), wk =   0.1250000
        k(    9) = (  -0.0759910   0.0419252   0.0000000), wk =   0.2500000
        k(   10) = (  -0.0759910  -0.0838800   0.0000000), wk =   0.1250000

     Dense  grid:   566857 G-vectors     FFT dimensions: (  72,  64, 270)

     Smooth grid:   143421 G-vectors     FFT dimensions: (  45,  40, 180)

     Estimated max dynamical RAM per process >     367.12 MB

     Estimated total dynamical RAM >       3.59 GB
     Cannot read rho : file not found

     Initial potential from superposition of free atoms

     starting charge  384.99916, renormalised to  401.00000

     negative rho (up, down):  1.776E-02 0.000E+00


     %%%%%%%%%%%%%%%%%%%%%%%%%%%%%%%%%%%%%%%%%%%%%%%%%%%%%%%%%%%%%%%%%%%%%%%%
     %                                                                      %
     % You are using vdW-DF, which was implemented by the Thonhauser group. %
     % Please cite the following two papers that made this development      %
     % possible and the two reviews that describe the various versions:     %
     %                                                                      %
     %   T. Thonhauser et al., PRL 115, 136402 (2015).                      %
     %   T. Thonhauser et al., PRB 76, 125112 (2007).                       %
     %   K. Berland et al., Rep. Prog. Phys. 78, 066501 (2015).             %
     %   D.C. Langreth et al., J. Phys.: Condens. Matter 21, 084203 (2009). %
     %                                                                      %
     %                                                                      %
     % If you are calculating the stress with vdW-DF, please also cite:     %
     %                                                                      %
     %   R. Sabatini et al., J. Phys.: Condens. Matter 24, 424209 (2012).   %
     %                                                                      %
     %%%%%%%%%%%%%%%%%%%%%%%%%%%%%%%%%%%%%%%%%%%%%%%%%%%%%%%%%%%%%%%%%%%%%%%%


 
     Adding external electric field

     Computed dipole along edir(3) : 
        Dipole              -11.5984 Ry au,        -29.4801 Debye
        Dipole field         -0.0219 Ry au, 
 
        Potential amp.        2.0290 Ry
        Total length         46.3494 bohr
 
     Starting wfcs are  303 atomic wfcs
  @ DRIVER MODE: Message from server: STATUS
  @ DRIVER MODE: Message from server: POSDATA
  @ DRIVER MODE: Reading and sharing cell 
  @ DRIVER MODE: Reading and sharing positions 
  @ DRIVER MODE: Received positions 

     total cpu time spent up to now is       11.2 secs

     Self-consistent Calculation

     iteration #  1     ecut=    29.40 Ry     beta= 0.05
     Davidson diagonalization with overlap
     c_bands:  3 eigenvalues not converged
     c_bands:  1 eigenvalues not converged
     c_bands:  3 eigenvalues not converged
     c_bands:  3 eigenvalues not converged
     c_bands:  5 eigenvalues not converged
     c_bands:  2 eigenvalues not converged
     c_bands:  3 eigenvalues not converged
     c_bands:  1 eigenvalues not converged
     c_bands:  5 eigenvalues not converged
     ethr =  1.00E-05,  avg # of iterations = 23.5

     negative rho (up, down):  1.063E-02 0.000E+00
 
     Adding external electric field

     Computed dipole along edir(3) : 
        Dipole               50.5770 Ry au,        128.5539 Debye
        Dipole field          0.0954 Ry au, 
 
        Potential amp.       -8.8477 Ry
        Total length         46.3494 bohr
 

     total cpu time spent up to now is       55.3 secs

     total energy              =   -2415.42438327 Ry
     estimated scf accuracy    <    6267.15832388 Ry

     iteration #  2     ecut=    29.40 Ry     beta= 0.05
     Davidson diagonalization with overlap
     ethr =  1.00E-02,  avg # of iterations = 31.1

     negative rho (up, down):  1.040E-03 0.000E+00
 
     Adding external electric field

     Computed dipole along edir(3) : 
        Dipole               -0.6574 Ry au,         -1.6710 Debye
        Dipole field         -0.0012 Ry au, 
 
        Potential amp.        0.1150 Ry
        Total length         46.3494 bohr
 

     total cpu time spent up to now is      135.7 secs

     total energy              =   -2463.39981272 Ry
     estimated scf accuracy    <   70065.34229432 Ry

     iteration #  3     ecut=    29.40 Ry     beta= 0.05
     Davidson diagonalization with overlap
     ethr =  1.00E-02,  avg # of iterations = 15.6

     negative rho (up, down):  1.106E-03 0.000E+00
 
     Adding external electric field

     Computed dipole along edir(3) : 
        Dipole               -3.5934 Ry au,         -9.1335 Debye
        Dipole field         -0.0068 Ry au, 
 
        Potential amp.        0.6286 Ry
        Total length         46.3494 bohr
 

     total cpu time spent up to now is      184.4 secs

     total energy              =   -2960.13113502 Ry
     estimated scf accuracy    <    5262.21753044 Ry

     iteration #  4     ecut=    29.40 Ry     beta= 0.05
     Davidson diagonalization with overlap
     ethr =  1.00E-02,  avg # of iterations =  9.9

     negative rho (up, down):  1.155E-03 0.000E+00
 
     Adding external electric field

     Computed dipole along edir(3) : 
        Dipole               -5.7078 Ry au,        -14.5079 Debye
        Dipole field         -0.0108 Ry au, 
 
        Potential amp.        0.9985 Ry
        Total length         46.3494 bohr
 

     total cpu time spent up to now is      202.9 secs

     total energy              =   -2953.85127683 Ry
     estimated scf accuracy    <    2210.21703005 Ry

     iteration #  5     ecut=    29.40 Ry     beta= 0.05
     Davidson diagonalization with overlap
     c_bands:  3 eigenvalues not converged
     c_bands:  3 eigenvalues not converged
     ethr =  1.00E-02,  avg # of iterations = 15.8

     negative rho (up, down):  1.178E-03 0.000E+00
 
     Adding external electric field

     Computed dipole along edir(3) : 
        Dipole               -5.4036 Ry au,        -13.7346 Debye
        Dipole field         -0.0102 Ry au, 
 
        Potential amp.        0.9453 Ry
        Total length         46.3494 bohr
 

     total cpu time spent up to now is      222.2 secs

     total energy              =   -2971.58435980 Ry
     estimated scf accuracy    <     146.25605863 Ry

     iteration #  6     ecut=    29.40 Ry     beta= 0.05
     Davidson diagonalization with overlap
     ethr =  1.00E-02,  avg # of iterations =  1.7

     negative rho (up, down):  1.183E-03 0.000E+00
 
     Adding external electric field

     Computed dipole along edir(3) : 
        Dipole               -5.2572 Ry au,        -13.3624 Debye
        Dipole field         -0.0099 Ry au, 
 
        Potential amp.        0.9197 Ry
        Total length         46.3494 bohr
 

     total cpu time spent up to now is      232.3 secs

     total energy              =   -2971.71840687 Ry
     estimated scf accuracy    <     118.53628841 Ry

     iteration #  7     ecut=    29.40 Ry     beta= 0.05
     Davidson diagonalization with overlap
     ethr =  1.00E-02,  avg # of iterations =  1.4

     negative rho (up, down):  1.405E-03 0.000E+00
 
     Adding external electric field

     Computed dipole along edir(3) : 
        Dipole               -3.9285 Ry au,         -9.9852 Debye
        Dipole field         -0.0074 Ry au, 
 
        Potential amp.        0.6872 Ry
        Total length         46.3494 bohr
 

     total cpu time spent up to now is      242.2 secs

     total energy              =   -2968.99495876 Ry
     estimated scf accuracy    <     115.17375336 Ry

     iteration #  8     ecut=    29.40 Ry     beta= 0.05
     Davidson diagonalization with overlap
     ethr =  1.00E-02,  avg # of iterations =  1.1

     negative rho (up, down):  1.635E-03 0.000E+00
 
     Adding external electric field

     Computed dipole along edir(3) : 
        Dipole               -3.2409 Ry au,         -8.2376 Debye
        Dipole field         -0.0061 Ry au, 
 
        Potential amp.        0.5670 Ry
        Total length         46.3494 bohr
 

     total cpu time spent up to now is      252.1 secs

     total energy              =   -2968.47787180 Ry
     estimated scf accuracy    <     118.28046572 Ry

     iteration #  9     ecut=    29.40 Ry     beta= 0.05
     Davidson diagonalization with overlap
     ethr =  1.00E-02,  avg # of iterations =  1.3

     negative rho (up, down):  1.735E-03 0.000E+00
 
     Adding external electric field

     Computed dipole along edir(3) : 
        Dipole               -3.5260 Ry au,         -8.9621 Debye
        Dipole field         -0.0067 Ry au, 
 
        Potential amp.        0.6168 Ry
        Total length         46.3494 bohr
 

     total cpu time spent up to now is      262.0 secs

     total energy              =   -2967.88231560 Ry
     estimated scf accuracy    <     110.31404300 Ry

     iteration # 10     ecut=    29.40 Ry     beta= 0.05
     Davidson diagonalization with overlap
     ethr =  1.00E-02,  avg # of iterations =  1.0

     negative rho (up, down):  2.040E-03 0.000E+00
 
     Adding external electric field

     Computed dipole along edir(3) : 
        Dipole               -4.3040 Ry au,        -10.9398 Debye
        Dipole field         -0.0081 Ry au, 
 
        Potential amp.        0.7529 Ry
        Total length         46.3494 bohr
 

     total cpu time spent up to now is      271.8 secs

     total energy              =   -2965.00699831 Ry
     estimated scf accuracy    <      97.72458472 Ry

     iteration # 11     ecut=    29.40 Ry     beta= 0.05
     Davidson diagonalization with overlap
     ethr =  1.00E-02,  avg # of iterations =  7.5

     negative rho (up, down):  2.008E-03 0.000E+00
 
     Adding external electric field

     Computed dipole along edir(3) : 
        Dipole               -4.3427 Ry au,        -11.0380 Debye
        Dipole field         -0.0082 Ry au, 
 
        Potential amp.        0.7597 Ry
        Total length         46.3494 bohr
 

     total cpu time spent up to now is      286.0 secs

     total energy              =   -2973.59201226 Ry
     estimated scf accuracy    <      84.72531917 Ry

     iteration # 12     ecut=    29.40 Ry     beta= 0.05
     Davidson diagonalization with overlap
     ethr =  1.00E-02,  avg # of iterations =  1.8

     negative rho (up, down):  2.019E-03 0.000E+00
 
     Adding external electric field

     Computed dipole along edir(3) : 
        Dipole               -3.9897 Ry au,        -10.1408 Debye
        Dipole field         -0.0075 Ry au, 
 
        Potential amp.        0.6979 Ry
        Total length         46.3494 bohr
 

     total cpu time spent up to now is      296.4 secs

     total energy              =   -2973.67014307 Ry
     estimated scf accuracy    <      97.45854057 Ry

     iteration # 13     ecut=    29.40 Ry     beta= 0.05
     Davidson diagonalization with overlap
     ethr =  1.00E-02,  avg # of iterations =  1.0

     negative rho (up, down):  2.102E-03 0.000E+00
 
     Adding external electric field

     Computed dipole along edir(3) : 
        Dipole               -4.8278 Ry au,        -12.2711 Debye
        Dipole field         -0.0091 Ry au, 
 
        Potential amp.        0.8446 Ry
        Total length         46.3494 bohr
 

     total cpu time spent up to now is      306.2 secs

     total energy              =   -2976.01726659 Ry
     estimated scf accuracy    <      98.25572408 Ry

     iteration # 14     ecut=    29.40 Ry     beta= 0.05
     Davidson diagonalization with overlap
     ethr =  1.00E-02,  avg # of iterations =  6.6

     negative rho (up, down):  1.892E-03 0.000E+00
 
     Adding external electric field

     Computed dipole along edir(3) : 
        Dipole               -5.1785 Ry au,        -13.1625 Debye
        Dipole field         -0.0098 Ry au, 
 
        Potential amp.        0.9059 Ry
        Total length         46.3494 bohr
 

     total cpu time spent up to now is      319.4 secs

     total energy              =   -2980.74778236 Ry
     estimated scf accuracy    <     574.20433558 Ry

     iteration # 15     ecut=    29.40 Ry     beta= 0.05
     Davidson diagonalization with overlap
     ethr =  1.00E-02,  avg # of iterations =  2.2

     negative rho (up, down):  2.096E-03 0.000E+00
 
     Adding external electric field

     Computed dipole along edir(3) : 
        Dipole               -5.0133 Ry au,        -12.7426 Debye
        Dipole field         -0.0095 Ry au, 
 
        Potential amp.        0.8770 Ry
        Total length         46.3494 bohr
 

     total cpu time spent up to now is      329.9 secs

     total energy              =   -2979.96494385 Ry
     estimated scf accuracy    <     623.31383254 Ry

     iteration # 16     ecut=    29.40 Ry     beta= 0.05
     Davidson diagonalization with overlap
     ethr =  1.00E-02,  avg # of iterations =  1.2

     negative rho (up, down):  2.352E-03 0.000E+00
 
     Adding external electric field

     Computed dipole along edir(3) : 
        Dipole               -4.5792 Ry au,        -11.6391 Debye
        Dipole field         -0.0086 Ry au, 
 
        Potential amp.        0.8011 Ry
        Total length         46.3494 bohr
 

     total cpu time spent up to now is      339.8 secs

     total energy              =   -2974.37305222 Ry
     estimated scf accuracy    <     626.56882547 Ry

     iteration # 17     ecut=    29.40 Ry     beta= 0.05
     Davidson diagonalization with overlap
     ethr =  1.00E-02,  avg # of iterations =  1.2

     negative rho (up, down):  2.255E-03 0.000E+00
 
     Adding external electric field

     Computed dipole along edir(3) : 
        Dipole               -4.4570 Ry au,        -11.3286 Debye
        Dipole field         -0.0084 Ry au, 
 
        Potential amp.        0.7797 Ry
        Total length         46.3494 bohr
 

     total cpu time spent up to now is      349.8 secs

     total energy              =   -2975.50954146 Ry
     estimated scf accuracy    <     427.71877153 Ry

     iteration # 18     ecut=    29.40 Ry     beta= 0.05
     Davidson diagonalization with overlap
     ethr =  1.00E-02,  avg # of iterations =  1.0

     negative rho (up, down):  1.786E-03 0.000E+00
 
     Adding external electric field

     Computed dipole along edir(3) : 
        Dipole               -4.7322 Ry au,        -12.0280 Debye
        Dipole field         -0.0089 Ry au, 
 
        Potential amp.        0.8278 Ry
        Total length         46.3494 bohr
 

     total cpu time spent up to now is      359.6 secs

     total energy              =   -2977.54596601 Ry
     estimated scf accuracy    <     468.89048999 Ry

     iteration # 19     ecut=    29.40 Ry     beta= 0.05
     Davidson diagonalization with overlap
     ethr =  1.00E-02,  avg # of iterations =  1.0

     negative rho (up, down):  7.239E-02 0.000E+00
 
     Adding external electric field

     Computed dipole along edir(3) : 
        Dipole               -2.7296 Ry au,         -6.9379 Debye
        Dipole field         -0.0052 Ry au, 
 
        Potential amp.        0.4775 Ry
        Total length         46.3494 bohr
 

     total cpu time spent up to now is      369.4 secs

     total energy              =   -2968.06273230 Ry
     estimated scf accuracy    <     547.70964753 Ry

     iteration # 20     ecut=    29.40 Ry     beta= 0.05
     Davidson diagonalization with overlap
     ethr =  1.00E-02,  avg # of iterations =  2.0

     negative rho (up, down):  4.869E-02 0.000E+00
 
     Adding external electric field

     Computed dipole along edir(3) : 
        Dipole               -3.5059 Ry au,         -8.9112 Debye
        Dipole field         -0.0066 Ry au, 
 
        Potential amp.        0.6133 Ry
        Total length         46.3494 bohr
 

     total cpu time spent up to now is      379.8 secs

     total energy              =   -2972.23108667 Ry
     estimated scf accuracy    <      28.03427115 Ry

     iteration # 21     ecut=    29.40 Ry     beta= 0.05
     Davidson diagonalization with overlap
     ethr =  6.99E-03,  avg # of iterations =  1.0

     negative rho (up, down):  1.039E-01 0.000E+00
 
     Adding external electric field

     Computed dipole along edir(3) : 
        Dipole               -2.7387 Ry au,         -6.9612 Debye
        Dipole field         -0.0052 Ry au, 
 
        Potential amp.        0.4791 Ry
        Total length         46.3494 bohr
 

     total cpu time spent up to now is      389.6 secs

     total energy              =   -2969.86338659 Ry
     estimated scf accuracy    <     238.29946919 Ry

     iteration # 22     ecut=    29.40 Ry     beta= 0.05
     Davidson diagonalization with overlap
     ethr =  6.99E-03,  avg # of iterations =  1.4

     negative rho (up, down):  9.077E-02 0.000E+00
 
     Adding external electric field

     Computed dipole along edir(3) : 
        Dipole               -3.1369 Ry au,         -7.9733 Debye
        Dipole field         -0.0059 Ry au, 
 
        Potential amp.        0.5488 Ry
        Total length         46.3494 bohr
 

     total cpu time spent up to now is      399.6 secs

     total energy              =   -2971.66629435 Ry
     estimated scf accuracy    <      21.10462594 Ry

     iteration # 23     ecut=    29.40 Ry     beta= 0.05
     Davidson diagonalization with overlap
     ethr =  5.26E-03,  avg # of iterations =  1.0

     negative rho (up, down):  9.703E-02 0.000E+00
 
     Adding external electric field

     Computed dipole along edir(3) : 
        Dipole               -2.6235 Ry au,         -6.6683 Debye
        Dipole field         -0.0050 Ry au, 
 
        Potential amp.        0.4589 Ry
        Total length         46.3494 bohr
 

     total cpu time spent up to now is      409.4 secs

     total energy              =   -2971.42965580 Ry
     estimated scf accuracy    <      84.76085072 Ry

     iteration # 24     ecut=    29.40 Ry     beta= 0.05
     Davidson diagonalization with overlap
     ethr =  5.26E-03,  avg # of iterations =  1.2

     negative rho (up, down):  8.650E-02 0.000E+00
 
     Adding external electric field

     Computed dipole along edir(3) : 
        Dipole               -2.0780 Ry au,         -5.2817 Debye
        Dipole field         -0.0039 Ry au, 
 
        Potential amp.        0.3635 Ry
        Total length         46.3494 bohr
 

     total cpu time spent up to now is      419.3 secs

     total energy              =   -2971.45479348 Ry
     estimated scf accuracy    <      24.07484863 Ry

     iteration # 25     ecut=    29.40 Ry     beta= 0.05
     Davidson diagonalization with overlap
     ethr =  5.26E-03,  avg # of iterations =  1.0

     negative rho (up, down):  6.564E-02 0.000E+00
 
     Adding external electric field

     Computed dipole along edir(3) : 
        Dipole               -1.4959 Ry au,         -3.8021 Debye
        Dipole field         -0.0028 Ry au, 
 
        Potential amp.        0.2617 Ry
        Total length         46.3494 bohr
 

     total cpu time spent up to now is      429.1 secs

     total energy              =   -2971.28864729 Ry
     estimated scf accuracy    <      19.08237619 Ry

     iteration # 26     ecut=    29.40 Ry     beta= 0.05
     Davidson diagonalization with overlap
     ethr =  4.76E-03,  avg # of iterations =  2.1

     negative rho (up, down):  2.168E-02 0.000E+00
 
     Adding external electric field

     Computed dipole along edir(3) : 
        Dipole               -0.5283 Ry au,         -1.3428 Debye
        Dipole field         -0.0010 Ry au, 
 
        Potential amp.        0.0924 Ry
        Total length         46.3494 bohr
 

     total cpu time spent up to now is      439.3 secs

     total energy              =   -2970.91448930 Ry
     estimated scf accuracy    <      15.75084593 Ry

     iteration # 27     ecut=    29.40 Ry     beta= 0.05
     Davidson diagonalization with overlap
     ethr =  3.93E-03,  avg # of iterations =  4.1

     negative rho (up, down):  2.332E-02 0.000E+00
 
     Adding external electric field

     Computed dipole along edir(3) : 
        Dipole               -0.5756 Ry au,         -1.4630 Debye
        Dipole field         -0.0011 Ry au, 
 
        Potential amp.        0.1007 Ry
        Total length         46.3494 bohr
 

     total cpu time spent up to now is      450.3 secs

     total energy              =   -2971.13102327 Ry
     estimated scf accuracy    <       6.99353483 Ry

     iteration # 28     ecut=    29.40 Ry     beta= 0.05
     Davidson diagonalization with overlap
     ethr =  1.74E-03,  avg # of iterations =  5.5

     negative rho (up, down):  4.141E-02 0.000E+00
 
     Adding external electric field

     Computed dipole along edir(3) : 
        Dipole               -0.9817 Ry au,         -2.4952 Debye
        Dipole field         -0.0019 Ry au, 
 
        Potential amp.        0.1717 Ry
        Total length         46.3494 bohr
 

     total cpu time spent up to now is      461.8 secs

     total energy              =   -2971.38251156 Ry
     estimated scf accuracy    <       1.98066010 Ry

     iteration # 29     ecut=    29.40 Ry     beta= 0.05
     Davidson diagonalization with overlap
     ethr =  4.94E-04,  avg # of iterations =  5.7

     negative rho (up, down):  3.769E-02 0.000E+00
 
     Adding external electric field

     Computed dipole along edir(3) : 
        Dipole               -0.6279 Ry au,         -1.5959 Debye
        Dipole field         -0.0012 Ry au, 
 
        Potential amp.        0.1098 Ry
        Total length         46.3494 bohr
 

     total cpu time spent up to now is      473.5 secs

     total energy              =   -2971.36129178 Ry
     estimated scf accuracy    <       1.98350895 Ry

     iteration # 30     ecut=    29.40 Ry     beta= 0.05
     Davidson diagonalization with overlap
     c_bands:  1 eigenvalues not converged
     ethr =  4.94E-04,  avg # of iterations = 13.0

     negative rho (up, down):  3.521E-02 0.000E+00
 
     Adding external electric field

     Computed dipole along edir(3) : 
        Dipole               -0.4891 Ry au,         -1.2432 Debye
        Dipole field         -0.0009 Ry au, 
 
        Potential amp.        0.0856 Ry
        Total length         46.3494 bohr
 

     total cpu time spent up to now is      487.5 secs

     total energy              =   -2971.48972193 Ry
     estimated scf accuracy    <       0.27707459 Ry

     iteration # 31     ecut=    29.40 Ry     beta= 0.05
     Davidson diagonalization with overlap
     c_bands:  5 eigenvalues not converged
     c_bands:  3 eigenvalues not converged
     c_bands:  2 eigenvalues not converged
     c_bands:  2 eigenvalues not converged
     c_bands:  2 eigenvalues not converged
     c_bands:  3 eigenvalues not converged
     c_bands:  1 eigenvalues not converged
     c_bands:  2 eigenvalues not converged
     c_bands:  3 eigenvalues not converged
     ethr =  6.91E-05,  avg # of iterations = 20.6

     negative rho (up, down):  2.647E-02 0.000E+00
 
     Adding external electric field

     Computed dipole along edir(3) : 
        Dipole               -0.0880 Ry au,         -0.2237 Debye
        Dipole field         -0.0002 Ry au, 
 
        Potential amp.        0.0154 Ry
        Total length         46.3494 bohr
 

     total cpu time spent up to now is      507.4 secs

     total energy              =   -2971.48411688 Ry
     estimated scf accuracy    <       0.16018409 Ry

     iteration # 32     ecut=    29.40 Ry     beta= 0.05
     Davidson diagonalization with overlap
     c_bands:  3 eigenvalues not converged
     c_bands:  2 eigenvalues not converged
     c_bands:  4 eigenvalues not converged
     c_bands:  2 eigenvalues not converged
     c_bands:  1 eigenvalues not converged
     c_bands:  3 eigenvalues not converged
     c_bands:  5 eigenvalues not converged
     ethr =  3.99E-05,  avg # of iterations = 19.8

     negative rho (up, down):  2.401E-02 0.000E+00
 
     Adding external electric field

     Computed dipole along edir(3) : 
        Dipole                0.1472 Ry au,          0.3742 Debye
        Dipole field          0.0003 Ry au, 
 
        Potential amp.       -0.0258 Ry
        Total length         46.3494 bohr
 

     total cpu time spent up to now is      525.8 secs

     total energy              =   -2971.49810204 Ry
     estimated scf accuracy    <       0.12599023 Ry

     iteration # 33     ecut=    29.40 Ry     beta= 0.05
     Davidson diagonalization with overlap
     c_bands:  5 eigenvalues not converged
     c_bands:  1 eigenvalues not converged
     c_bands:  2 eigenvalues not converged
     ethr =  3.14E-05,  avg # of iterations = 13.2

     negative rho (up, down):  2.245E-02 0.000E+00
 
     Adding external electric field

     Computed dipole along edir(3) : 
        Dipole                0.5724 Ry au,          1.4549 Debye
        Dipole field          0.0011 Ry au, 
 
        Potential amp.       -0.1001 Ry
        Total length         46.3494 bohr
 

     total cpu time spent up to now is      539.8 secs

     total energy              =   -2971.51175251 Ry
     estimated scf accuracy    <       0.26535515 Ry

     iteration # 34     ecut=    29.40 Ry     beta= 0.05
     Davidson diagonalization with overlap
     c_bands:  2 eigenvalues not converged
     c_bands:  2 eigenvalues not converged
     c_bands:  1 eigenvalues not converged
     c_bands:  2 eigenvalues not converged
     c_bands:  1 eigenvalues not converged
     ethr =  3.14E-05,  avg # of iterations = 17.7

     negative rho (up, down):  2.520E-02 0.000E+00
 
     Adding external electric field

     Computed dipole along edir(3) : 
        Dipole                0.6244 Ry au,          1.5869 Debye
        Dipole field          0.0012 Ry au, 
 
        Potential amp.       -0.1092 Ry
        Total length         46.3494 bohr
 

     total cpu time spent up to now is      558.7 secs

     total energy              =   -2971.52948708 Ry
     estimated scf accuracy    <       0.36850551 Ry

     iteration # 35     ecut=    29.40 Ry     beta= 0.05
     Davidson diagonalization with overlap
     ethr =  3.14E-05,  avg # of iterations =  2.4

     negative rho (up, down):  2.751E-02 0.000E+00
 
     Adding external electric field

     Computed dipole along edir(3) : 
        Dipole                0.4769 Ry au,          1.2120 Debye
        Dipole field          0.0009 Ry au, 
 
        Potential amp.       -0.0834 Ry
        Total length         46.3494 bohr
 

     total cpu time spent up to now is      569.0 secs

     total energy              =   -2971.50248073 Ry
     estimated scf accuracy    <       0.34619125 Ry

     iteration # 36     ecut=    29.40 Ry     beta= 0.05
     Davidson diagonalization with overlap
     c_bands:  3 eigenvalues not converged
     ethr =  3.14E-05,  avg # of iterations = 11.3

     negative rho (up, down):  2.835E-02 0.000E+00
 
     Adding external electric field

     Computed dipole along edir(3) : 
        Dipole                0.4288 Ry au,          1.0899 Debye
        Dipole field          0.0008 Ry au, 
 
        Potential amp.       -0.0750 Ry
        Total length         46.3494 bohr
 

     total cpu time spent up to now is      582.7 secs

     total energy              =   -2971.50585487 Ry
     estimated scf accuracy    <       0.19798461 Ry

     iteration # 37     ecut=    29.40 Ry     beta= 0.05
     Davidson diagonalization with overlap
     ethr =  3.14E-05,  avg # of iterations =  3.5

     negative rho (up, down):  2.912E-02 0.000E+00
 
     Adding external electric field

     Computed dipole along edir(3) : 
        Dipole                0.4946 Ry au,          1.2570 Debye
        Dipole field          0.0009 Ry au, 
 
        Potential amp.       -0.0865 Ry
        Total length         46.3494 bohr
 

     total cpu time spent up to now is      593.5 secs

     total energy              =   -2971.50723764 Ry
     estimated scf accuracy    <       0.15197562 Ry

     iteration # 38     ecut=    29.40 Ry     beta= 0.05
     Davidson diagonalization with overlap
     c_bands:  1 eigenvalues not converged
     ethr =  3.14E-05,  avg # of iterations =  4.1

     negative rho (up, down):  3.342E-02 0.000E+00
 
     Adding external electric field

     Computed dipole along edir(3) : 
        Dipole                0.2993 Ry au,          0.7607 Debye
        Dipole field          0.0006 Ry au, 
 
        Potential amp.       -0.0524 Ry
        Total length         46.3494 bohr
 

     total cpu time spent up to now is      604.2 secs

     total energy              =   -2971.48430978 Ry
     estimated scf accuracy    <       0.16081980 Ry

     iteration # 39     ecut=    29.40 Ry     beta= 0.05
     Davidson diagonalization with overlap
     c_bands:  1 eigenvalues not converged
     c_bands:  2 eigenvalues not converged
     c_bands:  3 eigenvalues not converged
     c_bands:  1 eigenvalues not converged
     c_bands:  1 eigenvalues not converged
     c_bands:  1 eigenvalues not converged
     ethr =  3.14E-05,  avg # of iterations = 19.6

     negative rho (up, down):  3.314E-02 0.000E+00
 
     Adding external electric field

     Computed dipole along edir(3) : 
        Dipole                0.4446 Ry au,          1.1300 Debye
        Dipole field          0.0008 Ry au, 
 
        Potential amp.       -0.0778 Ry
        Total length         46.3494 bohr
 

     total cpu time spent up to now is      626.1 secs

     total energy              =   -2971.49732487 Ry
     estimated scf accuracy    <       0.14360543 Ry

     iteration # 40     ecut=    29.40 Ry     beta= 0.05
     Davidson diagonalization with overlap
     ethr =  3.14E-05,  avg # of iterations =  7.5

     negative rho (up, down):  3.292E-02 0.000E+00
 
     Adding external electric field

     Computed dipole along edir(3) : 
        Dipole                0.4766 Ry au,          1.2115 Debye
        Dipole field          0.0009 Ry au, 
 
        Potential amp.       -0.0834 Ry
        Total length         46.3494 bohr
 

     total cpu time spent up to now is      638.4 secs

     total energy              =   -2971.49950545 Ry
     estimated scf accuracy    <       0.03957923 Ry

     iteration # 41     ecut=    29.40 Ry     beta= 0.05
     Davidson diagonalization with overlap
     c_bands:  1 eigenvalues not converged
     c_bands:  3 eigenvalues not converged
     ethr =  9.87E-06,  avg # of iterations = 18.2

     negative rho (up, down):  3.164E-02 0.000E+00
 
     Adding external electric field

     Computed dipole along edir(3) : 
        Dipole                0.4972 Ry au,          1.2638 Debye
        Dipole field          0.0009 Ry au, 
 
        Potential amp.       -0.0870 Ry
        Total length         46.3494 bohr
 

     total cpu time spent up to now is      656.6 secs

     total energy              =   -2971.50234980 Ry
     estimated scf accuracy    <       0.01349053 Ry

     iteration # 42     ecut=    29.40 Ry     beta= 0.05
     Davidson diagonalization with overlap
     c_bands:  2 eigenvalues not converged
     c_bands:  1 eigenvalues not converged
     c_bands:  3 eigenvalues not converged
     c_bands:  3 eigenvalues not converged
     c_bands:  1 eigenvalues not converged
     ethr =  3.36E-06,  avg # of iterations = 18.0

     negative rho (up, down):  2.919E-02 0.000E+00
 
     Adding external electric field

     Computed dipole along edir(3) : 
        Dipole                0.3688 Ry au,          0.9374 Debye
        Dipole field          0.0007 Ry au, 
 
        Potential amp.       -0.0645 Ry
        Total length         46.3494 bohr
 

     total cpu time spent up to now is      672.9 secs

     total energy              =   -2971.50032846 Ry
     estimated scf accuracy    <       0.02846655 Ry

     iteration # 43     ecut=    29.40 Ry     beta= 0.05
     Davidson diagonalization with overlap
     c_bands:  2 eigenvalues not converged
     c_bands:  2 eigenvalues not converged
     ethr =  3.36E-06,  avg # of iterations = 16.7

     negative rho (up, down):  2.771E-02 0.000E+00
 
     Adding external electric field

     Computed dipole along edir(3) : 
        Dipole                0.4344 Ry au,          1.1042 Debye
        Dipole field          0.0008 Ry au, 
 
        Potential amp.       -0.0760 Ry
        Total length         46.3494 bohr
 

     total cpu time spent up to now is      689.7 secs

     total energy              =   -2971.50128433 Ry
     estimated scf accuracy    <       0.00860700 Ry

     iteration # 44     ecut=    29.40 Ry     beta= 0.05
     Davidson diagonalization with overlap
     c_bands:  3 eigenvalues not converged
     c_bands:  3 eigenvalues not converged
     ethr =  2.15E-06,  avg # of iterations = 13.9

     negative rho (up, down):  2.810E-02 0.000E+00
 
     Adding external electric field

     Computed dipole along edir(3) : 
        Dipole                0.4594 Ry au,          1.1676 Debye
        Dipole field          0.0009 Ry au, 
 
        Potential amp.       -0.0804 Ry
        Total length         46.3494 bohr
 

     total cpu time spent up to now is      704.9 secs

     total energy              =   -2971.50153542 Ry
     estimated scf accuracy    <       0.00829205 Ry

     iteration # 45     ecut=    29.40 Ry     beta= 0.05
     Davidson diagonalization with overlap
     c_bands:  1 eigenvalues not converged
     ethr =  2.07E-06,  avg # of iterations = 12.9

     negative rho (up, down):  2.722E-02 0.000E+00
 
     Adding external electric field

     Computed dipole along edir(3) : 
        Dipole                0.4912 Ry au,          1.2484 Debye
        Dipole field          0.0009 Ry au, 
 
        Potential amp.       -0.0859 Ry
        Total length         46.3494 bohr
 

     total cpu time spent up to now is      718.8 secs

     total energy              =   -2971.50193739 Ry
     estimated scf accuracy    <       0.00332480 Ry

     iteration # 46     ecut=    29.40 Ry     beta= 0.05
     Davidson diagonalization with overlap
     ethr =  8.29E-07,  avg # of iterations =  8.6

     negative rho (up, down):  2.503E-02 0.000E+00
 
     Adding external electric field

     Computed dipole along edir(3) : 
        Dipole                0.5114 Ry au,          1.2998 Debye
        Dipole field          0.0010 Ry au, 
 
        Potential amp.       -0.0895 Ry
        Total length         46.3494 bohr
 

     total cpu time spent up to now is      731.9 secs

     total energy              =   -2971.50175987 Ry
     estimated scf accuracy    <       0.00390003 Ry

     iteration # 47     ecut=    29.40 Ry     beta= 0.05
     Davidson diagonalization with overlap
     ethr =  8.29E-07,  avg # of iterations =  8.3

     negative rho (up, down):  2.381E-02 0.000E+00
 
     Adding external electric field

     Computed dipole along edir(3) : 
        Dipole                0.5415 Ry au,          1.3765 Debye
        Dipole field          0.0010 Ry au, 
 
        Potential amp.       -0.0947 Ry
        Total length         46.3494 bohr
 

     total cpu time spent up to now is      744.3 secs

     total energy              =   -2971.50189952 Ry
     estimated scf accuracy    <       0.00080317 Ry

     iteration # 48     ecut=    29.40 Ry     beta= 0.05
     Davidson diagonalization with overlap
     c_bands:  2 eigenvalues not converged
     ethr =  2.00E-07,  avg # of iterations = 13.1

     negative rho (up, down):  2.289E-02 0.000E+00
 
     Adding external electric field

     Computed dipole along edir(3) : 
        Dipole                0.5656 Ry au,          1.4375 Debye
        Dipole field          0.0011 Ry au, 
 
        Potential amp.       -0.0989 Ry
        Total length         46.3494 bohr
 

     total cpu time spent up to now is      759.7 secs

     total energy              =   -2971.50195702 Ry
     estimated scf accuracy    <       0.00054744 Ry

     iteration # 49     ecut=    29.40 Ry     beta= 0.05
     Davidson diagonalization with overlap
     c_bands:  2 eigenvalues not converged
     ethr =  1.37E-07,  avg # of iterations =  5.2

     negative rho (up, down):  2.133E-02 0.000E+00
 
     Adding external electric field

     Computed dipole along edir(3) : 
        Dipole                0.5877 Ry au,          1.4938 Debye
        Dipole field          0.0011 Ry au, 
 
        Potential amp.       -0.1028 Ry
        Total length         46.3494 bohr
 

     total cpu time spent up to now is      771.3 secs

     total energy              =   -2971.50197631 Ry
     estimated scf accuracy    <       0.00032862 Ry

     iteration # 50     ecut=    29.40 Ry     beta= 0.05
     Davidson diagonalization with overlap
     c_bands:  1 eigenvalues not converged
     c_bands:  2 eigenvalues not converged
     ethr =  8.20E-08,  avg # of iterations = 13.7

     negative rho (up, down):  2.148E-02 0.000E+00
 
     Adding external electric field

     Computed dipole along edir(3) : 
        Dipole                0.5800 Ry au,          1.4742 Debye
        Dipole field          0.0011 Ry au, 
 
        Potential amp.       -0.1015 Ry
        Total length         46.3494 bohr
 

     total cpu time spent up to now is      787.0 secs

     total energy              =   -2971.50199241 Ry
     estimated scf accuracy    <       0.00029580 Ry

     iteration # 51     ecut=    29.40 Ry     beta= 0.05
     Davidson diagonalization with overlap
     c_bands:  1 eigenvalues not converged
     ethr =  7.38E-08,  avg # of iterations = 11.5

     negative rho (up, down):  2.069E-02 0.000E+00
 
     Adding external electric field

     Computed dipole along edir(3) : 
        Dipole                0.5784 Ry au,          1.4702 Debye
        Dipole field          0.0011 Ry au, 
 
        Potential amp.       -0.1012 Ry
        Total length         46.3494 bohr
 

     total cpu time spent up to now is      800.2 secs

     total energy              =   -2971.50200449 Ry
     estimated scf accuracy    <       0.00015388 Ry

     iteration # 52     ecut=    29.40 Ry     beta= 0.05
     Davidson diagonalization with overlap
     c_bands:  1 eigenvalues not converged
     ethr =  3.84E-08,  avg # of iterations =  9.8

     negative rho (up, down):  1.931E-02 0.000E+00
 
     Adding external electric field

     Computed dipole along edir(3) : 
        Dipole                0.5863 Ry au,          1.4903 Debye
        Dipole field          0.0011 Ry au, 
 
        Potential amp.       -0.1026 Ry
        Total length         46.3494 bohr
 

     total cpu time spent up to now is      814.6 secs

     total energy              =   -2971.50201727 Ry
     estimated scf accuracy    <       0.00008968 Ry

     iteration # 53     ecut=    29.40 Ry     beta= 0.05
     Davidson diagonalization with overlap
     c_bands:  1 eigenvalues not converged
     ethr =  2.24E-08,  avg # of iterations =  9.8

     negative rho (up, down):  1.916E-02 0.000E+00
 
     Adding external electric field

     Computed dipole along edir(3) : 
        Dipole                0.5785 Ry au,          1.4703 Debye
        Dipole field          0.0011 Ry au, 
 
        Potential amp.       -0.1012 Ry
        Total length         46.3494 bohr
 

     total cpu time spent up to now is      830.8 secs

     total energy              =   -2971.50203647 Ry
     estimated scf accuracy    <       0.00007982 Ry

     iteration # 54     ecut=    29.40 Ry     beta= 0.05
     Davidson diagonalization with overlap
     ethr =  1.99E-08,  avg # of iterations =  2.0

     negative rho (up, down):  1.871E-02 0.000E+00
 
     Adding external electric field

     Computed dipole along edir(3) : 
        Dipole                0.5619 Ry au,          1.4283 Debye
        Dipole field          0.0011 Ry au, 
 
        Potential amp.       -0.0983 Ry
        Total length         46.3494 bohr
 

     total cpu time spent up to now is      841.4 secs

     total energy              =   -2971.50203007 Ry
     estimated scf accuracy    <       0.00005677 Ry

     iteration # 55     ecut=    29.40 Ry     beta= 0.05
     Davidson diagonalization with overlap
     ethr =  1.42E-08,  avg # of iterations = 12.1

     negative rho (up, down):  1.840E-02 0.000E+00
 
     Adding external electric field

     Computed dipole along edir(3) : 
        Dipole                0.5793 Ry au,          1.4724 Debye
        Dipole field          0.0011 Ry au, 
 
        Potential amp.       -0.1013 Ry
        Total length         46.3494 bohr
 

     total cpu time spent up to now is      862.0 secs

     total energy              =   -2971.50203500 Ry
     estimated scf accuracy    <       0.00013403 Ry

     iteration # 56     ecut=    29.40 Ry     beta= 0.05
     Davidson diagonalization with overlap
     ethr =  1.42E-08,  avg # of iterations =  9.7

     negative rho (up, down):  1.829E-02 0.000E+00
 
     Adding external electric field

     Computed dipole along edir(3) : 
        Dipole                0.5764 Ry au,          1.4652 Debye
        Dipole field          0.0011 Ry au, 
 
        Potential amp.       -0.1008 Ry
        Total length         46.3494 bohr
 

     total cpu time spent up to now is      880.9 secs

     total energy              =   -2971.50206872 Ry
     estimated scf accuracy    <       0.00002651 Ry

     iteration # 57     ecut=    29.40 Ry     beta= 0.05
     Davidson diagonalization with overlap
     ethr =  6.61E-09,  avg # of iterations =  5.8

     negative rho (up, down):  1.810E-02 0.000E+00
 
     Adding external electric field

     Computed dipole along edir(3) : 
        Dipole                0.5711 Ry au,          1.4517 Debye
        Dipole field          0.0011 Ry au, 
 
        Potential amp.       -0.0999 Ry
        Total length         46.3494 bohr
 

     total cpu time spent up to now is      892.5 secs

     total energy              =   -2971.50207654 Ry
     estimated scf accuracy    <       0.00001111 Ry

     iteration # 58     ecut=    29.40 Ry     beta= 0.05
     Davidson diagonalization with overlap
     ethr =  2.77E-09,  avg # of iterations = 11.2

     negative rho (up, down):  1.798E-02 0.000E+00
 
     Adding external electric field

     Computed dipole along edir(3) : 
        Dipole                0.5755 Ry au,          1.4627 Debye
        Dipole field          0.0011 Ry au, 
 
        Potential amp.       -0.1007 Ry
        Total length         46.3494 bohr
 

     total cpu time spent up to now is      912.6 secs

     total energy              =   -2971.50208471 Ry
     estimated scf accuracy    <       0.00002706 Ry

     iteration # 59     ecut=    29.40 Ry     beta= 0.05
     Davidson diagonalization with overlap
     ethr =  2.77E-09,  avg # of iterations =  7.8

     negative rho (up, down):  1.777E-02 0.000E+00
 
     Adding external electric field

     Computed dipole along edir(3) : 
        Dipole                0.5767 Ry au,          1.4657 Debye
        Dipole field          0.0011 Ry au, 
 
        Potential amp.       -0.1009 Ry
        Total length         46.3494 bohr
 

     total cpu time spent up to now is      929.0 secs

     total energy              =   -2971.50209603 Ry
     estimated scf accuracy    <       0.00000334 Ry

     iteration # 60     ecut=    29.40 Ry     beta= 0.05
     Davidson diagonalization with overlap
     c_bands:  1 eigenvalues not converged
     ethr =  8.33E-10,  avg # of iterations = 10.3

     negative rho (up, down):  1.763E-02 0.000E+00
 
     Adding external electric field

     Computed dipole along edir(3) : 
        Dipole                0.5762 Ry au,          1.4645 Debye
        Dipole field          0.0011 Ry au, 
 
        Potential amp.       -0.1008 Ry
        Total length         46.3494 bohr
 

     total cpu time spent up to now is      943.7 secs

     total energy              =   -2971.50210324 Ry
     estimated scf accuracy    <       0.00000220 Ry

     iteration # 61     ecut=    29.40 Ry     beta= 0.05
     Davidson diagonalization with overlap
     ethr =  5.47E-10,  avg # of iterations = 10.6

     negative rho (up, down):  1.761E-02 0.000E+00
 
     Adding external electric field

     Computed dipole along edir(3) : 
        Dipole                0.5778 Ry au,          1.4686 Debye
        Dipole field          0.0011 Ry au, 
 
        Potential amp.       -0.1011 Ry
        Total length         46.3494 bohr
 

     total cpu time spent up to now is      959.9 secs

     total energy              =   -2971.50210899 Ry
     estimated scf accuracy    <       0.00000205 Ry

     iteration # 62     ecut=    29.40 Ry     beta= 0.05
     Davidson diagonalization with overlap
     ethr =  5.12E-10,  avg # of iterations =  8.3

     negative rho (up, down):  1.761E-02 0.000E+00
 
     Adding external electric field

     Computed dipole along edir(3) : 
        Dipole                0.5773 Ry au,          1.4673 Debye
        Dipole field          0.0011 Ry au, 
 
        Potential amp.       -0.1010 Ry
        Total length         46.3494 bohr
 

     total cpu time spent up to now is      976.3 secs

     total energy              =   -2971.50211484 Ry
     estimated scf accuracy    <       0.00000082 Ry

     iteration # 63     ecut=    29.40 Ry     beta= 0.05
     Davidson diagonalization with overlap
     ethr =  2.04E-10,  avg # of iterations =  5.0

     negative rho (up, down):  1.757E-02 0.000E+00
 
     Adding external electric field

     Computed dipole along edir(3) : 
        Dipole                0.5773 Ry au,          1.4672 Debye
        Dipole field          0.0011 Ry au, 
 
        Potential amp.       -0.1010 Ry
        Total length         46.3494 bohr
 

     total cpu time spent up to now is      987.7 secs

     total energy              =   -2971.50211976 Ry
     estimated scf accuracy    <       0.00000056 Ry

     iteration # 64     ecut=    29.40 Ry     beta= 0.05
     Davidson diagonalization with overlap
     ethr =  1.39E-10,  avg # of iterations = 12.9

     negative rho (up, down):  1.751E-02 0.000E+00
 
     Adding external electric field

     Computed dipole along edir(3) : 
        Dipole                0.5772 Ry au,          1.4670 Debye
        Dipole field          0.0011 Ry au, 
 
        Potential amp.       -0.1010 Ry
        Total length         46.3494 bohr
 

     total cpu time spent up to now is     1003.7 secs

     total energy              =   -2971.50212438 Ry
     estimated scf accuracy    <       0.00000032 Ry

     iteration # 65     ecut=    29.40 Ry     beta= 0.05
     Davidson diagonalization with overlap
     ethr =  8.02E-11,  avg # of iterations =  8.2

     negative rho (up, down):  1.750E-02 0.000E+00
 
     Adding external electric field

     Computed dipole along edir(3) : 
        Dipole                0.5783 Ry au,          1.4699 Debye
        Dipole field          0.0011 Ry au, 
 
        Potential amp.       -0.1012 Ry
        Total length         46.3494 bohr
 

     total cpu time spent up to now is     1020.1 secs

     total energy              =   -2971.50212829 Ry
     estimated scf accuracy    <       0.00000050 Ry

     iteration # 66     ecut=    29.40 Ry     beta= 0.05
     Davidson diagonalization with overlap
     ethr =  8.02E-11,  avg # of iterations =  9.1

     negative rho (up, down):  1.751E-02 0.000E+00
 
     Adding external electric field

     Computed dipole along edir(3) : 
        Dipole                0.5783 Ry au,          1.4700 Debye
        Dipole field          0.0011 Ry au, 
 
        Potential amp.       -0.1012 Ry
        Total length         46.3494 bohr
 

     total cpu time spent up to now is     1038.0 secs

     total energy              =   -2971.50213196 Ry
     estimated scf accuracy    <       0.00000026 Ry

     iteration # 67     ecut=    29.40 Ry     beta= 0.05
     Davidson diagonalization with overlap
     ethr =  6.53E-11,  avg # of iterations =  5.1

     negative rho (up, down):  1.751E-02 0.000E+00
 
     Adding external electric field

     Computed dipole along edir(3) : 
        Dipole                0.5786 Ry au,          1.4707 Debye
        Dipole field          0.0011 Ry au, 
 
        Potential amp.       -0.1012 Ry
        Total length         46.3494 bohr
 

     total cpu time spent up to now is     1049.4 secs

     total energy              =   -2971.50213520 Ry
     estimated scf accuracy    <       0.00000010 Ry

     iteration # 68     ecut=    29.40 Ry     beta= 0.05
     Davidson diagonalization with overlap
     ethr =  2.54E-11,  avg # of iterations =  9.4

     negative rho (up, down):  1.756E-02 0.000E+00
 
     Adding external electric field

     Computed dipole along edir(3) : 
        Dipole                0.5783 Ry au,          1.4699 Debye
        Dipole field          0.0011 Ry au, 
 
        Potential amp.       -0.1012 Ry
        Total length         46.3494 bohr
 

     total cpu time spent up to now is     1067.2 secs

     End of self-consistent calculation

          k = 0.0000 0.0000 0.0000 ( 18029 PWs)   bands (ev):

   -55.8812 -55.8471 -55.8469 -55.8414 -55.8104 -55.7244 -55.6954 -55.6870
   -55.6617 -55.6613 -55.6514 -55.6279 -55.4127 -55.2217 -54.8629 -54.8289
   -32.3896 -32.3647 -32.2470 -32.2196 -32.1941 -32.1735 -32.1516 -32.1449
   -32.1248 -32.0727 -32.0676 -32.0653 -32.0335 -32.0271 -32.0220 -31.9963
   -31.9865 -31.9790 -31.9719 -31.9441 -31.9384 -31.9210 -31.8993 -31.8890
   -31.8861 -31.8743 -31.8737 -31.8600 -31.8529 -31.8482 -31.8375 -31.8343
   -31.8294 -31.8253 -31.8149 -31.8029 -31.7737 -31.6614 -31.6275 -31.4817
   -31.4661 -31.4344 -31.2700 -31.1815 -31.1591 -31.0868 -31.0003 -30.8892
   -20.5013 -18.7874 -16.5841 -16.3538 -16.1297 -16.0389 -15.9940 -15.7838
   -15.6747 -15.6190 -15.4953 -15.4319 -15.4233 -15.4159 -15.3948 -15.3847
   -15.3284 -15.3181 -15.3055 -15.2998 -15.2721 -15.2351 -15.2195 -15.2181
   -15.1463 -15.0432 -15.0223 -14.9992 -14.9971 -14.9392 -14.4978 -13.6094
   -13.3649 -13.2484  -6.5977  -5.8284  -4.7079  -4.4888  -3.9580  -3.8240
    -3.7884  -3.7520  -3.7170  -3.5212  -3.4909  -3.3775  -3.2364  -3.1310
    -3.0617  -3.0272  -2.9727  -2.8968  -2.8271  -2.7649  -2.7295  -2.6870
    -2.6777  -2.6421  -2.6355  -2.6177  -2.5976  -2.4976  -2.4621  -2.4138
    -2.3485  -2.2472  -2.2270  -2.1951  -2.1900  -2.1543  -2.1467  -2.1255
    -2.1082  -2.0986  -2.0236  -1.9271  -1.8777  -1.7851  -1.6733  -1.5356
    -1.5335  -1.4884  -1.3605  -1.3470  -1.3171  -1.2906  -1.2750  -1.2333
    -1.1435  -1.0871  -1.0411  -0.9780  -0.9044  -0.8153  -0.7726  -0.7212
    -0.6572  -0.6406  -0.6326  -0.6139  -0.5762  -0.4694  -0.4459  -0.3695
    -0.3665  -0.2807  -0.2495  -0.1889  -0.1584  -0.1203  -0.0815  -0.0080
     0.0123   0.0370   0.0552   0.0825   0.0911   0.1327   0.1655   0.1701
     0.3656   0.3913   0.4504   0.4602   0.5203   0.6415   0.6596   0.7739
     0.8909   1.0866   1.1597   1.2527   1.3514   1.7309   1.7768   1.7840
     3.2422   3.3397   3.3783   3.3873   3.4749   3.4863   3.7032   3.7491
     3.7568   3.8114

          k = 0.0000 0.0419 0.0000 ( 17933 PWs)   bands (ev):

   -55.8761 -55.8520 -55.8424 -55.8399 -55.8154 -55.7199 -55.6917 -55.6900
   -55.6663 -55.6568 -55.6520 -55.6327 -55.4120 -55.2223 -54.8578 -54.8338
   -32.3330 -32.3107 -32.1998 -32.1688 -32.1654 -32.1628 -32.1313 -32.1075
   -32.0983 -32.0727 -32.0654 -32.0619 -32.0579 -32.0432 -32.0196 -32.0134
   -32.0111 -32.0060 -31.9657 -31.9523 -31.9348 -31.9170 -31.9002 -31.8958
   -31.8882 -31.8848 -31.8802 -31.8800 -31.8724 -31.8633 -31.8558 -31.8538
   -31.8350 -31.8338 -31.8298 -31.8243 -31.8175 -31.6607 -31.6238 -31.4934
   -31.4812 -31.4500 -31.2159 -31.1780 -31.1621 -31.0743 -31.0129 -30.9463
   -20.5011 -18.7871 -16.4486 -16.2339 -16.0190 -15.9351 -15.8966 -15.7370
   -15.7064 -15.6416 -15.5916 -15.4680 -15.4131 -15.3998 -15.3805 -15.3660
   -15.3583 -15.3460 -15.3388 -15.3286 -15.2993 -15.2717 -15.2217 -15.2036
   -15.1431 -15.0972 -15.0791 -15.0545 -15.0120 -14.9962 -14.5727 -13.6135
   -13.3690 -13.2879  -6.6015  -5.8303  -4.6971  -4.4796  -3.7700  -3.6572
    -3.6479  -3.6131  -3.5607  -3.4571  -3.3622  -3.2550  -3.1201  -3.0296
    -3.0186  -2.9336  -2.9052  -2.8968  -2.8378  -2.8211  -2.7798  -2.7591
    -2.7287  -2.7093  -2.6792  -2.6517  -2.6234  -2.5960  -2.5574  -2.5217
    -2.5032  -2.4094  -2.3743  -2.3601  -2.3066  -2.3014  -2.2697  -2.1263
    -2.1181  -2.0385  -1.9712  -1.8370  -1.7722  -1.6200  -1.6016  -1.5587
    -1.5257  -1.4756  -1.4220  -1.2465  -1.2186  -1.1488  -1.0983  -1.0801
    -1.0220  -0.9686  -0.9063  -0.8989  -0.8364  -0.8069  -0.7830  -0.7511
    -0.7217  -0.6986  -0.6695  -0.6270  -0.5704  -0.5093  -0.4490  -0.4349
    -0.3877  -0.3664  -0.3055  -0.2803  -0.2442  -0.1470  -0.1205  -0.0825
    -0.0758  -0.0528  -0.0273  -0.0069   0.0624   0.1172   0.1702   0.2054
     0.2637   0.3363   0.3765   0.4229   0.4555   0.4732   0.4924   0.6181
     0.7777   0.7979   1.1302   1.3485   1.4328   1.6840   1.6853   1.6888
     3.4466   3.4841   3.5183   3.5760   3.6042   3.6468   3.7019   3.7460
     3.7880   3.8047

          k = 0.0000-0.0839 0.0000 ( 17884 PWs)   bands (ev):

   -55.8645 -55.8636 -55.8402 -55.8315 -55.8251 -55.7130 -55.6982 -55.6789
   -55.6776 -55.6528 -55.6465 -55.6429 -55.4112 -55.2229 -54.8459 -54.8456
   -32.2060 -32.1835 -32.1787 -32.1781 -32.1592 -32.1583 -32.1288 -32.1039
   -32.0913 -32.0553 -32.0384 -32.0373 -32.0340 -32.0301 -32.0240 -32.0069
   -31.9984 -31.9918 -31.9865 -31.9855 -31.9667 -31.9632 -31.9560 -31.9341
   -31.9324 -31.9138 -31.9056 -31.9014 -31.8902 -31.8772 -31.8698 -31.8600
   -31.8514 -31.8491 -31.8264 -31.8239 -31.7857 -31.6601 -31.6207 -31.5389
   -31.4817 -31.4573 -31.1699 -31.1697 -31.0830 -31.0828 -31.0437 -31.0435
   -20.5009 -18.7870 -16.1264 -16.0896 -15.9585 -15.9126 -15.7718 -15.7576
   -15.6792 -15.6564 -15.6433 -15.6128 -15.5730 -15.4832 -15.4152 -15.4042
   -15.3287 -15.2973 -15.2634 -15.2387 -15.2332 -15.2304 -15.2188 -15.2180
   -15.1921 -15.1897 -15.1423 -15.1350 -15.1266 -14.9775 -14.6781 -13.6174
   -13.3507 -13.3505  -6.6053  -5.8321  -4.6875  -4.4722  -3.6007  -3.3446
    -3.3342  -3.2675  -3.2528  -3.2466  -3.2346  -3.1765  -3.1739  -3.1535
    -3.0876  -3.0511  -2.9709  -2.9639  -2.9465  -2.9429  -2.9319  -2.8635
    -2.8358  -2.8276  -2.7541  -2.6913  -2.6739  -2.6353  -2.5842  -2.5559
    -2.4732  -2.4603  -2.4325  -2.3925  -2.3103  -2.2290  -2.2065  -2.1218
    -1.9605  -1.9198  -1.7862  -1.7631  -1.7333  -1.6371  -1.5687  -1.5470
    -1.4801  -1.4220  -1.3096  -1.3056  -1.2719  -1.2591  -1.2460  -1.2160
    -1.1829  -1.0747  -1.0366  -0.9759  -0.9389  -0.8140  -0.7627  -0.6590
    -0.5480  -0.5154  -0.5060  -0.4906  -0.4576  -0.4378  -0.4176  -0.3766
    -0.3528  -0.3347  -0.3014  -0.2894  -0.2419  -0.2296  -0.2031  -0.1752
    -0.1613  -0.1294  -0.1174  -0.0902  -0.0598  -0.0239   0.0072   0.0549
     0.0916   0.1816   0.3296   0.3564   0.3665   0.3779   0.4039   0.6855
     0.7222   0.8384   0.8548   1.4913   1.4924   1.6218   1.6226   1.6588
     3.5774   3.6219   3.6575   3.6901   3.6927   3.7055   3.7924   3.8258
     3.8368   3.8456

          k = 0.0380 0.0000 0.0000 ( 17913 PWs)   bands (ev):

   -55.8811 -55.8470 -55.8468 -55.8413 -55.8103 -55.7244 -55.6951 -55.6869
   -55.6618 -55.6612 -55.6512 -55.6278 -55.4126 -55.2216 -54.8628 -54.8288
   -32.3897 -32.3655 -32.2484 -32.2251 -32.1943 -32.1732 -32.1564 -32.1447
   -32.1248 -32.0681 -32.0633 -32.0532 -32.0305 -32.0269 -32.0219 -31.9897
   -31.9862 -31.9715 -31.9587 -31.9441 -31.9383 -31.9382 -31.9001 -31.8886
   -31.8792 -31.8744 -31.8735 -31.8599 -31.8584 -31.8568 -31.8403 -31.8340
   -31.8292 -31.8252 -31.8151 -31.8019 -31.7740 -31.6642 -31.6274 -31.4822
   -31.4660 -31.4343 -31.2695 -31.1848 -31.1570 -31.0866 -31.0002 -30.8890
   -20.5011 -18.7871 -16.5047 -16.2708 -16.0475 -16.0150 -15.9301 -15.8074
   -15.7027 -15.6171 -15.5752 -15.5562 -15.5198 -15.5060 -15.4910 -15.4668
   -15.4352 -15.3067 -15.2625 -15.2193 -15.1829 -15.1624 -15.1284 -15.1170
   -15.0932 -15.0783 -15.0677 -15.0646 -15.0375 -14.9718 -14.4961 -13.6092
   -13.3617 -13.2481  -6.5972  -5.8254  -4.6746  -4.4859  -3.8551  -3.6408
    -3.5861  -3.5669  -3.5117  -3.4536  -3.4280  -3.3594  -3.3040  -3.2285
    -3.1338  -3.1225  -2.9720  -2.9631  -2.9345  -2.9115  -2.7787  -2.6862
    -2.6486  -2.5893  -2.5551  -2.5030  -2.4554  -2.4451  -2.4111  -2.3675
    -2.3584  -2.2758  -2.2454  -2.2046  -2.1553  -2.1127  -2.1104  -2.0731
    -1.9900  -1.9014  -1.8580  -1.7976  -1.7759  -1.7014  -1.6775  -1.6406
    -1.5867  -1.4904  -1.4564  -1.3863  -1.3344  -1.3169  -1.2911  -1.1982
    -1.1859  -1.1510  -1.1364  -1.1124  -1.0649  -0.9408  -0.9076  -0.7691
    -0.7363  -0.6743  -0.6319  -0.5992  -0.5458  -0.5056  -0.4643  -0.3965
    -0.3299  -0.2714  -0.2498  -0.2203  -0.1772  -0.1524  -0.1192  -0.1037
    -0.0835  -0.0391  -0.0220   0.0076   0.0282   0.0763   0.1171   0.1844
     0.2385   0.2937   0.3211   0.4229   0.4734   0.5128   0.6092   0.7762
     0.8060   1.0893   1.1199   1.1716   1.3208   1.6194   1.6941   1.7826
     3.2700   3.3100   3.5992   3.6058   3.6346   3.6421   3.6754   3.7024
     3.7235   3.7720

          k = 0.0380 0.0419 0.0000 ( 17878 PWs)   bands (ev):

   -55.8760 -55.8520 -55.8423 -55.8398 -55.8154 -55.7198 -55.6916 -55.6898
   -55.6662 -55.6568 -55.6520 -55.6327 -55.4119 -55.2222 -54.8578 -54.8337
   -32.3331 -32.3115 -32.2012 -32.1716 -32.1685 -32.1633 -32.1311 -32.1079
   -32.1035 -32.0724 -32.0654 -32.0584 -32.0450 -32.0433 -32.0171 -32.0131
   -32.0109 -31.9964 -31.9519 -31.9485 -31.9351 -31.9320 -31.8954 -31.8890
   -31.8874 -31.8845 -31.8827 -31.8805 -31.8725 -31.8633 -31.8580 -31.8540
   -31.8529 -31.8333 -31.8255 -31.8229 -31.8221 -31.6633 -31.6238 -31.4932
   -31.4819 -31.4500 -31.2155 -31.1806 -31.1611 -31.0741 -31.0130 -30.9462
   -20.5009 -18.7869 -16.3760 -16.1582 -15.9453 -15.9136 -15.8255 -15.7541
   -15.7079 -15.6417 -15.6226 -15.5400 -15.5243 -15.4805 -15.4658 -15.4196
   -15.3809 -15.3359 -15.3050 -15.2664 -15.2495 -15.2083 -15.2070 -15.1706
   -15.1473 -15.1348 -15.1197 -15.0972 -15.0721 -14.9893 -14.5716 -13.6136
   -13.3667 -13.2882  -6.6009  -5.8240  -4.6738  -4.4782  -3.6965  -3.5891
    -3.4610  -3.3983  -3.3383  -3.3083  -3.2752  -3.2363  -3.1422  -3.0957
    -2.9843  -2.9757  -2.8893  -2.8430  -2.8298  -2.7845  -2.7768  -2.7383
    -2.7044  -2.6759  -2.6318  -2.6022  -2.5888  -2.5737  -2.5383  -2.5240
    -2.5052  -2.4465  -2.3725  -2.3510  -2.2840  -2.2148  -2.1661  -2.0591
    -2.0291  -1.9999  -1.8775  -1.8413  -1.7787  -1.6593  -1.6115  -1.5893
    -1.5322  -1.4375  -1.3389  -1.2985  -1.2783  -1.2302  -1.1805  -1.1263
    -1.1003  -1.0709  -1.0185  -0.9922  -0.9562  -0.9443  -0.8479  -0.8228
    -0.7618  -0.7334  -0.6921  -0.6770  -0.6446  -0.5942  -0.5433  -0.5239
    -0.4998  -0.4537  -0.4381  -0.3689  -0.3396  -0.3026  -0.2447  -0.2088
    -0.1751  -0.1589  -0.0921  -0.0521   0.0479   0.1384   0.1840   0.2418
     0.3072   0.3547   0.3800   0.4471   0.4744   0.5144   0.5399   0.5582
     0.7125   0.7842   1.0629   1.3593   1.4369   1.6076   1.6694   1.6923
     3.4322   3.4832   3.5689   3.6226   3.6662   3.7096   3.7590   3.8005
     3.8249   3.8427

          k = 0.0380-0.0839 0.0000 ( 17916 PWs)   bands (ev):

   -55.8645 -55.8636 -55.8402 -55.8315 -55.8251 -55.7131 -55.6982 -55.6788
   -55.6775 -55.6528 -55.6466 -55.6430 -55.4113 -55.2229 -54.8459 -54.8457
   -32.2062 -32.1839 -32.1795 -32.1789 -32.1592 -32.1584 -32.1299 -32.1041
   -32.0914 -32.0567 -32.0531 -32.0490 -32.0378 -32.0074 -32.0048 -31.9993
   -31.9984 -31.9921 -31.9853 -31.9843 -31.9772 -31.9743 -31.9577 -31.9146
   -31.9142 -31.9107 -31.9093 -31.9017 -31.8987 -31.8771 -31.8697 -31.8569
   -31.8515 -31.8491 -31.8383 -31.8356 -31.7855 -31.6624 -31.6207 -31.5387
   -31.4829 -31.4574 -31.1709 -31.1707 -31.0829 -31.0827 -31.0437 -31.0435
   -20.5007 -18.7867 -16.0880 -16.0316 -15.9049 -15.8561 -15.7509 -15.7098
   -15.6547 -15.6432 -15.6021 -15.5804 -15.5676 -15.5298 -15.4285 -15.4189
   -15.3245 -15.3186 -15.3069 -15.2988 -15.2882 -15.2673 -15.2523 -15.2402
   -15.2368 -15.2122 -15.1890 -15.1764 -15.1063 -14.9684 -14.6751 -13.6177
   -13.3505 -13.3503  -6.6006  -5.8278  -4.6773  -4.4672  -3.6113  -3.3348
    -3.3235  -3.1377  -3.0846  -3.0723  -3.0531  -3.0188  -3.0003  -2.9843
    -2.9615  -2.9411  -2.8995  -2.8742  -2.8630  -2.8504  -2.8371  -2.8097
    -2.7366  -2.7275  -2.7214  -2.6804  -2.6604  -2.6063  -2.5799  -2.5576
    -2.5220  -2.4907  -2.4334  -2.3795  -2.3255  -2.2213  -2.0105  -1.9921
    -1.9751  -1.8492  -1.7799  -1.7617  -1.7423  -1.7239  -1.6830  -1.6496
    -1.6063  -1.5829  -1.5435  -1.5163  -1.4778  -1.4675  -1.3837  -1.3279
    -1.2010  -1.0357  -1.0097  -0.9937  -0.9331  -0.9159  -0.7941  -0.7556
    -0.7158  -0.6925  -0.6461  -0.6384  -0.6227  -0.6080  -0.5866  -0.5522
    -0.4885  -0.4773  -0.4711  -0.4400  -0.4250  -0.3551  -0.3071  -0.2751
    -0.2297  -0.1460  -0.1288  -0.0106   0.0133   0.1206   0.1662   0.2179
     0.2255   0.2719   0.3002   0.3664   0.3910   0.4681   0.4911   0.6555
     0.6779   0.8031   0.8527   1.5046   1.5057   1.6111   1.6120   1.6789
     3.5559   3.5761   3.6600   3.6646   3.6708   3.7113   3.8286   3.8547
     3.8747   3.8782

          k = 0.0380-0.0419 0.0000 ( 17876 PWs)   bands (ev):

   -55.8760 -55.8520 -55.8423 -55.8398 -55.8154 -55.7198 -55.6916 -55.6898
   -55.6662 -55.6568 -55.6520 -55.6327 -55.4119 -55.2222 -54.8578 -54.8337
   -32.3331 -32.3115 -32.2011 -32.1716 -32.1685 -32.1633 -32.1311 -32.1079
   -32.1035 -32.0724 -32.0654 -32.0584 -32.0449 -32.0433 -32.0171 -32.0132
   -32.0109 -31.9962 -31.9519 -31.9484 -31.9352 -31.9324 -31.8952 -31.8890
   -31.8873 -31.8846 -31.8827 -31.8810 -31.8726 -31.8633 -31.8579 -31.8540
   -31.8526 -31.8333 -31.8253 -31.8230 -31.8220 -31.6631 -31.6238 -31.4934
   -31.4819 -31.4499 -31.2155 -31.1806 -31.1611 -31.0741 -31.0129 -30.9462
   -20.5009 -18.7868 -16.3763 -16.1582 -15.9467 -15.9135 -15.8257 -15.7540
   -15.7075 -15.6413 -15.6221 -15.5405 -15.5168 -15.4797 -15.4658 -15.4248
   -15.3810 -15.3389 -15.3024 -15.2688 -15.2519 -15.2079 -15.2067 -15.1686
   -15.1479 -15.1340 -15.1196 -15.0971 -15.0726 -14.9895 -14.5714 -13.6136
   -13.3667 -13.2882  -6.5968  -5.8292  -4.6789  -4.4721  -3.6924  -3.5752
    -3.4537  -3.4019  -3.3770  -3.3374  -3.2759  -3.2058  -3.1371  -3.0975
    -2.9872  -2.9655  -2.8830  -2.8428  -2.8262  -2.7806  -2.7719  -2.7394
    -2.7056  -2.6740  -2.6392  -2.6035  -2.5856  -2.5753  -2.5469  -2.5234
    -2.5001  -2.4447  -2.3721  -2.3544  -2.2756  -2.2170  -2.1733  -2.0577
    -2.0158  -2.0039  -1.8864  -1.8466  -1.7795  -1.6575  -1.6178  -1.5892
    -1.5303  -1.4566  -1.3426  -1.3008  -1.2778  -1.2278  -1.1863  -1.1344
    -1.1068  -1.0785  -1.0269  -0.9855  -0.9646  -0.9105  -0.8317  -0.8238
    -0.7711  -0.7211  -0.6809  -0.6580  -0.5990  -0.5892  -0.5511  -0.5377
    -0.4985  -0.4674  -0.4232  -0.3666  -0.3310  -0.3041  -0.2543  -0.2054
    -0.1707  -0.1512  -0.0938  -0.0570   0.0502   0.1021   0.1834   0.2398
     0.3040   0.3495   0.3609   0.4359   0.4807   0.5115   0.5457   0.5583
     0.7127   0.7848   1.0629   1.3593   1.4369   1.6074   1.6700   1.6924
     3.4330   3.4835   3.5603   3.6136   3.6809   3.7225   3.7722   3.8014
     3.8196   3.8446

          k =-0.0760-0.0000 0.0000 ( 17886 PWs)   bands (ev):

   -55.8810 -55.8470 -55.8467 -55.8412 -55.8102 -55.7244 -55.6949 -55.6869
   -55.6619 -55.6612 -55.6512 -55.6279 -55.4126 -55.2216 -54.8627 -54.8287
   -32.3899 -32.3664 -32.2498 -32.2303 -32.1944 -32.1731 -32.1609 -32.1444
   -32.1249 -32.0679 -32.0600 -32.0289 -32.0276 -32.0257 -32.0214 -31.9862
   -31.9839 -31.9715 -31.9653 -31.9435 -31.9385 -31.9131 -31.9052 -31.9008
   -31.8877 -31.8748 -31.8736 -31.8730 -31.8597 -31.8582 -31.8357 -31.8338
   -31.8292 -31.8251 -31.8160 -31.8011 -31.7747 -31.6675 -31.6273 -31.4829
   -31.4659 -31.4343 -31.2692 -31.1881 -31.1557 -31.0866 -31.0001 -30.8890
   -20.5010 -18.7869 -16.3902 -16.2039 -15.9763 -15.9715 -15.8536 -15.7500
   -15.7324 -15.6582 -15.6362 -15.6140 -15.5886 -15.5849 -15.5619 -15.5610
   -15.4796 -15.3065 -15.2904 -15.2219 -15.1828 -15.1682 -15.1347 -15.1305
   -15.1159 -15.0756 -15.0389 -15.0296 -14.9776 -14.9715 -14.4948 -13.6093
   -13.3587 -13.2478  -6.5968  -5.8219  -4.6447  -4.4826  -3.8303  -3.6028
    -3.5721  -3.4275  -3.3609  -3.2955  -3.2655  -3.2373  -3.1451  -3.1410
    -3.1335  -3.1287  -3.1083  -3.0628  -2.8839  -2.8689  -2.6877  -2.6853
    -2.5555  -2.4949  -2.4649  -2.4536  -2.3974  -2.3845  -2.3757  -2.3181
    -2.2705  -2.2467  -2.2299  -2.1675  -2.1403  -2.1262  -2.1126  -2.0917
    -2.0322  -2.0126  -1.9343  -1.8721  -1.7928  -1.6730  -1.5870  -1.5308
    -1.4965  -1.4829  -1.4741  -1.4668  -1.4015  -1.3667  -1.3465  -1.2999
    -1.2679  -1.1940  -1.1560  -1.1382  -1.1069  -1.0553  -1.0172  -0.9984
    -0.9263  -0.7546  -0.6160  -0.5702  -0.5343  -0.5150  -0.4855  -0.4451
    -0.4351  -0.3829  -0.3395  -0.2989  -0.2882  -0.2490  -0.1965  -0.1574
    -0.1324  -0.0686  -0.0649  -0.0310  -0.0186  -0.0083   0.0853   0.2353
     0.2827   0.3226   0.3519   0.3712   0.4617   0.6089   0.6197   0.7731
     0.8075   0.8359   1.1002   1.1927   1.2964   1.4902   1.6385   1.7794
     3.2743   3.2860   3.4174   3.5261   3.5858   3.6871   3.7020   3.7189
     3.7458   3.7793

          k =-0.0760 0.0419 0.0000 ( 17914 PWs)   bands (ev):

   -55.8760 -55.8520 -55.8423 -55.8398 -55.8154 -55.7199 -55.6916 -55.6897
   -55.6662 -55.6570 -55.6520 -55.6328 -55.4119 -55.2223 -54.8578 -54.8338
   -32.3335 -32.3125 -32.2027 -32.1778 -32.1686 -32.1636 -32.1311 -32.1091
   -32.1078 -32.0723 -32.0654 -32.0560 -32.0436 -32.0259 -32.0150 -32.0136
   -32.0109 -31.9867 -31.9534 -31.9518 -31.9345 -31.9147 -31.8961 -31.8938
   -31.8873 -31.8855 -31.8840 -31.8815 -31.8763 -31.8714 -31.8632 -31.8543
   -31.8524 -31.8321 -31.8291 -31.8253 -31.8211 -31.6660 -31.6239 -31.4934
   -31.4829 -31.4501 -31.2153 -31.1834 -31.1604 -31.0741 -31.0130 -30.9462
   -20.5008 -18.7867 -16.2742 -16.0906 -15.8868 -15.8744 -15.7634 -15.6978
   -15.6759 -15.6529 -15.6403 -15.6163 -15.5696 -15.5292 -15.5208 -15.5004
   -15.4742 -15.3521 -15.3267 -15.2563 -15.2318 -15.2287 -15.2088 -15.1854
   -15.1689 -15.1490 -15.1419 -15.0681 -15.0613 -14.9851 -14.5708 -13.6139
   -13.3646 -13.2885  -6.5963  -5.8226  -4.6569  -4.4705  -3.6833  -3.5836
    -3.4243  -3.2855  -3.1625  -3.1209  -3.0518  -3.0043  -2.9595  -2.9381
    -2.9288  -2.9180  -2.8858  -2.8519  -2.8395  -2.8075  -2.7756  -2.7646
    -2.6787  -2.6523  -2.6483  -2.5704  -2.5631  -2.5121  -2.4594  -2.4461
    -2.4328  -2.3946  -2.3756  -2.3585  -2.2822  -2.2018  -2.0431  -1.9902
    -1.9672  -1.9395  -1.8992  -1.8428  -1.8243  -1.6873  -1.6683  -1.5175
    -1.4864  -1.4443  -1.4120  -1.3943  -1.3330  -1.3177  -1.2669  -1.1874
    -1.1749  -1.1451  -1.1298  -1.1021  -1.0830  -1.0524  -1.0326  -1.0049
    -0.9748  -0.8944  -0.8513  -0.8160  -0.7614  -0.6915  -0.6451  -0.6278
    -0.5845  -0.5637  -0.5116  -0.4723  -0.4004  -0.3586  -0.3324  -0.2790
    -0.2497  -0.1598  -0.1332  -0.0547   0.0616   0.1015   0.2171   0.3488
     0.3720   0.4162   0.4402   0.4835   0.5148   0.5784   0.6254   0.6319
     0.6948   0.7193   0.8866   1.3739   1.4398   1.5309   1.6587   1.7001
     3.4231   3.4754   3.4803   3.5756   3.6136   3.6151   3.7414   3.7542
     3.8423   3.8936

          k =-0.0760-0.0839 0.0000 ( 17948 PWs)   bands (ev):

   -55.8645 -55.8636 -55.8403 -55.8315 -55.8251 -55.7131 -55.6983 -55.6788
   -55.6774 -55.6528 -55.6467 -55.6431 -55.4113 -55.2230 -54.8459 -54.8457
   -32.2065 -32.1842 -32.1802 -32.1796 -32.1593 -32.1584 -32.1311 -32.1041
   -32.0915 -32.0641 -32.0561 -32.0513 -32.0380 -32.0073 -31.9996 -31.9929
   -31.9854 -31.9850 -31.9842 -31.9828 -31.9813 -31.9789 -31.9595 -31.9268
   -31.9144 -31.9096 -31.9018 -31.8807 -31.8801 -31.8766 -31.8695 -31.8620
   -31.8582 -31.8539 -31.8514 -31.8490 -31.7852 -31.6647 -31.6207 -31.5385
   -31.4840 -31.4575 -31.1719 -31.1716 -31.0829 -31.0826 -31.0437 -31.0435
   -20.5007 -18.7865 -16.0447 -15.9284 -15.8468 -15.8060 -15.7382 -15.7020
   -15.6549 -15.5906 -15.5605 -15.5571 -15.5026 -15.4861 -15.4459 -15.4316
   -15.4070 -15.4008 -15.3851 -15.3367 -15.3246 -15.3163 -15.3075 -15.3039
   -15.2633 -15.2288 -15.2037 -15.1993 -15.0933 -14.9624 -14.6724 -13.6182
   -13.3503 -13.3501  -6.5956  -5.8234  -4.6665  -4.4624  -3.6320  -3.3320
    -3.3218  -3.1047  -3.0507  -2.9922  -2.9860  -2.9413  -2.8185  -2.7909
    -2.7424  -2.7342  -2.6953  -2.6900  -2.6852  -2.6656  -2.6320  -2.6125
    -2.6072  -2.5563  -2.5506  -2.5437  -2.5260  -2.5153  -2.5080  -2.4834
    -2.4562  -2.4409  -2.4240  -2.3945  -2.3120  -2.2810  -2.1136  -2.0724
    -2.0246  -2.0161  -1.9851  -1.9647  -1.9524  -1.9310  -1.8874  -1.7298
    -1.6521  -1.5852  -1.5743  -1.5647  -1.4904  -1.4740  -1.3622  -1.3250
    -1.2919  -1.2576  -1.1829  -1.1049  -1.0969  -1.0758  -0.9708  -0.9634
    -0.9292  -0.8864  -0.8474  -0.8364  -0.8278  -0.7497  -0.6944  -0.6226
    -0.6162  -0.5919  -0.5790  -0.5526  -0.5275  -0.4341  -0.3666  -0.3102
    -0.2769  -0.1891  -0.1595   0.0629   0.0849   0.1951   0.2082   0.2760
     0.3175   0.4260   0.4342   0.4818   0.5050   0.5308   0.5924   0.6581
     0.6678   0.6950   0.8130   1.5228   1.5241   1.5964   1.5967   1.6982
     3.5612   3.5929   3.6256   3.6354   3.7449   3.7655   3.7856   3.7882
     3.9042   3.9261

     the Fermi energy is     3.2499 ev

!    total energy              =   -2971.50216513 Ry
     estimated scf accuracy    <       0.00000007 Ry
     smearing contrib. (-TS)   =      -0.02121461 Ry
     internal energy E=F+TS    =   -2971.48095051 Ry

     The total energy is F=E-TS. E is the sum of the following terms:
     one-electron contribution =  -24213.89637042 Ry
     hartree contribution      =   12197.61689497 Ry
     xc contribution           =    -492.39467870 Ry
     ewald contribution        =    9537.19257255 Ry
     electric field correction =       0.00063109 Ry

     convergence has been achieved in  68 iterations

     Forces acting on atoms (cartesian axes, Ry/au):

     atom    1 type  1   force =     0.00019515   -0.00028818    0.09587343
     atom    2 type  1   force =    -0.00004529   -0.00048241   -0.17571217
     atom    3 type  2   force =     0.00007160   -0.00014249   -0.02404697
     atom    4 type  2   force =     0.00005995   -0.00155600    0.05357039
     atom    5 type  2   force =    -0.01131001   -0.00085130    0.00336874
     atom    6 type  2   force =     0.01318007   -0.00019014    0.00285902
     atom    7 type  1   force =    -0.00059816    0.00053237   -0.00603212
     atom    8 type  1   force =     0.00021954    0.00883671    0.02326769
     atom    9 type  2   force =    -0.00020643    0.00013948   -0.00007226
     atom   10 type  2   force =    -0.00060033    0.00120475   -0.01589287
     atom   11 type  2   force =    -0.00019333    0.00013653   -0.00003948
     atom   12 type  2   force =    -0.00018408   -0.00008258   -0.00017068
     atom   13 type  1   force =    -0.00000285    0.00057324    0.00019558
     atom   14 type  1   force =    -0.00005370    0.00002750   -0.00001582
     atom   15 type  2   force =    -0.00025712   -0.00011441   -0.00009657
     atom   16 type  2   force =    -0.00021804    0.00024862   -0.00012401
     atom   17 type  2   force =    -0.00030499    0.00000541    0.00011018
     atom   18 type  2   force =    -0.00043554    0.00018933    0.00000025
     atom   19 type  1   force =    -0.00011571   -0.00028825   -0.00011148
     atom   20 type  1   force =    -0.00029865   -0.00041961    0.00008670
     atom   21 type  2   force =     0.00006326   -0.00004530    0.10325332
     atom   22 type  2   force =     0.00018127    0.00022194   -0.00024600
     atom   23 type  2   force =    -0.07144279   -0.00012196   -0.02768378
     atom   24 type  2   force =     0.07142881    0.00030307   -0.02771852
     atom   25 type  1   force =     0.00002714   -0.00023784    0.09564389
     atom   26 type  1   force =    -0.00015571   -0.00036806   -0.17586461
     atom   27 type  2   force =     0.00009945   -0.00019996   -0.02305126
     atom   28 type  2   force =     0.00012496   -0.00121916    0.05308434
     atom   29 type  2   force =    -0.01155971    0.00062274    0.00328496
     atom   30 type  2   force =     0.01329867    0.00092880    0.00278656
     atom   31 type  1   force =    -0.00047221    0.00378422   -0.01063019
     atom   32 type  1   force =     0.00008469   -0.01102604    0.02367108
     atom   33 type  2   force =     0.00011513   -0.00003479    0.00004150
     atom   34 type  2   force =     0.00007920    0.00061817   -0.02083118
     atom   35 type  2   force =    -0.00019740   -0.00022434   -0.00000183
     atom   36 type  2   force =    -0.00037814    0.00001451   -0.00009651
     atom   37 type  1   force =     0.00032828   -0.00051751   -0.00004802
     atom   38 type  1   force =     0.00001010   -0.00000183   -0.00018499
     atom   39 type  2   force =    -0.00034780    0.00000325    0.00001483
     atom   40 type  2   force =     0.00003651   -0.00015965   -0.00031759
     atom   41 type  2   force =    -0.00036945   -0.00018874    0.00001189
     atom   42 type  2   force =     0.00010815   -0.00007620   -0.00012250
     atom   43 type  1   force =     0.00026695   -0.00050244   -0.00014617
     atom   44 type  1   force =    -0.00013547   -0.00025369    0.00032977
     atom   45 type  2   force =     0.00006351   -0.00008310    0.10323943
     atom   46 type  2   force =    -0.07145341   -0.00010428   -0.02770932
     atom   47 type  2   force =     0.07145447    0.00033278   -0.02773214
     atom   48 type  3   force =    -0.00008244    0.00004333    0.00039033
     atom   49 type  4   force =     0.00026584    0.00026189    0.00018792
     atom   50 type  5   force =     0.00100527    0.00052836   -0.00029603
     atom   51 type  5   force =    -0.00113015    0.00019067   -0.00002194
     atom   52 type  2   force =    -0.00302594    0.00129564    0.00092894
     atom   53 type  4   force =     0.00156381    0.00001728    0.00031278
     atom   54 type  4   force =     0.00124307   -0.00128035   -0.00149654

     Total force =     0.366860     Total SCF correction =     0.000481
  @ DRIVER MODE: Message from server: STATUS
  @ DRIVER MODE: Message from server: GETFORCE
  @ DRIVER MODE: Returning v,forces,stress,ensemble 

     Writing output data file ./calc.save/
  @ DRIVER MODE: Message from server: EXIT
  @ DRIVE MODE: Exiting  
 
     init_run     :     10.82s CPU     11.02s WALL (       1 calls)
     electrons    :   1040.82s CPU   1055.92s WALL (       1 calls)
     forces       :      2.38s CPU      2.46s WALL (       1 calls)

     Called by init_run:
     wfcinit      :      4.79s CPU      4.86s WALL (       1 calls)
     potinit      :      5.37s CPU      5.43s WALL (       1 calls)
     hinit0       :      0.30s CPU      0.30s WALL (       1 calls)

     Called by electrons:
     c_bands      :    881.59s CPU    887.69s WALL (      68 calls)
     sum_band     :    108.64s CPU    112.24s WALL (      68 calls)
     v_of_rho     :     38.30s CPU     40.19s WALL (      69 calls)
     newd         :     15.54s CPU     19.07s WALL (      69 calls)
     mix_rho      :      1.40s CPU      1.42s WALL (      68 calls)
     vdW_kernel   :      4.54s CPU      4.56s WALL (       1 calls)

     Called by c_bands:
     init_us_2    :      6.33s CPU      6.36s WALL (    1380 calls)
     cegterg      :    863.24s CPU    869.09s WALL (     693 calls)

     Called by *egterg:
     cdiaghg      :    134.54s CPU    135.12s WALL (    6399 calls)
     h_psi        :    473.00s CPU    477.15s WALL (    6411 calls)
     s_psi        :     62.25s CPU     62.43s WALL (    6411 calls)
     g_psi        :      1.70s CPU      1.72s WALL (    5708 calls)

     Called by h_psi:
     h_psi:calbec :     59.00s CPU     59.28s WALL (    6411 calls)
     vloc_psi     :    348.29s CPU    351.60s WALL (    6411 calls)
     add_vuspsi   :     62.57s CPU     62.89s WALL (    6411 calls)

     General routines
     calbec       :     78.44s CPU     78.79s WALL (    7131 calls)
     fft          :     19.61s CPU     19.75s WALL (    4347 calls)
     ffts         :      0.12s CPU      0.12s WALL (     137 calls)
     fftw         :    390.87s CPU    394.58s WALL (  931460 calls)
     interpolate  :      0.39s CPU      0.40s WALL (      69 calls)
     davcio       :      0.00s CPU      0.28s WALL (      10 calls)
 
     Parallel routines
 
     PWSCF        :  17m34.28s CPU  17m50.09s WALL

 
   This run was terminated on:   4:34: 2  16Sep2021            

=------------------------------------------------------------------------------=
   JOB DONE.
=------------------------------------------------------------------------------=
