
     Program PWSCF v.6.7GPU starts on 16Jul2021 at 19:15:30 

     This program is part of the open-source Quantum ESPRESSO suite
     for quantum simulation of materials; please cite
         "P. Giannozzi et al., J. Phys.:Condens. Matter 21 395502 (2009);
         "P. Giannozzi et al., J. Phys.:Condens. Matter 29 465901 (2017);
         "P. Giannozzi et al., J. Chem. Phys. 152 154105 (2020);
          URL http://www.quantum-espresso.org", 
     in publications or presentations arising from this work. More details at
     http://www.quantum-espresso.org/quote

     Parallel version (MPI), running on    16 processors

     MPI processes distributed on     1 nodes
     R & G space division:  proc/nbgrp/npool/nimage =      16
     Reading input from /storage/home/hcoda1/3/ntian30/research/carbon/15Jul_vib/ads_slab/CH3N2H_a/out_0037/pw.inp
Warning: card &CELL ignored
Warning: card   CELL_DYNAMICS='IPI', ignored
Warning: card / ignored

     Current dimensions of program PWSCF are:
     Max number of different atomic species (ntypx) = 10
     Max number of k-points (npk) =  40000
     Max angular momentum in pseudopotentials (lmaxx) =  3
     Presently no symmetry can be used with electric field

     Message from routine cell_base_init:
     DEPRECATED: use true lattice parameter, not A to a.u. conversion factor

     **************************************************************************
     Initializing libbeef V0.1.2 with the BEEF-vdW functional.
     Citation: Wellendorff et al., PRB 85, 235149 (2012).
     **************************************************************************


     IMPORTANT: XC functional enforced from input :
     Exchange-correlation= BEEF-VDW
                           (   1   4  43  14   2   0   0)
     Any further DFT definition will be discarded
     Please, verify this is what you really want


     Subspace diagonalization in iterative solution of the eigenvalue problem:
     one sub-group per band group will be used
     scalapack distributed-memory algorithm (size of sub-group:  4*  4 procs)

  @ DRIVER MODE: Connecting to 
 qe_1139763_2351646.sched-torque.pace.gatech.eduoz6bmemy_scratch
  using UNIX socket
  @ DRIVER MODE: Message from server: STATUS
  @ DRIVER MODE: Message from server: INIT
  @ DRIVER MODE: Receiving replica           0          -1
  @ DRIVER MODE: Receiving encoded integer          25
  @ DRIVER MODE:  SCF:  T  FORCE:  T  STRESS:  F  VC:  F  ENSEMBLE:  F
  @ DRIVER MODE:  SCF:  T  FORCE:  T  STRESS:  F  VC:  F  ENSEMBLE:  F
 
     Parallelization info
     --------------------
     sticks:   dense  smooth     PW     G-vecs:    dense   smooth      PW
     Min         204      82     23                35422     8962    1367
     Max         205      84     24                35435     8968    1382
     Sum        3275    1317    379               566857   143421   21985
 
     Using Slab Decomposition
 


     bravais-lattice index     =            0
     lattice parameter (alat)  =       1.8897  a.u.
     unit-cell volume          =    6658.9804 (a.u.)^3
     number of atoms/cell      =           54
     number of atomic types    =            5
     number of electrons       =       396.00
     number of Kohn-Sham states=          208
     kinetic-energy cutoff     =      29.3995  Ry
     charge density cutoff     =     293.9946  Ry
     scf convergence threshold =      7.3E-08
     mixing beta               =       0.0500
     number of iterations used =            8  plain     mixing
     Exchange-correlation= BEEF-VDW
                           (   1   4  43  14   2   0   0)

     celldm(1)=   1.889726  celldm(2)=   0.000000  celldm(3)=   0.000000
     celldm(4)=   0.000000  celldm(5)=   0.000000  celldm(6)=   0.000000

     crystal axes: (cart. coord. in units of alat)
               a(1) = (   6.579727   0.000000   0.000000 )  
               a(2) = (  -0.000775   5.961596   0.000000 )  
               a(3) = (   0.000000   0.000000  25.155947 )  

     reciprocal axes: (cart. coord. in units 2 pi/alat)
               b(1) = (  0.151982  0.000020  0.000000 )  
               b(2) = (  0.000000  0.167740  0.000000 )  
               b(3) = (  0.000000  0.000000  0.039752 )  


     PseudoPot. # 1 for Ti read from file:
     /storage/coda1/p-amedford6/0/shared/rich_project_chbe-medford/medford-share/data/pseudos_module/espresso/nninc/pbe/van/Ti.UPF
     MD5 check sum: 8e4df49b7f0d34bbd5052bf3f5ea0213
     Pseudo is Ultrasoft, Zval = 12.0
     Generated by new atomic code, or converted to UPF format
     Using radial grid of  851 points,  6 beta functions with: 
                l(1) =   0
                l(2) =   0
                l(3) =   1
                l(4) =   1
                l(5) =   2
                l(6) =   2
     Q(r) pseudized with  8 coefficients,  rinner =    1.000   1.000   1.000
                                                       1.000   1.000

     PseudoPot. # 2 for O  read from file:
     /storage/coda1/p-amedford6/0/shared/rich_project_chbe-medford/medford-share/data/pseudos_module/espresso/nninc/pbe/van/O.UPF
     MD5 check sum: 78c19812648e8988a0fe644b0f25305e
     Pseudo is Ultrasoft, Zval =  6.0
     Generated by new atomic code, or converted to UPF format
     Using radial grid of  737 points,  4 beta functions with: 
                l(1) =   0
                l(2) =   0
                l(3) =   1
                l(4) =   1
     Q(r) pseudized with  8 coefficients,  rinner =    0.800   0.800   0.800


     PseudoPot. # 3 for N  read from file:
     /storage/coda1/p-amedford6/0/shared/rich_project_chbe-medford/medford-share/data/pseudos_module/espresso/nninc/pbe/van/N.UPF
     MD5 check sum: 90d10febe142ad51ac9d5be1deb811c4
     Pseudo is Ultrasoft, Zval =  5.0
     Generated by new atomic code, or converted to UPF format
     Using radial grid of  729 points,  4 beta functions with: 
                l(1) =   0
                l(2) =   0
                l(3) =   1
                l(4) =   1
     Q(r) pseudized with  8 coefficients,  rinner =    0.800   0.800   0.800


     PseudoPot. # 4 for C  read from file:
     /storage/coda1/p-amedford6/0/shared/rich_project_chbe-medford/medford-share/data/pseudos_module/espresso/nninc/pbe/van/C.UPF
     MD5 check sum: 1a69bf6b8db32088f5b2163dbdb77a27
     Pseudo is Ultrasoft, Zval =  4.0
     Generated by new atomic code, or converted to UPF format
     Using radial grid of  721 points,  4 beta functions with: 
                l(1) =   0
                l(2) =   0
                l(3) =   1
                l(4) =   1
     Q(r) pseudized with  8 coefficients,  rinner =    0.800   0.800   0.800


     PseudoPot. # 5 for H  read from file:
     /storage/coda1/p-amedford6/0/shared/rich_project_chbe-medford/medford-share/data/pseudos_module/espresso/nninc/pbe/van/H.UPF
     MD5 check sum: b5ee9d7bfd3a09ee7748110bda690ff7
     Pseudo is Ultrasoft, Zval =  1.0
     Generated by new atomic code, or converted to UPF format
     Using radial grid of  615 points,  1 beta functions with: 
                l(1) =   0
     Q(r) pseudized with  8 coefficients,  rinner =    0.800

     atomic species   valence    mass     pseudopotential
        Ti1           12.00    47.86700     Ti( 1.00)
        O1             6.00    15.99900     O ( 1.00)
        N1             5.00    14.00700     N ( 1.00)
        C1             4.00    12.01100     C ( 1.00)
        H1             1.00     1.00800     H ( 1.00)

     Starting magnetic structure 
     atomic species   magnetization
        Ti1          0.000
        O1           0.000
        N1           0.000
        C1           0.025
        H1           0.000

     No symmetry found



   Cartesian axes

     site n.     atom                  positions (alat units)
         1           Ti1 tau(   1) = (   0.0004258   2.9801865   6.0000000  )
         2           Ti1 tau(   2) = (   3.2906075   1.4906267   6.0002472  )
         3           O1  tau(   3) = (   0.0006271   0.0005054   7.9858123  )
         4           O1  tau(   4) = (   3.2906025   0.0005020   7.3038282  )
         5           O1  tau(   5) = (   4.5942328   1.4918067   9.2879030  )
         6           O1  tau(   6) = (   1.9868534   1.4903216   9.2879459  )
         7           Ti1 tau(   7) = (   3.2907910   2.8959150   9.1758416  )
         8           Ti1 tau(   8) = (   0.0015273   1.4827037   9.2680791  )
         9           O1  tau(   9) = (   3.3106937   0.0084137  11.2927479  )
        10           O1  tau(  10) = (   0.0116148   5.9584955  10.6183126  )
        11           O1  tau(  11) = (   1.3255326   1.5151957  12.5859258  )
        12           O1  tau(  12) = (   5.3246634   1.4871208  12.6441624  )
        13           Ti1 tau(  13) = (   6.5358624   2.9940264  12.7507449  )
        14           Ti1 tau(  14) = (   3.1828407   1.5032771  12.4528579  )
        15           O1  tau(  15) = (   0.1336207   0.0073438  14.6266748  )
        16           O1  tau(  16) = (   3.2550344   0.0288700  13.8306396  )
        17           O1  tau(  17) = (   4.6334483   1.5013943  15.9792279  )
        18           O1  tau(  18) = (   2.1409664   1.5470880  15.9954950  )
        19           Ti1 tau(  19) = (   3.4798582   3.0305884  15.6593850  )
        20           Ti1 tau(  20) = (   0.1386493   1.3724552  15.8613965  )
        21           O1  tau(  21) = (   3.2904802   0.0005063   4.7018136  )
        22           O1  tau(  22) = (   0.1429122   0.0333940  17.1908172  )
        23           O1  tau(  23) = (   1.3043587   1.4918075   6.0039043  )
        24           O1  tau(  24) = (   5.2767064   1.4903225   6.0039473  )
        25           Ti1 tau(  25) = (   0.0000382   5.9609847   6.0000000  )
        26           Ti1 tau(  26) = (   3.2902200   4.4714249   6.0002472  )
        27           O1  tau(  27) = (   0.0002396   2.9813036   7.9858123  )
        28           O1  tau(  28) = (   3.2902150   2.9813002   7.3038282  )
        29           O1  tau(  29) = (   4.5938453   4.4726049   9.2879030  )
        30           O1  tau(  30) = (   1.9864658   4.4711199   9.2879459  )
        31           Ti1 tau(  31) = (   3.2891106   5.8743827   9.1763621  )
        32           Ti1 tau(  32) = (   0.0006254   4.4649316   9.2693709  )
        33           O1  tau(  33) = (   3.3137399   2.9960163  11.2943833  )
        34           O1  tau(  34) = (   0.0092240   2.9805883  10.6323155  )
        35           O1  tau(  35) = (   1.3234708   4.4688006  12.5930975  )
        36           O1  tau(  36) = (   5.3222282   4.4932535  12.6449723  )
        37           Ti1 tau(  37) = (   6.5041614   0.0053836  12.5833808  )
        38           Ti1 tau(  38) = (   3.1843229   4.4812189  12.4522442  )
        39           O1  tau(  39) = (   0.0584892   2.9792810  14.6723703  )
        40           O1  tau(  40) = (   3.3232524   2.9928384  13.8523860  )
        41           O1  tau(  41) = (   4.6237859   4.5837569  15.7472905  )
        42           O1  tau(  42) = (   2.1882403   4.4693611  16.1038286  )
        43           Ti1 tau(  43) = (   3.3015484   0.0242660  15.6383815  )
        44           Ti1 tau(  44) = (   0.0181797   4.4930750  16.1931172  )
        45           O1  tau(  45) = (   3.2900926   2.9813045   4.7018136  )
        46           O1  tau(  46) = (   1.3039711   4.4726057   6.0039043  )
        47           O1  tau(  47) = (   5.2763189   4.4711207   6.0039473  )
        48           N1  tau(  48) = (   0.2677213   2.8760844  17.5655548  )
        49           C1  tau(  49) = (   1.2271684   2.7639891  18.6598760  )
        50           H1  tau(  50) = (   1.2930054   3.7106696  19.2072709  )
        51           H1  tau(  51) = (   0.8976878   1.9730418  19.3402421  )
        52           H1  tau(  52) = (   2.2102292   2.4972526  18.2850250  )
        53           N1  tau(  53) = (   5.6732178   3.4927010  17.8452151  )
        54           H1  tau(  54) = (   5.7245573   4.0058295  18.7343860  )

     number of k points=    10  Fermi-Dirac smearing, width (Ry)=  0.0073
                       cart. coord. in units 2pi/alat
        k(    1) = (   0.0000000   0.0000000   0.0000000), wk =   0.0625000
        k(    2) = (   0.0000000   0.0419351   0.0000000), wk =   0.1250000
        k(    3) = (   0.0000000  -0.0838702   0.0000000), wk =   0.0625000
        k(    4) = (   0.0379955   0.0000049   0.0000000), wk =   0.1250000
        k(    5) = (   0.0379955   0.0419400   0.0000000), wk =   0.1250000
        k(    6) = (   0.0379955  -0.0838652   0.0000000), wk =   0.1250000
        k(    7) = (   0.0379955  -0.0419301   0.0000000), wk =   0.1250000
        k(    8) = (  -0.0759910  -0.0000099   0.0000000), wk =   0.0625000
        k(    9) = (  -0.0759910   0.0419252   0.0000000), wk =   0.1250000
        k(   10) = (  -0.0759910  -0.0838800   0.0000000), wk =   0.0625000

     Dense  grid:   566857 G-vectors     FFT dimensions: (  72,  64, 270)

     Smooth grid:   143421 G-vectors     FFT dimensions: (  45,  40, 180)

     Estimated max dynamical RAM per process >     279.76 MB

     Estimated total dynamical RAM >       4.37 GB
     Generating pointlists ...
     new r_m :   0.7455 (alat units)  1.4089 (a.u.) for type    1
     new r_m :   0.7455 (alat units)  1.4089 (a.u.) for type    2
     new r_m :   0.4240 (alat units)  0.8013 (a.u.) for type    3
     new r_m :   0.4477 (alat units)  0.8461 (a.u.) for type    4
     new r_m :   0.4240 (alat units)  0.8013 (a.u.) for type    5
     Cannot read rho : file not found

     Initial potential from superposition of free atoms

     starting charge  379.99915, renormalised to  396.00000

     negative rho (up, down):  8.429E-03 8.434E-03


     %%%%%%%%%%%%%%%%%%%%%%%%%%%%%%%%%%%%%%%%%%%%%%%%%%%%%%%%%%%%%%%%%%%%%%%%
     %                                                                      %
     % You are using vdW-DF, which was implemented by the Thonhauser group. %
     % Please cite the following two papers that made this development      %
     % possible and the two reviews that describe the various versions:     %
     %                                                                      %
     %   T. Thonhauser et al., PRL 115, 136402 (2015).                      %
     %   T. Thonhauser et al., PRB 76, 125112 (2007).                       %
     %   K. Berland et al., Rep. Prog. Phys. 78, 066501 (2015).             %
     %   D.C. Langreth et al., J. Phys.: Condens. Matter 21, 084203 (2009). %
     %                                                                      %
     %                                                                      %
     % If you are calculating the stress with vdW-DF, please also cite:     %
     %                                                                      %
     %   R. Sabatini et al., J. Phys.: Condens. Matter 24, 424209 (2012).   %
     %                                                                      %
     %%%%%%%%%%%%%%%%%%%%%%%%%%%%%%%%%%%%%%%%%%%%%%%%%%%%%%%%%%%%%%%%%%%%%%%%


 
     Adding external electric field

     Computed dipole along edir(3) : 
        Dipole               -8.2222 Ry au,        -20.8988 Debye
        Dipole field         -0.0155 Ry au, 
 
        Potential amp.        1.4384 Ry
        Total length         46.3494 bohr
 
 
     Adding external electric field

     Computed dipole along edir(3) : 
        Dipole               -8.2222 Ry au,        -20.8988 Debye
        Dipole field         -0.0155 Ry au, 
 
        Potential amp.        1.4384 Ry
        Total length         46.3494 bohr
 
     Starting wfcs are  300 atomic wfcs
  @ DRIVER MODE: Message from server: STATUS
  @ DRIVER MODE: Message from server: POSDATA
  @ DRIVER MODE: Reading and sharing cell 
  @ DRIVER MODE: Reading and sharing positions 
  @ DRIVER MODE: Received positions 

     total cpu time spent up to now is       15.3 secs

     Self-consistent Calculation

     iteration #  1     ecut=    29.40 Ry     beta= 0.05
     Davidson diagonalization with overlap
     c_bands:  1 eigenvalues not converged
     c_bands:  1 eigenvalues not converged
     c_bands:  1 eigenvalues not converged
     c_bands:  1 eigenvalues not converged
     c_bands:  4 eigenvalues not converged
     c_bands:  1 eigenvalues not converged
     c_bands:  4 eigenvalues not converged
     c_bands:  2 eigenvalues not converged
     c_bands:  1 eigenvalues not converged
     c_bands:  1 eigenvalues not converged
     c_bands:  1 eigenvalues not converged
     c_bands:  1 eigenvalues not converged
     c_bands:  1 eigenvalues not converged
     c_bands:  1 eigenvalues not converged
     c_bands:  4 eigenvalues not converged
     c_bands:  1 eigenvalues not converged
     c_bands:  4 eigenvalues not converged
     c_bands:  2 eigenvalues not converged
     c_bands:  1 eigenvalues not converged
     c_bands:  1 eigenvalues not converged
     ethr =  1.00E-05,  avg # of iterations = 20.0

     negative rho (up, down):  7.375E-03 7.380E-03
 
     Adding external electric field

     Computed dipole along edir(3) : 
        Dipole               38.7255 Ry au,         98.4303 Debye
        Dipole field          0.0731 Ry au, 
 
        Potential amp.       -6.7744 Ry
        Total length         46.3494 bohr
 
 
     Adding external electric field

     Computed dipole along edir(3) : 
        Dipole               38.7255 Ry au,         98.4303 Debye
        Dipole field          0.0731 Ry au, 
 
        Potential amp.       -6.7744 Ry
        Total length         46.3494 bohr
 

     total cpu time spent up to now is       75.1 secs

     total energy              =   -2607.57733902 Ry
     estimated scf accuracy    <    3675.39427485 Ry

     total magnetization       =     0.00 Bohr mag/cell
     absolute magnetization    =     0.03 Bohr mag/cell

     iteration #  2     ecut=    29.40 Ry     beta= 0.05
     Davidson diagonalization with overlap
     c_bands:  4 eigenvalues not converged
     ethr =  1.00E-02,  avg # of iterations = 21.9

     negative rho (up, down):  2.596E-03 2.597E-03
 
     Adding external electric field

     Computed dipole along edir(3) : 
        Dipole               -2.5188 Ry au,         -6.4020 Debye
        Dipole field         -0.0048 Ry au, 
 
        Potential amp.        0.4406 Ry
        Total length         46.3494 bohr
 
 
     Adding external electric field

     Computed dipole along edir(3) : 
        Dipole               -2.5188 Ry au,         -6.4020 Debye
        Dipole field         -0.0048 Ry au, 
 
        Potential amp.        0.4406 Ry
        Total length         46.3494 bohr
 

     total cpu time spent up to now is      196.2 secs

     total energy              =   -2460.17748555 Ry
     estimated scf accuracy    <   64348.16089753 Ry

     total magnetization       =     0.06 Bohr mag/cell
     absolute magnetization    =     0.47 Bohr mag/cell

     iteration #  3     ecut=    29.40 Ry     beta= 0.05
     Davidson diagonalization with overlap
     ethr =  1.00E-02,  avg # of iterations = 14.3

     negative rho (up, down):  2.632E-03 2.632E-03
 
     Adding external electric field

     Computed dipole along edir(3) : 
        Dipole               -4.5931 Ry au,        -11.6744 Debye
        Dipole field         -0.0087 Ry au, 
 
        Potential amp.        0.8035 Ry
        Total length         46.3494 bohr
 
 
     Adding external electric field

     Computed dipole along edir(3) : 
        Dipole               -4.5931 Ry au,        -11.6744 Debye
        Dipole field         -0.0087 Ry au, 
 
        Potential amp.        0.8035 Ry
        Total length         46.3494 bohr
 

     total cpu time spent up to now is      279.0 secs

     total energy              =   -2918.39273309 Ry
     estimated scf accuracy    <    3926.60509493 Ry

     total magnetization       =    -0.15 Bohr mag/cell
     absolute magnetization    =     0.59 Bohr mag/cell

     iteration #  4     ecut=    29.40 Ry     beta= 0.05
     Davidson diagonalization with overlap
     c_bands:  2 eigenvalues not converged
     c_bands:  4 eigenvalues not converged
     c_bands:  2 eigenvalues not converged
     c_bands:  4 eigenvalues not converged
     c_bands:  1 eigenvalues not converged
     c_bands:  3 eigenvalues not converged
     c_bands:  2 eigenvalues not converged
     c_bands:  4 eigenvalues not converged
     c_bands:  4 eigenvalues not converged
     ethr =  1.00E-02,  avg # of iterations = 18.6

     negative rho (up, down):  2.646E-03 2.648E-03
 
     Adding external electric field

     Computed dipole along edir(3) : 
        Dipole               -5.3515 Ry au,        -13.6022 Debye
        Dipole field         -0.0101 Ry au, 
 
        Potential amp.        0.9362 Ry
        Total length         46.3494 bohr
 
 
     Adding external electric field

     Computed dipole along edir(3) : 
        Dipole               -5.3515 Ry au,        -13.6022 Debye
        Dipole field         -0.0101 Ry au, 
 
        Potential amp.        0.9362 Ry
        Total length         46.3494 bohr
 

     total cpu time spent up to now is      316.3 secs

     total energy              =   -2937.90732600 Ry
     estimated scf accuracy    <     312.23365879 Ry

     total magnetization       =    -0.29 Bohr mag/cell
     absolute magnetization    =     0.74 Bohr mag/cell

     iteration #  5     ecut=    29.40 Ry     beta= 0.05
     Davidson diagonalization with overlap
     ethr =  1.00E-02,  avg # of iterations =  3.0

     negative rho (up, down):  2.647E-03 2.649E-03
 
     Adding external electric field

     Computed dipole along edir(3) : 
        Dipole               -5.7121 Ry au,        -14.5187 Debye
        Dipole field         -0.0108 Ry au, 
 
        Potential amp.        0.9992 Ry
        Total length         46.3494 bohr
 
 
     Adding external electric field

     Computed dipole along edir(3) : 
        Dipole               -5.7121 Ry au,        -14.5187 Debye
        Dipole field         -0.0108 Ry au, 
 
        Potential amp.        0.9992 Ry
        Total length         46.3494 bohr
 

     total cpu time spent up to now is      331.1 secs

     total energy              =   -2937.13722160 Ry
     estimated scf accuracy    <     225.99242893 Ry

     total magnetization       =    -0.12 Bohr mag/cell
     absolute magnetization    =     0.81 Bohr mag/cell

     iteration #  6     ecut=    29.40 Ry     beta= 0.05
     Davidson diagonalization with overlap
     ethr =  1.00E-02,  avg # of iterations =  2.4

     negative rho (up, down):  2.762E-03 2.765E-03
 
     Adding external electric field

     Computed dipole along edir(3) : 
        Dipole               -7.5397 Ry au,        -19.1639 Debye
        Dipole field         -0.0142 Ry au, 
 
        Potential amp.        1.3190 Ry
        Total length         46.3494 bohr
 
 
     Adding external electric field

     Computed dipole along edir(3) : 
        Dipole               -7.5397 Ry au,        -19.1639 Debye
        Dipole field         -0.0142 Ry au, 
 
        Potential amp.        1.3190 Ry
        Total length         46.3494 bohr
 

     total cpu time spent up to now is      346.6 secs

     total energy              =   -2929.12587103 Ry
     estimated scf accuracy    <     195.10171812 Ry

     total magnetization       =    -0.85 Bohr mag/cell
     absolute magnetization    =     1.22 Bohr mag/cell

     iteration #  7     ecut=    29.40 Ry     beta= 0.05
     Davidson diagonalization with overlap
     ethr =  1.00E-02,  avg # of iterations =  8.1

     negative rho (up, down):  2.473E-03 2.529E-03
 
     Adding external electric field

     Computed dipole along edir(3) : 
        Dipole               -7.1086 Ry au,        -18.0682 Debye
        Dipole field         -0.0134 Ry au, 
 
        Potential amp.        1.2435 Ry
        Total length         46.3494 bohr
 
 
     Adding external electric field

     Computed dipole along edir(3) : 
        Dipole               -7.1086 Ry au,        -18.0682 Debye
        Dipole field         -0.0134 Ry au, 
 
        Potential amp.        1.2435 Ry
        Total length         46.3494 bohr
 

     total cpu time spent up to now is      371.3 secs

     total energy              =   -2943.62828327 Ry
     estimated scf accuracy    <     237.51604793 Ry

     total magnetization       =     0.52 Bohr mag/cell
     absolute magnetization    =     0.91 Bohr mag/cell

     iteration #  8     ecut=    29.40 Ry     beta= 0.05
     Davidson diagonalization with overlap
     ethr =  1.00E-02,  avg # of iterations =  1.4

     negative rho (up, down):  2.401E-03 2.522E-03
 
     Adding external electric field

     Computed dipole along edir(3) : 
        Dipole               -7.2698 Ry au,        -18.4779 Debye
        Dipole field         -0.0137 Ry au, 
 
        Potential amp.        1.2717 Ry
        Total length         46.3494 bohr
 
 
     Adding external electric field

     Computed dipole along edir(3) : 
        Dipole               -7.2698 Ry au,        -18.4779 Debye
        Dipole field         -0.0137 Ry au, 
 
        Potential amp.        1.2717 Ry
        Total length         46.3494 bohr
 

     total cpu time spent up to now is      385.1 secs

     total energy              =   -2944.40625870 Ry
     estimated scf accuracy    <     111.57456897 Ry

     total magnetization       =     0.09 Bohr mag/cell
     absolute magnetization    =     0.48 Bohr mag/cell

     iteration #  9     ecut=    29.40 Ry     beta= 0.05
     Davidson diagonalization with overlap
     ethr =  1.00E-02,  avg # of iterations =  1.0

     negative rho (up, down):  2.787E-03 2.935E-03
 
     Adding external electric field

     Computed dipole along edir(3) : 
        Dipole               -7.1504 Ry au,        -18.1745 Debye
        Dipole field         -0.0135 Ry au, 
 
        Potential amp.        1.2509 Ry
        Total length         46.3494 bohr
 
 
     Adding external electric field

     Computed dipole along edir(3) : 
        Dipole               -7.1504 Ry au,        -18.1745 Debye
        Dipole field         -0.0135 Ry au, 
 
        Potential amp.        1.2509 Ry
        Total length         46.3494 bohr
 

     total cpu time spent up to now is      398.3 secs

     total energy              =   -2944.18962489 Ry
     estimated scf accuracy    <     173.22699527 Ry

     total magnetization       =     0.33 Bohr mag/cell
     absolute magnetization    =     0.62 Bohr mag/cell

     iteration # 10     ecut=    29.40 Ry     beta= 0.05
     Davidson diagonalization with overlap
     ethr =  1.00E-02,  avg # of iterations =  1.0

     negative rho (up, down):  1.526E-02 1.483E-02
 
     Adding external electric field

     Computed dipole along edir(3) : 
        Dipole               -7.4349 Ry au,        -18.8976 Debye
        Dipole field         -0.0140 Ry au, 
 
        Potential amp.        1.3006 Ry
        Total length         46.3494 bohr
 
 
     Adding external electric field

     Computed dipole along edir(3) : 
        Dipole               -7.4349 Ry au,        -18.8976 Debye
        Dipole field         -0.0140 Ry au, 
 
        Potential amp.        1.3006 Ry
        Total length         46.3494 bohr
 

     total cpu time spent up to now is      411.5 secs

     total energy              =   -2944.72372571 Ry
     estimated scf accuracy    <     149.19551197 Ry

     total magnetization       =     0.23 Bohr mag/cell
     absolute magnetization    =     0.49 Bohr mag/cell

     iteration # 11     ecut=    29.40 Ry     beta= 0.05
     Davidson diagonalization with overlap
     ethr =  1.00E-02,  avg # of iterations =  1.2

     negative rho (up, down):  5.620E-02 4.848E-02
 
     Adding external electric field

     Computed dipole along edir(3) : 
        Dipole               -6.1980 Ry au,        -15.7538 Debye
        Dipole field         -0.0117 Ry au, 
 
        Potential amp.        1.0843 Ry
        Total length         46.3494 bohr
 
 
     Adding external electric field

     Computed dipole along edir(3) : 
        Dipole               -6.1980 Ry au,        -15.7538 Debye
        Dipole field         -0.0117 Ry au, 
 
        Potential amp.        1.0843 Ry
        Total length         46.3494 bohr
 

     total cpu time spent up to now is      424.8 secs

     total energy              =   -2939.83150667 Ry
     estimated scf accuracy    <     323.95776661 Ry

     total magnetization       =     0.51 Bohr mag/cell
     absolute magnetization    =     0.71 Bohr mag/cell

     iteration # 12     ecut=    29.40 Ry     beta= 0.05
     Davidson diagonalization with overlap
     ethr =  1.00E-02,  avg # of iterations =  3.8

     negative rho (up, down):  8.427E-02 7.296E-02
 
     Adding external electric field

     Computed dipole along edir(3) : 
        Dipole               -5.7191 Ry au,        -14.5365 Debye
        Dipole field         -0.0108 Ry au, 
 
        Potential amp.        1.0005 Ry
        Total length         46.3494 bohr
 
 
     Adding external electric field

     Computed dipole along edir(3) : 
        Dipole               -5.7191 Ry au,        -14.5365 Debye
        Dipole field         -0.0108 Ry au, 
 
        Potential amp.        1.0005 Ry
        Total length         46.3494 bohr
 

     total cpu time spent up to now is      443.5 secs

     total energy              =   -2941.34407821 Ry
     estimated scf accuracy    <      31.10627916 Ry

     total magnetization       =    -0.02 Bohr mag/cell
     absolute magnetization    =     0.53 Bohr mag/cell

     iteration # 13     ecut=    29.40 Ry     beta= 0.05
     Davidson diagonalization with overlap
     ethr =  7.86E-03,  avg # of iterations =  1.0

     negative rho (up, down):  1.358E-01 1.186E-01
 
     Adding external electric field

     Computed dipole along edir(3) : 
        Dipole               -4.7308 Ry au,        -12.0245 Debye
        Dipole field         -0.0089 Ry au, 
 
        Potential amp.        0.8276 Ry
        Total length         46.3494 bohr
 
 
     Adding external electric field

     Computed dipole along edir(3) : 
        Dipole               -4.7308 Ry au,        -12.0245 Debye
        Dipole field         -0.0089 Ry au, 
 
        Potential amp.        0.8276 Ry
        Total length         46.3494 bohr
 

     total cpu time spent up to now is      456.7 secs

     total energy              =   -2940.58777959 Ry
     estimated scf accuracy    <      12.97799609 Ry

     total magnetization       =    -0.23 Bohr mag/cell
     absolute magnetization    =     0.34 Bohr mag/cell

     iteration # 14     ecut=    29.40 Ry     beta= 0.05
     Davidson diagonalization with overlap
     ethr =  3.28E-03,  avg # of iterations =  4.2

     negative rho (up, down):  1.380E-01 1.206E-01
 
     Adding external electric field

     Computed dipole along edir(3) : 
        Dipole               -4.6190 Ry au,        -11.7404 Debye
        Dipole field         -0.0087 Ry au, 
 
        Potential amp.        0.8080 Ry
        Total length         46.3494 bohr
 
 
     Adding external electric field

     Computed dipole along edir(3) : 
        Dipole               -4.6190 Ry au,        -11.7404 Debye
        Dipole field         -0.0087 Ry au, 
 
        Potential amp.        0.8080 Ry
        Total length         46.3494 bohr
 

     total cpu time spent up to now is      472.4 secs

     total energy              =   -2940.88728173 Ry
     estimated scf accuracy    <      10.24831045 Ry

     total magnetization       =    -0.34 Bohr mag/cell
     absolute magnetization    =     0.49 Bohr mag/cell

     iteration # 15     ecut=    29.40 Ry     beta= 0.05
     Davidson diagonalization with overlap
     ethr =  2.59E-03,  avg # of iterations =  1.4

     negative rho (up, down):  1.147E-01 1.002E-01
 
     Adding external electric field

     Computed dipole along edir(3) : 
        Dipole               -4.4310 Ry au,        -11.2625 Debye
        Dipole field         -0.0084 Ry au, 
 
        Potential amp.        0.7751 Ry
        Total length         46.3494 bohr
 
 
     Adding external electric field

     Computed dipole along edir(3) : 
        Dipole               -4.4310 Ry au,        -11.2625 Debye
        Dipole field         -0.0084 Ry au, 
 
        Potential amp.        0.7751 Ry
        Total length         46.3494 bohr
 

     total cpu time spent up to now is      486.2 secs

     total energy              =   -2940.26967177 Ry
     estimated scf accuracy    <       9.36861382 Ry

     total magnetization       =    -0.41 Bohr mag/cell
     absolute magnetization    =     0.53 Bohr mag/cell

     iteration # 16     ecut=    29.40 Ry     beta= 0.05
     Davidson diagonalization with overlap
     ethr =  2.37E-03,  avg # of iterations =  4.8

     negative rho (up, down):  1.201E-01 1.043E-01
 
     Adding external electric field

     Computed dipole along edir(3) : 
        Dipole               -4.1795 Ry au,        -10.6232 Debye
        Dipole field         -0.0079 Ry au, 
 
        Potential amp.        0.7311 Ry
        Total length         46.3494 bohr
 
 
     Adding external electric field

     Computed dipole along edir(3) : 
        Dipole               -4.1795 Ry au,        -10.6232 Debye
        Dipole field         -0.0079 Ry au, 
 
        Potential amp.        0.7311 Ry
        Total length         46.3494 bohr
 

     total cpu time spent up to now is      502.1 secs

     total energy              =   -2940.61483859 Ry
     estimated scf accuracy    <       8.81127190 Ry

     total magnetization       =    -0.21 Bohr mag/cell
     absolute magnetization    =     0.43 Bohr mag/cell

     iteration # 17     ecut=    29.40 Ry     beta= 0.05
     Davidson diagonalization with overlap
     ethr =  2.23E-03,  avg # of iterations =  1.6

     negative rho (up, down):  1.307E-01 1.121E-01
 
     Adding external electric field

     Computed dipole along edir(3) : 
        Dipole               -3.4174 Ry au,         -8.6861 Debye
        Dipole field         -0.0064 Ry au, 
 
        Potential amp.        0.5978 Ry
        Total length         46.3494 bohr
 
 
     Adding external electric field

     Computed dipole along edir(3) : 
        Dipole               -3.4174 Ry au,         -8.6861 Debye
        Dipole field         -0.0064 Ry au, 
 
        Potential amp.        0.5978 Ry
        Total length         46.3494 bohr
 

     total cpu time spent up to now is      515.6 secs

     total energy              =   -2940.51169263 Ry
     estimated scf accuracy    <       6.85097473 Ry

     total magnetization       =    -0.37 Bohr mag/cell
     absolute magnetization    =     0.47 Bohr mag/cell

     iteration # 18     ecut=    29.40 Ry     beta= 0.05
     Davidson diagonalization with overlap
     c_bands:  2 eigenvalues not converged
     c_bands:  2 eigenvalues not converged
     c_bands:  2 eigenvalues not converged
     c_bands:  1 eigenvalues not converged
     c_bands:  2 eigenvalues not converged
     ethr =  1.73E-03,  avg # of iterations =  9.8

     negative rho (up, down):  1.274E-01 1.097E-01
 
     Adding external electric field

     Computed dipole along edir(3) : 
        Dipole               -3.4182 Ry au,         -8.6882 Debye
        Dipole field         -0.0065 Ry au, 
 
        Potential amp.        0.5980 Ry
        Total length         46.3494 bohr
 
 
     Adding external electric field

     Computed dipole along edir(3) : 
        Dipole               -3.4182 Ry au,         -8.6882 Debye
        Dipole field         -0.0065 Ry au, 
 
        Potential amp.        0.5980 Ry
        Total length         46.3494 bohr
 

     total cpu time spent up to now is      534.4 secs

     total energy              =   -2940.68806741 Ry
     estimated scf accuracy    <       3.21861073 Ry

     total magnetization       =    -0.24 Bohr mag/cell
     absolute magnetization    =     0.66 Bohr mag/cell

     iteration # 19     ecut=    29.40 Ry     beta= 0.05
     Davidson diagonalization with overlap
     c_bands:  5 eigenvalues not converged
     ethr =  8.13E-04,  avg # of iterations =  8.1

     negative rho (up, down):  1.289E-01 1.101E-01
 
     Adding external electric field

     Computed dipole along edir(3) : 
        Dipole               -3.2187 Ry au,         -8.1812 Debye
        Dipole field         -0.0061 Ry au, 
 
        Potential amp.        0.5631 Ry
        Total length         46.3494 bohr
 
 
     Adding external electric field

     Computed dipole along edir(3) : 
        Dipole               -3.2187 Ry au,         -8.1812 Debye
        Dipole field         -0.0061 Ry au, 
 
        Potential amp.        0.5631 Ry
        Total length         46.3494 bohr
 

     total cpu time spent up to now is      552.3 secs

     total energy              =   -2940.74623988 Ry
     estimated scf accuracy    <       2.56073450 Ry

     total magnetization       =     0.33 Bohr mag/cell
     absolute magnetization    =     0.62 Bohr mag/cell

     iteration # 20     ecut=    29.40 Ry     beta= 0.05
     Davidson diagonalization with overlap
     c_bands:  2 eigenvalues not converged
     c_bands:  2 eigenvalues not converged
     c_bands:  3 eigenvalues not converged
     c_bands:  2 eigenvalues not converged
     ethr =  6.47E-04,  avg # of iterations =  7.3

     negative rho (up, down):  1.303E-01 1.103E-01
 
     Adding external electric field

     Computed dipole along edir(3) : 
        Dipole               -3.0594 Ry au,         -7.7763 Debye
        Dipole field         -0.0058 Ry au, 
 
        Potential amp.        0.5352 Ry
        Total length         46.3494 bohr
 
 
     Adding external electric field

     Computed dipole along edir(3) : 
        Dipole               -3.0594 Ry au,         -7.7763 Debye
        Dipole field         -0.0058 Ry au, 
 
        Potential amp.        0.5352 Ry
        Total length         46.3494 bohr
 

     total cpu time spent up to now is      569.5 secs

     total energy              =   -2940.79653902 Ry
     estimated scf accuracy    <       2.86947670 Ry

     total magnetization       =    -0.04 Bohr mag/cell
     absolute magnetization    =     0.33 Bohr mag/cell

     iteration # 21     ecut=    29.40 Ry     beta= 0.05
     Davidson diagonalization with overlap
     c_bands:  1 eigenvalues not converged
     c_bands:  2 eigenvalues not converged
     c_bands:  2 eigenvalues not converged
     ethr =  6.47E-04,  avg # of iterations =  7.8

     negative rho (up, down):  8.417E-02 6.818E-02
 
     Adding external electric field

     Computed dipole along edir(3) : 
        Dipole               -2.7238 Ry au,         -6.9232 Debye
        Dipole field         -0.0051 Ry au, 
 
        Potential amp.        0.4765 Ry
        Total length         46.3494 bohr
 
 
     Adding external electric field

     Computed dipole along edir(3) : 
        Dipole               -2.7238 Ry au,         -6.9232 Debye
        Dipole field         -0.0051 Ry au, 
 
        Potential amp.        0.4765 Ry
        Total length         46.3494 bohr
 

     total cpu time spent up to now is      586.8 secs

     total energy              =   -2940.27672280 Ry
     estimated scf accuracy    <       3.17534125 Ry

     total magnetization       =    -0.17 Bohr mag/cell
     absolute magnetization    =     0.38 Bohr mag/cell

     iteration # 22     ecut=    29.40 Ry     beta= 0.05
     Davidson diagonalization with overlap
     ethr =  6.47E-04,  avg # of iterations =  5.3

     negative rho (up, down):  6.211E-02 4.744E-02
 
     Adding external electric field

     Computed dipole along edir(3) : 
        Dipole               -1.7291 Ry au,         -4.3949 Debye
        Dipole field         -0.0033 Ry au, 
 
        Potential amp.        0.3025 Ry
        Total length         46.3494 bohr
 
 
     Adding external electric field

     Computed dipole along edir(3) : 
        Dipole               -1.7291 Ry au,         -4.3949 Debye
        Dipole field         -0.0033 Ry au, 
 
        Potential amp.        0.3025 Ry
        Total length         46.3494 bohr
 

     total cpu time spent up to now is      606.3 secs

     total energy              =   -2940.37369713 Ry
     estimated scf accuracy    <       1.12834391 Ry

     total magnetization       =    -0.34 Bohr mag/cell
     absolute magnetization    =     0.41 Bohr mag/cell

     iteration # 23     ecut=    29.40 Ry     beta= 0.05
     Davidson diagonalization with overlap
     c_bands:  4 eigenvalues not converged
     c_bands:  2 eigenvalues not converged
     c_bands:  5 eigenvalues not converged
     c_bands:  3 eigenvalues not converged
     c_bands:  2 eigenvalues not converged
     ethr =  2.85E-04,  avg # of iterations = 16.3

     negative rho (up, down):  7.954E-02 6.618E-02
 
     Adding external electric field

     Computed dipole along edir(3) : 
        Dipole               -1.9276 Ry au,         -4.8996 Debye
        Dipole field         -0.0036 Ry au, 
 
        Potential amp.        0.3372 Ry
        Total length         46.3494 bohr
 
 
     Adding external electric field

     Computed dipole along edir(3) : 
        Dipole               -1.9276 Ry au,         -4.8996 Debye
        Dipole field         -0.0036 Ry au, 
 
        Potential amp.        0.3372 Ry
        Total length         46.3494 bohr
 

     total cpu time spent up to now is      636.7 secs

     total energy              =   -2940.35194248 Ry
     estimated scf accuracy    <       1.77538202 Ry

     total magnetization       =    -0.00 Bohr mag/cell
     absolute magnetization    =     0.16 Bohr mag/cell

     iteration # 24     ecut=    29.40 Ry     beta= 0.05
     Davidson diagonalization with overlap
     ethr =  2.85E-04,  avg # of iterations =  5.4

     negative rho (up, down):  6.976E-02 5.959E-02
 
     Adding external electric field

     Computed dipole along edir(3) : 
        Dipole               -1.4516 Ry au,         -3.6896 Debye
        Dipole field         -0.0027 Ry au, 
 
        Potential amp.        0.2539 Ry
        Total length         46.3494 bohr
 
 
     Adding external electric field

     Computed dipole along edir(3) : 
        Dipole               -1.4516 Ry au,         -3.6896 Debye
        Dipole field         -0.0027 Ry au, 
 
        Potential amp.        0.2539 Ry
        Total length         46.3494 bohr
 

     total cpu time spent up to now is      653.0 secs

     total energy              =   -2940.31627372 Ry
     estimated scf accuracy    <       0.74668892 Ry

     total magnetization       =     0.02 Bohr mag/cell
     absolute magnetization    =     0.22 Bohr mag/cell

     iteration # 25     ecut=    29.40 Ry     beta= 0.05
     Davidson diagonalization with overlap
     c_bands:  1 eigenvalues not converged
     c_bands:  2 eigenvalues not converged
     c_bands:  1 eigenvalues not converged
     c_bands:  1 eigenvalues not converged
     c_bands:  1 eigenvalues not converged
     c_bands:  1 eigenvalues not converged
     ethr =  1.89E-04,  avg # of iterations = 17.8

     negative rho (up, down):  6.353E-02 5.304E-02
 
     Adding external electric field

     Computed dipole along edir(3) : 
        Dipole               -1.3195 Ry au,         -3.3539 Debye
        Dipole field         -0.0025 Ry au, 
 
        Potential amp.        0.2308 Ry
        Total length         46.3494 bohr
 
 
     Adding external electric field

     Computed dipole along edir(3) : 
        Dipole               -1.3195 Ry au,         -3.3539 Debye
        Dipole field         -0.0025 Ry au, 
 
        Potential amp.        0.2308 Ry
        Total length         46.3494 bohr
 

     total cpu time spent up to now is      684.9 secs

     total energy              =   -2940.35590798 Ry
     estimated scf accuracy    <       2.82204444 Ry

     total magnetization       =     0.06 Bohr mag/cell
     absolute magnetization    =     0.24 Bohr mag/cell

     iteration # 26     ecut=    29.40 Ry     beta= 0.05
     Davidson diagonalization with overlap
     ethr =  1.89E-04,  avg # of iterations =  2.6

     negative rho (up, down):  4.503E-02 3.832E-02
 
     Adding external electric field

     Computed dipole along edir(3) : 
        Dipole               -1.2923 Ry au,         -3.2846 Debye
        Dipole field         -0.0024 Ry au, 
 
        Potential amp.        0.2261 Ry
        Total length         46.3494 bohr
 
 
     Adding external electric field

     Computed dipole along edir(3) : 
        Dipole               -1.2923 Ry au,         -3.2846 Debye
        Dipole field         -0.0024 Ry au, 
 
        Potential amp.        0.2261 Ry
        Total length         46.3494 bohr
 

     total cpu time spent up to now is      699.8 secs

     total energy              =   -2940.34611300 Ry
     estimated scf accuracy    <       0.30580142 Ry

     total magnetization       =     0.07 Bohr mag/cell
     absolute magnetization    =     0.22 Bohr mag/cell

     iteration # 27     ecut=    29.40 Ry     beta= 0.05
     Davidson diagonalization with overlap
     c_bands:  1 eigenvalues not converged
     c_bands:  1 eigenvalues not converged
     c_bands:  2 eigenvalues not converged
     c_bands:  2 eigenvalues not converged
     ethr =  7.72E-05,  avg # of iterations = 15.5

     negative rho (up, down):  4.622E-02 3.951E-02
 
     Adding external electric field

     Computed dipole along edir(3) : 
        Dipole               -1.1857 Ry au,         -3.0138 Debye
        Dipole field         -0.0022 Ry au, 
 
        Potential amp.        0.2074 Ry
        Total length         46.3494 bohr
 
 
     Adding external electric field

     Computed dipole along edir(3) : 
        Dipole               -1.1857 Ry au,         -3.0138 Debye
        Dipole field         -0.0022 Ry au, 
 
        Potential amp.        0.2074 Ry
        Total length         46.3494 bohr
 

     total cpu time spent up to now is      726.1 secs

     total energy              =   -2940.39800320 Ry
     estimated scf accuracy    <       4.43618410 Ry

     total magnetization       =    -0.01 Bohr mag/cell
     absolute magnetization    =     0.16 Bohr mag/cell

     iteration # 28     ecut=    29.40 Ry     beta= 0.05
     Davidson diagonalization with overlap
     c_bands:  1 eigenvalues not converged
     ethr =  7.72E-05,  avg # of iterations =  4.3

     negative rho (up, down):  5.002E-02 4.277E-02
 
     Adding external electric field

     Computed dipole along edir(3) : 
        Dipole               -0.8972 Ry au,         -2.2804 Debye
        Dipole field         -0.0017 Ry au, 
 
        Potential amp.        0.1569 Ry
        Total length         46.3494 bohr
 
 
     Adding external electric field

     Computed dipole along edir(3) : 
        Dipole               -0.8972 Ry au,         -2.2804 Debye
        Dipole field         -0.0017 Ry au, 
 
        Potential amp.        0.1569 Ry
        Total length         46.3494 bohr
 

     total cpu time spent up to now is      744.1 secs

     total energy              =   -2940.33880460 Ry
     estimated scf accuracy    <       3.32048590 Ry

     total magnetization       =     0.03 Bohr mag/cell
     absolute magnetization    =     0.20 Bohr mag/cell

     iteration # 29     ecut=    29.40 Ry     beta= 0.05
     Davidson diagonalization with overlap
     ethr =  7.72E-05,  avg # of iterations =  7.5

     negative rho (up, down):  3.986E-02 3.539E-02
 
     Adding external electric field

     Computed dipole along edir(3) : 
        Dipole               -0.3701 Ry au,         -0.9407 Debye
        Dipole field         -0.0007 Ry au, 
 
        Potential amp.        0.0647 Ry
        Total length         46.3494 bohr
 
 
     Adding external electric field

     Computed dipole along edir(3) : 
        Dipole               -0.3701 Ry au,         -0.9407 Debye
        Dipole field         -0.0007 Ry au, 
 
        Potential amp.        0.0647 Ry
        Total length         46.3494 bohr
 

     total cpu time spent up to now is      761.9 secs

     total energy              =   -2940.35865212 Ry
     estimated scf accuracy    <       0.15953870 Ry

     total magnetization       =     0.10 Bohr mag/cell
     absolute magnetization    =     0.21 Bohr mag/cell

     iteration # 30     ecut=    29.40 Ry     beta= 0.05
     Davidson diagonalization with overlap
     c_bands:  1 eigenvalues not converged
     c_bands:  2 eigenvalues not converged
     c_bands:  1 eigenvalues not converged
     c_bands:  1 eigenvalues not converged
     c_bands:  2 eigenvalues not converged
     c_bands:  1 eigenvalues not converged
     c_bands:  2 eigenvalues not converged
     c_bands:  5 eigenvalues not converged
     c_bands:  4 eigenvalues not converged
     c_bands:  1 eigenvalues not converged
     c_bands:  2 eigenvalues not converged
     c_bands:  2 eigenvalues not converged
     c_bands:  3 eigenvalues not converged
     c_bands:  1 eigenvalues not converged
     ethr =  4.03E-05,  avg # of iterations = 19.2

     negative rho (up, down):  3.110E-02 2.708E-02
 
     Adding external electric field

     Computed dipole along edir(3) : 
        Dipole               -0.3636 Ry au,         -0.9242 Debye
        Dipole field         -0.0007 Ry au, 
 
        Potential amp.        0.0636 Ry
        Total length         46.3494 bohr
 
 
     Adding external electric field

     Computed dipole along edir(3) : 
        Dipole               -0.3636 Ry au,         -0.9242 Debye
        Dipole field         -0.0007 Ry au, 
 
        Potential amp.        0.0636 Ry
        Total length         46.3494 bohr
 

     total cpu time spent up to now is      796.3 secs

     total energy              =   -2940.32632532 Ry
     estimated scf accuracy    <       0.35794029 Ry

     total magnetization       =     0.14 Bohr mag/cell
     absolute magnetization    =     0.27 Bohr mag/cell

     iteration # 31     ecut=    29.40 Ry     beta= 0.05
     Davidson diagonalization with overlap
     c_bands:  1 eigenvalues not converged
     c_bands:  1 eigenvalues not converged
     c_bands:  2 eigenvalues not converged
     c_bands:  1 eigenvalues not converged
     ethr =  4.03E-05,  avg # of iterations = 16.2

     negative rho (up, down):  1.866E-02 1.614E-02
 
     Adding external electric field

     Computed dipole along edir(3) : 
        Dipole                0.0445 Ry au,          0.1130 Debye
        Dipole field          0.0001 Ry au, 
 
        Potential amp.       -0.0078 Ry
        Total length         46.3494 bohr
 
 
     Adding external electric field

     Computed dipole along edir(3) : 
        Dipole                0.0445 Ry au,          0.1130 Debye
        Dipole field          0.0001 Ry au, 
 
        Potential amp.       -0.0078 Ry
        Total length         46.3494 bohr
 

     total cpu time spent up to now is      823.1 secs

     total energy              =   -2940.34573061 Ry
     estimated scf accuracy    <       0.25000076 Ry

     total magnetization       =     0.14 Bohr mag/cell
     absolute magnetization    =     0.26 Bohr mag/cell

     iteration # 32     ecut=    29.40 Ry     beta= 0.05
     Davidson diagonalization with overlap
     c_bands:  1 eigenvalues not converged
     c_bands:  3 eigenvalues not converged
     ethr =  4.03E-05,  avg # of iterations =  7.1

     negative rho (up, down):  1.801E-02 1.558E-02
 
     Adding external electric field

     Computed dipole along edir(3) : 
        Dipole                0.1964 Ry au,          0.4991 Debye
        Dipole field          0.0004 Ry au, 
 
        Potential amp.       -0.0344 Ry
        Total length         46.3494 bohr
 
 
     Adding external electric field

     Computed dipole along edir(3) : 
        Dipole                0.1964 Ry au,          0.4991 Debye
        Dipole field          0.0004 Ry au, 
 
        Potential amp.       -0.0344 Ry
        Total length         46.3494 bohr
 

     total cpu time spent up to now is      854.5 secs

     total energy              =   -2940.35151917 Ry
     estimated scf accuracy    <       0.10717010 Ry

     total magnetization       =     0.13 Bohr mag/cell
     absolute magnetization    =     0.24 Bohr mag/cell

     iteration # 33     ecut=    29.40 Ry     beta= 0.05
     Davidson diagonalization with overlap
     ethr =  2.71E-05,  avg # of iterations =  5.2

     negative rho (up, down):  1.313E-02 1.164E-02
 
     Adding external electric field

     Computed dipole along edir(3) : 
        Dipole                0.4119 Ry au,          1.0468 Debye
        Dipole field          0.0008 Ry au, 
 
        Potential amp.       -0.0720 Ry
        Total length         46.3494 bohr
 
 
     Adding external electric field

     Computed dipole along edir(3) : 
        Dipole                0.4119 Ry au,          1.0468 Debye
        Dipole field          0.0008 Ry au, 
 
        Potential amp.       -0.0720 Ry
        Total length         46.3494 bohr
 

     total cpu time spent up to now is      875.0 secs

     total energy              =   -2940.35169890 Ry
     estimated scf accuracy    <       0.08702096 Ry

     total magnetization       =     0.09 Bohr mag/cell
     absolute magnetization    =     0.19 Bohr mag/cell

     iteration # 34     ecut=    29.40 Ry     beta= 0.05
     Davidson diagonalization with overlap
     c_bands:  1 eigenvalues not converged
     c_bands:  4 eigenvalues not converged
     c_bands:  4 eigenvalues not converged
     c_bands:  1 eigenvalues not converged
     c_bands:  4 eigenvalues not converged
     c_bands:  1 eigenvalues not converged
     c_bands:  1 eigenvalues not converged
     c_bands:  1 eigenvalues not converged
     c_bands:  3 eigenvalues not converged
     c_bands:  3 eigenvalues not converged
     c_bands:  1 eigenvalues not converged
     c_bands:  4 eigenvalues not converged
     c_bands:  2 eigenvalues not converged
     ethr =  2.20E-05,  avg # of iterations = 19.4

     negative rho (up, down):  1.168E-02 1.072E-02
 
     Adding external electric field

     Computed dipole along edir(3) : 
        Dipole                0.4850 Ry au,          1.2327 Debye
        Dipole field          0.0009 Ry au, 
 
        Potential amp.       -0.0848 Ry
        Total length         46.3494 bohr
 
 
     Adding external electric field

     Computed dipole along edir(3) : 
        Dipole                0.4850 Ry au,          1.2327 Debye
        Dipole field          0.0009 Ry au, 
 
        Potential amp.       -0.0848 Ry
        Total length         46.3494 bohr
 

     total cpu time spent up to now is      904.1 secs

     total energy              =   -2940.35387656 Ry
     estimated scf accuracy    <       0.17013250 Ry

     total magnetization       =     0.07 Bohr mag/cell
     absolute magnetization    =     0.14 Bohr mag/cell

     iteration # 35     ecut=    29.40 Ry     beta= 0.05
     Davidson diagonalization with overlap
     ethr =  2.20E-05,  avg # of iterations =  4.7

     negative rho (up, down):  1.126E-02 1.080E-02
 
     Adding external electric field

     Computed dipole along edir(3) : 
        Dipole                0.5605 Ry au,          1.4247 Debye
        Dipole field          0.0011 Ry au, 
 
        Potential amp.       -0.0981 Ry
        Total length         46.3494 bohr
 
 
     Adding external electric field

     Computed dipole along edir(3) : 
        Dipole                0.5605 Ry au,          1.4247 Debye
        Dipole field          0.0011 Ry au, 
 
        Potential amp.       -0.0981 Ry
        Total length         46.3494 bohr
 

     total cpu time spent up to now is      922.8 secs

     total energy              =   -2940.34572877 Ry
     estimated scf accuracy    <       0.08993747 Ry

     total magnetization       =     0.09 Bohr mag/cell
     absolute magnetization    =     0.17 Bohr mag/cell

     iteration # 36     ecut=    29.40 Ry     beta= 0.05
     Davidson diagonalization with overlap
     c_bands:  1 eigenvalues not converged
     c_bands:  1 eigenvalues not converged
     c_bands:  2 eigenvalues not converged
     c_bands:  2 eigenvalues not converged
     ethr =  2.20E-05,  avg # of iterations = 13.7

     negative rho (up, down):  1.069E-02 1.003E-02
 
     Adding external electric field

     Computed dipole along edir(3) : 
        Dipole                0.5645 Ry au,          1.4349 Debye
        Dipole field          0.0011 Ry au, 
 
        Potential amp.       -0.0988 Ry
        Total length         46.3494 bohr
 
 
     Adding external electric field

     Computed dipole along edir(3) : 
        Dipole                0.5645 Ry au,          1.4349 Debye
        Dipole field          0.0011 Ry au, 
 
        Potential amp.       -0.0988 Ry
        Total length         46.3494 bohr
 

     total cpu time spent up to now is      945.4 secs

     total energy              =   -2940.35091068 Ry
     estimated scf accuracy    <       0.01046744 Ry

     total magnetization       =     0.16 Bohr mag/cell
     absolute magnetization    =     0.24 Bohr mag/cell

     iteration # 37     ecut=    29.40 Ry     beta= 0.05
     Davidson diagonalization with overlap
     c_bands:  3 eigenvalues not converged
     c_bands:  1 eigenvalues not converged
     c_bands:  2 eigenvalues not converged
     c_bands:  1 eigenvalues not converged
     c_bands:  1 eigenvalues not converged
     c_bands:  1 eigenvalues not converged
     c_bands:  2 eigenvalues not converged
     c_bands:  1 eigenvalues not converged
     c_bands:  1 eigenvalues not converged
     c_bands:  2 eigenvalues not converged
     c_bands:  1 eigenvalues not converged
     c_bands:  1 eigenvalues not converged
     ethr =  2.64E-06,  avg # of iterations = 17.6

     negative rho (up, down):  9.328E-03 8.951E-03
 
     Adding external electric field

     Computed dipole along edir(3) : 
        Dipole                0.6172 Ry au,          1.5688 Debye
        Dipole field          0.0012 Ry au, 
 
        Potential amp.       -0.1080 Ry
        Total length         46.3494 bohr
 
 
     Adding external electric field

     Computed dipole along edir(3) : 
        Dipole                0.6172 Ry au,          1.5688 Debye
        Dipole field          0.0012 Ry au, 
 
        Potential amp.       -0.1080 Ry
        Total length         46.3494 bohr
 

     total cpu time spent up to now is      975.6 secs

     total energy              =   -2940.35092174 Ry
     estimated scf accuracy    <       0.03910522 Ry

     total magnetization       =     0.12 Bohr mag/cell
     absolute magnetization    =     0.20 Bohr mag/cell

     iteration # 38     ecut=    29.40 Ry     beta= 0.05
     Davidson diagonalization with overlap
     c_bands:  3 eigenvalues not converged
     c_bands:  1 eigenvalues not converged
     c_bands:  1 eigenvalues not converged
     c_bands:  1 eigenvalues not converged
     c_bands:  1 eigenvalues not converged
     c_bands:  1 eigenvalues not converged
     c_bands:  1 eigenvalues not converged
     ethr =  2.64E-06,  avg # of iterations = 13.4

     negative rho (up, down):  9.237E-03 9.132E-03
 
     Adding external electric field

     Computed dipole along edir(3) : 
        Dipole                0.7074 Ry au,          1.7980 Debye
        Dipole field          0.0013 Ry au, 
 
        Potential amp.       -0.1237 Ry
        Total length         46.3494 bohr
 
 
     Adding external electric field

     Computed dipole along edir(3) : 
        Dipole                0.7074 Ry au,          1.7980 Debye
        Dipole field          0.0013 Ry au, 
 
        Potential amp.       -0.1237 Ry
        Total length         46.3494 bohr
 

     total cpu time spent up to now is      997.6 secs

     total energy              =   -2940.35049102 Ry
     estimated scf accuracy    <       0.00766246 Ry

     total magnetization       =     0.16 Bohr mag/cell
     absolute magnetization    =     0.23 Bohr mag/cell

     iteration # 39     ecut=    29.40 Ry     beta= 0.05
     Davidson diagonalization with overlap
     c_bands:  1 eigenvalues not converged
     c_bands:  1 eigenvalues not converged
     c_bands:  2 eigenvalues not converged
     c_bands:  1 eigenvalues not converged
     c_bands:  1 eigenvalues not converged
     c_bands:  2 eigenvalues not converged
     c_bands:  1 eigenvalues not converged
     c_bands:  1 eigenvalues not converged
     c_bands:  2 eigenvalues not converged
     c_bands:  1 eigenvalues not converged
     c_bands:  2 eigenvalues not converged
     c_bands:  1 eigenvalues not converged
     c_bands:  2 eigenvalues not converged
     c_bands:  1 eigenvalues not converged
     ethr =  1.93E-06,  avg # of iterations = 18.1

     negative rho (up, down):  9.021E-03 8.963E-03
 
     Adding external electric field

     Computed dipole along edir(3) : 
        Dipole                0.7113 Ry au,          1.8079 Debye
        Dipole field          0.0013 Ry au, 
 
        Potential amp.       -0.1244 Ry
        Total length         46.3494 bohr
 
 
     Adding external electric field

     Computed dipole along edir(3) : 
        Dipole                0.7113 Ry au,          1.8079 Debye
        Dipole field          0.0013 Ry au, 
 
        Potential amp.       -0.1244 Ry
        Total length         46.3494 bohr
 

     total cpu time spent up to now is     1029.3 secs

     total energy              =   -2940.35306538 Ry
     estimated scf accuracy    <       0.01135431 Ry

     total magnetization       =     0.20 Bohr mag/cell
     absolute magnetization    =     0.26 Bohr mag/cell

     iteration # 40     ecut=    29.40 Ry     beta= 0.05
     Davidson diagonalization with overlap
     c_bands:  1 eigenvalues not converged
     c_bands:  2 eigenvalues not converged
     c_bands:  2 eigenvalues not converged
     ethr =  1.93E-06,  avg # of iterations =  4.2

     negative rho (up, down):  8.393E-03 8.315E-03
 
     Adding external electric field

     Computed dipole along edir(3) : 
        Dipole                0.6849 Ry au,          1.7409 Debye
        Dipole field          0.0013 Ry au, 
 
        Potential amp.       -0.1198 Ry
        Total length         46.3494 bohr
 
 
     Adding external electric field

     Computed dipole along edir(3) : 
        Dipole                0.6849 Ry au,          1.7409 Debye
        Dipole field          0.0013 Ry au, 
 
        Potential amp.       -0.1198 Ry
        Total length         46.3494 bohr
 

     total cpu time spent up to now is     1047.3 secs

     total energy              =   -2940.35003531 Ry
     estimated scf accuracy    <       0.01106319 Ry

     total magnetization       =     0.21 Bohr mag/cell
     absolute magnetization    =     0.27 Bohr mag/cell

     iteration # 41     ecut=    29.40 Ry     beta= 0.05
     Davidson diagonalization with overlap
     c_bands:  1 eigenvalues not converged
     c_bands:  1 eigenvalues not converged
     c_bands:  1 eigenvalues not converged
     c_bands:  2 eigenvalues not converged
     c_bands:  1 eigenvalues not converged
     ethr =  1.93E-06,  avg # of iterations = 14.7

     negative rho (up, down):  8.732E-03 8.665E-03
 
     Adding external electric field

     Computed dipole along edir(3) : 
        Dipole                0.6991 Ry au,          1.7770 Debye
        Dipole field          0.0013 Ry au, 
 
        Potential amp.       -0.1223 Ry
        Total length         46.3494 bohr
 
 
     Adding external electric field

     Computed dipole along edir(3) : 
        Dipole                0.6991 Ry au,          1.7770 Debye
        Dipole field          0.0013 Ry au, 
 
        Potential amp.       -0.1223 Ry
        Total length         46.3494 bohr
 

     total cpu time spent up to now is     1081.1 secs

     total energy              =   -2940.35207137 Ry
     estimated scf accuracy    <       0.00878876 Ry

     total magnetization       =     0.18 Bohr mag/cell
     absolute magnetization    =     0.24 Bohr mag/cell

     iteration # 42     ecut=    29.40 Ry     beta= 0.05
     Davidson diagonalization with overlap
     ethr =  1.93E-06,  avg # of iterations =  6.1

     negative rho (up, down):  8.811E-03 8.776E-03
 
     Adding external electric field

     Computed dipole along edir(3) : 
        Dipole                0.7081 Ry au,          1.7999 Debye
        Dipole field          0.0013 Ry au, 
 
        Potential amp.       -0.1239 Ry
        Total length         46.3494 bohr
 
 
     Adding external electric field

     Computed dipole along edir(3) : 
        Dipole                0.7081 Ry au,          1.7999 Debye
        Dipole field          0.0013 Ry au, 
 
        Potential amp.       -0.1239 Ry
        Total length         46.3494 bohr
 

     total cpu time spent up to now is     1109.7 secs

     total energy              =   -2940.35247425 Ry
     estimated scf accuracy    <       0.00140476 Ry

     total magnetization       =     0.20 Bohr mag/cell
     absolute magnetization    =     0.25 Bohr mag/cell

     iteration # 43     ecut=    29.40 Ry     beta= 0.05
     Davidson diagonalization with overlap
     c_bands:  1 eigenvalues not converged
     ethr =  3.55E-07,  avg # of iterations =  7.8

     negative rho (up, down):  8.773E-03 8.753E-03
 
     Adding external electric field

     Computed dipole along edir(3) : 
        Dipole                0.7168 Ry au,          1.8219 Debye
        Dipole field          0.0014 Ry au, 
 
        Potential amp.       -0.1254 Ry
        Total length         46.3494 bohr
 
 
     Adding external electric field

     Computed dipole along edir(3) : 
        Dipole                0.7168 Ry au,          1.8219 Debye
        Dipole field          0.0014 Ry au, 
 
        Potential amp.       -0.1254 Ry
        Total length         46.3494 bohr
 

     total cpu time spent up to now is     1130.4 secs

     total energy              =   -2940.35262493 Ry
     estimated scf accuracy    <       0.00045520 Ry

     total magnetization       =     0.21 Bohr mag/cell
     absolute magnetization    =     0.26 Bohr mag/cell

     iteration # 44     ecut=    29.40 Ry     beta= 0.05
     Davidson diagonalization with overlap
     c_bands:  1 eigenvalues not converged
     ethr =  1.15E-07,  avg # of iterations =  7.9

     negative rho (up, down):  8.624E-03 8.620E-03
 
     Adding external electric field

     Computed dipole along edir(3) : 
        Dipole                0.7198 Ry au,          1.8296 Debye
        Dipole field          0.0014 Ry au, 
 
        Potential amp.       -0.1259 Ry
        Total length         46.3494 bohr
 
 
     Adding external electric field

     Computed dipole along edir(3) : 
        Dipole                0.7198 Ry au,          1.8296 Debye
        Dipole field          0.0014 Ry au, 
 
        Potential amp.       -0.1259 Ry
        Total length         46.3494 bohr
 

     total cpu time spent up to now is     1149.2 secs

     total energy              =   -2940.35267241 Ry
     estimated scf accuracy    <       0.00031703 Ry

     total magnetization       =     0.23 Bohr mag/cell
     absolute magnetization    =     0.28 Bohr mag/cell

     iteration # 45     ecut=    29.40 Ry     beta= 0.05
     Davidson diagonalization with overlap
     ethr =  8.01E-08,  avg # of iterations =  8.2

     negative rho (up, down):  8.764E-03 8.763E-03
 
     Adding external electric field

     Computed dipole along edir(3) : 
        Dipole                0.7275 Ry au,          1.8490 Debye
        Dipole field          0.0014 Ry au, 
 
        Potential amp.       -0.1273 Ry
        Total length         46.3494 bohr
 
 
     Adding external electric field

     Computed dipole along edir(3) : 
        Dipole                0.7275 Ry au,          1.8490 Debye
        Dipole field          0.0014 Ry au, 
 
        Potential amp.       -0.1273 Ry
        Total length         46.3494 bohr
 

     total cpu time spent up to now is     1171.4 secs

     total energy              =   -2940.35274330 Ry
     estimated scf accuracy    <       0.00029717 Ry

     total magnetization       =     0.24 Bohr mag/cell
     absolute magnetization    =     0.29 Bohr mag/cell

     iteration # 46     ecut=    29.40 Ry     beta= 0.05
     Davidson diagonalization with overlap
     ethr =  7.50E-08,  avg # of iterations =  6.5

     negative rho (up, down):  8.683E-03 8.691E-03
 
     Adding external electric field

     Computed dipole along edir(3) : 
        Dipole                0.7313 Ry au,          1.8588 Debye
        Dipole field          0.0014 Ry au, 
 
        Potential amp.       -0.1279 Ry
        Total length         46.3494 bohr
 
 
     Adding external electric field

     Computed dipole along edir(3) : 
        Dipole                0.7313 Ry au,          1.8588 Debye
        Dipole field          0.0014 Ry au, 
 
        Potential amp.       -0.1279 Ry
        Total length         46.3494 bohr
 

     total cpu time spent up to now is     1190.2 secs

     total energy              =   -2940.35282144 Ry
     estimated scf accuracy    <       0.00016612 Ry

     total magnetization       =     0.25 Bohr mag/cell
     absolute magnetization    =     0.29 Bohr mag/cell

     iteration # 47     ecut=    29.40 Ry     beta= 0.05
     Davidson diagonalization with overlap
     ethr =  4.19E-08,  avg # of iterations =  7.3

     negative rho (up, down):  8.726E-03 8.740E-03
 
     Adding external electric field

     Computed dipole along edir(3) : 
        Dipole                0.7446 Ry au,          1.8927 Debye
        Dipole field          0.0014 Ry au, 
 
        Potential amp.       -0.1303 Ry
        Total length         46.3494 bohr
 
 
     Adding external electric field

     Computed dipole along edir(3) : 
        Dipole                0.7446 Ry au,          1.8927 Debye
        Dipole field          0.0014 Ry au, 
 
        Potential amp.       -0.1303 Ry
        Total length         46.3494 bohr
 

     total cpu time spent up to now is     1220.7 secs

     total energy              =   -2940.35291920 Ry
     estimated scf accuracy    <       0.00016094 Ry

     total magnetization       =     0.27 Bohr mag/cell
     absolute magnetization    =     0.30 Bohr mag/cell

     iteration # 48     ecut=    29.40 Ry     beta= 0.05
     Davidson diagonalization with overlap
     ethr =  4.06E-08,  avg # of iterations =  7.2

     negative rho (up, down):  8.752E-03 8.767E-03
 
     Adding external electric field

     Computed dipole along edir(3) : 
        Dipole                0.7475 Ry au,          1.9000 Debye
        Dipole field          0.0014 Ry au, 
 
        Potential amp.       -0.1308 Ry
        Total length         46.3494 bohr
 
 
     Adding external electric field

     Computed dipole along edir(3) : 
        Dipole                0.7475 Ry au,          1.9000 Debye
        Dipole field          0.0014 Ry au, 
 
        Potential amp.       -0.1308 Ry
        Total length         46.3494 bohr
 

     total cpu time spent up to now is     1247.6 secs

     total energy              =   -2940.35298923 Ry
     estimated scf accuracy    <       0.00006855 Ry

     total magnetization       =     0.29 Bohr mag/cell
     absolute magnetization    =     0.33 Bohr mag/cell

     iteration # 49     ecut=    29.40 Ry     beta= 0.05
     Davidson diagonalization with overlap
     ethr =  1.73E-08,  avg # of iterations =  7.0

     negative rho (up, down):  8.761E-03 8.777E-03
 
     Adding external electric field

     Computed dipole along edir(3) : 
        Dipole                0.7492 Ry au,          1.9043 Debye
        Dipole field          0.0014 Ry au, 
 
        Potential amp.       -0.1311 Ry
        Total length         46.3494 bohr
 
 
     Adding external electric field

     Computed dipole along edir(3) : 
        Dipole                0.7492 Ry au,          1.9043 Debye
        Dipole field          0.0014 Ry au, 
 
        Potential amp.       -0.1311 Ry
        Total length         46.3494 bohr
 

     total cpu time spent up to now is     1275.7 secs

     total energy              =   -2940.35303539 Ry
     estimated scf accuracy    <       0.00005534 Ry

     total magnetization       =     0.30 Bohr mag/cell
     absolute magnetization    =     0.34 Bohr mag/cell

     iteration # 50     ecut=    29.40 Ry     beta= 0.05
     Davidson diagonalization with overlap
     ethr =  1.40E-08,  avg # of iterations =  6.0

     negative rho (up, down):  8.765E-03 8.781E-03
 
     Adding external electric field

     Computed dipole along edir(3) : 
        Dipole                0.7494 Ry au,          1.9047 Debye
        Dipole field          0.0014 Ry au, 
 
        Potential amp.       -0.1311 Ry
        Total length         46.3494 bohr
 
 
     Adding external electric field

     Computed dipole along edir(3) : 
        Dipole                0.7494 Ry au,          1.9047 Debye
        Dipole field          0.0014 Ry au, 
 
        Potential amp.       -0.1311 Ry
        Total length         46.3494 bohr
 

     total cpu time spent up to now is     1292.6 secs

     total energy              =   -2940.35305180 Ry
     estimated scf accuracy    <       0.00005384 Ry

     total magnetization       =     0.31 Bohr mag/cell
     absolute magnetization    =     0.34 Bohr mag/cell

     iteration # 51     ecut=    29.40 Ry     beta= 0.05
     Davidson diagonalization with overlap
     ethr =  1.36E-08,  avg # of iterations =  1.0

     negative rho (up, down):  8.749E-03 8.762E-03
 
     Adding external electric field

     Computed dipole along edir(3) : 
        Dipole                0.7501 Ry au,          1.9065 Debye
        Dipole field          0.0014 Ry au, 
 
        Potential amp.       -0.1312 Ry
        Total length         46.3494 bohr
 
 
     Adding external electric field

     Computed dipole along edir(3) : 
        Dipole                0.7501 Ry au,          1.9065 Debye
        Dipole field          0.0014 Ry au, 
 
        Potential amp.       -0.1312 Ry
        Total length         46.3494 bohr
 

     total cpu time spent up to now is     1306.0 secs

     total energy              =   -2940.35308123 Ry
     estimated scf accuracy    <       0.00005354 Ry

     total magnetization       =     0.31 Bohr mag/cell
     absolute magnetization    =     0.34 Bohr mag/cell

     iteration # 52     ecut=    29.40 Ry     beta= 0.05
     Davidson diagonalization with overlap
     ethr =  1.35E-08,  avg # of iterations =  3.2

     negative rho (up, down):  8.757E-03 8.769E-03
 
     Adding external electric field

     Computed dipole along edir(3) : 
        Dipole                0.7502 Ry au,          1.9068 Debye
        Dipole field          0.0014 Ry au, 
 
        Potential amp.       -0.1312 Ry
        Total length         46.3494 bohr
 
 
     Adding external electric field

     Computed dipole along edir(3) : 
        Dipole                0.7502 Ry au,          1.9068 Debye
        Dipole field          0.0014 Ry au, 
 
        Potential amp.       -0.1312 Ry
        Total length         46.3494 bohr
 

     total cpu time spent up to now is     1334.3 secs

     total energy              =   -2940.35309273 Ry
     estimated scf accuracy    <       0.00005410 Ry

     total magnetization       =     0.32 Bohr mag/cell
     absolute magnetization    =     0.35 Bohr mag/cell

     iteration # 53     ecut=    29.40 Ry     beta= 0.05
     Davidson diagonalization with overlap
     ethr =  1.35E-08,  avg # of iterations =  1.1

     negative rho (up, down):  8.752E-03 8.760E-03
 
     Adding external electric field

     Computed dipole along edir(3) : 
        Dipole                0.7499 Ry au,          1.9061 Debye
        Dipole field          0.0014 Ry au, 
 
        Potential amp.       -0.1312 Ry
        Total length         46.3494 bohr
 
 
     Adding external electric field

     Computed dipole along edir(3) : 
        Dipole                0.7499 Ry au,          1.9061 Debye
        Dipole field          0.0014 Ry au, 
 
        Potential amp.       -0.1312 Ry
        Total length         46.3494 bohr
 

     total cpu time spent up to now is     1347.8 secs

     total energy              =   -2940.35310250 Ry
     estimated scf accuracy    <       0.00005414 Ry

     total magnetization       =     0.32 Bohr mag/cell
     absolute magnetization    =     0.35 Bohr mag/cell

     iteration # 54     ecut=    29.40 Ry     beta= 0.05
     Davidson diagonalization with overlap
     ethr =  1.35E-08,  avg # of iterations =  2.0

     negative rho (up, down):  8.755E-03 8.763E-03
 
     Adding external electric field

     Computed dipole along edir(3) : 
        Dipole                0.7502 Ry au,          1.9069 Debye
        Dipole field          0.0014 Ry au, 
 
        Potential amp.       -0.1312 Ry
        Total length         46.3494 bohr
 
 
     Adding external electric field

     Computed dipole along edir(3) : 
        Dipole                0.7502 Ry au,          1.9069 Debye
        Dipole field          0.0014 Ry au, 
 
        Potential amp.       -0.1312 Ry
        Total length         46.3494 bohr
 

     total cpu time spent up to now is     1362.6 secs

     total energy              =   -2940.35311436 Ry
     estimated scf accuracy    <       0.00005830 Ry

     total magnetization       =     0.32 Bohr mag/cell
     absolute magnetization    =     0.35 Bohr mag/cell

     iteration # 55     ecut=    29.40 Ry     beta= 0.05
     Davidson diagonalization with overlap
     ethr =  1.35E-08,  avg # of iterations =  1.0

     negative rho (up, down):  8.756E-03 8.764E-03
 
     Adding external electric field

     Computed dipole along edir(3) : 
        Dipole                0.7501 Ry au,          1.9066 Debye
        Dipole field          0.0014 Ry au, 
 
        Potential amp.       -0.1312 Ry
        Total length         46.3494 bohr
 
 
     Adding external electric field

     Computed dipole along edir(3) : 
        Dipole                0.7501 Ry au,          1.9066 Debye
        Dipole field          0.0014 Ry au, 
 
        Potential amp.       -0.1312 Ry
        Total length         46.3494 bohr
 

     total cpu time spent up to now is     1375.8 secs

     total energy              =   -2940.35312419 Ry
     estimated scf accuracy    <       0.00005933 Ry

     total magnetization       =     0.32 Bohr mag/cell
     absolute magnetization    =     0.35 Bohr mag/cell

     iteration # 56     ecut=    29.40 Ry     beta= 0.05
     Davidson diagonalization with overlap
     ethr =  1.35E-08,  avg # of iterations =  1.0

     negative rho (up, down):  8.765E-03 8.773E-03
 
     Adding external electric field

     Computed dipole along edir(3) : 
        Dipole                0.7515 Ry au,          1.9101 Debye
        Dipole field          0.0014 Ry au, 
 
        Potential amp.       -0.1315 Ry
        Total length         46.3494 bohr
 
 
     Adding external electric field

     Computed dipole along edir(3) : 
        Dipole                0.7515 Ry au,          1.9101 Debye
        Dipole field          0.0014 Ry au, 
 
        Potential amp.       -0.1315 Ry
        Total length         46.3494 bohr
 

     total cpu time spent up to now is     1398.5 secs

     total energy              =   -2940.35314069 Ry
     estimated scf accuracy    <       0.00005987 Ry

     total magnetization       =     0.32 Bohr mag/cell
     absolute magnetization    =     0.35 Bohr mag/cell

     iteration # 57     ecut=    29.40 Ry     beta= 0.05
     Davidson diagonalization with overlap
     ethr =  1.35E-08,  avg # of iterations =  1.4

     negative rho (up, down):  8.754E-03 8.759E-03
 
     Adding external electric field

     Computed dipole along edir(3) : 
        Dipole                0.7491 Ry au,          1.9041 Debye
        Dipole field          0.0014 Ry au, 
 
        Potential amp.       -0.1310 Ry
        Total length         46.3494 bohr
 
 
     Adding external electric field

[...]
     0.0901   0.1395   0.1605   0.2210   0.3031   0.3371   0.4369   0.4931
     0.5343   0.5968   0.6462   0.7377   0.8231   0.8407   1.0311   1.1156
     1.1634   1.2995   1.3277   1.6060   1.6756   3.1687   3.2953   3.3080
     3.5965   3.6587   3.7089   3.7145   3.7595   3.8046   3.8483   3.8700

          k = 0.0380 0.0419 0.0000 ( 17878 PWs)   bands (ev):

   -55.9640 -55.9400 -55.7820 -55.7532 -55.6738 -55.6490 -55.6473 -55.6232
   -55.5960 -55.5921 -55.5669 -55.5171 -55.2756 -54.8658 -54.8418 -54.8084
   -32.3835 -32.2722 -32.2583 -32.2404 -32.1160 -32.1078 -32.1076 -32.0972
   -32.0705 -32.0430 -32.0399 -32.0066 -31.9965 -31.9820 -31.9772 -31.9565
   -31.9291 -31.9034 -31.8853 -31.8840 -31.8757 -31.8525 -31.8510 -31.8347
   -31.8221 -31.8209 -31.8106 -31.8093 -31.8053 -31.8009 -31.7996 -31.7831
   -31.7625 -31.7597 -31.7301 -31.6891 -31.6693 -31.5018 -31.4992 -31.2717
   -31.2201 -31.1934 -31.1737 -31.0790 -31.0182 -31.0099 -30.9513 -30.9222
   -17.2683 -16.3363 -16.1310 -15.8499 -15.8332 -15.7432 -15.7375 -15.6678
   -15.6331 -15.6153 -15.5613 -15.4062 -15.3762 -15.3593 -15.3373 -15.2966
   -15.2607 -15.2146 -15.1929 -15.1583 -15.1511 -15.0971 -15.0779 -15.0694
   -15.0413 -15.0056 -14.9152 -14.8358 -14.6252 -14.5341 -13.3745 -13.2971
   -11.5585  -8.3292  -5.0471  -3.9688  -3.8258  -3.6722  -3.3827  -3.3713
    -3.3152  -3.1961  -3.1410  -3.1009  -3.0741  -2.9559  -2.9290  -2.8536
    -2.8075  -2.8014  -2.7482  -2.6926  -2.6569  -2.6257  -2.5891  -2.5684
    -2.5645  -2.5296  -2.5056  -2.4737  -2.4433  -2.4094  -2.3509  -2.2965
    -2.2613  -2.1692  -2.1118  -2.0341  -2.0041  -1.9837  -1.8709  -1.8360
    -1.7625  -1.6833  -1.6228  -1.5525  -1.5271  -1.4211  -1.3533  -1.2726
    -1.2666  -1.2222  -1.1810  -1.1560  -1.1177  -1.0414  -1.0287  -0.9868
    -0.9222  -0.8908  -0.8513  -0.8058  -0.7477  -0.7387  -0.6673  -0.6316
    -0.6183  -0.5912  -0.5718  -0.5078  -0.4645  -0.4544  -0.4223  -0.3485
    -0.3098  -0.2493  -0.2074  -0.1747  -0.1157  -0.0937  -0.0328   0.0077
     0.0912   0.1350   0.1609   0.2236   0.3204   0.3481   0.4265   0.4736
     0.5345   0.5463   0.6116   0.6745   0.7339   0.7538   0.8558   1.0448
     1.2416   1.3601   1.4514   1.5916   1.6519   3.1859   3.4191   3.5177
     3.6832   3.7168   3.7410   3.7821   3.7975   3.8212   3.8754   3.9034

          k = 0.0380-0.0839 0.0000 ( 17916 PWs)   bands (ev):

   -55.9530 -55.9510 -55.7744 -55.7608 -55.6651 -55.6577 -55.6359 -55.6348
   -55.5941 -55.5835 -55.5755 -55.5190 -55.2754 -54.8539 -54.8538 -54.8087
   -32.2523 -32.2512 -32.2487 -32.2470 -32.1363 -32.1254 -32.0766 -32.0745
   -32.0359 -32.0236 -32.0067 -31.9954 -31.9775 -31.9697 -31.9557 -31.9451
   -31.9297 -31.9201 -31.9140 -31.8947 -31.8651 -31.8634 -31.8609 -31.8594
   -31.8575 -31.8525 -31.8452 -31.8188 -31.8137 -31.8069 -31.8015 -31.7878
   -31.7839 -31.7815 -31.7770 -31.7284 -31.6408 -31.5013 -31.4998 -31.2988
   -31.1836 -31.1835 -31.0878 -31.0875 -31.0487 -31.0486 -31.0160 -30.9238
   -17.2601 -16.0256 -15.9921 -15.8746 -15.8612 -15.6814 -15.6607 -15.6240
   -15.5940 -15.5388 -15.5058 -15.4793 -15.4270 -15.3863 -15.3691 -15.3067
   -15.3029 -15.2427 -15.2229 -15.2179 -15.2148 -15.1156 -15.1059 -15.1045
   -15.0627 -15.0414 -14.9295 -14.8895 -14.7057 -14.5915 -13.3596 -13.3592
   -11.5561  -8.3276  -5.0449  -3.9418  -3.8201  -3.2682  -3.2322  -3.0583
    -3.0406  -3.0089  -3.0021  -2.9899  -2.9786  -2.9515  -2.8970  -2.8408
    -2.7951  -2.7845  -2.7586  -2.7392  -2.7147  -2.6930  -2.6828  -2.6491
    -2.5931  -2.5535  -2.5313  -2.5199  -2.4722  -2.4387  -2.4054  -2.3357
    -2.2790  -2.2500  -2.1238  -1.9759  -1.8937  -1.8653  -1.8243  -1.7134
    -1.7014  -1.6842  -1.6778  -1.6080  -1.5848  -1.5640  -1.5137  -1.4658
    -1.4411  -1.4146  -1.3439  -1.2873  -1.2506  -1.1208  -1.0708  -0.9666
    -0.9056  -0.8623  -0.8443  -0.7743  -0.7466  -0.6662  -0.6558  -0.5955
    -0.5689  -0.5503  -0.5232  -0.5069  -0.4897  -0.4643  -0.4419  -0.4055
    -0.3525  -0.3302  -0.2634  -0.2011  -0.1738  -0.1201  -0.0822  -0.0188
     0.0513   0.1314   0.1878   0.2432   0.2545   0.2849   0.3307   0.3394
     0.4084   0.4704   0.5527   0.6079   0.7096   0.8223   0.9141   1.0422
     1.0848   1.5057   1.5065   1.5946   1.5968   3.1820   3.6417   3.6486
     3.6944   3.7316   3.7974   3.8167   3.8473   3.8527   3.9417   3.9635

          k = 0.0380-0.0419 0.0000 ( 17876 PWs)   bands (ev):

   -55.9640 -55.9400 -55.7820 -55.7532 -55.6738 -55.6489 -55.6473 -55.6232
   -55.5959 -55.5921 -55.5669 -55.5171 -55.2756 -54.8658 -54.8418 -54.8084
   -32.3835 -32.2722 -32.2583 -32.2404 -32.1159 -32.1077 -32.1076 -32.0972
   -32.0705 -32.0429 -32.0399 -32.0068 -31.9967 -31.9819 -31.9777 -31.9561
   -31.9292 -31.9034 -31.8852 -31.8840 -31.8757 -31.8524 -31.8511 -31.8347
   -31.8222 -31.8207 -31.8102 -31.8091 -31.8053 -31.8008 -31.7997 -31.7832
   -31.7625 -31.7597 -31.7285 -31.6904 -31.6693 -31.5023 -31.4994 -31.2714
   -31.2201 -31.1934 -31.1737 -31.0790 -31.0182 -31.0099 -30.9513 -30.9222
   -17.2679 -16.3364 -16.1309 -15.8511 -15.8312 -15.7469 -15.7350 -15.6683
   -15.6331 -15.6158 -15.5614 -15.4069 -15.3754 -15.3597 -15.3375 -15.2882
   -15.2599 -15.2163 -15.2005 -15.1716 -15.1554 -15.1043 -15.0677 -15.0531
   -15.0397 -15.0044 -14.9185 -14.8366 -14.6234 -14.5344 -13.3745 -13.2971
   -11.5596  -8.3294  -5.0480  -3.9481  -3.8100  -3.6722  -3.3824  -3.3705
    -3.3138  -3.1955  -3.1318  -3.1118  -3.0780  -2.9539  -2.9320  -2.8557
    -2.8103  -2.8022  -2.7545  -2.6959  -2.6508  -2.6237  -2.5959  -2.5837
    -2.5634  -2.5423  -2.4986  -2.4768  -2.4502  -2.4084  -2.3564  -2.2967
    -2.2844  -2.1790  -2.1470  -2.0396  -2.0263  -1.9846  -1.8584  -1.7970
    -1.7584  -1.7187  -1.6214  -1.5647  -1.5136  -1.4114  -1.3681  -1.2687
    -1.2602  -1.2291  -1.1671  -1.1515  -1.1189  -1.0466  -1.0141  -0.9880
    -0.9187  -0.8969  -0.8224  -0.7857  -0.7511  -0.7220  -0.6778  -0.6284
    -0.6159  -0.5657  -0.5425  -0.5150  -0.4775  -0.4222  -0.3985  -0.3392
    -0.2811  -0.2439  -0.2084  -0.1578  -0.1042  -0.0807  -0.0433   0.0082
     0.0494   0.1316   0.1776   0.2378   0.3087   0.3385   0.3966   0.4817
     0.5306   0.5483   0.5727   0.6250   0.7275   0.7575   0.8347   1.0508
     1.2400   1.3600   1.4509   1.5913   1.6525   3.1830   3.4201   3.5189
     3.6963   3.7189   3.7246   3.7674   3.7966   3.8317   3.8808   3.9037

          k =-0.0760-0.0000 0.0000 ( 17886 PWs)   bands (ev):

   -55.9690 -55.9350 -55.7867 -55.7484 -55.6785 -55.6524 -55.6441 -55.6183
   -55.5978 -55.5969 -55.5621 -55.5152 -55.2759 -54.8708 -54.8368 -54.8081
   -32.4383 -32.3301 -32.2626 -32.2400 -32.1664 -32.1456 -32.1183 -32.0969
   -32.0845 -32.0590 -32.0438 -32.0297 -31.9924 -31.9666 -31.9438 -31.9374
   -31.9136 -31.9124 -31.8972 -31.8792 -31.8778 -31.8403 -31.8372 -31.8248
   -31.8246 -31.8172 -31.8166 -31.8113 -31.7975 -31.7882 -31.7723 -31.7649
   -31.7513 -31.7196 -31.7096 -31.6875 -31.6376 -31.5054 -31.4998 -31.2736
   -31.2490 -31.2006 -31.1684 -31.0914 -31.0054 -31.0036 -30.9208 -30.8942
   -17.2734 -16.3707 -16.1409 -15.9246 -15.8971 -15.7789 -15.7409 -15.7237
   -15.7036 -15.5734 -15.5620 -15.5299 -15.5027 -15.4418 -15.3638 -15.3138
   -15.2686 -15.1941 -15.1467 -15.1257 -15.1030 -15.0846 -15.0529 -14.9876
   -14.9528 -14.9016 -14.8925 -14.7894 -14.5795 -14.4709 -13.3659 -13.2563
   -11.5677  -8.3229  -5.0591  -3.9316  -3.8348  -3.8160  -3.4569  -3.3976
    -3.3162  -3.2009  -3.1918  -3.1808  -3.1644  -3.0555  -3.0308  -3.0198
    -2.8749  -2.8336  -2.6514  -2.6355  -2.6031  -2.5879  -2.5319  -2.4423
    -2.4190  -2.3925  -2.3808  -2.3102  -2.2503  -2.1852  -2.1655  -2.1530
    -2.1324  -2.0920  -2.0509  -2.0242  -1.9952  -1.9445  -1.8594  -1.8440
    -1.7520  -1.6763  -1.6337  -1.5058  -1.4731  -1.4598  -1.4497  -1.4110
    -1.3956  -1.3834  -1.3583  -1.3304  -1.2211  -1.1684  -1.1378  -1.0527
    -1.0423  -0.9938  -0.9851  -0.9607  -0.9300  -0.8521  -0.6240  -0.5971
    -0.5444  -0.5048  -0.4978  -0.4802  -0.4575  -0.4171  -0.2970  -0.2608
    -0.2216  -0.1822  -0.1717  -0.1072  -0.0674  -0.0364  -0.0095   0.0178
     0.0374   0.1094   0.1887   0.2263   0.3115   0.3588   0.3831   0.4948
     0.5634   0.5897   0.6791   0.7149   0.7997   0.8101   0.9877   1.0453
     1.1480   1.1844   1.3033   1.4778   1.6187   3.1380   3.2858   3.3226
     3.5005   3.5614   3.6574   3.6655   3.7453   3.7561   3.8491   3.8857

          k =-0.0760 0.0419 0.0000 ( 17914 PWs)   bands (ev):

   -55.9640 -55.9400 -55.7819 -55.7532 -55.6737 -55.6490 -55.6474 -55.6233
   -55.5960 -55.5921 -55.5669 -55.5171 -55.2757 -54.8658 -54.8418 -54.8084
   -32.3845 -32.2725 -32.2583 -32.2404 -32.1162 -32.1145 -32.1058 -32.0976
   -32.0705 -32.0457 -32.0428 -31.9975 -31.9914 -31.9815 -31.9778 -31.9467
   -31.9292 -31.9019 -31.8851 -31.8783 -31.8756 -31.8539 -31.8401 -31.8371
   -31.8275 -31.8211 -31.8206 -31.8090 -31.8072 -31.8049 -31.8008 -31.7832
   -31.7643 -31.7616 -31.7287 -31.6914 -31.6673 -31.5042 -31.4994 -31.2717
   -31.2199 -31.1960 -31.1731 -31.0790 -31.0182 -31.0099 -30.9513 -30.9227
   -17.2662 -16.2489 -16.0317 -15.8224 -15.8053 -15.7384 -15.6750 -15.6464
   -15.6356 -15.6314 -15.6090 -15.4922 -15.4396 -15.4322 -15.3265 -15.3080
   -15.2621 -15.2157 -15.1935 -15.1860 -15.1734 -15.1640 -15.1409 -15.0419
   -15.0170 -14.9855 -14.9162 -14.8386 -14.6214 -14.5341 -13.3725 -13.2974
   -11.5638  -8.3211  -5.0538  -3.9295  -3.8201  -3.6596  -3.2954  -3.1517
    -3.0917  -3.0224  -2.9662  -2.9160  -2.9021  -2.8895  -2.8816  -2.8565
    -2.8252  -2.7837  -2.7427  -2.6849  -2.6337  -2.6268  -2.5899  -2.5632
    -2.5304  -2.5124  -2.4873  -2.4512  -2.4268  -2.3907  -2.2978  -2.2947
    -2.1987  -2.1440  -2.0577  -1.9808  -1.9377  -1.9134  -1.8807  -1.8006
    -1.7736  -1.7075  -1.6230  -1.5546  -1.4715  -1.4312  -1.3953  -1.3639
    -1.3433  -1.2901  -1.2228  -1.2034  -1.1679  -1.1442  -1.1241  -1.0701
    -1.0501  -1.0149  -0.9771  -0.9403  -0.9165  -0.8573  -0.8148  -0.7689
    -0.7201  -0.6841  -0.6267  -0.6021  -0.5811  -0.5219  -0.5073  -0.4601
    -0.4000  -0.3412  -0.2895  -0.2840  -0.1497  -0.1165  -0.0762  -0.0321
     0.0081   0.1105   0.1937   0.3012   0.4004   0.4431   0.5097   0.5436
     0.5612   0.6030   0.6299   0.6916   0.7291   0.7596   0.8058   1.0095
     1.1052   1.3744   1.4571   1.5168   1.6408   3.1536   3.4067   3.5199
     3.5790   3.6325   3.6888   3.7285   3.7403   3.9035   3.9604   3.9894

          k =-0.0760-0.0839 0.0000 ( 17948 PWs)   bands (ev):

   -55.9530 -55.9510 -55.7744 -55.7608 -55.6651 -55.6577 -55.6359 -55.6348
   -55.5941 -55.5836 -55.5756 -55.5190 -55.2754 -54.8539 -54.8538 -54.8087
   -32.2530 -32.2519 -32.2489 -32.2471 -32.1366 -32.1257 -32.0755 -32.0734
   -32.0360 -32.0238 -32.0122 -32.0007 -31.9779 -31.9699 -31.9421 -31.9316
   -31.9289 -31.9277 -31.9210 -31.8953 -31.8682 -31.8638 -31.8608 -31.8591
   -31.8454 -31.8412 -31.8362 -31.8188 -31.8138 -31.8069 -31.8017 -31.7980
   -31.7930 -31.7887 -31.7835 -31.7260 -31.6403 -31.5033 -31.4998 -31.2989
   -31.1845 -31.1843 -31.0878 -31.0875 -31.0488 -31.0487 -31.0160 -30.9242
   -17.2591 -15.9665 -15.9370 -15.7953 -15.7743 -15.7090 -15.6939 -15.5735
   -15.5668 -15.5585 -15.5002 -15.4321 -15.4208 -15.3854 -15.3403 -15.3286
   -15.2945 -15.2764 -15.2702 -15.2660 -15.2581 -15.2100 -15.1537 -15.1484
   -15.1323 -15.0664 -14.9218 -14.8756 -14.7014 -14.5880 -13.3594 -13.3590
   -11.5600  -8.3194  -5.0489  -3.9327  -3.8221  -3.2687  -3.2328  -2.9893
    -2.9795  -2.9579  -2.9063  -2.7382  -2.7319  -2.7110  -2.6914  -2.6874
    -2.6576  -2.6411  -2.6281  -2.5681  -2.5573  -2.5199  -2.5036  -2.4988
    -2.4938  -2.4754  -2.4720  -2.4489  -2.4416  -2.4115  -2.3595  -2.3289
    -2.2987  -2.2059  -2.0923  -2.0204  -1.9842  -1.9757  -1.9640  -1.9535
    -1.9305  -1.9197  -1.8301  -1.6866  -1.6317  -1.5519  -1.5201  -1.5177
    -1.4633  -1.4114  -1.3657  -1.2687  -1.2329  -1.1582  -1.1502  -1.1151
    -1.0738  -1.0135  -0.9675  -0.9468  -0.9271  -0.8850  -0.8615  -0.8566
    -0.8015  -0.7262  -0.6777  -0.6344  -0.6151  -0.5865  -0.5745  -0.5532
    -0.4656  -0.3774  -0.3324  -0.2942  -0.2656  -0.2102  -0.0969  -0.0751
     0.1032   0.2009   0.2332   0.2817   0.3825   0.4261   0.4477   0.4688
     0.5493   0.6060   0.6330   0.6951   0.7393   0.7576   0.8168   1.0157
     1.0972   1.5250   1.5265   1.5770   1.5780   3.1562   3.6932   3.7134
     3.7180   3.7360   3.7504   3.7619   3.8051   3.8375   3.9679   3.9876

     the Fermi energy is     3.1876 ev

!    total energy              =   -2940.35373935 Ry
     estimated scf accuracy    <       0.00000004 Ry
     smearing contrib. (-TS)   =      -0.01700502 Ry
     internal energy E=F+TS    =   -2940.33673432 Ry

     The total energy is F=E-TS. E is the sum of the following terms:
     one-electron contribution =  -24661.94258639 Ry
     hartree contribution      =   12420.25497992 Ry
     xc contribution           =    -486.05828246 Ry
     ewald contribution        =    9787.40799836 Ry
     electric field correction =       0.00115624 Ry

     total magnetization       =     0.47 Bohr mag/cell
     absolute magnetization    =     0.52 Bohr mag/cell

     convergence has been achieved in  99 iterations

     Forces acting on atoms (cartesian axes, Ry/au):

     atom    1 type  1   force =     0.00023305   -0.00036321    0.10117902
     atom    2 type  1   force =     0.00001462   -0.00086240   -0.17166183
     atom    3 type  2   force =     0.00029593    0.00021157   -0.03273275
     atom    4 type  2   force =     0.00003168   -0.00081416    0.04528008
     atom    5 type  2   force =    -0.01203064   -0.00024442   -0.00204784
     atom    6 type  2   force =     0.01444800    0.00034159   -0.00084171
     atom    7 type  1   force =     0.00140521   -0.00124759   -0.00547473
     atom    8 type  1   force =    -0.00075983    0.02225756    0.05490911
     atom    9 type  2   force =    -0.00003128   -0.00028394    0.00153799
     atom   10 type  2   force =    -0.00272647    0.00206182   -0.02387656
     atom   11 type  2   force =    -0.00017076    0.00025125    0.00057586
     atom   12 type  2   force =    -0.00000781    0.00081032    0.00060857
     atom   13 type  1   force =     0.00002241    0.00022594   -0.00335051
     atom   14 type  1   force =     0.00046821    0.00028204   -0.00192305
     atom   15 type  2   force =     0.00032549    0.00026622    0.00276395
     atom   16 type  2   force =     0.00002175   -0.00015113    0.00301574
     atom   17 type  2   force =     0.00013653   -0.00075647    0.00054073
     atom   18 type  2   force =     0.00006256   -0.00061761    0.00078683
     atom   19 type  1   force =    -0.00039812   -0.00084413   -0.00235272
     atom   20 type  1   force =    -0.00006371   -0.00058497   -0.00340144
     atom   21 type  2   force =     0.00006462   -0.00001185    0.10218745
     atom   22 type  2   force =    -0.00036399   -0.00109919    0.00063225
     atom   23 type  2   force =    -0.07316202   -0.00016484   -0.02881711
     atom   24 type  2   force =     0.07311517    0.00033463   -0.02886464
     atom   25 type  1   force =    -0.00026581   -0.00029493    0.10161249
     atom   26 type  1   force =     0.00003494   -0.00019683   -0.17165994
     atom   27 type  2   force =     0.00035625   -0.00023030   -0.03146078
     atom   28 type  2   force =     0.00009243   -0.00059853    0.04590555
     atom   29 type  2   force =    -0.01217458    0.00210477   -0.00260211
     atom   30 type  2   force =     0.01447346    0.00227017   -0.00133792
     atom   31 type  1   force =     0.00159120    0.00099700   -0.00677914
     atom   32 type  1   force =    -0.00058803   -0.02477717    0.05593796
     atom   33 type  2   force =     0.00011403    0.00033182    0.00171735
     atom   34 type  2   force =    -0.00425201    0.00210063   -0.04651733
     atom   35 type  2   force =     0.00037754   -0.00061275    0.00060987
     atom   36 type  2   force =    -0.00049031   -0.00083915    0.00072665
     atom   37 type  1   force =     0.00016736    0.00058778   -0.00364922
     atom   38 type  1   force =     0.00025089   -0.00004036   -0.00194358
     atom   39 type  2   force =     0.00033464   -0.00015905    0.00244477
     atom   40 type  2   force =     0.00006025   -0.00003259    0.00212187
     atom   41 type  2   force =     0.00065329    0.00059279    0.00024910
     atom   42 type  2   force =    -0.00061819    0.00031889    0.00122259
     atom   43 type  1   force =    -0.00023468    0.00024524   -0.00194537
     atom   44 type  1   force =    -0.00035342    0.00060875   -0.00155530
     atom   45 type  2   force =     0.00004659   -0.00005108    0.10224670
     atom   46 type  2   force =    -0.07316853   -0.00009365   -0.02878754
     atom   47 type  2   force =     0.07312186    0.00027513   -0.02882543
     atom   48 type  3   force =    -0.00130305    0.00262369    0.00281003
     atom   49 type  4   force =    -0.00014766   -0.00077824    0.00097616
     atom   50 type  5   force =    -0.00001336   -0.00032375   -0.00028481
     atom   51 type  5   force =    -0.00038885   -0.00039349    0.00045367
     atom   52 type  5   force =    -0.00026753   -0.00044252    0.00010364
     atom   53 type  3   force =     0.00009548   -0.00121172   -0.00089410
     atom   54 type  5   force =     0.00156521   -0.00097761    0.00043148

     Total force =     0.377231     Total SCF correction =     0.000437
  @ DRIVER MODE: Message from server: STATUS
  @ DRIVER MODE: Message from server: GETFORCE
  @ DRIVER MODE: Returning v,forces,stress,ensemble 

     Writing output data file ./calc.save/
  @ DRIVER MODE: Message from server: EXIT
  @ DRIVE MODE: Exiting  
 
     init_run     :     13.18s CPU     14.44s WALL (       1 calls)
     electrons    :   2239.60s CPU   2271.36s WALL (       1 calls)
     forces       :      2.91s CPU      2.98s WALL (       1 calls)

     Called by init_run:
     wfcinit      :      7.64s CPU      7.71s WALL (       1 calls)
     potinit      :      4.93s CPU      6.06s WALL (       1 calls)
     hinit0       :      0.31s CPU      0.32s WALL (       1 calls)

     Called by electrons:
     c_bands      :   1864.40s CPU   1879.86s WALL (      99 calls)
     sum_band     :    286.25s CPU    297.35s WALL (      99 calls)
     v_of_rho     :     59.80s CPU     62.12s WALL (     100 calls)
     newd         :     20.59s CPU     24.07s WALL (     100 calls)
     mix_rho      :     10.45s CPU     10.63s WALL (      99 calls)
     vdW_kernel   :      3.92s CPU      4.39s WALL (       1 calls)

     Called by c_bands:
     init_us_2    :     12.89s CPU     12.95s WALL (    4000 calls)
     cegterg      :   1826.78s CPU   1841.48s WALL (    2001 calls)

     Called by *egterg:
     cdiaghg      :    409.31s CPU    411.96s WALL (   16211 calls)
     h_psi        :    919.42s CPU    929.30s WALL (   16231 calls)
     s_psi        :    108.54s CPU    108.89s WALL (   16231 calls)
     g_psi        :      2.62s CPU      2.64s WALL (   14210 calls)

     Called by h_psi:
     h_psi:calbec :    107.23s CPU    107.68s WALL (   16231 calls)
     vloc_psi     :    696.93s CPU    705.96s WALL (   16231 calls)
     add_vuspsi   :    110.37s CPU    110.75s WALL (   16231 calls)

     General routines
     calbec       :    147.55s CPU    148.44s WALL (   18291 calls)
     fft          :     39.53s CPU     40.18s WALL (    8897 calls)
     ffts         :      0.55s CPU      0.58s WALL (     398 calls)
     fftw         :    859.51s CPU    876.52s WALL ( 2458168 calls)
     interpolate  :      1.31s CPU      1.34s WALL (     200 calls)
     davcio       :      0.00s CPU      0.28s WALL (      20 calls)
 
     Parallel routines
 
     PWSCF        :  37m37.07s CPU  38m11.23s WALL

 
   This run was terminated on:  19:53:41  16Jul2021            

=------------------------------------------------------------------------------=
   JOB DONE.
=------------------------------------------------------------------------------=
