
     Program PWSCF v.6.7GPU starts on 26Sep2021 at 21:38:31 

     This program is part of the open-source Quantum ESPRESSO suite
     for quantum simulation of materials; please cite
         "P. Giannozzi et al., J. Phys.:Condens. Matter 21 395502 (2009);
         "P. Giannozzi et al., J. Phys.:Condens. Matter 29 465901 (2017);
         "P. Giannozzi et al., J. Chem. Phys. 152 154105 (2020);
          URL http://www.quantum-espresso.org", 
     in publications or presentations arising from this work. More details at
     http://www.quantum-espresso.org/quote

     Parallel version (MPI), running on     8 processors

     MPI processes distributed on     1 nodes
     R & G space division:  proc/nbgrp/npool/nimage =       8
     Reading input from /storage/home/hcoda1/3/ntian30/research/carbon/CxH_vib/H2O_calc/ads_slab/CH2NHNHHO_b/out_0026/pw.inp
Warning: card &CELL ignored
Warning: card   CELL_DYNAMICS='IPI', ignored
Warning: card / ignored

     Current dimensions of program PWSCF are:
     Max number of different atomic species (ntypx) = 10
     Max number of k-points (npk) =  40000
     Max angular momentum in pseudopotentials (lmaxx) =  3
     Presently no symmetry can be used with electric field

     Message from routine cell_base_init:
     DEPRECATED: use true lattice parameter, not A to a.u. conversion factor

     **************************************************************************
     Initializing libbeef V0.1.2 with the BEEF-vdW functional.
     Citation: Wellendorff et al., PRB 85, 235149 (2012).
     **************************************************************************


     IMPORTANT: XC functional enforced from input :
     Exchange-correlation= BEEF-VDW
                           (   1   4  43  14   2   0   0)
     Any further DFT definition will be discarded
     Please, verify this is what you really want


     Subspace diagonalization in iterative solution of the eigenvalue problem:
     one sub-group per band group will be used
     scalapack distributed-memory algorithm (size of sub-group:  2*  2 procs)

  @ DRIVER MODE: Connecting to 
 qe_1139763_2971671.sched-torque.pace.gatech.eduprp2w0c9_scratch
  using UNIX socket
  @ DRIVER MODE: Message from server: STATUS
  @ DRIVER MODE: Message from server: INIT
  @ DRIVER MODE: Receiving replica           0          -1
  @ DRIVER MODE: Receiving encoded integer          25
  @ DRIVER MODE:  SCF:  T  FORCE:  T  STRESS:  F  VC:  F  ENSEMBLE:  F
  @ DRIVER MODE:  SCF:  T  FORCE:  T  STRESS:  F  VC:  F  ENSEMBLE:  F
 
     Parallelization info
     --------------------
     sticks:   dense  smooth     PW     G-vecs:    dense   smooth      PW
     Min         409     164     47                70857    17926    2743
     Max         411     165     48                70858    17931    2751
     Sum        3275    1317    379               566857   143421   21985
 
     Using Slab Decomposition
 


     bravais-lattice index     =            0
     lattice parameter (alat)  =       1.8897  a.u.
     unit-cell volume          =    6658.9804 (a.u.)^3
     number of atoms/cell      =           56
     number of atomic types    =            5
     number of electrons       =       403.00
     number of Kohn-Sham states=          211
     kinetic-energy cutoff     =      29.3995  Ry
     charge density cutoff     =     293.9946  Ry
     scf convergence threshold =      7.3E-08
     mixing beta               =       0.0500
     number of iterations used =            8  plain     mixing
     Exchange-correlation= BEEF-VDW
                           (   1   4  43  14   2   0   0)

     celldm(1)=   1.889726  celldm(2)=   0.000000  celldm(3)=   0.000000
     celldm(4)=   0.000000  celldm(5)=   0.000000  celldm(6)=   0.000000

     crystal axes: (cart. coord. in units of alat)
               a(1) = (   6.579727   0.000000   0.000000 )  
               a(2) = (  -0.000775   5.961596   0.000000 )  
               a(3) = (   0.000000   0.000000  25.155947 )  

     reciprocal axes: (cart. coord. in units 2 pi/alat)
               b(1) = (  0.151982  0.000020  0.000000 )  
               b(2) = (  0.000000  0.167740  0.000000 )  
               b(3) = (  0.000000  0.000000  0.039752 )  


     PseudoPot. # 1 for Ti read from file:
     /storage/coda1/p-amedford6/0/shared/rich_project_chbe-medford/medford-share/data/pseudos_module/espresso/nninc/pbe/van/Ti.UPF
     MD5 check sum: 8e4df49b7f0d34bbd5052bf3f5ea0213
     Pseudo is Ultrasoft, Zval = 12.0
     Generated by new atomic code, or converted to UPF format
     Using radial grid of  851 points,  6 beta functions with: 
                l(1) =   0
                l(2) =   0
                l(3) =   1
                l(4) =   1
                l(5) =   2
                l(6) =   2
     Q(r) pseudized with  8 coefficients,  rinner =    1.000   1.000   1.000
                                                       1.000   1.000

     PseudoPot. # 2 for O  read from file:
     /storage/coda1/p-amedford6/0/shared/rich_project_chbe-medford/medford-share/data/pseudos_module/espresso/nninc/pbe/van/O.UPF
     MD5 check sum: 78c19812648e8988a0fe644b0f25305e
     Pseudo is Ultrasoft, Zval =  6.0
     Generated by new atomic code, or converted to UPF format
     Using radial grid of  737 points,  4 beta functions with: 
                l(1) =   0
                l(2) =   0
                l(3) =   1
                l(4) =   1
     Q(r) pseudized with  8 coefficients,  rinner =    0.800   0.800   0.800


     PseudoPot. # 3 for N  read from file:
     /storage/coda1/p-amedford6/0/shared/rich_project_chbe-medford/medford-share/data/pseudos_module/espresso/nninc/pbe/van/N.UPF
     MD5 check sum: 90d10febe142ad51ac9d5be1deb811c4
     Pseudo is Ultrasoft, Zval =  5.0
     Generated by new atomic code, or converted to UPF format
     Using radial grid of  729 points,  4 beta functions with: 
                l(1) =   0
                l(2) =   0
                l(3) =   1
                l(4) =   1
     Q(r) pseudized with  8 coefficients,  rinner =    0.800   0.800   0.800


     PseudoPot. # 4 for C  read from file:
     /storage/coda1/p-amedford6/0/shared/rich_project_chbe-medford/medford-share/data/pseudos_module/espresso/nninc/pbe/van/C.UPF
     MD5 check sum: 1a69bf6b8db32088f5b2163dbdb77a27
     Pseudo is Ultrasoft, Zval =  4.0
     Generated by new atomic code, or converted to UPF format
     Using radial grid of  721 points,  4 beta functions with: 
                l(1) =   0
                l(2) =   0
                l(3) =   1
                l(4) =   1
     Q(r) pseudized with  8 coefficients,  rinner =    0.800   0.800   0.800


     PseudoPot. # 5 for H  read from file:
     /storage/coda1/p-amedford6/0/shared/rich_project_chbe-medford/medford-share/data/pseudos_module/espresso/nninc/pbe/van/H.UPF
     MD5 check sum: b5ee9d7bfd3a09ee7748110bda690ff7
     Pseudo is Ultrasoft, Zval =  1.0
     Generated by new atomic code, or converted to UPF format
     Using radial grid of  615 points,  1 beta functions with: 
                l(1) =   0
     Q(r) pseudized with  8 coefficients,  rinner =    0.800

     atomic species   valence    mass     pseudopotential
        Ti1           12.00    47.86700     Ti( 1.00)
        O1             6.00    15.99900     O ( 1.00)
        N1             5.00    14.00700     N ( 1.00)
        C1             4.00    12.01100     C ( 1.00)
        H1             1.00     1.00800     H ( 1.00)

     No symmetry found



   Cartesian axes

     site n.     atom                  positions (alat units)
         1           Ti1 tau(   1) = (   0.0004258   2.9801865   6.0000000  )
         2           Ti1 tau(   2) = (   3.2906075   1.4906267   6.0002472  )
         3           O1  tau(   3) = (   0.0006271   0.0005054   7.9858123  )
         4           O1  tau(   4) = (   3.2906025   0.0005020   7.3038282  )
         5           O1  tau(   5) = (   4.5942328   1.4918067   9.2879030  )
         6           O1  tau(   6) = (   1.9868534   1.4903216   9.2879459  )
         7           Ti1 tau(   7) = (   3.2907910   2.8959150   9.1758416  )
         8           Ti1 tau(   8) = (   0.0015273   1.4827037   9.2680791  )
         9           O1  tau(   9) = (   3.2987294   5.9443783  11.3578989  )
        10           O1  tau(  10) = (   0.0116148   5.9584955  10.6183126  )
        11           O1  tau(  11) = (   1.2795512   1.4821507  12.6386044  )
        12           O1  tau(  12) = (   5.2980455   1.5005163  12.6536529  )
        13           Ti1 tau(  13) = (   6.5652885   2.9238251  12.5528928  )
        14           Ti1 tau(  14) = (   3.2988635   1.2998061  12.7048432  )
        15           O1  tau(  15) = (   0.0127057   0.0339484  14.6761273  )
        16           O1  tau(  16) = (   3.2875936   0.0940603  14.0290633  )
        17           O1  tau(  17) = (   4.5650748   1.6033894  16.0357995  )
        18           O1  tau(  18) = (   2.0190796   1.5896112  16.2175902  )
        19           Ti1 tau(  19) = (   3.3013862   3.0422678  15.6649453  )
        20           Ti1 tau(  20) = (   6.4815444   1.5191555  15.8288377  )
        21           O1  tau(  21) = (   3.2904802   0.0005063   4.7018136  )
        22           O1  tau(  22) = (   6.5172723   5.9480513  17.2191950  )
        23           O1  tau(  23) = (   1.3043587   1.4918075   6.0039043  )
        24           O1  tau(  24) = (   5.2767064   1.4903225   6.0039473  )
        25           Ti1 tau(  25) = (   0.0000382   5.9609847   6.0000000  )
        26           Ti1 tau(  26) = (   3.2902200   4.4714249   6.0002472  )
        27           O1  tau(  27) = (   0.0002396   2.9813036   7.9858123  )
        28           O1  tau(  28) = (   3.2902150   2.9813002   7.3038282  )
        29           O1  tau(  29) = (   4.5938453   4.4726049   9.2879030  )
        30           O1  tau(  30) = (   1.9864658   4.4711199   9.2879459  )
        31           Ti1 tau(  31) = (   3.2891106   5.8743827   9.1763621  )
        32           Ti1 tau(  32) = (   0.0006254   4.4649316   9.2693709  )
        33           O1  tau(  33) = (   3.2945946   2.9940555  11.3077331  )
        34           O1  tau(  34) = (   0.0092240   2.9805883  10.6323155  )
        35           O1  tau(  35) = (   1.2876619   4.4781899  12.6403949  )
        36           O1  tau(  36) = (   5.3010724   4.4646845  12.6541769  )
        37           Ti1 tau(  37) = (   0.0424196   5.9023569  12.5123361  )
        38           Ti1 tau(  38) = (   3.3119368   4.3729351  12.4217702  )
        39           O1  tau(  39) = (   0.0401333   2.9740317  14.7512036  )
        40           O1  tau(  40) = (   3.2576645   3.0028392  13.8982547  )
        41           O1  tau(  41) = (   4.5666544   4.4234537  16.0705803  )
        42           O1  tau(  42) = (   2.0215446   4.4756893  16.1430302  )
        43           Ti1 tau(  43) = (   3.2259990   0.0392177  16.2341362  )
        44           Ti1 tau(  44) = (   6.5723990   4.6710500  15.9980081  )
        45           O1  tau(  45) = (   3.2900926   2.9813045   4.7018136  )
        46           O1  tau(  46) = (   1.3039711   4.4726057   6.0039043  )
        47           O1  tau(  47) = (   5.2763189   4.4711207   6.0039473  )
        48           N1  tau(  48) = (   0.9334729   2.5913682  18.4753943  )
        49           N1  tau(  49) = (   6.5156687   2.9055835  17.6419879  )
        50           C1  tau(  50) = (   1.0224037   2.6952286  19.7617917  )
        51           H1  tau(  51) = (   1.9166829   2.3177709  20.2270220  )
        52           H1  tau(  52) = (   0.2262702   3.1370440  20.3260263  )
        53           H1  tau(  53) = (   1.6995924   2.1399843  17.9426691  )
        54           H1  tau(  54) = (   5.6785098   3.1284051  18.1783837  )
        55           O1  tau(  55) = (   3.5318048   0.0910060  18.0897867  )
        56           H1  tau(  56) = (   4.4897960   0.0680733  18.2655997  )

     number of k points=    10  Fermi-Dirac smearing, width (Ry)=  0.0073
                       cart. coord. in units 2pi/alat
        k(    1) = (   0.0000000   0.0000000   0.0000000), wk =   0.1250000
        k(    2) = (   0.0000000   0.0419351   0.0000000), wk =   0.2500000
        k(    3) = (   0.0000000  -0.0838702   0.0000000), wk =   0.1250000
        k(    4) = (   0.0379955   0.0000049   0.0000000), wk =   0.2500000
        k(    5) = (   0.0379955   0.0419400   0.0000000), wk =   0.2500000
        k(    6) = (   0.0379955  -0.0838652   0.0000000), wk =   0.2500000
        k(    7) = (   0.0379955  -0.0419301   0.0000000), wk =   0.2500000
        k(    8) = (  -0.0759910  -0.0000099   0.0000000), wk =   0.1250000
        k(    9) = (  -0.0759910   0.0419252   0.0000000), wk =   0.2500000
        k(   10) = (  -0.0759910  -0.0838800   0.0000000), wk =   0.1250000

     Dense  grid:   566857 G-vectors     FFT dimensions: (  72,  64, 270)

     Smooth grid:   143421 G-vectors     FFT dimensions: (  45,  40, 180)

     Estimated max dynamical RAM per process >     457.66 MB

     Estimated total dynamical RAM >       3.58 GB
     Cannot read rho : file not found

     Initial potential from superposition of free atoms

     starting charge  386.99914, renormalised to  403.00000

     negative rho (up, down):  1.427E-02 0.000E+00


     %%%%%%%%%%%%%%%%%%%%%%%%%%%%%%%%%%%%%%%%%%%%%%%%%%%%%%%%%%%%%%%%%%%%%%%%
     %                                                                      %
     % You are using vdW-DF, which was implemented by the Thonhauser group. %
     % Please cite the following two papers that made this development      %
     % possible and the two reviews that describe the various versions:     %
     %                                                                      %
     %   T. Thonhauser et al., PRL 115, 136402 (2015).                      %
     %   T. Thonhauser et al., PRB 76, 125112 (2007).                       %
     %   K. Berland et al., Rep. Prog. Phys. 78, 066501 (2015).             %
     %   D.C. Langreth et al., J. Phys.: Condens. Matter 21, 084203 (2009). %
     %                                                                      %
     %                                                                      %
     % If you are calculating the stress with vdW-DF, please also cite:     %
     %                                                                      %
     %   R. Sabatini et al., J. Phys.: Condens. Matter 24, 424209 (2012).   %
     %                                                                      %
     %%%%%%%%%%%%%%%%%%%%%%%%%%%%%%%%%%%%%%%%%%%%%%%%%%%%%%%%%%%%%%%%%%%%%%%%


 
     Adding external electric field

     Computed dipole along edir(3) : 
        Dipole              -12.9683 Ry au,        -32.9621 Debye
        Dipole field         -0.0245 Ry au, 
 
        Potential amp.        2.2686 Ry
        Total length         46.3494 bohr
 
     Starting wfcs are  305 atomic wfcs
  @ DRIVER MODE: Message from server: STATUS
  @ DRIVER MODE: Message from server: POSDATA
  @ DRIVER MODE: Reading and sharing cell 
  @ DRIVER MODE: Reading and sharing positions 
  @ DRIVER MODE: Received positions 

     total cpu time spent up to now is       15.8 secs

     Self-consistent Calculation

     iteration #  1     ecut=    29.40 Ry     beta= 0.05
     Davidson diagonalization with overlap
     c_bands:  4 eigenvalues not converged
     c_bands:  4 eigenvalues not converged
     c_bands:  3 eigenvalues not converged
     c_bands:  1 eigenvalues not converged
     c_bands:  3 eigenvalues not converged
     c_bands:  2 eigenvalues not converged
     ethr =  1.00E-05,  avg # of iterations = 25.6

     negative rho (up, down):  8.342E-03 0.000E+00
 
     Adding external electric field

     Computed dipole along edir(3) : 
        Dipole               53.9548 Ry au,        137.1394 Debye
        Dipole field          0.1018 Ry au, 
 
        Potential amp.       -9.4386 Ry
        Total length         46.3494 bohr
 

     total cpu time spent up to now is       80.5 secs

     total energy              =   -2352.66113588 Ry
     estimated scf accuracy    <    7059.69133681 Ry

     iteration #  2     ecut=    29.40 Ry     beta= 0.05
     Davidson diagonalization with overlap
     ethr =  1.00E-02,  avg # of iterations = 22.7

     negative rho (up, down):  4.319E-04 0.000E+00
 
     Adding external electric field

     Computed dipole along edir(3) : 
        Dipole               -0.6299 Ry au,         -1.6011 Debye
        Dipole field         -0.0012 Ry au, 
 
        Potential amp.        0.1102 Ry
        Total length         46.3494 bohr
 

     total cpu time spent up to now is      187.0 secs

     total energy              =   -2467.66513130 Ry
     estimated scf accuracy    <   72375.18397725 Ry

     iteration #  3     ecut=    29.40 Ry     beta= 0.05
     Davidson diagonalization with overlap
     ethr =  1.00E-02,  avg # of iterations = 17.3

     negative rho (up, down):  4.853E-04 0.000E+00
 
     Adding external electric field

     Computed dipole along edir(3) : 
        Dipole               -3.7360 Ry au,         -9.4958 Debye
        Dipole field         -0.0071 Ry au, 
 
        Potential amp.        0.6535 Ry
        Total length         46.3494 bohr
 

     total cpu time spent up to now is      253.2 secs

     total energy              =   -2960.30254348 Ry
     estimated scf accuracy    <    6108.71038479 Ry

     iteration #  4     ecut=    29.40 Ry     beta= 0.05
     Davidson diagonalization with overlap
     ethr =  1.00E-02,  avg # of iterations = 12.5

     negative rho (up, down):  5.051E-04 0.000E+00
 
     Adding external electric field

     Computed dipole along edir(3) : 
        Dipole               -5.2904 Ry au,        -13.4468 Debye
        Dipole field         -0.0100 Ry au, 
 
        Potential amp.        0.9255 Ry
        Total length         46.3494 bohr
 

     total cpu time spent up to now is      287.3 secs

     total energy              =   -2964.53575594 Ry
     estimated scf accuracy    <    1904.95358179 Ry

     iteration #  5     ecut=    29.40 Ry     beta= 0.05
     Davidson diagonalization with overlap
     ethr =  1.00E-02,  avg # of iterations =  3.5

     negative rho (up, down):  5.645E-04 0.000E+00
 
     Adding external electric field

     Computed dipole along edir(3) : 
        Dipole               -7.4712 Ry au,        -18.9899 Debye
        Dipole field         -0.0141 Ry au, 
 
        Potential amp.        1.3070 Ry
        Total length         46.3494 bohr
 

     total cpu time spent up to now is      301.9 secs

     total energy              =   -2941.75884431 Ry
     estimated scf accuracy    <    1845.59440781 Ry

     iteration #  6     ecut=    29.40 Ry     beta= 0.05
     Davidson diagonalization with overlap
     ethr =  1.00E-02,  avg # of iterations = 12.3

     negative rho (up, down):  5.413E-04 0.000E+00
 
     Adding external electric field

     Computed dipole along edir(3) : 
        Dipole               -6.0971 Ry au,        -15.4974 Debye
        Dipole field         -0.0115 Ry au, 
 
        Potential amp.        1.0666 Ry
        Total length         46.3494 bohr
 

     total cpu time spent up to now is      335.5 secs

     total energy              =   -2978.10009726 Ry
     estimated scf accuracy    <      62.52878040 Ry

     iteration #  7     ecut=    29.40 Ry     beta= 0.05
     Davidson diagonalization with overlap
     ethr =  1.00E-02,  avg # of iterations =  1.4

     negative rho (up, down):  5.679E-04 0.000E+00
 
     Adding external electric field

     Computed dipole along edir(3) : 
        Dipole               -5.4294 Ry au,        -13.8003 Debye
        Dipole field         -0.0102 Ry au, 
 
        Potential amp.        0.9498 Ry
        Total length         46.3494 bohr
 

     total cpu time spent up to now is      349.0 secs

     total energy              =   -2977.50162467 Ry
     estimated scf accuracy    <      18.84090646 Ry

     iteration #  8     ecut=    29.40 Ry     beta= 0.05
     Davidson diagonalization with overlap
     ethr =  4.68E-03,  avg # of iterations =  1.6

     negative rho (up, down):  5.649E-04 0.000E+00
 
     Adding external electric field

     Computed dipole along edir(3) : 
        Dipole               -5.4644 Ry au,        -13.8890 Debye
        Dipole field         -0.0103 Ry au, 
 
        Potential amp.        0.9559 Ry
        Total length         46.3494 bohr
 

     total cpu time spent up to now is      362.5 secs

     total energy              =   -2977.83241724 Ry
     estimated scf accuracy    <      21.02573117 Ry

     iteration #  9     ecut=    29.40 Ry     beta= 0.05
     Davidson diagonalization with overlap
     ethr =  4.68E-03,  avg # of iterations =  1.0

     negative rho (up, down):  6.243E-04 0.000E+00
 
     Adding external electric field

     Computed dipole along edir(3) : 
        Dipole               -4.7396 Ry au,        -12.0470 Debye
        Dipole field         -0.0089 Ry au, 
 
        Potential amp.        0.8291 Ry
        Total length         46.3494 bohr
 

     total cpu time spent up to now is      375.6 secs

     total energy              =   -2976.25463346 Ry
     estimated scf accuracy    <      21.19203473 Ry

     iteration # 10     ecut=    29.40 Ry     beta= 0.05
     Davidson diagonalization with overlap
     ethr =  4.68E-03,  avg # of iterations =  1.0

     negative rho (up, down):  5.607E-03 0.000E+00
 
     Adding external electric field

     Computed dipole along edir(3) : 
        Dipole               -0.3015 Ry au,         -0.7664 Debye
        Dipole field         -0.0006 Ry au, 
 
        Potential amp.        0.0527 Ry
        Total length         46.3494 bohr
 

     total cpu time spent up to now is      388.5 secs

     total energy              =   -2970.87911252 Ry
     estimated scf accuracy    <      14.51140609 Ry

     iteration # 11     ecut=    29.40 Ry     beta= 0.05
     Davidson diagonalization with overlap
     ethr =  3.60E-03,  avg # of iterations = 11.2

     negative rho (up, down):  6.074E-03 0.000E+00
 
     Adding external electric field

     Computed dipole along edir(3) : 
        Dipole               -0.3711 Ry au,         -0.9432 Debye
        Dipole field         -0.0007 Ry au, 
 
        Potential amp.        0.0649 Ry
        Total length         46.3494 bohr
 

     total cpu time spent up to now is      417.9 secs

     total energy              =   -2986.43847351 Ry
     estimated scf accuracy    <     858.43969320 Ry

     iteration # 12     ecut=    29.40 Ry     beta= 0.05
     Davidson diagonalization with overlap
     ethr =  3.60E-03,  avg # of iterations =  1.1

     negative rho (up, down):  5.485E-03 0.000E+00
 
     Adding external electric field

     Computed dipole along edir(3) : 
        Dipole               -0.5461 Ry au,         -1.3880 Debye
        Dipole field         -0.0010 Ry au, 
 
        Potential amp.        0.0955 Ry
        Total length         46.3494 bohr
 

     total cpu time spent up to now is      431.0 secs

     total energy              =   -2985.23661530 Ry
     estimated scf accuracy    <     733.76680958 Ry

     iteration # 13     ecut=    29.40 Ry     beta= 0.05
     Davidson diagonalization with overlap
     ethr =  3.60E-03,  avg # of iterations =  1.1

     negative rho (up, down):  4.602E-03 0.000E+00
 
     Adding external electric field

     Computed dipole along edir(3) : 
        Dipole               -0.4424 Ry au,         -1.1244 Debye
        Dipole field         -0.0008 Ry au, 
 
        Potential amp.        0.0774 Ry
        Total length         46.3494 bohr
 

     total cpu time spent up to now is      444.0 secs

     total energy              =   -2985.62840346 Ry
     estimated scf accuracy    <     666.28808964 Ry

     iteration # 14     ecut=    29.40 Ry     beta= 0.05
     Davidson diagonalization with overlap
     ethr =  3.60E-03,  avg # of iterations =  1.0

     negative rho (up, down):  1.770E-03 0.000E+00
 
     Adding external electric field

     Computed dipole along edir(3) : 
        Dipole               -0.3090 Ry au,         -0.7853 Debye
        Dipole field         -0.0006 Ry au, 
 
        Potential amp.        0.0540 Ry
        Total length         46.3494 bohr
 

     total cpu time spent up to now is      457.0 secs

     total energy              =   -2982.20121986 Ry
     estimated scf accuracy    <     722.32008018 Ry

     iteration # 15     ecut=    29.40 Ry     beta= 0.05
     Davidson diagonalization with overlap
     ethr =  3.60E-03,  avg # of iterations =  1.0

     negative rho (up, down):  1.348E-03 0.000E+00
 
     Adding external electric field

     Computed dipole along edir(3) : 
        Dipole               -0.3004 Ry au,         -0.7636 Debye
        Dipole field         -0.0006 Ry au, 
 
        Potential amp.        0.0526 Ry
        Total length         46.3494 bohr
 

     total cpu time spent up to now is      470.1 secs

     total energy              =   -2979.20825889 Ry
     estimated scf accuracy    <     666.51559581 Ry

     iteration # 16     ecut=    29.40 Ry     beta= 0.05
     Davidson diagonalization with overlap
     ethr =  3.60E-03,  avg # of iterations =  2.0

     negative rho (up, down):  1.772E-03 0.000E+00
 
     Adding external electric field

     Computed dipole along edir(3) : 
        Dipole               -0.0515 Ry au,         -0.1308 Debye
        Dipole field         -0.0001 Ry au, 
 
        Potential amp.        0.0090 Ry
        Total length         46.3494 bohr
 

     total cpu time spent up to now is      484.1 secs

     total energy              =   -2982.19157661 Ry
     estimated scf accuracy    <     552.05136509 Ry

     iteration # 17     ecut=    29.40 Ry     beta= 0.05
     Davidson diagonalization with overlap
     ethr =  3.60E-03,  avg # of iterations =  1.0

     negative rho (up, down):  1.995E-03 0.000E+00
 
     Adding external electric field

     Computed dipole along edir(3) : 
        Dipole                0.0422 Ry au,          0.1072 Debye
        Dipole field          0.0001 Ry au, 
 
        Potential amp.       -0.0074 Ry
        Total length         46.3494 bohr
 

     total cpu time spent up to now is      497.0 secs

     total energy              =   -2982.88483646 Ry
     estimated scf accuracy    <     610.96114439 Ry

     iteration # 18     ecut=    29.40 Ry     beta= 0.05
     Davidson diagonalization with overlap
     ethr =  3.60E-03,  avg # of iterations =  1.0

     negative rho (up, down):  8.582E-04 0.000E+00
 
     Adding external electric field

     Computed dipole along edir(3) : 
        Dipole               -3.8560 Ry au,         -9.8009 Debye
        Dipole field         -0.0073 Ry au, 
 
        Potential amp.        0.6745 Ry
        Total length         46.3494 bohr
 

     total cpu time spent up to now is      509.9 secs

     total energy              =   -2964.07681589 Ry
     estimated scf accuracy    <     607.80069854 Ry

     iteration # 19     ecut=    29.40 Ry     beta= 0.05
     Davidson diagonalization with overlap
     ethr =  3.60E-03,  avg # of iterations = 16.6

     negative rho (up, down):  1.214E-03 0.000E+00
 
     Adding external electric field

     Computed dipole along edir(3) : 
        Dipole               -1.9707 Ry au,         -5.0090 Debye
        Dipole field         -0.0037 Ry au, 
 
        Potential amp.        0.3447 Ry
        Total length         46.3494 bohr
 

     total cpu time spent up to now is      538.6 secs

     total energy              =   -2974.19177842 Ry
     estimated scf accuracy    <       9.54913640 Ry

     iteration # 20     ecut=    29.40 Ry     beta= 0.05
     Davidson diagonalization with overlap
     ethr =  2.37E-03,  avg # of iterations = 14.8

     negative rho (up, down):  1.201E-03 0.000E+00
 
     Adding external electric field

     Computed dipole along edir(3) : 
        Dipole               -1.8297 Ry au,         -4.6507 Debye
        Dipole field         -0.0035 Ry au, 
 
        Potential amp.        0.3201 Ry
        Total length         46.3494 bohr
 

     total cpu time spent up to now is      562.2 secs

     total energy              =   -2976.97676633 Ry
     estimated scf accuracy    <      90.34201687 Ry

     iteration # 21     ecut=    29.40 Ry     beta= 0.05
     Davidson diagonalization with overlap
     ethr =  2.37E-03,  avg # of iterations =  1.2

     negative rho (up, down):  9.459E-04 0.000E+00
 
     Adding external electric field

     Computed dipole along edir(3) : 
        Dipole               -3.2781 Ry au,         -8.3322 Debye
        Dipole field         -0.0062 Ry au, 
 
        Potential amp.        0.5735 Ry
        Total length         46.3494 bohr
 

     total cpu time spent up to now is      575.3 secs

     total energy              =   -2971.07265685 Ry
     estimated scf accuracy    <      95.36216597 Ry

     iteration # 22     ecut=    29.40 Ry     beta= 0.05
     Davidson diagonalization with overlap
     ethr =  2.37E-03,  avg # of iterations = 12.1

     negative rho (up, down):  1.018E-03 0.000E+00
 
     Adding external electric field

     Computed dipole along edir(3) : 
        Dipole               -2.2250 Ry au,         -5.6553 Debye
        Dipole field         -0.0042 Ry au, 
 
        Potential amp.        0.3892 Ry
        Total length         46.3494 bohr
 

     total cpu time spent up to now is      595.9 secs

     total energy              =   -2973.99959630 Ry
     estimated scf accuracy    <       3.56325077 Ry

     iteration # 23     ecut=    29.40 Ry     beta= 0.05
     Davidson diagonalization with overlap
     ethr =  8.84E-04,  avg # of iterations =  6.5

     negative rho (up, down):  1.374E-03 0.000E+00
 
     Adding external electric field

     Computed dipole along edir(3) : 
        Dipole               -0.0402 Ry au,         -0.1023 Debye
        Dipole field         -0.0001 Ry au, 
 
        Potential amp.        0.0070 Ry
        Total length         46.3494 bohr
 

     total cpu time spent up to now is      613.5 secs

     total energy              =   -2973.90345283 Ry
     estimated scf accuracy    <       2.23279439 Ry

     iteration # 24     ecut=    29.40 Ry     beta= 0.05
     Davidson diagonalization with overlap
     ethr =  5.54E-04,  avg # of iterations = 11.1

     negative rho (up, down):  1.517E-03 0.000E+00
 
     Adding external electric field

     Computed dipole along edir(3) : 
        Dipole                0.1417 Ry au,          0.3602 Debye
        Dipole field          0.0003 Ry au, 
 
        Potential amp.       -0.0248 Ry
        Total length         46.3494 bohr
 

     total cpu time spent up to now is      633.9 secs

     total energy              =   -2973.97532363 Ry
     estimated scf accuracy    <       1.45365789 Ry

     iteration # 25     ecut=    29.40 Ry     beta= 0.05
     Davidson diagonalization with overlap
     ethr =  3.61E-04,  avg # of iterations =  6.1

     negative rho (up, down):  1.418E-03 0.000E+00
 
     Adding external electric field

     Computed dipole along edir(3) : 
        Dipole               -0.0974 Ry au,         -0.2476 Debye
        Dipole field         -0.0002 Ry au, 
 
        Potential amp.        0.0170 Ry
        Total length         46.3494 bohr
 

     total cpu time spent up to now is      650.0 secs

     total energy              =   -2974.09150084 Ry
     estimated scf accuracy    <       1.08076083 Ry

     iteration # 26     ecut=    29.40 Ry     beta= 0.05
     Davidson diagonalization with overlap
     ethr =  2.68E-04,  avg # of iterations =  2.3

     negative rho (up, down):  1.385E-03 0.000E+00
 
     Adding external electric field

     Computed dipole along edir(3) : 
        Dipole               -0.2911 Ry au,         -0.7400 Debye
        Dipole field         -0.0005 Ry au, 
 
        Potential amp.        0.0509 Ry
        Total length         46.3494 bohr
 

     total cpu time spent up to now is      664.1 secs

     total energy              =   -2974.11802863 Ry
     estimated scf accuracy    <       1.00811804 Ry

     iteration # 27     ecut=    29.40 Ry     beta= 0.05
     Davidson diagonalization with overlap
     ethr =  2.50E-04,  avg # of iterations =  4.9

     negative rho (up, down):  1.842E-03 0.000E+00
 
     Adding external electric field

     Computed dipole along edir(3) : 
        Dipole                0.2320 Ry au,          0.5898 Debye
        Dipole field          0.0004 Ry au, 
 
        Potential amp.       -0.0406 Ry
        Total length         46.3494 bohr
 

     total cpu time spent up to now is      679.5 secs

     total energy              =   -2973.91693472 Ry
     estimated scf accuracy    <       0.92362187 Ry

     iteration # 28     ecut=    29.40 Ry     beta= 0.05
     Davidson diagonalization with overlap
     ethr =  2.29E-04,  avg # of iterations =  7.2

     negative rho (up, down):  2.506E-03 0.000E+00
 
     Adding external electric field

     Computed dipole along edir(3) : 
        Dipole                0.7147 Ry au,          1.8165 Debye
        Dipole field          0.0013 Ry au, 
 
        Potential amp.       -0.1250 Ry
        Total length         46.3494 bohr
 

     total cpu time spent up to now is      696.0 secs

     total energy              =   -2973.92627841 Ry
     estimated scf accuracy    <       0.38035890 Ry

     iteration # 29     ecut=    29.40 Ry     beta= 0.05
     Davidson diagonalization with overlap
     c_bands:  2 eigenvalues not converged
     c_bands:  1 eigenvalues not converged
     c_bands:  4 eigenvalues not converged
     ethr =  9.44E-05,  avg # of iterations = 17.4

     negative rho (up, down):  2.458E-03 0.000E+00
 
     Adding external electric field

     Computed dipole along edir(3) : 
        Dipole                0.8037 Ry au,          2.0428 Debye
        Dipole field          0.0015 Ry au, 
 
        Potential amp.       -0.1406 Ry
        Total length         46.3494 bohr
 

     total cpu time spent up to now is      724.6 secs

     total energy              =   -2973.99754263 Ry
     estimated scf accuracy    <       0.21165984 Ry

     iteration # 30     ecut=    29.40 Ry     beta= 0.05
     Davidson diagonalization with overlap
     ethr =  5.25E-05,  avg # of iterations =  9.7

     negative rho (up, down):  2.455E-03 0.000E+00
 
     Adding external electric field

     Computed dipole along edir(3) : 
        Dipole                1.0567 Ry au,          2.6859 Debye
        Dipole field          0.0020 Ry au, 
 
        Potential amp.       -0.1849 Ry
        Total length         46.3494 bohr
 

     total cpu time spent up to now is      741.7 secs

     total energy              =   -2973.97871152 Ry
     estimated scf accuracy    <       0.17363036 Ry

     iteration # 31     ecut=    29.40 Ry     beta= 0.05
     Davidson diagonalization with overlap
     c_bands:  4 eigenvalues not converged
     c_bands:  1 eigenvalues not converged
     ethr =  4.31E-05,  avg # of iterations = 15.9

     negative rho (up, down):  3.337E-03 0.000E+00
 
     Adding external electric field

     Computed dipole along edir(3) : 
        Dipole                0.8457 Ry au,          2.1495 Debye
        Dipole field          0.0016 Ry au, 
 
        Potential amp.       -0.1479 Ry
        Total length         46.3494 bohr
 

     total cpu time spent up to now is      767.0 secs

     total energy              =   -2973.96447193 Ry
     estimated scf accuracy    <       0.18230197 Ry

     iteration # 32     ecut=    29.40 Ry     beta= 0.05
     Davidson diagonalization with overlap
     c_bands:  1 eigenvalues not converged
     c_bands:  3 eigenvalues not converged
     ethr =  4.31E-05,  avg # of iterations = 15.7

     negative rho (up, down):  3.513E-03 0.000E+00
 
     Adding external electric field

     Computed dipole along edir(3) : 
        Dipole                0.8371 Ry au,          2.1278 Debye
        Dipole field          0.0016 Ry au, 
 
        Potential amp.       -0.1464 Ry
        Total length         46.3494 bohr
 

     total cpu time spent up to now is      792.8 secs

     total energy              =   -2974.00910659 Ry
     estimated scf accuracy    <       0.16896500 Ry

     iteration # 33     ecut=    29.40 Ry     beta= 0.05
     Davidson diagonalization with overlap
     ethr =  4.19E-05,  avg # of iterations =  2.9

     negative rho (up, down):  3.501E-03 0.000E+00
 
     Adding external electric field

     Computed dipole along edir(3) : 
        Dipole                0.8524 Ry au,          2.1667 Debye
        Dipole field          0.0016 Ry au, 
 
        Potential amp.       -0.1491 Ry
        Total length         46.3494 bohr
 

     total cpu time spent up to now is      807.3 secs

     total energy              =   -2974.01372852 Ry
     estimated scf accuracy    <       0.16911666 Ry

     iteration # 34     ecut=    29.40 Ry     beta= 0.05
     Davidson diagonalization with overlap
     ethr =  4.19E-05,  avg # of iterations =  1.0

     negative rho (up, down):  3.701E-03 0.000E+00
 
     Adding external electric field

     Computed dipole along edir(3) : 
        Dipole                0.9004 Ry au,          2.2885 Debye
        Dipole field          0.0017 Ry au, 
 
        Potential amp.       -0.1575 Ry
        Total length         46.3494 bohr
 

     total cpu time spent up to now is      820.2 secs

     total energy              =   -2974.00703554 Ry
     estimated scf accuracy    <       0.16382352 Ry

     iteration # 35     ecut=    29.40 Ry     beta= 0.05
     Davidson diagonalization with overlap
     ethr =  4.07E-05,  avg # of iterations =  1.1

     negative rho (up, down):  3.432E-03 0.000E+00
 
     Adding external electric field

     Computed dipole along edir(3) : 
        Dipole                1.1131 Ry au,          2.8292 Debye
        Dipole field          0.0021 Ry au, 
 
        Potential amp.       -0.1947 Ry
        Total length         46.3494 bohr
 

     total cpu time spent up to now is      833.2 secs

     total energy              =   -2973.95393764 Ry
     estimated scf accuracy    <       0.15613013 Ry

     iteration # 36     ecut=    29.40 Ry     beta= 0.05
     Davidson diagonalization with overlap
     c_bands:  3 eigenvalues not converged
     c_bands:  2 eigenvalues not converged
     c_bands:  1 eigenvalues not converged
     ethr =  3.87E-05,  avg # of iterations = 16.7

     negative rho (up, down):  4.826E-03 0.000E+00
 
     Adding external electric field

     Computed dipole along edir(3) : 
        Dipole                1.1837 Ry au,          3.0086 Debye
        Dipole field          0.0022 Ry au, 
 
        Potential amp.       -0.2071 Ry
        Total length         46.3494 bohr
 

     total cpu time spent up to now is      861.0 secs

     total energy              =   -2973.99821903 Ry
     estimated scf accuracy    <       0.15171281 Ry

     iteration # 37     ecut=    29.40 Ry     beta= 0.05
     Davidson diagonalization with overlap
     ethr =  3.76E-05,  avg # of iterations =  3.0

     negative rho (up, down):  5.072E-03 0.000E+00
 
     Adding external electric field

     Computed dipole along edir(3) : 
        Dipole                1.1986 Ry au,          3.0465 Debye
        Dipole field          0.0023 Ry au, 
 
        Potential amp.       -0.2097 Ry
        Total length         46.3494 bohr
 

     total cpu time spent up to now is      875.6 secs

     total energy              =   -2973.99819712 Ry
     estimated scf accuracy    <       0.09718530 Ry

     iteration # 38     ecut=    29.40 Ry     beta= 0.05
     Davidson diagonalization with overlap
     ethr =  2.41E-05,  avg # of iterations =  5.4

     negative rho (up, down):  6.488E-03 0.000E+00
 
     Adding external electric field

     Computed dipole along edir(3) : 
        Dipole                1.1757 Ry au,          2.9883 Debye
        Dipole field          0.0022 Ry au, 
 
        Potential amp.       -0.2057 Ry
        Total length         46.3494 bohr
 

     total cpu time spent up to now is      890.9 secs

     total energy              =   -2973.98533093 Ry
     estimated scf accuracy    <       0.07368290 Ry

     iteration # 39     ecut=    29.40 Ry     beta= 0.05
     Davidson diagonalization with overlap
     c_bands:  2 eigenvalues not converged
     c_bands:  2 eigenvalues not converged
     ethr =  1.83E-05,  avg # of iterations = 12.0

     negative rho (up, down):  8.604E-03 0.000E+00
 
     Adding external electric field

     Computed dipole along edir(3) : 
        Dipole                1.2608 Ry au,          3.2046 Debye
        Dipole field          0.0024 Ry au, 
 
        Potential amp.       -0.2206 Ry
        Total length         46.3494 bohr
 

     total cpu time spent up to now is      910.6 secs

     total energy              =   -2973.99504190 Ry
     estimated scf accuracy    <       0.01145853 Ry

     iteration # 40     ecut=    29.40 Ry     beta= 0.05
     Davidson diagonalization with overlap
     c_bands:  1 eigenvalues not converged
     c_bands:  4 eigenvalues not converged
     c_bands:  1 eigenvalues not converged
     c_bands:  1 eigenvalues not converged
     ethr =  2.84E-06,  avg # of iterations = 15.8

     negative rho (up, down):  9.193E-03 0.000E+00
 
     Adding external electric field

     Computed dipole along edir(3) : 
        Dipole                1.2753 Ry au,          3.2415 Debye
        Dipole field          0.0024 Ry au, 
 
        Potential amp.       -0.2231 Ry
        Total length         46.3494 bohr
 

     total cpu time spent up to now is      937.6 secs

     total energy              =   -2973.99671856 Ry
     estimated scf accuracy    <       0.01439746 Ry

     iteration # 41     ecut=    29.40 Ry     beta= 0.05
     Davidson diagonalization with overlap
     c_bands:  1 eigenvalues not converged
     c_bands:  4 eigenvalues not converged
     ethr =  2.84E-06,  avg # of iterations =  5.3

     negative rho (up, down):  1.070E-02 0.000E+00
 
     Adding external electric field

     Computed dipole along edir(3) : 
        Dipole                1.3137 Ry au,          3.3390 Debye
        Dipole field          0.0025 Ry au, 
 
        Potential amp.       -0.2298 Ry
        Total length         46.3494 bohr
 

     total cpu time spent up to now is      952.7 secs

     total energy              =   -2973.99715739 Ry
     estimated scf accuracy    <       0.00663872 Ry

     iteration # 42     ecut=    29.40 Ry     beta= 0.05
     Davidson diagonalization with overlap
     ethr =  1.65E-06,  avg # of iterations = 10.1

     negative rho (up, down):  1.184E-02 0.000E+00
 
     Adding external electric field

     Computed dipole along edir(3) : 
        Dipole                1.3160 Ry au,          3.3450 Debye
        Dipole field          0.0025 Ry au, 
 
        Potential amp.       -0.2302 Ry
        Total length         46.3494 bohr
 

     total cpu time spent up to now is      969.9 secs

     total energy              =   -2973.99705788 Ry
     estimated scf accuracy    <       0.00478684 Ry

     iteration # 43     ecut=    29.40 Ry     beta= 0.05
     Davidson diagonalization with overlap
     c_bands:  1 eigenvalues not converged
     c_bands:  1 eigenvalues not converged
     c_bands:  2 eigenvalues not converged
     c_bands:  1 eigenvalues not converged
     ethr =  1.19E-06,  avg # of iterations = 14.7

     negative rho (up, down):  1.224E-02 0.000E+00
 
     Adding external electric field

     Computed dipole along edir(3) : 
        Dipole                1.3018 Ry au,          3.3089 Debye
        Dipole field          0.0025 Ry au, 
 
        Potential amp.       -0.2277 Ry
        Total length         46.3494 bohr
 

     total cpu time spent up to now is      995.0 secs

     total energy              =   -2973.99763802 Ry
     estimated scf accuracy    <       0.00172766 Ry

     iteration # 44     ecut=    29.40 Ry     beta= 0.05
     Davidson diagonalization with overlap
     ethr =  4.29E-07,  avg # of iterations =  8.6

     negative rho (up, down):  1.359E-02 0.000E+00
 
     Adding external electric field

     Computed dipole along edir(3) : 
        Dipole                1.3298 Ry au,          3.3800 Debye
        Dipole field          0.0025 Ry au, 
 
        Potential amp.       -0.2326 Ry
        Total length         46.3494 bohr
 

     total cpu time spent up to now is     1013.1 secs

     total energy              =   -2973.99796323 Ry
     estimated scf accuracy    <       0.00135256 Ry

     iteration # 45     ecut=    29.40 Ry     beta= 0.05
     Davidson diagonalization with overlap
     ethr =  3.36E-07,  avg # of iterations = 10.1

     negative rho (up, down):  1.396E-02 0.000E+00
 
     Adding external electric field

     Computed dipole along edir(3) : 
        Dipole                1.3321 Ry au,          3.3859 Debye
        Dipole field          0.0025 Ry au, 
 
        Potential amp.       -0.2330 Ry
        Total length         46.3494 bohr
 

     total cpu time spent up to now is     1031.6 secs

     total energy              =   -2973.99810845 Ry
     estimated scf accuracy    <       0.00129816 Ry

     iteration # 46     ecut=    29.40 Ry     beta= 0.05
     Davidson diagonalization with overlap
     ethr =  3.22E-07,  avg # of iterations =  3.1

     negative rho (up, down):  1.469E-02 0.000E+00
 
     Adding external electric field

     Computed dipole along edir(3) : 
        Dipole                1.3330 Ry au,          3.3882 Debye
        Dipole field          0.0025 Ry au, 
 
        Potential amp.       -0.2332 Ry
        Total length         46.3494 bohr
 

     total cpu time spent up to now is     1046.3 secs

     total energy              =   -2973.99785491 Ry
     estimated scf accuracy    <       0.00098382 Ry

     iteration # 47     ecut=    29.40 Ry     beta= 0.05
     Davidson diagonalization with overlap
     c_bands:  2 eigenvalues not converged
     c_bands:  1 eigenvalues not converged
     c_bands:  1 eigenvalues not converged
     ethr =  2.44E-07,  avg # of iterations = 16.9

     negative rho (up, down):  1.465E-02 0.000E+00
 
     Adding external electric field

     Computed dipole along edir(3) : 
        Dipole                1.3345 Ry au,          3.3919 Debye
        Dipole field          0.0025 Ry au, 
 
        Potential amp.       -0.2334 Ry
        Total length         46.3494 bohr
 

     total cpu time spent up to now is     1074.7 secs

     total energy              =   -2973.99815669 Ry
     estimated scf accuracy    <       0.00097937 Ry

     iteration # 48     ecut=    29.40 Ry     beta= 0.05
     Davidson diagonalization with overlap
     ethr =  2.43E-07,  avg # of iterations =  1.6

     negative rho (up, down):  1.455E-02 0.000E+00
 
     Adding external electric field

     Computed dipole along edir(3) : 
        Dipole                1.3367 Ry au,          3.3976 Debye
        Dipole field          0.0025 Ry au, 
 
        Potential amp.       -0.2338 Ry
        Total length         46.3494 bohr
 

     total cpu time spent up to now is     1087.9 secs

     total energy              =   -2973.99807586 Ry
     estimated scf accuracy    <       0.00070781 Ry

     iteration # 49     ecut=    29.40 Ry     beta= 0.05
     Davidson diagonalization with overlap
     ethr =  1.76E-07,  avg # of iterations =  9.1

     negative rho (up, down):  1.480E-02 0.000E+00
 
     Adding external electric field

     Computed dipole along edir(3) : 
        Dipole                1.3368 Ry au,          3.3978 Debye
        Dipole field          0.0025 Ry au, 
 
        Potential amp.       -0.2338 Ry
        Total length         46.3494 bohr
 

     total cpu time spent up to now is     1106.2 secs

     total energy              =   -2973.99821222 Ry
     estimated scf accuracy    <       0.00022772 Ry

     iteration # 50     ecut=    29.40 Ry     beta= 0.05
     Davidson diagonalization with overlap
     c_bands:  1 eigenvalues not converged
     ethr =  5.65E-08,  avg # of iterations = 15.4

     negative rho (up, down):  1.460E-02 0.000E+00
 
     Adding external electric field

     Computed dipole along edir(3) : 
        Dipole                1.3384 Ry au,          3.4019 Debye
        Dipole field          0.0025 Ry au, 
 
        Potential amp.       -0.2341 Ry
        Total length         46.3494 bohr
 

     total cpu time spent up to now is     1133.8 secs

     total energy              =   -2973.99811020 Ry
     estimated scf accuracy    <       0.00105313 Ry

     iteration # 51     ecut=    29.40 Ry     beta= 0.05
     Davidson diagonalization with overlap
     ethr =  5.65E-08,  avg # of iterations =  9.4

     negative rho (up, down):  1.447E-02 0.000E+00
 
     Adding external electric field

     Computed dipole along edir(3) : 
        Dipole                1.3393 Ry au,          3.4042 Debye
        Dipole field          0.0025 Ry au, 
 
        Potential amp.       -0.2343 Ry
        Total length         46.3494 bohr
 

     total cpu time spent up to now is     1158.2 secs

     total energy              =   -2973.99815864 Ry
     estimated scf accuracy    <       0.00014858 Ry

     iteration # 52     ecut=    29.40 Ry     beta= 0.05
     Davidson diagonalization with overlap
     ethr =  3.69E-08,  avg # of iterations =  9.0

     negative rho (up, down):  1.462E-02 0.000E+00
 
     Adding external electric field

     Computed dipole along edir(3) : 
        Dipole                1.3444 Ry au,          3.4172 Debye
        Dipole field          0.0025 Ry au, 
 
        Potential amp.       -0.2352 Ry
        Total length         46.3494 bohr
 

     total cpu time spent up to now is     1178.4 secs

     total energy              =   -2973.99819882 Ry
     estimated scf accuracy    <       0.00004128 Ry

     iteration # 53     ecut=    29.40 Ry     beta= 0.05
     Davidson diagonalization with overlap
     ethr =  1.02E-08,  avg # of iterations = 12.2

     negative rho (up, down):  1.482E-02 0.000E+00
 
     Adding external electric field

     Computed dipole along edir(3) : 
        Dipole                1.3486 Ry au,          3.4277 Debye
        Dipole field          0.0025 Ry au, 
 
        Potential amp.       -0.2359 Ry
        Total length         46.3494 bohr
 

     total cpu time spent up to now is     1200.6 secs

     total energy              =   -2973.99822563 Ry
     estimated scf accuracy    <       0.00002230 Ry

     iteration # 54     ecut=    29.40 Ry     beta= 0.05
     Davidson diagonalization with overlap
     c_bands:  1 eigenvalues not converged
     ethr =  5.53E-09,  avg # of iterations = 12.5

     negative rho (up, down):  1.495E-02 0.000E+00
 
     Adding external electric field

     Computed dipole along edir(3) : 
        Dipole                1.3474 Ry au,          3.4247 Debye
        Dipole field          0.0025 Ry au, 
 
        Potential amp.       -0.2357 Ry
        Total length         46.3494 bohr
 

     total cpu time spent up to now is     1226.8 secs

     total energy              =   -2973.99823217 Ry
     estimated scf accuracy    <       0.00004848 Ry

     iteration # 55     ecut=    29.40 Ry     beta= 0.05
     Davidson diagonalization with overlap
     ethr =  5.53E-09,  avg # of iterations = 13.6

     negative rho (up, down):  1.502E-02 0.000E+00
 
     Adding external electric field

     Computed dipole along edir(3) : 
        Dipole                1.3505 Ry au,          3.4326 Debye
        Dipole field          0.0025 Ry au, 
 
        Potential amp.       -0.2362 Ry
        Total length         46.3494 bohr
 

     total cpu time spent up to now is     1255.5 secs

     total energy              =   -2973.99825352 Ry
     estimated scf accuracy    <       0.00001624 Ry

     iteration # 56     ecut=    29.40 Ry     beta= 0.05
     Davidson diagonalization with overlap
     ethr =  4.03E-09,  avg # of iterations =  8.4

     negative rho (up, down):  1.499E-02 0.000E+00
 
     Adding external electric field

     Computed dipole along edir(3) : 
        Dipole                1.3511 Ry au,          3.4342 Debye
        Dipole field          0.0025 Ry au, 
 
        Potential amp.       -0.2364 Ry
        Total length         46.3494 bohr
 

     total cpu time spent up to now is     1272.9 secs

     total energy              =   -2973.99826532 Ry
     estimated scf accuracy    <       0.00000532 Ry

     iteration # 57     ecut=    29.40 Ry     beta= 0.05
     Davidson diagonalization with overlap
     ethr =  1.32E-09,  avg # of iterations = 11.8

     negative rho (up, down):  1.495E-02 0.000E+00
 
     Adding external electric field

     Computed dipole along edir(3) : 
        Dipole                1.3500 Ry au,          3.4314 Debye
        Dipole field          0.0025 Ry au, 
 
        Potential amp.       -0.2362 Ry
        Total length         46.3494 bohr
 

     total cpu time spent up to now is     1298.0 secs

     total energy              =   -2973.99827640 Ry
     estimated scf accuracy    <       0.00000834 Ry

     iteration # 58     ecut=    29.40 Ry     beta= 0.05
     Davidson diagonalization with overlap
     ethr =  1.32E-09,  avg # of iterations =  4.2

     negative rho (up, down):  1.497E-02 0.000E+00
 
     Adding external electric field

     Computed dipole along edir(3) : 
        Dipole                1.3488 Ry au,          3.4283 Debye
        Dipole field          0.0025 Ry au, 
 
        Potential amp.       -0.2359 Ry
        Total length         46.3494 bohr
 

     total cpu time spent up to now is     1312.8 secs

     total energy              =   -2973.99828393 Ry
     estimated scf accuracy    <       0.00000462 Ry

     iteration # 59     ecut=    29.40 Ry     beta= 0.05
     Davidson diagonalization with overlap
     c_bands:  2 eigenvalues not converged
     c_bands:  1 eigenvalues not converged
     ethr =  1.15E-09,  avg # of iterations = 16.9

     negative rho (up, down):  1.498E-02 0.000E+00
 
     Adding external electric field

     Computed dipole along edir(3) : 
        Dipole                1.3501 Ry au,          3.4315 Debye
        Dipole field          0.0025 Ry au, 
 
        Potential amp.       -0.2362 Ry
        Total length         46.3494 bohr
 

     total cpu time spent up to now is     1346.6 secs

     total energy              =   -2973.99829300 Ry
     estimated scf accuracy    <       0.00001493 Ry

     iteration # 60     ecut=    29.40 Ry     beta= 0.05
     Davidson diagonalization with overlap
     ethr =  1.15E-09,  avg # of iterations =  9.5

     negative rho (up, down):  1.498E-02 0.000E+00
 
     Adding external electric field

     Computed dipole along edir(3) : 
        Dipole                1.3500 Ry au,          3.4314 Debye
        Dipole field          0.0025 Ry au, 
 
        Potential amp.       -0.2362 Ry
        Total length         46.3494 bohr
 

     total cpu time spent up to now is     1370.1 secs

     total energy              =   -2973.99830176 Ry
     estimated scf accuracy    <       0.00000146 Ry

     iteration # 61     ecut=    29.40 Ry     beta= 0.05
     Davidson diagonalization with overlap
     ethr =  3.61E-10,  avg # of iterations =  2.2

     negative rho (up, down):  1.499E-02 0.000E+00
 
     Adding external electric field

     Computed dipole along edir(3) : 
        Dipole                1.3499 Ry au,          3.4312 Debye
        Dipole field          0.0025 Ry au, 
 
        Potential amp.       -0.2362 Ry
        Total length         46.3494 bohr
 

     total cpu time spent up to now is     1385.5 secs

     total energy              =   -2973.99830871 Ry
     estimated scf accuracy    <       0.00000126 Ry

     iteration # 62     ecut=    29.40 Ry     beta= 0.05
     Davidson diagonalization with overlap
     ethr =  3.13E-10,  avg # of iterations =  1.3

     negative rho (up, down):  1.498E-02 0.000E+00
 
     Adding external electric field

     Computed dipole along edir(3) : 
        Dipole                1.3502 Ry au,          3.4319 Debye
        Dipole field          0.0025 Ry au, 
 
        Potential amp.       -0.2362 Ry
        Total length         46.3494 bohr
 

     total cpu time spent up to now is     1398.8 secs

     total energy              =   -2973.99831478 Ry
     estimated scf accuracy    <       0.00000101 Ry

     iteration # 63     ecut=    29.40 Ry     beta= 0.05
     Davidson diagonalization with overlap
     ethr =  2.50E-10,  avg # of iterations = 13.9

     negative rho (up, down):  1.499E-02 0.000E+00
 
     Adding external electric field

     Computed dipole along edir(3) : 
        Dipole                1.3503 Ry au,          3.4321 Debye
        Dipole field          0.0025 Ry au, 
 
        Potential amp.       -0.2362 Ry
        Total length         46.3494 bohr
 

     total cpu time spent up to now is     1426.0 secs

     total energy              =   -2973.99832066 Ry
     estimated scf accuracy    <       0.00000054 Ry

     iteration # 64     ecut=    29.40 Ry     beta= 0.05
     Davidson diagonalization with overlap
     ethr =  1.33E-10,  avg # of iterations =  2.9

     negative rho (up, down):  1.500E-02 0.000E+00
 
     Adding external electric field

     Computed dipole along edir(3) : 
        Dipole                1.3501 Ry au,          3.4317 Debye
        Dipole field          0.0025 Ry au, 
 
        Potential amp.       -0.2362 Ry
        Total length         46.3494 bohr
 

     total cpu time spent up to now is     1440.5 secs

     total energy              =   -2973.99832566 Ry
     estimated scf accuracy    <       0.00000057 Ry

     iteration # 65     ecut=    29.40 Ry     beta= 0.05
     Davidson diagonalization with overlap
     ethr =  1.33E-10,  avg # of iterations = 10.4

     negative rho (up, down):  1.501E-02 0.000E+00
 
     Adding external electric field

     Computed dipole along edir(3) : 
        Dipole                1.3500 Ry au,          3.4314 Debye
        Dipole field          0.0025 Ry au, 
 
        Potential amp.       -0.2362 Ry
        Total length         46.3494 bohr
 

     total cpu time spent up to now is     1458.0 secs

     total energy              =   -2973.99833016 Ry
     estimated scf accuracy    <       0.00000025 Ry

     iteration # 66     ecut=    29.40 Ry     beta= 0.05
     Davidson diagonalization with overlap
     ethr =  6.23E-11,  avg # of iterations =  9.8

     negative rho (up, down):  1.506E-02 0.000E+00
 
     Adding external electric field

     Computed dipole along edir(3) : 
        Dipole                1.3498 Ry au,          3.4309 Debye
        Dipole field          0.0025 Ry au, 
 
        Potential amp.       -0.2361 Ry
        Total length         46.3494 bohr
 

     total cpu time spent up to now is     1479.3 secs

     End of self-consistent calculation

          k = 0.0000 0.0000 0.0000 ( 18029 PWs)   bands (ev):

   -55.4236 -55.3278 -55.2938 -55.1488 -55.1452 -55.1337 -55.1131 -55.1113
   -55.0842 -55.0559 -55.0341 -54.9573 -54.9546 -54.9106 -54.2913 -54.2573
   -31.8107 -31.7456 -31.6802 -31.6486 -31.6374 -31.6271 -31.6196 -31.5978
   -31.5728 -31.5717 -31.5674 -31.4829 -31.4801 -31.4328 -31.4190 -31.4050
   -31.3989 -31.3852 -31.3620 -31.3474 -31.3391 -31.3383 -31.3296 -31.3152
   -31.3033 -31.2914 -31.2790 -31.2758 -31.2745 -31.2631 -31.2598 -31.2496
   -31.2336 -31.2296 -31.2267 -31.1900 -31.1789 -31.1509 -31.1388 -31.1286
   -31.1165 -31.1122 -30.6968 -30.6117 -30.5892 -30.5144 -30.4281 -30.3163
   -19.6142 -16.1795 -15.9493 -15.7972 -15.6150 -15.4914 -15.4335 -15.2203
   -15.1526 -15.0816 -15.0010 -14.9361 -14.8586 -14.8444 -14.8190 -14.8036
   -14.7795 -14.7415 -14.7399 -14.7354 -14.6928 -14.6863 -14.6559 -14.6061
   -14.6007 -14.5786 -14.4566 -14.3829 -14.3368 -14.2028 -14.0826 -13.9505
   -12.7898 -12.6737 -10.1764  -7.0196  -6.7084  -4.2755  -4.0276  -3.6418
    -3.3301  -3.2534  -3.2227  -3.1817  -3.0576  -2.8765  -2.7588  -2.6857
    -2.5824  -2.4584  -2.4412  -2.3401  -2.3155  -2.2479  -2.2122  -2.1725
    -2.1520  -2.1286  -2.1056  -2.1020  -1.9899  -1.9856  -1.8605  -1.8430
    -1.7941  -1.7346  -1.6866  -1.6399  -1.6283  -1.6096  -1.5939  -1.5853
    -1.5546  -1.5408  -1.5174  -1.4651  -1.4044  -1.3569  -1.3200  -1.2067
    -1.0174  -0.9198  -0.8676  -0.8261  -0.7934  -0.7442  -0.7176  -0.7097
    -0.6798  -0.6416  -0.5087  -0.5010  -0.4547  -0.3789  -0.3393  -0.3185
    -0.1922  -0.1794  -0.1069  -0.0502  -0.0475  -0.0362   0.0581   0.1156
     0.1442   0.1733   0.2241   0.2807   0.3542   0.3831   0.4163   0.4757
     0.5368   0.5650   0.6246   0.6437   0.6554   0.7374   0.7584   0.7829
     0.8052   0.8763   0.9236   0.9594   0.9995   1.0883   1.1184   1.1677
     1.2047   1.3599   1.4145   1.6838   1.7350   1.7995   1.9290   2.3014
     2.3462   3.7740   3.9099   3.9292   3.9334   4.0310   4.1339   4.2469
     4.2953   4.3300   4.3762

          k = 0.0000 0.0419 0.0000 ( 17933 PWs)   bands (ev):

   -55.4232 -55.3228 -55.2987 -55.1437 -55.1403 -55.1340 -55.1182 -55.1158
   -55.0811 -55.0545 -55.0370 -54.9560 -54.9542 -54.9135 -54.2863 -54.2622
   -31.7568 -31.7152 -31.6775 -31.6267 -31.6149 -31.6132 -31.5827 -31.5619
   -31.5597 -31.5556 -31.5141 -31.4894 -31.4663 -31.4451 -31.4071 -31.3991
   -31.3950 -31.3908 -31.3839 -31.3555 -31.3500 -31.3402 -31.3315 -31.3155
   -31.3120 -31.3105 -31.3030 -31.2967 -31.2809 -31.2799 -31.2706 -31.2653
   -31.2454 -31.2370 -31.2341 -31.2288 -31.1784 -31.1774 -31.1678 -31.1462
   -31.1374 -31.1116 -30.6428 -30.6083 -30.5923 -30.5019 -30.4406 -30.3734
   -19.6134 -16.1626 -15.8277 -15.6909 -15.5128 -15.4181 -15.3544 -15.1636
   -15.1174 -15.1011 -15.0569 -14.9968 -14.9419 -14.8375 -14.8054 -14.7994
   -14.7860 -14.7660 -14.7290 -14.7201 -14.7131 -14.6825 -14.6723 -14.6660
   -14.6082 -14.5525 -14.5149 -14.4398 -14.3964 -14.2534 -14.1692 -13.9582
   -12.7940 -12.7133 -10.1762  -7.0200  -6.7094  -4.2633  -4.0272  -3.6391
    -3.1592  -3.0970  -3.0500  -3.0238  -2.9056  -2.7514  -2.6694  -2.4783
    -2.4304  -2.4020  -2.3878  -2.3220  -2.3050  -2.2766  -2.2455  -2.2297
    -2.2038  -2.1898  -2.1574  -2.1017  -2.0421  -2.0245  -1.9848  -1.9771
    -1.9492  -1.9197  -1.8541  -1.8298  -1.7957  -1.7579  -1.7335  -1.6163
    -1.5483  -1.5212  -1.4485  -1.4227  -1.3544  -1.2239  -1.0889  -1.0452
    -1.0097  -0.9726  -0.9413  -0.7988  -0.7404  -0.7142  -0.6114  -0.5235
    -0.5038  -0.4774  -0.4331  -0.3546  -0.3438  -0.2946  -0.2732  -0.2341
    -0.1958  -0.1475  -0.1346  -0.0930  -0.0532  -0.0424   0.0103   0.0282
     0.1121   0.1237   0.1458   0.1894   0.2760   0.3098   0.3958   0.4134
     0.4482   0.4970   0.5194   0.5574   0.5804   0.6406   0.6604   0.7314
     0.7770   0.8251   0.8926   0.9255   0.9350   0.9779   1.0190   1.0545
     1.0730   1.1571   1.2886   1.3551   1.6833   1.9250   2.0193   2.2564
     2.2586   4.0040   4.0127   4.0708   4.1574   4.2094   4.2309   4.2885
     4.2996   4.3679   4.3768

          k = 0.0000-0.0839 0.0000 ( 17884 PWs)   bands (ev):

   -55.4228 -55.3110 -55.3104 -55.1343 -55.1339 -55.1308 -55.1290 -55.1241
   -55.0775 -55.0530 -55.0405 -54.9574 -54.9506 -54.9170 -54.2747 -54.2737
   -31.6766 -31.6754 -31.6287 -31.6247 -31.6244 -31.6052 -31.6047 -31.5454
   -31.5067 -31.4570 -31.4496 -31.4494 -31.4422 -31.4370 -31.4331 -31.4323
   -31.3976 -31.3825 -31.3736 -31.3733 -31.3691 -31.3656 -31.3590 -31.3573
   -31.3485 -31.3438 -31.3087 -31.3023 -31.2978 -31.2942 -31.2805 -31.2736
   -31.2654 -31.2584 -31.2509 -31.2399 -31.2203 -31.2097 -31.1770 -31.1594
   -31.1360 -31.1111 -30.6004 -30.5997 -30.5105 -30.5092 -30.4716 -30.4709
   -19.6127 -16.1497 -15.5683 -15.5100 -15.4083 -15.4018 -15.2898 -15.2395
   -15.1535 -15.1388 -15.0534 -15.0144 -14.9681 -14.9470 -14.8761 -14.8591
   -14.7961 -14.7534 -14.7328 -14.6775 -14.6587 -14.6572 -14.6557 -14.5907
   -14.5707 -14.5669 -14.5519 -14.5263 -14.4965 -14.3471 -14.2930 -13.9631
   -12.7763 -12.7757 -10.1761  -7.0204  -6.7103  -4.2535  -4.0274  -3.6371
    -2.8170  -2.7957  -2.7602  -2.6779  -2.6317  -2.6158  -2.6119  -2.5835
    -2.5665  -2.5117  -2.4703  -2.4009  -2.3474  -2.3242  -2.3146  -2.2825
    -2.2612  -2.2375  -2.2253  -2.2007  -2.1519  -2.1207  -2.0896  -2.0314
    -1.9918  -1.9782  -1.9379  -1.8557  -1.8145  -1.6763  -1.6013  -1.5801
    -1.4489  -1.3972  -1.3850  -1.2746  -1.2542  -1.1473  -1.0582  -0.9993
    -0.9594  -0.9227  -0.8600  -0.7614  -0.7275  -0.7130  -0.6828  -0.6781
    -0.6455  -0.5890  -0.5630  -0.5321  -0.4466  -0.3988  -0.3556  -0.2360
    -0.1096  -0.0385  -0.0072   0.0206   0.0613   0.0662   0.1222   0.1450
     0.1534   0.1692   0.2135   0.2299   0.2448   0.2595   0.2940   0.3358
     0.3625   0.3771   0.4407   0.4529   0.4855   0.5638   0.5758   0.5959
     0.6156   0.6808   0.7385   0.7960   0.8937   0.8991   0.9437   0.9521
     1.0120   1.1185   1.2257   1.4189   1.4577   2.0666   2.0758   2.1920
     2.1935   4.1407   4.2400   4.2461   4.2542   4.2742   4.3062   4.3333
     4.3771   4.3826   4.4257

          k = 0.0380 0.0000 0.0000 ( 17913 PWs)   bands (ev):

   -55.4235 -55.3277 -55.2937 -55.1487 -55.1449 -55.1336 -55.1130 -55.1112
   -55.0841 -55.0559 -55.0340 -54.9572 -54.9545 -54.9105 -54.2912 -54.2572
   -31.8116 -31.7473 -31.6778 -31.6488 -31.6395 -31.6267 -31.6193 -31.5975
   -31.5730 -31.5727 -31.5717 -31.4834 -31.4772 -31.4325 -31.4047 -31.4001
   -31.3900 -31.3850 -31.3594 -31.3427 -31.3378 -31.3318 -31.3295 -31.3152
   -31.3032 -31.2932 -31.2902 -31.2848 -31.2757 -31.2630 -31.2591 -31.2493
   -31.2335 -31.2305 -31.2265 -31.1899 -31.1800 -31.1507 -31.1452 -31.1285
   -31.1165 -31.1116 -30.6964 -30.6150 -30.5872 -30.5142 -30.4280 -30.3161
   -19.6139 -16.1667 -15.8688 -15.7185 -15.5413 -15.4840 -15.3735 -15.2663
   -15.1468 -15.1157 -15.0821 -15.0141 -14.9219 -14.9127 -14.9002 -14.8626
   -14.8189 -14.8090 -14.7666 -14.7049 -14.6717 -14.6031 -14.5970 -14.5673
   -14.5143 -14.4861 -14.4731 -14.4537 -14.4035 -14.2002 -14.0812 -13.9511
   -12.7866 -12.6733 -10.1795  -7.0157  -6.7070  -4.2778  -4.0241  -3.6244
    -3.1807  -3.0342  -3.0257  -2.9499  -2.9240  -2.8165  -2.7579  -2.6685
    -2.6481  -2.5945  -2.5894  -2.4962  -2.3978  -2.3764  -2.2546  -2.1433
    -2.0903  -2.0570  -2.0221  -1.9602  -1.9303  -1.8843  -1.8491  -1.7938
    -1.7293  -1.7143  -1.7050  -1.6708  -1.6089  -1.5951  -1.5908  -1.5571
    -1.5079  -1.4987  -1.4032  -1.3614  -1.2803  -1.2096  -1.1840  -1.0811
    -1.0741  -0.9863  -0.9547  -0.9124  -0.8098  -0.7721  -0.7525  -0.6989
    -0.6691  -0.6539  -0.6275  -0.5799  -0.5397  -0.4755  -0.4509  -0.4063
    -0.3194  -0.2377  -0.1688  -0.1293   0.0067   0.0160   0.0570   0.1045
     0.1458   0.1923   0.2397   0.2674   0.3304   0.3627   0.3953   0.4303
     0.4399   0.4968   0.5319   0.5580   0.5859   0.6153   0.6188   0.7347
     0.7466   0.8545   0.8934   0.9271   0.9427   0.9865   1.0556   1.0985
     1.1469   1.2945   1.3860   1.6615   1.6987   1.7469   1.8988   2.1905
     2.2643   3.7923   3.8721   4.0222   4.1640   4.2080   4.2409   4.2511
     4.2622   4.2905   4.3238

          k = 0.0380 0.0419 0.0000 ( 17878 PWs)   bands (ev):

   -55.4231 -55.3227 -55.2986 -55.1436 -55.1402 -55.1339 -55.1182 -55.1158
   -55.0811 -55.0544 -55.0370 -54.9559 -54.9542 -54.9135 -54.2862 -54.2622
   -31.7576 -31.7167 -31.6754 -31.6264 -31.6147 -31.6134 -31.5847 -31.5615
   -31.5599 -31.5557 -31.5206 -31.4895 -31.4638 -31.4460 -31.3987 -31.3948
   -31.3932 -31.3913 -31.3765 -31.3467 -31.3402 -31.3391 -31.3314 -31.3155
   -31.3111 -31.3102 -31.3019 -31.2971 -31.2879 -31.2843 -31.2804 -31.2654
   -31.2434 -31.2381 -31.2369 -31.2287 -31.1805 -31.1772 -31.1675 -31.1464
   -31.1419 -31.1127 -30.6424 -30.6108 -30.5913 -30.5017 -30.4407 -30.3732
   -19.6132 -16.1550 -15.7536 -15.6162 -15.4604 -15.4052 -15.2774 -15.2010
   -15.1207 -15.1020 -15.0905 -15.0083 -14.9737 -14.9208 -14.8922 -14.8508
   -14.8095 -14.7986 -14.7592 -14.7518 -14.6885 -14.6535 -14.6243 -14.5926
   -14.5638 -14.5520 -14.5330 -14.5004 -14.4504 -14.2496 -14.1689 -13.9581
   -12.7918 -12.7135 -10.1781  -7.0173  -6.7069  -4.2670  -4.0200  -3.6242
    -3.0202  -2.9020  -2.8874  -2.7759  -2.7570  -2.6758  -2.6450  -2.4967
    -2.4723  -2.4396  -2.3930  -2.3395  -2.3068  -2.2561  -2.1992  -2.1861
    -2.1621  -2.1332  -2.1027  -2.0585  -2.0311  -2.0001  -1.9746  -1.9459
    -1.9233  -1.9001  -1.8726  -1.8269  -1.7625  -1.7133  -1.6670  -1.5705
    -1.5127  -1.4561  -1.3986  -1.3896  -1.3041  -1.2697  -1.1163  -1.0589
    -1.0007  -0.9575  -0.9004  -0.8224  -0.7940  -0.7207  -0.6919  -0.6416
    -0.5764  -0.5690  -0.5089  -0.4740  -0.4220  -0.4132  -0.3598  -0.2990
    -0.2623  -0.2424  -0.1969  -0.1513  -0.0982  -0.0670  -0.0343  -0.0221
     0.0222   0.0428   0.0887   0.1118   0.1978   0.2650   0.2813   0.3075
     0.3373   0.4020   0.4456   0.4841   0.5228   0.5819   0.6765   0.6971
     0.7618   0.8288   0.8737   0.9042   0.9689   1.0180   1.0453   1.0757
     1.1209   1.1381   1.2700   1.3294   1.6208   1.9351   2.0229   2.1792
     2.2390   3.9953   4.0028   4.0821   4.1908   4.2455   4.2785   4.3236
     4.3384   4.3724   4.3871

          k = 0.0380-0.0839 0.0000 ( 17916 PWs)   bands (ev):

   -55.4228 -55.3110 -55.3104 -55.1343 -55.1339 -55.1308 -55.1290 -55.1241
   -55.0776 -55.0530 -55.0406 -54.9574 -54.9507 -54.9171 -54.2748 -54.2737
   -31.6779 -31.6739 -31.6287 -31.6254 -31.6252 -31.6052 -31.6047 -31.5454
   -31.5063 -31.4582 -31.4509 -31.4504 -31.4438 -31.4404 -31.4320 -31.4312
   -31.4123 -31.3923 -31.3757 -31.3685 -31.3575 -31.3525 -31.3512 -31.3450
   -31.3426 -31.3362 -31.3088 -31.3019 -31.2981 -31.2953 -31.2829 -31.2761
   -31.2732 -31.2579 -31.2503 -31.2495 -31.2203 -31.2096 -31.1798 -31.1594
   -31.1397 -31.1140 -30.6014 -30.6006 -30.5104 -30.5091 -30.4717 -30.4709
   -19.6125 -16.1458 -15.5295 -15.4676 -15.3552 -15.3471 -15.2475 -15.1897
   -15.1328 -15.0975 -15.0621 -15.0062 -14.9854 -14.9391 -14.9260 -14.8826
   -14.8577 -14.7663 -14.7386 -14.7281 -14.7230 -14.6612 -14.6515 -14.6235
   -14.6182 -14.6082 -14.5829 -14.5389 -14.4820 -14.3335 -14.2956 -13.9632
   -12.7761 -12.7754 -10.1778  -7.0181  -6.7078  -4.2598  -4.0216  -3.6162
    -2.7274  -2.7096  -2.6350  -2.5860  -2.4979  -2.4541  -2.4320  -2.4126
    -2.4026  -2.3890  -2.3682  -2.3355  -2.2914  -2.2616  -2.2367  -2.2055
    -2.1951  -2.1857  -2.1675  -2.1497  -2.1313  -2.0617  -2.0352  -2.0214
    -1.9790  -1.9615  -1.9277  -1.8755  -1.8614  -1.6582  -1.5605  -1.4955
    -1.4456  -1.4005  -1.3060  -1.2578  -1.2226  -1.1775  -1.1409  -1.1039
    -1.0965  -1.0577  -1.0352  -0.9931  -0.9587  -0.9441  -0.8250  -0.8084
    -0.6660  -0.6349  -0.6018  -0.5397  -0.4622  -0.4399  -0.4028  -0.3332
    -0.1878  -0.1785  -0.1525  -0.1217  -0.0807  -0.0448  -0.0240  -0.0030
     0.0334   0.0508   0.0887   0.1211   0.1255   0.1567   0.2089   0.2489
     0.2685   0.3585   0.3833   0.4159   0.5396   0.5811   0.6498   0.7047
     0.7474   0.8132   0.8195   0.8500   0.8802   0.9423   0.9826   1.0335
     1.0493   1.1345   1.2229   1.4020   1.4212   2.0797   2.0883   2.1813
     2.1828   4.1171   4.1416   4.2313   4.2350   4.2562   4.3082   4.3617
     4.4025   4.4100   4.4415

          k = 0.0380-0.0419 0.0000 ( 17876 PWs)   bands (ev):

   -55.4231 -55.3227 -55.2986 -55.1436 -55.1402 -55.1339 -55.1182 -55.1158
   -55.0811 -55.0544 -55.0370 -54.9559 -54.9542 -54.9135 -54.2862 -54.2622
   -31.7576 -31.7168 -31.6754 -31.6264 -31.6147 -31.6134 -31.5848 -31.5615
   -31.5599 -31.5560 -31.5206 -31.4895 -31.4639 -31.4459 -31.3987 -31.3948
   -31.3915 -31.3912 -31.3764 -31.3483 -31.3402 -31.3391 -31.3314 -31.3153
   -31.3115 -31.3094 -31.3023 -31.2966 -31.2880 -31.2851 -31.2805 -31.2653
   -31.2433 -31.2382 -31.2369 -31.2287 -31.1804 -31.1771 -31.1675 -31.1461
   -31.1423 -31.1126 -30.6424 -30.6108 -30.5913 -30.5017 -30.4407 -30.3732
   -19.6132 -16.1554 -15.7534 -15.6163 -15.4590 -15.4110 -15.2799 -15.2022
   -15.1218 -15.1005 -15.0770 -15.0074 -14.9737 -14.9248 -14.8895 -14.8630
   -14.8099 -14.7978 -14.7587 -14.7451 -14.6882 -14.6533 -14.6221 -14.5915
   -14.5637 -14.5546 -14.5331 -14.5008 -14.4496 -14.2497 -14.1700 -13.9588
   -12.7918 -12.7135 -10.1791  -7.0163  -6.7078  -4.2681  -4.0254  -3.6148
    -3.0146  -2.8980  -2.8814  -2.7757  -2.7595  -2.6829  -2.6545  -2.4965
    -2.4723  -2.4323  -2.3996  -2.3465  -2.3169  -2.2630  -2.2094  -2.1852
    -2.1661  -2.1377  -2.0941  -2.0625  -2.0212  -1.9969  -1.9705  -1.9349
    -1.9238  -1.9008  -1.8728  -1.8246  -1.7635  -1.7061  -1.6706  -1.5527
    -1.5057  -1.4598  -1.4166  -1.3691  -1.2950  -1.2701  -1.1105  -1.0764
    -0.9904  -0.9621  -0.9193  -0.8151  -0.7922  -0.7538  -0.6911  -0.6276
    -0.5759  -0.5433  -0.4965  -0.4806  -0.4403  -0.4042  -0.3481  -0.3061
    -0.2701  -0.2630  -0.1858  -0.1263  -0.1015  -0.0548  -0.0342  -0.0136
     0.0314   0.0490   0.0929   0.1132   0.1813   0.2325   0.2786   0.3040
     0.3571   0.4045   0.4312   0.4569   0.5149   0.5867   0.6749   0.6932
     0.7551   0.8201   0.8762   0.9155   0.9610   1.0185   1.0486   1.0721
     1.1236   1.1549   1.2750   1.3296   1.6190   1.9351   2.0229   2.1790
     2.2397   3.9953   4.0025   4.0839   4.2053   4.2607   4.2944   4.3035
     4.3429   4.3771   4.3859

          k =-0.0760-0.0000 0.0000 ( 17886 PWs)   bands (ev):

   -55.4234 -55.3277 -55.2937 -55.1486 -55.1448 -55.1335 -55.1130 -55.1112
   -55.0842 -55.0558 -55.0340 -54.9572 -54.9545 -54.9104 -54.2912 -54.2572
   -31.8125 -31.7491 -31.6756 -31.6489 -31.6416 -31.6264 -31.6192 -31.5973
   -31.5782 -31.5728 -31.5719 -31.4841 -31.4744 -31.4324 -31.4044 -31.3854
   -31.3817 -31.3664 -31.3580 -31.3385 -31.3330 -31.3294 -31.3261 -31.3255
   -31.3149 -31.3032 -31.2945 -31.2895 -31.2755 -31.2629 -31.2587 -31.2491
   -31.2335 -31.2316 -31.2264 -31.1901 -31.1811 -31.1534 -31.1505 -31.1286
   -31.1166 -31.1105 -30.6960 -30.6182 -30.5859 -30.5142 -30.4279 -30.3161
   -19.6136 -16.1562 -15.7060 -15.6843 -15.4955 -15.4541 -15.3309 -15.2486
   -15.1720 -15.1282 -15.0972 -15.0896 -15.0041 -14.9876 -14.9871 -14.9747
   -14.8076 -14.8054 -14.7598 -14.7103 -14.6628 -14.6189 -14.6086 -14.5673
   -14.5389 -14.4780 -14.4456 -14.3990 -14.3912 -14.1992 -14.0803 -13.9516
   -12.7836 -12.6730 -10.1826  -7.0120  -6.7056  -4.2802  -4.0221  -3.6057
    -3.1268  -2.9821  -2.8339  -2.7902  -2.7340  -2.7269  -2.6464  -2.6346
    -2.5982  -2.5833  -2.5800  -2.5631  -2.5331  -2.2777  -2.1810  -2.1253
    -2.0637  -1.9298  -1.8943  -1.8651  -1.8574  -1.8299  -1.8176  -1.7725
    -1.7185  -1.6757  -1.6716  -1.6327  -1.5990  -1.5901  -1.5660  -1.5533
    -1.5223  -1.5111  -1.4529  -1.4397  -1.4108  -1.2967  -1.1994  -1.0497
    -0.9403  -0.9100  -0.9029  -0.8911  -0.8501  -0.8054  -0.7842  -0.7780
    -0.7183  -0.6894  -0.6636  -0.6407  -0.6091  -0.5825  -0.4935  -0.4683
    -0.3953  -0.3483  -0.3074  -0.2019  -0.0752  -0.0114   0.0419   0.0622
     0.0876   0.1079   0.1677   0.2598   0.2698   0.3117   0.3516   0.3731
     0.4313   0.4437   0.4679   0.4840   0.5584   0.5967   0.6161   0.6592
     0.7208   0.7469   0.8037   0.9205   0.9500   0.9667   1.0802   1.0975
     1.2191   1.3540   1.3796   1.3921   1.6993   1.7678   1.8746   2.0636
     2.2091   3.7950   3.8318   4.0861   4.0971   4.1112   4.1790   4.2266
     4.2471   4.3271   4.3445

          k =-0.0760 0.0419 0.0000 ( 17914 PWs)   bands (ev):

   -55.4231 -55.3227 -55.2987 -55.1436 -55.1401 -55.1339 -55.1182 -55.1158
   -55.0811 -55.0545 -55.0371 -54.9559 -54.9542 -54.9135 -54.2862 -54.2622
   -31.7586 -31.7185 -31.6736 -31.6263 -31.6147 -31.6136 -31.5870 -31.5612
   -31.5601 -31.5561 -31.5268 -31.4898 -31.4618 -31.4470 -31.3986 -31.3948
   -31.3941 -31.3702 -31.3654 -31.3408 -31.3374 -31.3320 -31.3283 -31.3205
   -31.3116 -31.3103 -31.3077 -31.3005 -31.2972 -31.2910 -31.2805 -31.2654
   -31.2436 -31.2418 -31.2369 -31.2288 -31.1825 -31.1770 -31.1675 -31.1486
   -31.1459 -31.1134 -30.6422 -30.6136 -30.5906 -30.5017 -30.4407 -30.3733
   -19.6130 -16.1487 -15.6160 -15.5769 -15.4253 -15.3603 -15.2582 -15.1680
   -15.1371 -15.0855 -15.0641 -15.0446 -15.0227 -14.9869 -14.9557 -14.9344
   -14.8576 -14.8247 -14.7818 -14.7654 -14.6833 -14.6336 -14.6285 -14.6036
   -14.5866 -14.5747 -14.4976 -14.4922 -14.4590 -14.2472 -14.1705 -13.9587
   -12.7897 -12.7139 -10.1811  -7.0139  -6.7055  -4.2717  -4.0191  -3.5991
    -2.9738  -2.8534  -2.7156  -2.5644  -2.5458  -2.5086  -2.4617  -2.4107
    -2.3845  -2.3828  -2.3597  -2.3382  -2.3001  -2.2744  -2.2406  -2.1931
    -2.1458  -2.0803  -2.0480  -2.0077  -1.9875  -1.9832  -1.9230  -1.8816
    -1.8662  -1.8357  -1.8048  -1.7929  -1.7809  -1.7156  -1.6792  -1.5501
    -1.4552  -1.4179  -1.3727  -1.2964  -1.2811  -1.2666  -1.2118  -1.1062
    -0.9972  -0.9508  -0.9084  -0.8866  -0.8168  -0.7836  -0.7461  -0.7282
    -0.6490  -0.6171  -0.5775  -0.5573  -0.5464  -0.5282  -0.4996  -0.4654
    -0.4265  -0.3856  -0.3716  -0.3155  -0.2470  -0.2039  -0.1728  -0.0776
    -0.0594  -0.0295   0.0129   0.0561   0.1124   0.1268   0.1979   0.2824
     0.3453   0.4028   0.4771   0.5086   0.5318   0.5583   0.5852   0.6275
     0.7847   0.7920   0.8423   1.0139   1.0356   1.0585   1.0868   1.1476
     1.1976   1.2433   1.2643   1.3393   1.4195   1.9487   2.0252   2.1023
     2.2283   3.9927   3.9975   4.0762   4.1339   4.1809   4.2098   4.2246
     4.2872   4.3313   4.4633

          k =-0.0760-0.0839 0.0000 ( 17948 PWs)   bands (ev):

   -55.4228 -55.3110 -55.3104 -55.1343 -55.1339 -55.1308 -55.1290 -55.1241
   -55.0776 -55.0530 -55.0406 -54.9575 -54.9507 -54.9171 -54.2748 -54.2737
   -31.6793 -31.6722 -31.6287 -31.6262 -31.6259 -31.6053 -31.6047 -31.5454
   -31.5058 -31.4595 -31.4519 -31.4514 -31.4449 -31.4438 -31.4308 -31.4300
   -31.4202 -31.3983 -31.3775 -31.3688 -31.3576 -31.3428 -31.3418 -31.3304
   -31.3291 -31.3191 -31.3090 -31.3013 -31.2986 -31.2972 -31.2946 -31.2853
   -31.2731 -31.2627 -31.2577 -31.2495 -31.2203 -31.2095 -31.1826 -31.1595
   -31.1435 -31.1170 -30.6023 -30.6016 -30.5104 -30.5091 -30.4717 -30.4709
   -19.6123 -16.1421 -15.4853 -15.4166 -15.2679 -15.2587 -15.1875 -15.1464
   -15.1401 -15.0887 -15.0823 -15.0142 -14.9894 -14.9810 -14.9411 -14.8899
   -14.8398 -14.8098 -14.8043 -14.7562 -14.7463 -14.7348 -14.6983 -14.6785
   -14.6298 -14.6261 -14.6108 -14.5316 -14.4760 -14.3177 -14.3026 -13.9633
   -12.7759 -12.7752 -10.1796  -7.0157  -6.7054  -4.2658  -4.0162  -3.5947
    -2.6919  -2.6869  -2.6255  -2.4709  -2.4267  -2.3266  -2.3156  -2.2567
    -2.2429  -2.1949  -2.1743  -2.1629  -2.1264  -2.1064  -2.1032  -2.0764
    -2.0567  -2.0464  -2.0205  -1.9845  -1.9823  -1.9522  -1.9438  -1.9268
    -1.9066  -1.8852  -1.8656  -1.8602  -1.8087  -1.7751  -1.6178  -1.5984
    -1.4602  -1.4577  -1.4435  -1.4220  -1.3885  -1.3769  -1.3377  -1.3037
    -1.2336  -1.1906  -1.0959  -1.0608  -0.9537  -0.9255  -0.8552  -0.8073
    -0.7681  -0.7453  -0.7346  -0.7046  -0.6316  -0.5563  -0.5105  -0.4700
    -0.3701  -0.2942  -0.2698  -0.2655  -0.2582  -0.2251  -0.1549  -0.1535
    -0.1124  -0.0962  -0.0140  -0.0035   0.0105   0.0297   0.1640   0.1948
     0.2926   0.3568   0.4066   0.4607   0.4932   0.5436   0.6578   0.7889
     0.8416   0.8670   0.8808   0.9426   0.9908   1.0060   1.0528   1.1251
     1.1961   1.2451   1.2648   1.2883   1.3393   2.0980   2.1068   2.1663
     2.1667   4.0367   4.1377   4.2525   4.2872   4.3028   4.3221   4.3394
     4.3643   4.4081   4.4562

     the Fermi energy is     3.7995 ev

!    total energy              =   -2973.99837188 Ry
     estimated scf accuracy    <       0.00000006 Ry
     smearing contrib. (-TS)   =      -0.02052567 Ry
     internal energy E=F+TS    =   -2973.97784621 Ry

     The total energy is F=E-TS. E is the sum of the following terms:
     one-electron contribution =  -23635.51637605 Ry
     hartree contribution      =   11914.66423847 Ry
     xc contribution           =    -494.12368806 Ry
     ewald contribution        =    9240.99454100 Ry
     electric field correction =       0.00343843 Ry

     convergence has been achieved in  66 iterations

     Forces acting on atoms (cartesian axes, Ry/au):

     atom    1 type  1   force =    -0.00005532   -0.00029009    0.09521229
     atom    2 type  1   force =    -0.00010716    0.00042476   -0.17495095
     atom    3 type  2   force =     0.00001005   -0.00028316   -0.02253647
     atom    4 type  2   force =     0.00005351   -0.00195748    0.05328542
     atom    5 type  2   force =    -0.00765385   -0.00250829    0.00195405
     atom    6 type  2   force =     0.00924710   -0.00206839    0.00147613
     atom    7 type  1   force =    -0.00022515   -0.00467599    0.00732444
     atom    8 type  1   force =     0.00014148    0.00535037    0.01282390
     atom    9 type  2   force =    -0.00010691   -0.00002721    0.00022338
     atom   10 type  2   force =    -0.00275363    0.00061066   -0.01379272
     atom   11 type  2   force =    -0.00015540    0.00023458   -0.00002259
     atom   12 type  2   force =     0.00014699   -0.00002221    0.00023332
     atom   13 type  1   force =     0.00025239    0.00017954    0.00029605
     atom   14 type  1   force =     0.00001561   -0.00001234    0.00018867
     atom   15 type  2   force =     0.00036775   -0.00005418    0.00009638
     atom   16 type  2   force =    -0.00036825   -0.00005806    0.00002147
     atom   17 type  2   force =     0.00028799   -0.00025462   -0.00003535
     atom   18 type  2   force =     0.00005753    0.00005169    0.00023874
     atom   19 type  1   force =     0.00027677   -0.00002353   -0.00004460
     atom   20 type  1   force =     0.00011175   -0.00013674   -0.00007587
     atom   21 type  2   force =     0.00005622    0.00003464    0.10301769
     atom   22 type  2   force =     0.00006656    0.00011833   -0.00009634
     atom   23 type  2   force =    -0.07222620   -0.00020099   -0.02752703
     atom   24 type  2   force =     0.07213172    0.00020944   -0.02759810
     atom   25 type  1   force =     0.00010962   -0.00024492    0.09493534
     atom   26 type  1   force =    -0.00023112   -0.00136740   -0.17516995
     atom   27 type  2   force =     0.00015896   -0.00013903   -0.02137643
     atom   28 type  2   force =     0.00004917   -0.00025406    0.04863015
     atom   29 type  2   force =    -0.00691439    0.00262626    0.00144578
     atom   30 type  2   force =     0.00849792    0.00314845    0.00087140
     atom   31 type  1   force =    -0.00009723    0.00788130   -0.00302220
     atom   32 type  1   force =     0.00038759   -0.00771551    0.01220571
     atom   33 type  2   force =     0.00008459   -0.00002008   -0.00013001
     atom   34 type  2   force =    -0.00196030    0.00048742   -0.01636327
     atom   35 type  2   force =    -0.00013133    0.00001884   -0.00000697
     atom   36 type  2   force =    -0.00004862    0.00030703   -0.00001465
     atom   37 type  1   force =    -0.00013863    0.00017016    0.00001407
     atom   38 type  1   force =    -0.00009330    0.00004991    0.00014340
     atom   39 type  2   force =    -0.00005618   -0.00029604    0.00001749
     atom   40 type  2   force =     0.00012280   -0.00000002    0.00019748
     atom   41 type  2   force =     0.00008536   -0.00012191   -0.00004622
     atom   42 type  2   force =     0.00023527   -0.00014279   -0.00005886
     atom   43 type  1   force =    -0.00022229    0.00000171   -0.00025662
     atom   44 type  1   force =     0.00026004   -0.00005107   -0.00006356
     atom   45 type  2   force =     0.00008842   -0.00014132    0.10281229
     atom   46 type  2   force =    -0.07221277   -0.00009517   -0.02758131
     atom   47 type  2   force =     0.07214396    0.00036047   -0.02760793
     atom   48 type  3   force =    -0.00023307    0.00016480    0.00013222
     atom   49 type  3   force =     0.00039851    0.00014508   -0.00000806
     atom   50 type  4   force =     0.00810506   -0.00367128   -0.00432522
     atom   51 type  5   force =     0.00054236    0.00003742   -0.00011025
     atom   52 type  5   force =    -0.00880815    0.00393355    0.00472913
     atom   53 type  5   force =     0.00045386   -0.00006302   -0.00005371
     atom   54 type  5   force =     0.00005444    0.00011854   -0.00005082
     atom   55 type  2   force =    -0.00060171   -0.00012227    0.00023780
     atom   56 type  5   force =     0.00039960    0.00035423    0.00016187

     Total force =     0.363519     Total SCF correction =     0.000471
  @ DRIVER MODE: Message from server: STATUS
  @ DRIVER MODE: Message from server: GETFORCE
  @ DRIVER MODE: Returning v,forces,stress,ensemble 

     Writing output data file ./calc.save/
  @ DRIVER MODE: Message from server: EXIT
  @ DRIVE MODE: Exiting  
 
     init_run     :     14.34s CPU     14.83s WALL (       1 calls)
     electrons    :   1428.35s CPU   1463.46s WALL (       1 calls)
     forces       :      2.86s CPU      3.06s WALL (       1 calls)

     Called by init_run:
     wfcinit      :      6.50s CPU      6.70s WALL (       1 calls)
     potinit      :      6.94s CPU      7.05s WALL (       1 calls)
     hinit0       :      0.38s CPU      0.40s WALL (       1 calls)

     Called by electrons:
     c_bands      :   1224.24s CPU   1244.20s WALL (      66 calls)
     sum_band     :    140.77s CPU    148.36s WALL (      66 calls)
     v_of_rho     :     47.72s CPU     49.71s WALL (      67 calls)
     newd         :     18.64s CPU     23.83s WALL (      67 calls)
     mix_rho      :      2.65s CPU      2.98s WALL (      66 calls)
     vdW_kernel   :      5.92s CPU      5.95s WALL (       1 calls)

     Called by c_bands:
     init_us_2    :      7.30s CPU      7.44s WALL (    1340 calls)
     cegterg      :   1201.56s CPU   1220.96s WALL (     675 calls)

     Called by *egterg:
     cdiaghg      :    201.04s CPU    203.01s WALL (    6276 calls)
     h_psi        :    646.35s CPU    658.04s WALL (    6291 calls)
     s_psi        :     83.43s CPU     83.95s WALL (    6291 calls)
     g_psi        :      2.29s CPU      2.32s WALL (    5606 calls)

     Called by h_psi:
     h_psi:calbec :     79.76s CPU     81.02s WALL (    6291 calls)
     vloc_psi     :    480.36s CPU    486.39s WALL (    6291 calls)
     add_vuspsi   :     83.45s CPU     85.83s WALL (    6291 calls)

     General routines
     calbec       :    104.02s CPU    105.49s WALL (    6991 calls)
     fft          :     25.67s CPU     25.90s WALL (    4221 calls)
     ffts         :      0.27s CPU      0.28s WALL (     133 calls)
     fftw         :    534.06s CPU    541.29s WALL (  959852 calls)
     interpolate  :      0.69s CPU      0.71s WALL (      67 calls)
     davcio       :      0.00s CPU      0.19s WALL (      10 calls)
 
     Parallel routines
 
     PWSCF        :  24m 6.57s CPU  24m43.15s WALL

 
   This run was terminated on:  22: 3:14  26Sep2021            

=------------------------------------------------------------------------------=
   JOB DONE.
=------------------------------------------------------------------------------=
