
     Program PWSCF v.6.7GPU starts on 24Aug2021 at  9:56:39 

     This program is part of the open-source Quantum ESPRESSO suite
     for quantum simulation of materials; please cite
         "P. Giannozzi et al., J. Phys.:Condens. Matter 21 395502 (2009);
         "P. Giannozzi et al., J. Phys.:Condens. Matter 29 465901 (2017);
         "P. Giannozzi et al., J. Chem. Phys. 152 154105 (2020);
          URL http://www.quantum-espresso.org", 
     in publications or presentations arising from this work. More details at
     http://www.quantum-espresso.org/quote

     Parallel version (MPI), running on     6 processors

     MPI processes distributed on     1 nodes
     R & G space division:  proc/nbgrp/npool/nimage =       6
     Reading input from /storage/home/hcoda1/3/ntian30/research/carbon/CH_vib/ads_slab/CHNNH3_a/out_0042/pw.inp
Warning: card &CELL ignored
Warning: card   CELL_DYNAMICS='IPI', ignored
Warning: card / ignored

     Current dimensions of program PWSCF are:
     Max number of different atomic species (ntypx) = 10
     Max number of k-points (npk) =  40000
     Max angular momentum in pseudopotentials (lmaxx) =  3
     Presently no symmetry can be used with electric field

     Message from routine cell_base_init:
     DEPRECATED: use true lattice parameter, not A to a.u. conversion factor

     **************************************************************************
     Initializing libbeef V0.1.2 with the BEEF-vdW functional.
     Citation: Wellendorff et al., PRB 85, 235149 (2012).
     **************************************************************************


     IMPORTANT: XC functional enforced from input :
     Exchange-correlation= BEEF-VDW
                           (   1   4  43  14   2   0   0)
     Any further DFT definition will be discarded
     Please, verify this is what you really want


     Subspace diagonalization in iterative solution of the eigenvalue problem:
     one sub-group per band group will be used
     scalapack distributed-memory algorithm (size of sub-group:  2*  2 procs)

  @ DRIVER MODE: Connecting to 
 qe_1139763_2632800.sched-torque.pace.gatech.edudszx4sn5_scratch
  using UNIX socket
  @ DRIVER MODE: Message from server: STATUS
  @ DRIVER MODE: Message from server: INIT
  @ DRIVER MODE: Receiving replica           0          -1
  @ DRIVER MODE: Receiving encoded integer          25
  @ DRIVER MODE:  SCF:  T  FORCE:  T  STRESS:  F  VC:  F  ENSEMBLE:  F
  @ DRIVER MODE:  SCF:  T  FORCE:  T  STRESS:  F  VC:  F  ENSEMBLE:  F
 
     Parallelization info
     --------------------
     sticks:   dense  smooth     PW     G-vecs:    dense   smooth      PW
     Min         545     219     63                94473    23902    3663
     Max         546     222     64                94484    23905    3665
     Sum        3275    1317    379               566857   143421   21985
 
     Using Slab Decomposition
 


     bravais-lattice index     =            0
     lattice parameter (alat)  =       1.8897  a.u.
     unit-cell volume          =    6658.9804 (a.u.)^3
     number of atoms/cell      =           54
     number of atomic types    =            5
     number of electrons       =       396.00
     number of Kohn-Sham states=          208
     kinetic-energy cutoff     =      29.3995  Ry
     charge density cutoff     =     293.9946  Ry
     scf convergence threshold =      7.3E-08
     mixing beta               =       0.0500
     number of iterations used =            8  plain     mixing
     Exchange-correlation= BEEF-VDW
                           (   1   4  43  14   2   0   0)

     celldm(1)=   1.889726  celldm(2)=   0.000000  celldm(3)=   0.000000
     celldm(4)=   0.000000  celldm(5)=   0.000000  celldm(6)=   0.000000

     crystal axes: (cart. coord. in units of alat)
               a(1) = (   6.579727   0.000000   0.000000 )  
               a(2) = (  -0.000775   5.961596   0.000000 )  
               a(3) = (   0.000000   0.000000  25.155947 )  

     reciprocal axes: (cart. coord. in units 2 pi/alat)
               b(1) = (  0.151982  0.000020  0.000000 )  
               b(2) = (  0.000000  0.167740  0.000000 )  
               b(3) = (  0.000000  0.000000  0.039752 )  


     PseudoPot. # 1 for Ti read from file:
     /storage/coda1/p-amedford6/0/shared/rich_project_chbe-medford/medford-share/data/pseudos_module/espresso/nninc/pbe/van/Ti.UPF
     MD5 check sum: 8e4df49b7f0d34bbd5052bf3f5ea0213
     Pseudo is Ultrasoft, Zval = 12.0
     Generated by new atomic code, or converted to UPF format
     Using radial grid of  851 points,  6 beta functions with: 
                l(1) =   0
                l(2) =   0
                l(3) =   1
                l(4) =   1
                l(5) =   2
                l(6) =   2
     Q(r) pseudized with  8 coefficients,  rinner =    1.000   1.000   1.000
                                                       1.000   1.000

     PseudoPot. # 2 for O  read from file:
     /storage/coda1/p-amedford6/0/shared/rich_project_chbe-medford/medford-share/data/pseudos_module/espresso/nninc/pbe/van/O.UPF
     MD5 check sum: 78c19812648e8988a0fe644b0f25305e
     Pseudo is Ultrasoft, Zval =  6.0
     Generated by new atomic code, or converted to UPF format
     Using radial grid of  737 points,  4 beta functions with: 
                l(1) =   0
                l(2) =   0
                l(3) =   1
                l(4) =   1
     Q(r) pseudized with  8 coefficients,  rinner =    0.800   0.800   0.800


     PseudoPot. # 3 for N  read from file:
     /storage/coda1/p-amedford6/0/shared/rich_project_chbe-medford/medford-share/data/pseudos_module/espresso/nninc/pbe/van/N.UPF
     MD5 check sum: 90d10febe142ad51ac9d5be1deb811c4
     Pseudo is Ultrasoft, Zval =  5.0
     Generated by new atomic code, or converted to UPF format
     Using radial grid of  729 points,  4 beta functions with: 
                l(1) =   0
                l(2) =   0
                l(3) =   1
                l(4) =   1
     Q(r) pseudized with  8 coefficients,  rinner =    0.800   0.800   0.800


     PseudoPot. # 4 for C  read from file:
     /storage/coda1/p-amedford6/0/shared/rich_project_chbe-medford/medford-share/data/pseudos_module/espresso/nninc/pbe/van/C.UPF
     MD5 check sum: 1a69bf6b8db32088f5b2163dbdb77a27
     Pseudo is Ultrasoft, Zval =  4.0
     Generated by new atomic code, or converted to UPF format
     Using radial grid of  721 points,  4 beta functions with: 
                l(1) =   0
                l(2) =   0
                l(3) =   1
                l(4) =   1
     Q(r) pseudized with  8 coefficients,  rinner =    0.800   0.800   0.800


     PseudoPot. # 5 for H  read from file:
     /storage/coda1/p-amedford6/0/shared/rich_project_chbe-medford/medford-share/data/pseudos_module/espresso/nninc/pbe/van/H.UPF
     MD5 check sum: b5ee9d7bfd3a09ee7748110bda690ff7
     Pseudo is Ultrasoft, Zval =  1.0
     Generated by new atomic code, or converted to UPF format
     Using radial grid of  615 points,  1 beta functions with: 
                l(1) =   0
     Q(r) pseudized with  8 coefficients,  rinner =    0.800

     atomic species   valence    mass     pseudopotential
        Ti1           12.00    47.86700     Ti( 1.00)
        O1             6.00    15.99900     O ( 1.00)
        N1             5.00    14.00700     N ( 1.00)
        C1             4.00    12.01100     C ( 1.00)
        H1             1.00     1.00800     H ( 1.00)

     No symmetry found



   Cartesian axes

     site n.     atom                  positions (alat units)
         1           Ti1 tau(   1) = (   0.0004258   2.9801865   6.0000000  )
         2           Ti1 tau(   2) = (   3.2906075   1.4906267   6.0002472  )
         3           O1  tau(   3) = (   0.0006271   0.0005054   7.9858123  )
         4           O1  tau(   4) = (   3.2906025   0.0005020   7.3038282  )
         5           O1  tau(   5) = (   4.5942328   1.4918067   9.2879030  )
         6           O1  tau(   6) = (   1.9868534   1.4903216   9.2879459  )
         7           Ti1 tau(   7) = (   3.2907910   2.8959150   9.1758416  )
         8           Ti1 tau(   8) = (   0.0015273   1.4827037   9.2680791  )
         9           O1  tau(   9) = (   3.2881108   5.9505233  11.3735460  )
        10           O1  tau(  10) = (   0.0116148   5.9584955  10.6183126  )
        11           O1  tau(  11) = (   1.2866665   1.4805866  12.6825740  )
        12           O1  tau(  12) = (   5.2924821   1.4818622  12.6792165  )
        13           Ti1 tau(  13) = (   0.0021322   2.9639872  12.5157261  )
        14           Ti1 tau(  14) = (   3.2862601   1.4710115  12.5283183  )
        15           O1  tau(  15) = (   6.5551702   5.8950557  14.7042857  )
        16           O1  tau(  16) = (   3.2890300   5.9388001  13.9877656  )
        17           O1  tau(  17) = (   4.5349758   1.4880922  16.1718967  )
        18           O1  tau(  18) = (   2.0258431   1.4790072  16.1496753  )
        19           Ti1 tau(  19) = (   3.2732025   2.9690136  15.7622034  )
        20           Ti1 tau(  20) = (   6.5610264   1.3286824  15.8731419  )
        21           O1  tau(  21) = (   3.2904802   0.0005063   4.7018136  )
        22           O1  tau(  22) = (   6.5785393   0.0648448  17.2431192  )
        23           O1  tau(  23) = (   1.3043587   1.4918075   6.0039043  )
        24           O1  tau(  24) = (   5.2767064   1.4903225   6.0039473  )
        25           Ti1 tau(  25) = (   0.0000382   5.9609847   6.0000000  )
        26           Ti1 tau(  26) = (   3.2902200   4.4714249   6.0002472  )
        27           O1  tau(  27) = (   0.0002396   2.9813036   7.9858123  )
        28           O1  tau(  28) = (   3.2902150   2.9813002   7.3038282  )
        29           O1  tau(  29) = (   4.5938453   4.4726049   9.2879030  )
        30           O1  tau(  30) = (   1.9864658   4.4711199   9.2879459  )
        31           Ti1 tau(  31) = (   3.2891106   5.8743827   9.1763621  )
        32           Ti1 tau(  32) = (   0.0006254   4.4649316   9.2693709  )
        33           O1  tau(  33) = (   3.2883663   2.9615298  11.3703760  )
        34           O1  tau(  34) = (   0.0092240   2.9805883  10.6323155  )
        35           O1  tau(  35) = (   1.2870507   4.4533538  12.6624524  )
        36           O1  tau(  36) = (   5.2892318   4.4513974  12.6520950  )
        37           Ti1 tau(  37) = (   6.5724215   5.9362995  12.5032772  )
        38           Ti1 tau(  38) = (   3.2850067   4.4496593  12.5237361  )
        39           O1  tau(  39) = (   6.5755915   2.9911963  14.9688396  )
        40           O1  tau(  40) = (   3.2879019   2.9755095  13.9706832  )
        41           O1  tau(  41) = (   4.5370027   4.4458050  16.2043726  )
        42           O1  tau(  42) = (   2.0318725   4.4540161  16.1993262  )
        43           Ti1 tau(  43) = (   3.2771836   5.9440081  15.7837661  )
        44           Ti1 tau(  44) = (   6.5399960   4.5546841  16.0715688  )
        45           O1  tau(  45) = (   3.2900926   2.9813045   4.7018136  )
        46           O1  tau(  46) = (   1.3039711   4.4726057   6.0039043  )
        47           O1  tau(  47) = (   5.2763189   4.4711207   6.0039473  )
        48           N1  tau(  48) = (   0.1065663   3.2111123  17.9981644  )
        49           C1  tau(  49) = (   0.5134299   2.5375629  18.8400175  )
        50           H1  tau(  50) = (   1.0173682   1.8396193  19.5020221  )
        51           N1  tau(  51) = (   2.4304062   0.3108210  19.4519584  )
        52           H1  tau(  52) = (   3.2527645   0.6626300  18.9680575  )
        53           H1  tau(  53) = (   1.8610457   5.7841108  18.7610151  )
        54           H1  tau(  54) = (   2.7602249   5.5844085  20.1285638  )

     number of k points=    10  Fermi-Dirac smearing, width (Ry)=  0.0073
                       cart. coord. in units 2pi/alat
        k(    1) = (   0.0000000   0.0000000   0.0000000), wk =   0.1250000
        k(    2) = (   0.0000000   0.0419351   0.0000000), wk =   0.2500000
        k(    3) = (   0.0000000  -0.0838702   0.0000000), wk =   0.1250000
        k(    4) = (   0.0379955   0.0000049   0.0000000), wk =   0.2500000
        k(    5) = (   0.0379955   0.0419400   0.0000000), wk =   0.2500000
        k(    6) = (   0.0379955  -0.0838652   0.0000000), wk =   0.2500000
        k(    7) = (   0.0379955  -0.0419301   0.0000000), wk =   0.2500000
        k(    8) = (  -0.0759910  -0.0000099   0.0000000), wk =   0.1250000
        k(    9) = (  -0.0759910   0.0419252   0.0000000), wk =   0.2500000
        k(   10) = (  -0.0759910  -0.0838800   0.0000000), wk =   0.1250000

     Dense  grid:   566857 G-vectors     FFT dimensions: (  72,  64, 270)

     Smooth grid:   143421 G-vectors     FFT dimensions: (  45,  40, 180)

     Estimated max dynamical RAM per process >     601.53 MB

     Estimated total dynamical RAM >       3.52 GB
     Cannot read rho : file not found

     Initial potential from superposition of free atoms

     starting charge  379.99915, renormalised to  396.00000

     negative rho (up, down):  1.528E-02 0.000E+00


     %%%%%%%%%%%%%%%%%%%%%%%%%%%%%%%%%%%%%%%%%%%%%%%%%%%%%%%%%%%%%%%%%%%%%%%%
     %                                                                      %
     % You are using vdW-DF, which was implemented by the Thonhauser group. %
     % Please cite the following two papers that made this development      %
     % possible and the two reviews that describe the various versions:     %
     %                                                                      %
     %   T. Thonhauser et al., PRL 115, 136402 (2015).                      %
     %   T. Thonhauser et al., PRB 76, 125112 (2007).                       %
     %   K. Berland et al., Rep. Prog. Phys. 78, 066501 (2015).             %
     %   D.C. Langreth et al., J. Phys.: Condens. Matter 21, 084203 (2009). %
     %                                                                      %
     %                                                                      %
     % If you are calculating the stress with vdW-DF, please also cite:     %
     %                                                                      %
     %   R. Sabatini et al., J. Phys.: Condens. Matter 24, 424209 (2012).   %
     %                                                                      %
     %%%%%%%%%%%%%%%%%%%%%%%%%%%%%%%%%%%%%%%%%%%%%%%%%%%%%%%%%%%%%%%%%%%%%%%%


 
     Adding external electric field

     Computed dipole along edir(3) : 
        Dipole              -10.2025 Ry au,        -25.9321 Debye
        Dipole field         -0.0193 Ry au, 
 
        Potential amp.        1.7848 Ry
        Total length         46.3494 bohr
 
     Starting wfcs are  300 atomic wfcs
  @ DRIVER MODE: Message from server: STATUS
  @ DRIVER MODE: Message from server: POSDATA
  @ DRIVER MODE: Reading and sharing cell 
  @ DRIVER MODE: Reading and sharing positions 
  @ DRIVER MODE: Received positions 

     total cpu time spent up to now is       18.2 secs

     Self-consistent Calculation

     iteration #  1     ecut=    29.40 Ry     beta= 0.05
     Davidson diagonalization with overlap
     c_bands:  1 eigenvalues not converged
     c_bands:  2 eigenvalues not converged
     c_bands:  2 eigenvalues not converged
     c_bands:  1 eigenvalues not converged
     c_bands:  2 eigenvalues not converged
     c_bands:  2 eigenvalues not converged
     c_bands:  2 eigenvalues not converged
     c_bands:  3 eigenvalues not converged
     c_bands:  2 eigenvalues not converged
     c_bands:  1 eigenvalues not converged
     ethr =  1.00E-05,  avg # of iterations = 20.0

     negative rho (up, down):  1.228E-02 0.000E+00
 
     Adding external electric field

     Computed dipole along edir(3) : 
        Dipole               42.2234 Ry au,        107.3211 Debye
        Dipole field          0.0797 Ry au, 
 
        Potential amp.       -7.3863 Ry
        Total length         46.3494 bohr
 

     total cpu time spent up to now is       83.1 secs

     total energy              =   -2542.35544350 Ry
     estimated scf accuracy    <    4467.55625281 Ry

     iteration #  2     ecut=    29.40 Ry     beta= 0.05
     Davidson diagonalization with overlap
     ethr =  1.00E-02,  avg # of iterations = 25.9

     negative rho (up, down):  3.376E-03 0.000E+00
 
     Adding external electric field

     Computed dipole along edir(3) : 
        Dipole               -3.0691 Ry au,         -7.8010 Debye
        Dipole field         -0.0058 Ry au, 
 
        Potential amp.        0.5369 Ry
        Total length         46.3494 bohr
 

     total cpu time spent up to now is      202.8 secs

     total energy              =   -2450.45336525 Ry
     estimated scf accuracy    <   66179.71428874 Ry

     iteration #  3     ecut=    29.40 Ry     beta= 0.05
     Davidson diagonalization with overlap
     ethr =  1.00E-02,  avg # of iterations = 15.0

     negative rho (up, down):  3.440E-03 0.000E+00
 
     Adding external electric field

     Computed dipole along edir(3) : 
        Dipole               -5.0010 Ry au,        -12.7112 Debye
        Dipole field         -0.0094 Ry au, 
 
        Potential amp.        0.8748 Ry
        Total length         46.3494 bohr
 

     total cpu time spent up to now is      277.1 secs

     total energy              =   -2922.42672158 Ry
     estimated scf accuracy    <    4220.42472029 Ry

     iteration #  4     ecut=    29.40 Ry     beta= 0.05
     Davidson diagonalization with overlap
     ethr =  1.00E-02,  avg # of iterations = 16.0

     negative rho (up, down):  3.473E-03 0.000E+00
 
     Adding external electric field

     Computed dipole along edir(3) : 
        Dipole               -6.3204 Ry au,        -16.0648 Debye
        Dipole field         -0.0119 Ry au, 
 
        Potential amp.        1.1057 Ry
        Total length         46.3494 bohr
 

     total cpu time spent up to now is      310.4 secs

     total energy              =   -2929.53205859 Ry
     estimated scf accuracy    <    1230.05430749 Ry

     iteration #  5     ecut=    29.40 Ry     beta= 0.05
     Davidson diagonalization with overlap
     ethr =  1.00E-02,  avg # of iterations = 12.2

     negative rho (up, down):  3.498E-03 0.000E+00
 
     Adding external electric field

     Computed dipole along edir(3) : 
        Dipole               -6.1982 Ry au,        -15.7543 Debye
        Dipole field         -0.0117 Ry au, 
 
        Potential amp.        1.0843 Ry
        Total length         46.3494 bohr
 

     total cpu time spent up to now is      336.0 secs

     total energy              =   -2937.99357523 Ry
     estimated scf accuracy    <     206.76846769 Ry

     iteration #  6     ecut=    29.40 Ry     beta= 0.05
     Davidson diagonalization with overlap
     ethr =  1.00E-02,  avg # of iterations =  2.3

     negative rho (up, down):  3.524E-03 0.000E+00
 
     Adding external electric field

     Computed dipole along edir(3) : 
        Dipole               -6.0129 Ry au,        -15.2833 Debye
        Dipole field         -0.0113 Ry au, 
 
        Potential amp.        1.0519 Ry
        Total length         46.3494 bohr
 

     total cpu time spent up to now is      353.4 secs

     total energy              =   -2937.55862718 Ry
     estimated scf accuracy    <     158.87576632 Ry

     iteration #  7     ecut=    29.40 Ry     beta= 0.05
     Davidson diagonalization with overlap
     ethr =  1.00E-02,  avg # of iterations =  1.4

     negative rho (up, down):  3.672E-03 0.000E+00
 
     Adding external electric field

     Computed dipole along edir(3) : 
        Dipole               -5.4485 Ry au,        -13.8486 Debye
        Dipole field         -0.0103 Ry au, 
 
        Potential amp.        0.9531 Ry
        Total length         46.3494 bohr
 

     total cpu time spent up to now is      370.1 secs

     total energy              =   -2934.49063825 Ry
     estimated scf accuracy    <     153.54001888 Ry

     iteration #  8     ecut=    29.40 Ry     beta= 0.05
     Davidson diagonalization with overlap
     ethr =  1.00E-02,  avg # of iterations =  4.7

     negative rho (up, down):  3.830E-03 0.000E+00
 
     Adding external electric field

     Computed dipole along edir(3) : 
        Dipole               -4.3018 Ry au,        -10.9341 Debye
        Dipole field         -0.0081 Ry au, 
 
        Potential amp.        0.7525 Ry
        Total length         46.3494 bohr
 

     total cpu time spent up to now is      389.1 secs

     total energy              =   -2934.50404186 Ry
     estimated scf accuracy    <      42.85562947 Ry

     iteration #  9     ecut=    29.40 Ry     beta= 0.05
     Davidson diagonalization with overlap
     c_bands:  1 eigenvalues not converged
     ethr =  1.00E-02,  avg # of iterations =  7.3

     negative rho (up, down):  3.645E-03 0.000E+00
 
     Adding external electric field

     Computed dipole along edir(3) : 
        Dipole               -4.3644 Ry au,        -11.0932 Debye
        Dipole field         -0.0082 Ry au, 
 
        Potential amp.        0.7635 Ry
        Total length         46.3494 bohr
 

     total cpu time spent up to now is      412.1 secs

     total energy              =   -2941.14609664 Ry
     estimated scf accuracy    <      43.70455823 Ry

     iteration # 10     ecut=    29.40 Ry     beta= 0.05
     Davidson diagonalization with overlap
     ethr =  1.00E-02,  avg # of iterations =  1.6

     negative rho (up, down):  3.693E-03 0.000E+00
 
     Adding external electric field

     Computed dipole along edir(3) : 
        Dipole               -4.0175 Ry au,        -10.2115 Debye
        Dipole field         -0.0076 Ry au, 
 
        Potential amp.        0.7028 Ry
        Total length         46.3494 bohr
 

     total cpu time spent up to now is      429.4 secs

     total energy              =   -2942.04052760 Ry
     estimated scf accuracy    <      12.77894637 Ry

     iteration # 11     ecut=    29.40 Ry     beta= 0.05
     Davidson diagonalization with overlap
     ethr =  3.23E-03,  avg # of iterations = 10.9

     negative rho (up, down):  3.734E-03 0.000E+00
 
     Adding external electric field

     Computed dipole along edir(3) : 
        Dipole               -3.8844 Ry au,         -9.8731 Debye
        Dipole field         -0.0073 Ry au, 
 
        Potential amp.        0.6795 Ry
        Total length         46.3494 bohr
 

     total cpu time spent up to now is      455.1 secs

     total energy              =   -2943.96234278 Ry
     estimated scf accuracy    <     462.64232375 Ry

     iteration # 12     ecut=    29.40 Ry     beta= 0.05
     Davidson diagonalization with overlap
     ethr =  3.23E-03,  avg # of iterations =  2.7

     negative rho (up, down):  3.137E-03 0.000E+00
 
     Adding external electric field

     Computed dipole along edir(3) : 
        Dipole               -4.1465 Ry au,        -10.5395 Debye
        Dipole field         -0.0078 Ry au, 
 
        Potential amp.        0.7254 Ry
        Total length         46.3494 bohr
 

     total cpu time spent up to now is      472.8 secs

     total energy              =   -2940.59794814 Ry
     estimated scf accuracy    <     409.49087963 Ry

     iteration # 13     ecut=    29.40 Ry     beta= 0.05
     Davidson diagonalization with overlap
     ethr =  3.23E-03,  avg # of iterations =  3.0

     negative rho (up, down):  3.134E-03 0.000E+00
 
     Adding external electric field

     Computed dipole along edir(3) : 
        Dipole               -4.3226 Ry au,        -10.9870 Debye
        Dipole field         -0.0082 Ry au, 
 
        Potential amp.        0.7562 Ry
        Total length         46.3494 bohr
 

     total cpu time spent up to now is      490.9 secs

     total energy              =   -2941.86354314 Ry
     estimated scf accuracy    <      36.67121547 Ry

     iteration # 14     ecut=    29.40 Ry     beta= 0.05
     Davidson diagonalization with overlap
     ethr =  3.23E-03,  avg # of iterations =  1.1

     negative rho (up, down):  4.882E-03 0.000E+00
 
     Adding external electric field

     Computed dipole along edir(3) : 
        Dipole               -2.2093 Ry au,         -5.6156 Debye
        Dipole field         -0.0042 Ry au, 
 
        Potential amp.        0.3865 Ry
        Total length         46.3494 bohr
 

     total cpu time spent up to now is      507.5 secs

     total energy              =   -2940.93155366 Ry
     estimated scf accuracy    <      32.43124632 Ry

     iteration # 15     ecut=    29.40 Ry     beta= 0.05
     Davidson diagonalization with overlap
     ethr =  3.23E-03,  avg # of iterations =  1.8

     negative rho (up, down):  5.434E-03 0.000E+00
 
     Adding external electric field

     Computed dipole along edir(3) : 
        Dipole               -2.0372 Ry au,         -5.1780 Debye
        Dipole field         -0.0038 Ry au, 
 
        Potential amp.        0.3564 Ry
        Total length         46.3494 bohr
 

     total cpu time spent up to now is      524.6 secs

     total energy              =   -2940.94657773 Ry
     estimated scf accuracy    <      72.41886906 Ry

     iteration # 16     ecut=    29.40 Ry     beta= 0.05
     Davidson diagonalization with overlap
     ethr =  3.23E-03,  avg # of iterations =  1.1

     negative rho (up, down):  7.121E-03 0.000E+00
 
     Adding external electric field

     Computed dipole along edir(3) : 
        Dipole               -1.7355 Ry au,         -4.4111 Debye
        Dipole field         -0.0033 Ry au, 
 
        Potential amp.        0.3036 Ry
        Total length         46.3494 bohr
 

     total cpu time spent up to now is      541.2 secs

     total energy              =   -2940.59300308 Ry
     estimated scf accuracy    <      26.94976720 Ry

     iteration # 17     ecut=    29.40 Ry     beta= 0.05
     Davidson diagonalization with overlap
     ethr =  3.23E-03,  avg # of iterations =  2.4

     negative rho (up, down):  8.793E-03 0.000E+00
 
     Adding external electric field

     Computed dipole along edir(3) : 
        Dipole               -1.4903 Ry au,         -3.7879 Debye
        Dipole field         -0.0028 Ry au, 
 
        Potential amp.        0.2607 Ry
        Total length         46.3494 bohr
 

     total cpu time spent up to now is      558.5 secs

     total energy              =   -2940.57934060 Ry
     estimated scf accuracy    <      13.40575060 Ry

     iteration # 18     ecut=    29.40 Ry     beta= 0.05
     Davidson diagonalization with overlap
     ethr =  3.23E-03,  avg # of iterations =  1.7

     negative rho (up, down):  1.224E-02 0.000E+00
 
     Adding external electric field

     Computed dipole along edir(3) : 
        Dipole               -1.4167 Ry au,         -3.6009 Debye
        Dipole field         -0.0027 Ry au, 
 
        Potential amp.        0.2478 Ry
        Total length         46.3494 bohr
 

     total cpu time spent up to now is      575.4 secs

     total energy              =   -2940.38503403 Ry
     estimated scf accuracy    <      10.94110079 Ry

     iteration # 19     ecut=    29.40 Ry     beta= 0.05
     Davidson diagonalization with overlap
     ethr =  2.76E-03,  avg # of iterations =  1.6

     negative rho (up, down):  1.824E-02 0.000E+00
 
     Adding external electric field

     Computed dipole along edir(3) : 
        Dipole               -0.9950 Ry au,         -2.5290 Debye
        Dipole field         -0.0019 Ry au, 
 
        Potential amp.        0.1741 Ry
        Total length         46.3494 bohr
 

     total cpu time spent up to now is      592.2 secs

     total energy              =   -2940.21500572 Ry
     estimated scf accuracy    <       9.82060673 Ry

     iteration # 20     ecut=    29.40 Ry     beta= 0.05
     Davidson diagonalization with overlap
     ethr =  2.48E-03,  avg # of iterations =  1.2

     negative rho (up, down):  1.822E-02 0.000E+00
 
     Adding external electric field

     Computed dipole along edir(3) : 
        Dipole               -0.8522 Ry au,         -2.1660 Debye
        Dipole field         -0.0016 Ry au, 
 
        Potential amp.        0.1491 Ry
        Total length         46.3494 bohr
 

     total cpu time spent up to now is      608.9 secs

     total energy              =   -2940.25082864 Ry
     estimated scf accuracy    <       8.54766933 Ry

     iteration # 21     ecut=    29.40 Ry     beta= 0.05
     Davidson diagonalization with overlap
     ethr =  2.16E-03,  avg # of iterations =  4.0

     negative rho (up, down):  1.903E-02 0.000E+00
 
     Adding external electric field

     Computed dipole along edir(3) : 
        Dipole               -0.9354 Ry au,         -2.3776 Debye
        Dipole field         -0.0018 Ry au, 
 
        Potential amp.        0.1636 Ry
        Total length         46.3494 bohr
 

     total cpu time spent up to now is      627.0 secs

     total energy              =   -2940.45004395 Ry
     estimated scf accuracy    <       4.13388518 Ry

     iteration # 22     ecut=    29.40 Ry     beta= 0.05
     Davidson diagonalization with overlap
     ethr =  1.04E-03,  avg # of iterations =  3.0

     negative rho (up, down):  1.984E-02 0.000E+00
 
     Adding external electric field

     Computed dipole along edir(3) : 
        Dipole               -0.8770 Ry au,         -2.2290 Debye
        Dipole field         -0.0017 Ry au, 
 
        Potential amp.        0.1534 Ry
        Total length         46.3494 bohr
 

     total cpu time spent up to now is      644.8 secs

     total energy              =   -2940.47306333 Ry
     estimated scf accuracy    <       4.81072888 Ry

     iteration # 23     ecut=    29.40 Ry     beta= 0.05
     Davidson diagonalization with overlap
     ethr =  1.04E-03,  avg # of iterations =  1.0

     negative rho (up, down):  1.793E-02 0.000E+00
 
     Adding external electric field

     Computed dipole along edir(3) : 
        Dipole               -0.7899 Ry au,         -2.0077 Debye
        Dipole field         -0.0015 Ry au, 
 
        Potential amp.        0.1382 Ry
        Total length         46.3494 bohr
 

     total cpu time spent up to now is      661.3 secs

     total energy              =   -2940.41915253 Ry
     estimated scf accuracy    <       4.82964054 Ry

     iteration # 24     ecut=    29.40 Ry     beta= 0.05
     Davidson diagonalization with overlap
     ethr =  1.04E-03,  avg # of iterations =  3.0

     negative rho (up, down):  1.585E-02 0.000E+00
 
     Adding external electric field

     Computed dipole along edir(3) : 
        Dipole               -0.6655 Ry au,         -1.6916 Debye
        Dipole field         -0.0013 Ry au, 
 
        Potential amp.        0.1164 Ry
        Total length         46.3494 bohr
 

     total cpu time spent up to now is      678.8 secs

     total energy              =   -2940.47434054 Ry
     estimated scf accuracy    <       2.41978448 Ry

     iteration # 25     ecut=    29.40 Ry     beta= 0.05
     Davidson diagonalization with overlap
     ethr =  6.11E-04,  avg # of iterations =  1.9

     negative rho (up, down):  1.633E-02 0.000E+00
 
     Adding external electric field

     Computed dipole along edir(3) : 
        Dipole               -0.6491 Ry au,         -1.6499 Debye
        Dipole field         -0.0012 Ry au, 
 
        Potential amp.        0.1136 Ry
        Total length         46.3494 bohr
 

     total cpu time spent up to now is      696.4 secs

     total energy              =   -2940.47109094 Ry
     estimated scf accuracy    <       2.50913502 Ry

     iteration # 26     ecut=    29.40 Ry     beta= 0.05
     Davidson diagonalization with overlap
     ethr =  6.11E-04,  avg # of iterations =  1.3

     negative rho (up, down):  1.071E-02 0.000E+00
 
     Adding external electric field

     Computed dipole along edir(3) : 
        Dipole               -0.5717 Ry au,         -1.4532 Debye
        Dipole field         -0.0011 Ry au, 
 
        Potential amp.        0.1000 Ry
        Total length         46.3494 bohr
 

     total cpu time spent up to now is      713.2 secs

     total energy              =   -2940.48692836 Ry
     estimated scf accuracy    <       2.29513143 Ry

     iteration # 27     ecut=    29.40 Ry     beta= 0.05
     Davidson diagonalization with overlap
     ethr =  5.80E-04,  avg # of iterations =  5.5

     negative rho (up, down):  1.412E-02 0.000E+00
 
     Adding external electric field

     Computed dipole along edir(3) : 
        Dipole               -0.3167 Ry au,         -0.8050 Debye
        Dipole field         -0.0006 Ry au, 
 
        Potential amp.        0.0554 Ry
        Total length         46.3494 bohr
 

     total cpu time spent up to now is      732.4 secs

     total energy              =   -2940.46838967 Ry
     estimated scf accuracy    <       1.91603570 Ry

     iteration # 28     ecut=    29.40 Ry     beta= 0.05
     Davidson diagonalization with overlap
     c_bands:  1 eigenvalues not converged
     c_bands:  3 eigenvalues not converged
     ethr =  4.84E-04,  avg # of iterations = 12.7

     negative rho (up, down):  1.595E-02 0.000E+00
 
     Adding external electric field

     Computed dipole along edir(3) : 
        Dipole               -0.2608 Ry au,         -0.6629 Debye
        Dipole field         -0.0005 Ry au, 
 
        Potential amp.        0.0456 Ry
        Total length         46.3494 bohr
 

     total cpu time spent up to now is      755.6 secs

     total energy              =   -2940.47711487 Ry
     estimated scf accuracy    <       1.42402883 Ry

     iteration # 29     ecut=    29.40 Ry     beta= 0.05
     Davidson diagonalization with overlap
     ethr =  3.60E-04,  avg # of iterations =  4.5

     negative rho (up, down):  2.527E-02 0.000E+00
 
     Adding external electric field

     Computed dipole along edir(3) : 
        Dipole               -0.1924 Ry au,         -0.4891 Debye
        Dipole field         -0.0004 Ry au, 
 
        Potential amp.        0.0337 Ry
        Total length         46.3494 bohr
 

     total cpu time spent up to now is      774.0 secs

     total energy              =   -2940.44794550 Ry
     estimated scf accuracy    <       1.33955639 Ry

     iteration # 30     ecut=    29.40 Ry     beta= 0.05
     Davidson diagonalization with overlap
     ethr =  3.38E-04,  avg # of iterations =  4.6

     negative rho (up, down):  2.532E-02 0.000E+00
 
     Adding external electric field

     Computed dipole along edir(3) : 
        Dipole               -0.2488 Ry au,         -0.6324 Debye
        Dipole field         -0.0005 Ry au, 
 
        Potential amp.        0.0435 Ry
        Total length         46.3494 bohr
 

     total cpu time spent up to now is      792.7 secs

     total energy              =   -2940.48469815 Ry
     estimated scf accuracy    <       2.07086472 Ry

     iteration # 31     ecut=    29.40 Ry     beta= 0.05
     Davidson diagonalization with overlap
     ethr =  3.38E-04,  avg # of iterations =  3.7

     negative rho (up, down):  2.847E-02 0.000E+00
 
     Adding external electric field

     Computed dipole along edir(3) : 
        Dipole               -0.1168 Ry au,         -0.2969 Debye
        Dipole field         -0.0002 Ry au, 
 
        Potential amp.        0.0204 Ry
        Total length         46.3494 bohr
 

     total cpu time spent up to now is      810.6 secs

     total energy              =   -2940.47744502 Ry
     estimated scf accuracy    <       2.50681982 Ry

     iteration # 32     ecut=    29.40 Ry     beta= 0.05
     Davidson diagonalization with overlap
     ethr =  3.38E-04,  avg # of iterations =  1.4

     negative rho (up, down):  2.036E-02 0.000E+00
 
     Adding external electric field

     Computed dipole along edir(3) : 
        Dipole                0.4029 Ry au,          1.0241 Debye
        Dipole field          0.0008 Ry au, 
 
        Potential amp.       -0.0705 Ry
        Total length         46.3494 bohr
 

     total cpu time spent up to now is      827.6 secs

     total energy              =   -2940.40981404 Ry
     estimated scf accuracy    <       2.29542550 Ry

     iteration # 33     ecut=    29.40 Ry     beta= 0.05
     Davidson diagonalization with overlap
     c_bands:  3 eigenvalues not converged
     c_bands:  2 eigenvalues not converged
     c_bands:  1 eigenvalues not converged
     c_bands:  2 eigenvalues not converged
     c_bands:  2 eigenvalues not converged
     c_bands:  2 eigenvalues not converged
     ethr =  3.38E-04,  avg # of iterations = 20.0

     negative rho (up, down):  1.417E-02 0.000E+00
 
     Adding external electric field

     Computed dipole along edir(3) : 
        Dipole                0.0095 Ry au,          0.0241 Debye
        Dipole field          0.0000 Ry au, 
 
        Potential amp.       -0.0017 Ry
        Total length         46.3494 bohr
 

     total cpu time spent up to now is      860.1 secs

     total energy              =   -2940.37324486 Ry
     estimated scf accuracy    <       2.18869179 Ry

     iteration # 34     ecut=    29.40 Ry     beta= 0.05
     Davidson diagonalization with overlap
     ethr =  3.38E-04,  avg # of iterations =  2.8

     negative rho (up, down):  1.331E-02 0.000E+00
 
     Adding external electric field

     Computed dipole along edir(3) : 
        Dipole                0.1980 Ry au,          0.5031 Debye
        Dipole field          0.0004 Ry au, 
 
        Potential amp.       -0.0346 Ry
        Total length         46.3494 bohr
 

     total cpu time spent up to now is      878.3 secs

     total energy              =   -2940.42764741 Ry
     estimated scf accuracy    <       1.46488667 Ry

     iteration # 35     ecut=    29.40 Ry     beta= 0.05
     Davidson diagonalization with overlap
     ethr =  3.38E-04,  avg # of iterations =  4.8

     negative rho (up, down):  8.287E-03 0.000E+00
 
     Adding external electric field

     Computed dipole along edir(3) : 
        Dipole                0.4170 Ry au,          1.0600 Debye
        Dipole field          0.0008 Ry au, 
 
        Potential amp.       -0.0730 Ry
        Total length         46.3494 bohr
 

     total cpu time spent up to now is      896.9 secs

     total energy              =   -2940.40680940 Ry
     estimated scf accuracy    <       0.89377014 Ry

     iteration # 36     ecut=    29.40 Ry     beta= 0.05
     Davidson diagonalization with overlap
     c_bands:  2 eigenvalues not converged
     c_bands:  2 eigenvalues not converged
     ethr =  2.26E-04,  avg # of iterations = 12.5

     negative rho (up, down):  1.002E-02 0.000E+00
 
     Adding external electric field

     Computed dipole along edir(3) : 
        Dipole                0.4326 Ry au,          1.0996 Debye
        Dipole field          0.0008 Ry au, 
 
        Potential amp.       -0.0757 Ry
        Total length         46.3494 bohr
 

     total cpu time spent up to now is      919.5 secs

     total energy              =   -2940.37626270 Ry
     estimated scf accuracy    <       0.64444507 Ry

     iteration # 37     ecut=    29.40 Ry     beta= 0.05
     Davidson diagonalization with overlap
     ethr =  1.63E-04,  avg # of iterations = 12.0

     negative rho (up, down):  8.637E-03 0.000E+00
 
     Adding external electric field

     Computed dipole along edir(3) : 
        Dipole                0.6303 Ry au,          1.6020 Debye
        Dipole field          0.0012 Ry au, 
 
        Potential amp.       -0.1103 Ry
        Total length         46.3494 bohr
 

     total cpu time spent up to now is      942.1 secs

     total energy              =   -2940.40620161 Ry
     estimated scf accuracy    <       0.13299812 Ry

     iteration # 38     ecut=    29.40 Ry     beta= 0.05
     Davidson diagonalization with overlap
     c_bands:  4 eigenvalues not converged
     c_bands:  2 eigenvalues not converged
     c_bands:  2 eigenvalues not converged
     c_bands:  3 eigenvalues not converged
     ethr =  3.36E-05,  avg # of iterations = 17.5

     negative rho (up, down):  9.947E-03 0.000E+00
 
     Adding external electric field

     Computed dipole along edir(3) : 
        Dipole                0.7012 Ry au,          1.7824 Debye
        Dipole field          0.0013 Ry au, 
 
        Potential amp.       -0.1227 Ry
        Total length         46.3494 bohr
 

     total cpu time spent up to now is      973.1 secs

     total energy              =   -2940.42223945 Ry
     estimated scf accuracy    <       0.24027407 Ry

     iteration # 39     ecut=    29.40 Ry     beta= 0.05
     Davidson diagonalization with overlap
     c_bands:  4 eigenvalues not converged
     c_bands:  4 eigenvalues not converged
     ethr =  3.36E-05,  avg # of iterations = 11.1

     negative rho (up, down):  1.064E-02 0.000E+00
 
     Adding external electric field

     Computed dipole along edir(3) : 
        Dipole                0.8558 Ry au,          2.1751 Debye
        Dipole field          0.0016 Ry au, 
 
        Potential amp.       -0.1497 Ry
        Total length         46.3494 bohr
 

     total cpu time spent up to now is      994.6 secs

     total energy              =   -2940.40941851 Ry
     estimated scf accuracy    <       0.16481049 Ry

     iteration # 40     ecut=    29.40 Ry     beta= 0.05
     Davidson diagonalization with overlap
     c_bands:  1 eigenvalues not converged
     ethr =  3.36E-05,  avg # of iterations = 13.3

     negative rho (up, down):  1.379E-02 0.000E+00
 
     Adding external electric field

     Computed dipole along edir(3) : 
        Dipole                0.9012 Ry au,          2.2907 Debye
        Dipole field          0.0017 Ry au, 
 
        Potential amp.       -0.1577 Ry
        Total length         46.3494 bohr
 

     total cpu time spent up to now is     1021.0 secs

     total energy              =   -2940.41966443 Ry
     estimated scf accuracy    <       0.34196508 Ry

     iteration # 41     ecut=    29.40 Ry     beta= 0.05
     Davidson diagonalization with overlap
     ethr =  3.36E-05,  avg # of iterations =  1.9

     negative rho (up, down):  1.358E-02 0.000E+00
 
     Adding external electric field

     Computed dipole along edir(3) : 
        Dipole                0.8657 Ry au,          2.2003 Debye
        Dipole field          0.0016 Ry au, 
 
        Potential amp.       -0.1514 Ry
        Total length         46.3494 bohr
 

     total cpu time spent up to now is     1038.6 secs

     total energy              =   -2940.41554320 Ry
     estimated scf accuracy    <       0.13919915 Ry

     iteration # 42     ecut=    29.40 Ry     beta= 0.05
     Davidson diagonalization with overlap
     c_bands:  1 eigenvalues not converged
     ethr =  3.36E-05,  avg # of iterations =  9.6

     negative rho (up, down):  1.035E-02 0.000E+00
 
     Adding external electric field

     Computed dipole along edir(3) : 
        Dipole                0.9046 Ry au,          2.2994 Debye
        Dipole field          0.0017 Ry au, 
 
        Potential amp.       -0.1583 Ry
        Total length         46.3494 bohr
 

     total cpu time spent up to now is     1059.5 secs

     total energy              =   -2940.40706801 Ry
     estimated scf accuracy    <       0.08559399 Ry

     iteration # 43     ecut=    29.40 Ry     beta= 0.05
     Davidson diagonalization with overlap
     c_bands:  2 eigenvalues not converged
     c_bands:  1 eigenvalues not converged
     c_bands:  1 eigenvalues not converged
     c_bands:  1 eigenvalues not converged
     c_bands:  1 eigenvalues not converged
     ethr =  2.16E-05,  avg # of iterations = 18.1

     negative rho (up, down):  1.102E-02 0.000E+00
 
     Adding external electric field

     Computed dipole along edir(3) : 
        Dipole                0.9427 Ry au,          2.3960 Debye
        Dipole field          0.0018 Ry au, 
 
        Potential amp.       -0.1649 Ry
        Total length         46.3494 bohr
 

     total cpu time spent up to now is     1087.1 secs

     total energy              =   -2940.41590961 Ry
     estimated scf accuracy    <       0.06870685 Ry

     iteration # 44     ecut=    29.40 Ry     beta= 0.05
     Davidson diagonalization with overlap
     c_bands:  1 eigenvalues not converged
     ethr =  1.74E-05,  avg # of iterations =  8.3

     negative rho (up, down):  1.094E-02 0.000E+00
 
     Adding external electric field

     Computed dipole along edir(3) : 
        Dipole                0.9446 Ry au,          2.4010 Debye
        Dipole field          0.0018 Ry au, 
 
        Potential amp.       -0.1652 Ry
        Total length         46.3494 bohr
 

     total cpu time spent up to now is     1107.0 secs

     total energy              =   -2940.41757699 Ry
     estimated scf accuracy    <       0.02935318 Ry

     iteration # 45     ecut=    29.40 Ry     beta= 0.05
     Davidson diagonalization with overlap
     ethr =  7.41E-06,  avg # of iterations =  6.0

     negative rho (up, down):  1.084E-02 0.000E+00
 
     Adding external electric field

     Computed dipole along edir(3) : 
        Dipole                0.9394 Ry au,          2.3878 Debye
        Dipole field          0.0018 Ry au, 
 
        Potential amp.       -0.1643 Ry
        Total length         46.3494 bohr
 

     total cpu time spent up to now is     1126.1 secs

     total energy              =   -2940.41800176 Ry
     estimated scf accuracy    <       0.03047247 Ry

     iteration # 46     ecut=    29.40 Ry     beta= 0.05
     Davidson diagonalization with overlap
     ethr =  7.41E-06,  avg # of iterations =  2.3

     negative rho (up, down):  1.132E-02 0.000E+00
 
     Adding external electric field

     Computed dipole along edir(3) : 
        Dipole                0.9950 Ry au,          2.5291 Debye
        Dipole field          0.0019 Ry au, 
 
        Potential amp.       -0.1741 Ry
        Total length         46.3494 bohr
 

     total cpu time spent up to now is     1143.3 secs

     total energy              =   -2940.41398429 Ry
     estimated scf accuracy    <       0.03335855 Ry

     iteration # 47     ecut=    29.40 Ry     beta= 0.05
     Davidson diagonalization with overlap
     c_bands:  2 eigenvalues not converged
     c_bands:  2 eigenvalues not converged
     ethr =  7.41E-06,  avg # of iterations = 15.4

     negative rho (up, down):  1.174E-02 0.000E+00
 
     Adding external electric field

     Computed dipole along edir(3) : 
        Dipole                1.2497 Ry au,          3.1764 Debye
        Dipole field          0.0024 Ry au, 
 
        Potential amp.       -0.2186 Ry
        Total length         46.3494 bohr
 

     total cpu time spent up to now is     1169.6 secs

     total energy              =   -2940.41892674 Ry
     estimated scf accuracy    <       0.01811054 Ry

     iteration # 48     ecut=    29.40 Ry     beta= 0.05
     Davidson diagonalization with overlap
     c_bands:  1 eigenvalues not converged
     c_bands:  3 eigenvalues not converged
     c_bands:  1 eigenvalues not converged
     ethr =  4.57E-06,  avg # of iterations = 15.1

     negative rho (up, down):  1.123E-02 0.000E+00
 
     Adding external electric field

     Computed dipole along edir(3) : 
        Dipole                1.1912 Ry au,          3.0277 Debye
        Dipole field          0.0022 Ry au, 
 
        Potential amp.       -0.2084 Ry
        Total length         46.3494 bohr
 

     total cpu time spent up to now is     1199.5 secs

     total energy              =   -2940.41814991 Ry
     estimated scf accuracy    <       0.03338541 Ry

     iteration # 49     ecut=    29.40 Ry     beta= 0.05
     Davidson diagonalization with overlap
     ethr =  4.57E-06,  avg # of iterations =  6.0

     negative rho (up, down):  1.132E-02 0.000E+00
 
     Adding external electric field

     Computed dipole along edir(3) : 
        Dipole                1.1790 Ry au,          2.9968 Debye
        Dipole field          0.0022 Ry au, 
 
        Potential amp.       -0.2063 Ry
        Total length         46.3494 bohr
 

     total cpu time spent up to now is     1219.5 secs

     total energy              =   -2940.41842413 Ry
     estimated scf accuracy    <       0.01013257 Ry

     iteration # 50     ecut=    29.40 Ry     beta= 0.05
     Davidson diagonalization with overlap
     c_bands:  1 eigenvalues not converged
     ethr =  2.56E-06,  avg # of iterations = 14.2

     negative rho (up, down):  1.296E-02 0.000E+00
 
     Adding external electric field

     Computed dipole along edir(3) : 
        Dipole                1.2393 Ry au,          3.1499 Debye
        Dipole field          0.0023 Ry au, 
 
        Potential amp.       -0.2168 Ry
        Total length         46.3494 bohr
 

     total cpu time spent up to now is     1244.5 secs

     total energy              =   -2940.41942823 Ry
     estimated scf accuracy    <       0.00587440 Ry

     iteration # 51     ecut=    29.40 Ry     beta= 0.05
     Davidson diagonalization with overlap
     c_bands:  1 eigenvalues not converged
     ethr =  1.48E-06,  avg # of iterations = 13.6

     negative rho (up, down):  1.415E-02 0.000E+00
 
     Adding external electric field

     Computed dipole along edir(3) : 
        Dipole                1.2920 Ry au,          3.2838 Debye
        Dipole field          0.0024 Ry au, 
 
        Potential amp.       -0.2260 Ry
        Total length         46.3494 bohr
 

     total cpu time spent up to now is     1268.7 secs

     total energy              =   -2940.41980819 Ry
     estimated scf accuracy    <       0.00565007 Ry

     iteration # 52     ecut=    29.40 Ry     beta= 0.05
     Davidson diagonalization with overlap
     ethr =  1.43E-06,  avg # of iterations =  4.2

     negative rho (up, down):  1.503E-02 0.000E+00
 
     Adding external electric field

     Computed dipole along edir(3) : 
        Dipole                1.3334 Ry au,          3.3890 Debye
        Dipole field          0.0025 Ry au, 
 
        Potential amp.       -0.2332 Ry
        Total length         46.3494 bohr
 

     total cpu time spent up to now is     1287.4 secs

     total energy              =   -2940.41958525 Ry
     estimated scf accuracy    <       0.00398598 Ry

     iteration # 53     ecut=    29.40 Ry     beta= 0.05
     Davidson diagonalization with overlap
     c_bands:  1 eigenvalues not converged
     ethr =  1.01E-06,  avg # of iterations = 14.8

     negative rho (up, down):  1.498E-02 0.000E+00
 
     Adding external electric field

     Computed dipole along edir(3) : 
        Dipole                1.3361 Ry au,          3.3960 Debye
        Dipole field          0.0025 Ry au, 
 
        Potential amp.       -0.2337 Ry
        Total length         46.3494 bohr
 

     total cpu time spent up to now is     1314.6 secs

     total energy              =   -2940.42054879 Ry
     estimated scf accuracy    <       0.00470957 Ry

     iteration # 54     ecut=    29.40 Ry     beta= 0.05
     Davidson diagonalization with overlap
     ethr =  1.01E-06,  avg # of iterations =  1.6

     negative rho (up, down):  1.555E-02 0.000E+00
 
     Adding external electric field

     Computed dipole along edir(3) : 
        Dipole                1.3277 Ry au,          3.3747 Debye
        Dipole field          0.0025 Ry au, 
 
        Potential amp.       -0.2323 Ry
        Total length         46.3494 bohr
 

     total cpu time spent up to now is     1331.4 secs

     total energy              =   -2940.41966010 Ry
     estimated scf accuracy    <       0.00566917 Ry

     iteration # 55     ecut=    29.40 Ry     beta= 0.05
     Davidson diagonalization with overlap
     ethr =  1.01E-06,  avg # of iterations =  5.5

     negative rho (up, down):  1.553E-02 0.000E+00
 
     Adding external electric field

     Computed dipole along edir(3) : 
        Dipole                1.3266 Ry au,          3.3720 Debye
        Dipole field          0.0025 Ry au, 
 
        Potential amp.       -0.2321 Ry
        Total length         46.3494 bohr
 

     total cpu time spent up to now is     1351.3 secs

     total energy              =   -2940.41995910 Ry
     estimated scf accuracy    <       0.00090975 Ry

     iteration # 56     ecut=    29.40 Ry     beta= 0.05
     Davidson diagonalization with overlap
     ethr =  2.30E-07,  avg # of iterations = 10.3

     negative rho (up, down):  1.613E-02 0.000E+00
 
     Adding external electric field

     Computed dipole along edir(3) : 
        Dipole                1.3323 Ry au,          3.3863 Debye
        Dipole field          0.0025 Ry au, 
 
        Potential amp.       -0.2331 Ry
        Total length         46.3494 bohr
 

     total cpu time spent up to now is     1373.8 secs

     total energy              =   -2940.42001459 Ry
     estimated scf accuracy    <       0.00059685 Ry

     iteration # 57     ecut=    29.40 Ry     beta= 0.05
     Davidson diagonalization with overlap
     ethr =  1.51E-07,  avg # of iterations =  7.3

     negative rho (up, down):  1.639E-02 0.000E+00
 
     Adding external electric field

     Computed dipole along edir(3) : 
        Dipole                1.3250 Ry au,          3.3678 Debye
        Dipole field          0.0025 Ry au, 
 
        Potential amp.       -0.2318 Ry
        Total length         46.3494 bohr
 

     total cpu time spent up to now is     1394.7 secs

     total energy              =   -2940.42005561 Ry
     estimated scf accuracy    <       0.00034386 Ry

     iteration # 58     ecut=    29.40 Ry     beta= 0.05
     Davidson diagonalization with overlap
     ethr =  8.68E-08,  avg # of iterations = 14.1

     negative rho (up, down):  1.618E-02 0.000E+00
 
     Adding external electric field

     Computed dipole along edir(3) : 
        Dipole                1.3273 Ry au,          3.3737 Debye
        Dipole field          0.0025 Ry au, 
 
        Potential amp.       -0.2322 Ry
        Total length         46.3494 bohr
 

     total cpu time spent up to now is     1424.6 secs

     total energy              =   -2940.42001403 Ry
     estimated scf accuracy    <       0.00052281 Ry

     iteration # 59     ecut=    29.40 Ry     beta= 0.05
     Davidson diagonalization with overlap
     ethr =  8.68E-08,  avg # of iterations =  6.8

     negative rho (up, down):  1.591E-02 0.000E+00
 
     Adding external electric field

     Computed dipole along edir(3) : 
        Dipole                1.3155 Ry au,          3.3438 Debye
        Dipole field          0.0025 Ry au, 
 
        Potential amp.       -0.2301 Ry
        Total length         46.3494 bohr
 

     total cpu time spent up to now is     1445.7 secs

     total energy              =   -2940.42005673 Ry
     estimated scf accuracy    <       0.00014027 Ry

     iteration # 60     ecut=    29.40 Ry     beta= 0.05
     Davidson diagonalization with overlap
     ethr =  3.54E-08,  avg # of iterations =  6.9

     negative rho (up, down):  1.592E-02 0.000E+00
 
     Adding external electric field

     Computed dipole along edir(3) : 
        Dipole                1.3084 Ry au,          3.3256 Debye
        Dipole field          0.0025 Ry au, 
 
        Potential amp.       -0.2289 Ry
        Total length         46.3494 bohr
 

     total cpu time spent up to now is     1465.5 secs

     total energy              =   -2940.42007110 Ry
     estimated scf accuracy    <       0.00008305 Ry

     iteration # 61     ecut=    29.40 Ry     beta= 0.05
     Davidson diagonalization with overlap
     c_bands:  2 eigenvalues not converged
     ethr =  2.10E-08,  avg # of iterations = 14.8

     negative rho (up, down):  1.580E-02 0.000E+00
 
     Adding external electric field

     Computed dipole along edir(3) : 
        Dipole                1.3070 Ry au,          3.3222 Debye
        Dipole field          0.0025 Ry au, 
 
        Potential amp.       -0.2286 Ry
        Total length         46.3494 bohr
 

     total cpu time spent up to now is     1495.0 secs

     total energy              =   -2940.42008050 Ry
     estimated scf accuracy    <       0.00012349 Ry

     iteration # 62     ecut=    29.40 Ry     beta= 0.05
     Davidson diagonalization with overlap
     c_bands:  1 eigenvalues not converged
     ethr =  2.10E-08,  avg # of iterations =  6.7

     negative rho (up, down):  1.589E-02 0.000E+00
 
     Adding external electric field

     Computed dipole along edir(3) : 
        Dipole                1.3107 Ry au,          3.3315 Debye
        Dipole field          0.0025 Ry au, 
 
        Potential amp.       -0.2293 Ry
        Total length         46.3494 bohr
 

     total cpu time spent up to now is     1515.2 secs

     total energy              =   -2940.42009700 Ry
     estimated scf accuracy    <       0.00004266 Ry

     iteration # 63     ecut=    29.40 Ry     beta= 0.05
     Davidson diagonalization with overlap
     ethr =  1.08E-08,  avg # of iterations = 15.2

     negative rho (up, down):  1.580E-02 0.000E+00
 
     Adding external electric field

     Computed dipole along edir(3) : 
        Dipole                1.3050 Ry au,          3.3169 Debye
        Dipole field          0.0025 Ry au, 
 
        Potential amp.       -0.2283 Ry
        Total length         46.3494 bohr
 

     total cpu time spent up to now is     1544.5 secs

     total energy              =   -2940.42010657 Ry
     estimated scf accuracy    <       0.00003201 Ry

     iteration # 64     ecut=    29.40 Ry     beta= 0.05
     Davidson diagonalization with overlap
     c_bands:  1 eigenvalues not converged
     ethr =  8.08E-09,  avg # of iterations = 11.9

     negative rho (up, down):  1.587E-02 0.000E+00
 
     Adding external electric field

     Computed dipole along edir(3) : 
        Dipole                1.3076 Ry au,          3.3235 Debye
        Dipole field          0.0025 Ry au, 
 
        Potential amp.       -0.2287 Ry
        Total length         46.3494 bohr
 

     total cpu time spent up to now is     1569.2 secs

     total energy              =   -2940.42011525 Ry
     estimated scf accuracy    <       0.00000797 Ry

     iteration # 65     ecut=    29.40 Ry     beta= 0.05
     Davidson diagonalization with overlap
     ethr =  2.01E-09,  avg # of iterations =  8.7

     negative rho (up, down):  1.595E-02 0.000E+00
 
     Adding external electric field

     Computed dipole along edir(3) : 
        Dipole                1.3108 Ry au,          3.3317 Debye
        Dipole field          0.0025 Ry au, 
 
        Potential amp.       -0.2293 Ry
        Total length         46.3494 bohr
 

     total cpu time spent up to now is     1590.5 secs

     total energy              =   -2940.42011997 Ry
     estimated scf accuracy    <       0.00000480 Ry

     iteration # 66     ecut=    29.40 Ry     beta= 0.05
     Davidson diagonalization with overlap
     c_bands:  1 eigenvalues not converged
     ethr =  1.21E-09,  avg # of iterations = 12.5

     negative rho (up, down):  1.591E-02 0.000E+00
 
     Adding external electric field

     Computed dipole along edir(3) : 
        Dipole                1.3099 Ry au,          3.3295 Debye
        Dipole field          0.0025 Ry au, 
 
        Potential amp.       -0.2291 Ry
        Total length         46.3494 bohr
 

     total cpu time spent up to now is     1618.0 secs

     total energy              =   -2940.42012388 Ry
     estimated scf accuracy    <       0.00000285 Ry

     iteration # 67     ecut=    29.40 Ry     beta= 0.05
     Davidson diagonalization with overlap
     ethr =  7.19E-10,  avg # of iterations = 12.1

     negative rho (up, down):  1.588E-02 0.000E+00
 
     Adding external electric field

     Computed dipole along edir(3) : 
        Dipole                1.3101 Ry au,          3.3299 Debye
        Dipole field          0.0025 Ry au, 
 
        Potential amp.       -0.2292 Ry
        Total length         46.3494 bohr
 

     total cpu time spent up to now is     1643.6 secs

     total energy              =   -2940.42012668 Ry
     estimated scf accuracy    <       0.00000375 Ry

     iteration # 68     ecut=    29.40 Ry     beta= 0.05
     Davidson diagonalization with overlap
     ethr =  7.19E-10,  avg # of iterations =  8.0

     negative rho (up, down):  1.588E-02 0.000E+00
 
     Adding external electric field

     Computed dipole along edir(3) : 
        Dipole                1.3114 Ry au,          3.3332 Debye
        Dipole field          0.0025 Ry au, 
 
        Potential amp.       -0.2294 Ry
        Total length         46.3494 bohr
 

     total cpu time spent up to now is     1664.1 secs

     total energy              =   -2940.42012870 Ry
     estimated scf accuracy    <       0.00000240 Ry

     iteration # 69     ecut=    29.40 Ry     beta= 0.05
     Davidson diagonalization with overlap
     ethr =  6.05E-10,  avg # of iterations = 12.5

     negative rho (up, down):  1.584E-02 0.000E+00
 
     Adding external electric field

     Computed dipole along edir(3) : 
        Dipole                1.3108 Ry au,          3.3318 Debye
        Dipole field          0.0025 Ry au, 
 
        Potential amp.       -0.2293 Ry
        Total length         46.3494 bohr
 

     total cpu time spent up to now is     1688.1 secs

     total energy              =   -2940.42013081 Ry
     estimated scf accuracy    <       0.00000139 Ry

     iteration # 70     ecut=    29.40 Ry     beta= 0.05
     Davidson diagonalization with overlap
     ethr =  3.51E-10,  avg # of iterations =  5.3

     negative rho (up, down):  1.582E-02 0.000E+00
 
     Adding external electric field

     Computed dipole along edir(3) : 
        Dipole                1.3106 Ry au,          3.3311 Debye
        Dipole field          0.0025 Ry au, 
 
        Potential amp.       -0.2293 Ry
        Total length         46.3494 bohr
 

     total cpu time spent up to now is     1707.7 secs

     total energy              =   -2940.42013270 Ry
     estimated scf accuracy    <       0.00000063 Ry

     iteration # 71     ecut=    29.40 Ry     beta= 0.05
     Davidson diagonalization with overlap
     ethr =  1.59E-10,  avg # of iterations = 12.0

     negative rho (up, down):  1.580E-02 0.000E+00
 
     Adding external electric field

     Computed dipole along edir(3) : 
        Dipole                1.3110 Ry au,          3.3322 Debye
        Dipole field          0.0025 Ry au, 
 
        Potential amp.       -0.2293 Ry
        Total length         46.3494 bohr
 

     total cpu time spent up to now is     1732.5 secs

     total energy              =   -2940.42013436 Ry
     estimated scf accuracy    <       0.00000045 Ry

     iteration # 72     ecut=    29.40 Ry     beta= 0.05
     Davidson diagonalization with overlap
     ethr =  1.15E-10,  avg # of iterations = 12.9

     negative rho (up, down):  1.579E-02 0.000E+00
 
     Adding external electric field

     Computed dipole along edir(3) : 
        Dipole                1.3109 Ry au,          3.3319 Debye
        Dipole field          0.0025 Ry au, 
 
        Potential amp.       -0.2293 Ry
        Total length         46.3494 bohr
 

     total cpu time spent up to now is     1758.0 secs

     total energy              =   -2940.42013590 Ry
     estimated scf accuracy    <       0.00000040 Ry

     iteration # 73     ecut=    29.40 Ry     beta= 0.05
     Davidson diagonalization with overlap
     ethr =  9.98E-11,  avg # of iterations = 12.9

     negative rho (up, down):  1.578E-02 0.000E+00
 
     Adding external electric field

     Computed dipole along edir(3) : 
        Dipole                1.3107 Ry au,          3.3315 Debye
        Dipole field          0.0025 Ry au, 
 
        Potential amp.       -0.2293 Ry
        Total length         46.3494 bohr
 

     total cpu time spent up to now is     1783.6 secs

     total energy              =   -2940.42013723 Ry
     estimated scf accuracy    <       0.00000032 Ry

     iteration # 74     ecut=    29.40 Ry     beta= 0.05
     Davidson diagonalization with overlap
     ethr =  8.00E-11,  avg # of iterations = 12.6

     negative rho (up, down):  1.578E-02 0.000E+00
 
     Adding external electric field

     Computed dipole along edir(3) : 
        Dipole                1.3109 Ry au,          3.3320 Debye
        Dipole field          0.0025 Ry au, 
 
        Potential amp.       -0.2293 Ry
        Total length         46.3494 bohr
 

     total cpu time spent up to now is     1810.1 secs

     total energy              =   -2940.42013849 Ry
     estimated scf accuracy    <       0.00000014 Ry

     iteration # 75     ecut=    29.40 Ry     beta= 0.05
     Davidson diagonalization with overlap
     ethr =  3.47E-11,  avg # of iterations = 12.6

     negative rho (up, down):  1.578E-02 0.000E+00
 
     Adding external electric field

     Computed dipole along edir(3) : 
        Dipole                1.3109 Ry au,          3.3320 Debye
        Dipole field          0.0025 Ry au, 
 
        Potential amp.       -0.2293 Ry
        Total length         46.3494 bohr
 

     total cpu time spent up to now is     1834.0 secs

     total energy              =   -2940.42013957 Ry
     estimated scf accuracy    <       0.00000007 Ry

     iteration # 76     ecut=    29.40 Ry     beta= 0.05
     Davidson diagonalization with overlap
     ethr =  1.87E-11,  avg # of iterations = 11.0

     negative rho (up, down):  1.580E-02 0.000E+00
 
     Adding external electric field

     Computed dipole along edir(3) : 
        Dipole                1.3090 Ry au,          3.3273 Debye
        Dipole field          0.0025 Ry au, 
 
        Potential amp.       -0.2290 Ry
        Total length         46.3494 bohr
 

     total cpu time spent up to now is     1857.4 secs

     End of self-consistent calculation

          k = 0.0000 0.0000 0.0000 ( 18029 PWs)   bands (ev):

   -55.3698 -55.3337 -55.3214 -55.2873 -55.2458 -55.2403 -55.2154 -55.2111
   -55.1870 -55.1705 -55.1527 -55.1509 -55.1172 -55.0864 -54.3489 -54.3149
   -31.9374 -31.8137 -31.8037 -31.7339 -31.6798 -31.6765 -31.6692 -31.6561
   -31.6103 -31.6006 -31.5781 -31.5703 -31.5660 -31.5395 -31.5247 -31.5187
   -31.5060 -31.4949 -31.4842 -31.4820 -31.4739 -31.4595 -31.4351 -31.4241
   -31.4239 -31.4175 -31.3898 -31.3895 -31.3787 -31.3765 -31.3689 -31.3499
   -31.3481 -31.3428 -31.3369 -31.3347 -31.3009 -31.2877 -31.2850 -31.2789
   -31.2618 -31.2103 -30.7582 -30.6642 -30.6422 -30.5747 -30.4879 -30.3769
   -16.9937 -16.1911 -15.9233 -15.7759 -15.6641 -15.5645 -15.4414 -15.4223
   -15.2912 -15.2032 -15.0834 -15.0390 -15.0165 -15.0028 -14.9878 -14.9817
   -14.9100 -14.9050 -14.8801 -14.8615 -14.8510 -14.8419 -14.8057 -14.8037
   -14.7633 -14.7428 -14.6930 -14.6055 -14.5242 -14.4552 -14.1619 -12.8517
   -12.7343  -8.1787  -4.9752  -4.8948  -4.3196  -3.5317  -3.3821  -3.2853
    -3.2665  -3.2608  -3.1174  -3.0679  -2.9612  -2.8759  -2.7600  -2.6967
    -2.6219  -2.5700  -2.5562  -2.5381  -2.3621  -2.3293  -2.2865  -2.2400
    -2.2086  -2.1742  -2.1531  -2.1258  -2.1132  -2.1067  -2.0738  -1.9299
    -1.8891  -1.8393  -1.7886  -1.7652  -1.7090  -1.6912  -1.6543  -1.6479
    -1.6426  -1.5971  -1.5783  -1.5486  -1.4572  -1.3896  -1.2749  -1.2167
    -1.0758  -1.0044  -0.9501  -0.9363  -0.8548  -0.8515  -0.8244  -0.7466
    -0.7395  -0.7068  -0.5858  -0.4871  -0.4502  -0.3993  -0.3507  -0.3221
    -0.2803  -0.1950  -0.1447  -0.1316  -0.1216  -0.0178   0.0269   0.0386
     0.1132   0.1588   0.1755   0.1807   0.2947   0.3086   0.3748   0.4237
     0.4534   0.5222   0.5703   0.5748   0.5847   0.6197   0.6214   0.7126
     0.7339   0.7425   0.8169   0.9623   1.1820   1.2386   1.2464   1.5802
     1.5825   1.6736   1.8575   2.2496   2.2977   3.7291   3.8012   3.8745
     3.8813   3.9063   3.9669   4.2057   4.2094   4.2329   4.2347   4.2634

          k = 0.0000 0.0419 0.0000 ( 17933 PWs)   bands (ev):

   -55.3645 -55.3389 -55.3164 -55.2923 -55.2408 -55.2381 -55.2160 -55.2141
   -55.1820 -55.1726 -55.1576 -55.1459 -55.1221 -55.0876 -54.3439 -54.3198
   -31.8802 -31.7668 -31.7597 -31.6791 -31.6669 -31.6236 -31.6197 -31.6138
   -31.6113 -31.6054 -31.5942 -31.5669 -31.5607 -31.5579 -31.5408 -31.5157
   -31.5108 -31.4918 -31.4844 -31.4762 -31.4696 -31.4621 -31.4600 -31.4318
   -31.4177 -31.4132 -31.4060 -31.3965 -31.3930 -31.3930 -31.3906 -31.3839
   -31.3569 -31.3501 -31.3408 -31.3399 -31.3341 -31.3298 -31.3158 -31.2894
   -31.2841 -31.2525 -30.7040 -30.6608 -30.6451 -30.5620 -30.5005 -30.4341
   -16.9900 -16.0613 -15.8078 -15.6859 -15.5912 -15.4573 -15.4072 -15.3778
   -15.2767 -15.2218 -15.1712 -15.0972 -15.0471 -15.0411 -14.9603 -14.9488
   -14.9319 -14.9004 -14.8722 -14.8679 -14.8489 -14.8443 -14.8373 -14.8174
   -14.8023 -14.7365 -14.7353 -14.6616 -14.5795 -14.5149 -14.2920 -12.8553
   -12.7735  -8.1791  -4.9720  -4.8951  -4.3225  -3.3422  -3.2147  -3.1400
    -3.1237  -3.0841  -2.9957  -2.9580  -2.8763  -2.7298  -2.6970  -2.6116
    -2.5952  -2.5213  -2.4984  -2.4661  -2.4293  -2.3794  -2.3578  -2.3413
    -2.3084  -2.2981  -2.2447  -2.2274  -2.1630  -2.1319  -2.1055  -2.0813
    -1.9760  -1.9436  -1.9181  -1.9068  -1.8360  -1.7954  -1.7807  -1.6800
    -1.6657  -1.5986  -1.5189  -1.3715  -1.3300  -1.2844  -1.1594  -1.1374
    -1.1081  -1.0427  -0.9191  -0.8018  -0.7352  -0.7056  -0.6866  -0.6709
    -0.5754  -0.5624  -0.5283  -0.5205  -0.4106  -0.3631  -0.3533  -0.2995
    -0.2763  -0.2037  -0.1910  -0.1770  -0.1561  -0.0696  -0.0108   0.0214
     0.0440   0.0497   0.1267   0.1534   0.1933   0.2367   0.2875   0.3761
     0.3793   0.3878   0.4405   0.4590   0.4812   0.5822   0.5980   0.6737
     0.6989   0.7479   0.8285   0.9298   0.9415   1.0198   1.1260   1.2819
     1.4577   1.8573   1.9337   2.2044   2.2081   3.9275   3.9394   3.9630
     4.0253   4.0949   4.1073   4.1402   4.1639   4.1919   4.2105   4.2851

          k = 0.0000-0.0839 0.0000 ( 17884 PWs)   bands (ev):

   -55.3531 -55.3501 -55.3045 -55.3041 -55.2357 -55.2309 -55.2258 -55.2128
   -55.1748 -55.1709 -55.1687 -55.1343 -55.1335 -55.0888 -54.3319 -54.3317
   -31.7416 -31.7392 -31.7235 -31.6449 -31.6274 -31.6271 -31.6232 -31.5956
   -31.5954 -31.5649 -31.5551 -31.5492 -31.5422 -31.5408 -31.5391 -31.5018
   -31.5007 -31.4986 -31.4918 -31.4885 -31.4703 -31.4661 -31.4504 -31.4407
   -31.4391 -31.4386 -31.4340 -31.4315 -31.4263 -31.4260 -31.4074 -31.4037
   -31.4036 -31.4016 -31.3991 -31.3547 -31.3305 -31.3284 -31.3150 -31.3146
   -31.3032 -31.2812 -30.6529 -30.6526 -30.5710 -30.5707 -30.5313 -30.5312
   -16.9865 -15.8004 -15.6944 -15.5673 -15.5025 -15.4664 -15.3656 -15.3567
   -15.2504 -15.2359 -15.2194 -15.1899 -15.1435 -15.1183 -14.9740 -14.9649
   -14.9606 -14.9513 -14.8663 -14.8504 -14.8297 -14.8050 -14.7884 -14.7735
   -14.7717 -14.7199 -14.7082 -14.6608 -14.6599 -14.6565 -14.5441 -12.8362
   -12.8362  -8.1797  -4.9693  -4.8951  -4.3255  -3.0265  -2.9070  -2.8933
    -2.8786  -2.8432  -2.8079  -2.7908  -2.7851  -2.7501  -2.6886  -2.6541
    -2.6422  -2.6403  -2.5607  -2.5445  -2.5146  -2.5106  -2.4776  -2.4171
    -2.3633  -2.3269  -2.3119  -2.2481  -2.2231  -2.2103  -2.1920  -2.1826
    -2.0289  -1.9971  -1.9601  -1.9447  -1.8572  -1.7988  -1.7292  -1.6886
    -1.5051  -1.4657  -1.4123  -1.2790  -1.2507  -1.1504  -1.1337  -1.1257
    -1.0260  -0.8780  -0.8671  -0.8605  -0.8284  -0.8106  -0.7710  -0.7549
    -0.7442  -0.7331  -0.5983  -0.5866  -0.5286  -0.4088  -0.3989  -0.2317
    -0.1606  -0.1287  -0.1046  -0.0640  -0.0020   0.0067   0.0216   0.0239
     0.0371   0.0828   0.1405   0.1533   0.1645   0.2193   0.2335   0.2544
     0.2776   0.2992   0.3196   0.3775   0.4199   0.4209   0.4507   0.4541
     0.5304   0.7763   0.8439   0.8470   0.8485   0.9998   1.0796   1.1962
     1.2079   1.9996   1.9998   2.1402   2.1402   3.9944   4.0026   4.0305
     4.0490   4.0965   4.1203   4.2124   4.2137   4.3126   4.3246   4.3311

          k = 0.0380 0.0000 0.0000 ( 17913 PWs)   bands (ev):

   -55.3696 -55.3336 -55.3213 -55.2872 -55.2458 -55.2401 -55.2154 -55.2110
   -55.1868 -55.1704 -55.1526 -55.1509 -55.1171 -55.0863 -54.3488 -54.3148
   -31.9375 -31.8146 -31.8038 -31.7393 -31.6807 -31.6799 -31.6720 -31.6564
   -31.6101 -31.6005 -31.5703 -31.5659 -31.5610 -31.5394 -31.5243 -31.5185
   -31.4995 -31.4821 -31.4791 -31.4716 -31.4637 -31.4594 -31.4414 -31.4348
   -31.4239 -31.4173 -31.3976 -31.3895 -31.3784 -31.3757 -31.3615 -31.3568
   -31.3497 -31.3479 -31.3425 -31.3365 -31.2996 -31.2907 -31.2846 -31.2788
   -31.2622 -31.2103 -30.7577 -30.6678 -30.6401 -30.5745 -30.4878 -30.3767
   -16.9928 -16.1132 -15.8383 -15.7653 -15.6272 -15.4664 -15.4489 -15.4268
   -15.3110 -15.2049 -15.1420 -15.1272 -15.0894 -15.0727 -15.0600 -15.0378
   -15.0020 -14.9601 -14.8723 -14.8497 -14.8409 -14.8014 -14.7688 -14.7242
   -14.7182 -14.6804 -14.6214 -14.5983 -14.5897 -14.5419 -14.1614 -12.8484
   -12.7340  -8.1788  -4.9755  -4.8945  -4.2995  -3.4227  -3.2414  -3.1547
    -3.1436  -3.0631  -3.0093  -2.9696  -2.9414  -2.9021  -2.8493  -2.7589
    -2.7100  -2.6959  -2.5312  -2.5102  -2.4417  -2.4126  -2.3010  -2.2752
    -2.1535  -2.1365  -2.1088  -2.0632  -2.0187  -2.0033  -1.9565  -1.9342
    -1.8919  -1.7511  -1.7463  -1.7208  -1.6917  -1.6606  -1.6167  -1.6105
    -1.5570  -1.5275  -1.4539  -1.4289  -1.4062  -1.3320  -1.3019  -1.1722
    -1.1152  -1.0273  -0.9986  -0.9689  -0.8908  -0.8653  -0.8198  -0.7820
    -0.7571  -0.7217  -0.7084  -0.6845  -0.4568  -0.4075  -0.3408  -0.2879
    -0.2578  -0.2477  -0.2263  -0.1999  -0.0672  -0.0295  -0.0142   0.0282
     0.0485   0.0697   0.1322   0.1721   0.1928   0.2740   0.3045   0.3313
     0.3729   0.3856   0.4034   0.4549   0.4928   0.5889   0.6033   0.6279
     0.6676   0.6943   0.7816   0.8335   0.9354   1.0753   1.2967   1.4425
     1.5857   1.6855   1.8263   2.1370   2.2149   3.7454   3.8328   3.9974
     4.0355   4.0546   4.1236   4.1643   4.1719   4.2179   4.2220   4.2423

          k = 0.0380 0.0419 0.0000 ( 17878 PWs)   bands (ev):

   -55.3643 -55.3389 -55.3163 -55.2922 -55.2408 -55.2379 -55.2160 -55.2141
   -55.1818 -55.1725 -55.1576 -55.1459 -55.1221 -55.0876 -54.3438 -54.3198
   -31.8803 -31.7670 -31.7606 -31.6855 -31.6668 -31.6278 -31.6228 -31.6142
   -31.6116 -31.6052 -31.5944 -31.5609 -31.5584 -31.5527 -31.5409 -31.5107
   -31.5060 -31.4919 -31.4764 -31.4701 -31.4622 -31.4582 -31.4514 -31.4341
   -31.4316 -31.4129 -31.4035 -31.4002 -31.3937 -31.3917 -31.3863 -31.3786
   -31.3665 -31.3533 -31.3429 -31.3398 -31.3388 -31.3362 -31.3155 -31.2895
   -31.2878 -31.2523 -30.7036 -30.6636 -30.6441 -30.5619 -30.5005 -30.4340
   -16.9894 -15.9898 -15.7285 -15.6974 -15.5318 -15.4095 -15.3878 -15.3549
   -15.2856 -15.2392 -15.1678 -15.1209 -15.1053 -15.0439 -15.0376 -15.0147
   -14.9905 -14.9313 -14.9175 -14.8910 -14.8417 -14.8374 -14.8087 -14.7823
   -14.7387 -14.7291 -14.6908 -14.6583 -14.6464 -14.5958 -14.2919 -12.8530
   -12.7738  -8.1794  -4.9728  -4.8947  -4.3106  -3.2466  -3.0912  -3.0509
    -2.9805  -2.9693  -2.8548  -2.8024  -2.7899  -2.7272  -2.7096  -2.6254
    -2.6064  -2.5479  -2.4612  -2.4418  -2.4046  -2.3680  -2.3376  -2.3013
    -2.2629  -2.2224  -2.1837  -2.1590  -2.1354  -2.1179  -2.0644  -2.0605
    -1.9972  -1.9573  -1.9183  -1.8759  -1.7895  -1.7663  -1.7485  -1.6685
    -1.5967  -1.5538  -1.4305  -1.3733  -1.3557  -1.2363  -1.1796  -1.1494
    -1.0749  -0.9779  -0.9106  -0.8536  -0.8277  -0.7755  -0.7451  -0.7141
    -0.7022  -0.6516  -0.6165  -0.5473  -0.5015  -0.4537  -0.4439  -0.3383
    -0.3084  -0.2944  -0.2515  -0.1943  -0.1520  -0.1245  -0.0723  -0.0640
    -0.0381  -0.0054   0.0129   0.0472   0.0601   0.1088   0.1894   0.2087
     0.2742   0.2927   0.3612   0.3845   0.4544   0.5446   0.6017   0.6621
     0.7275   0.7715   0.7895   0.8806   0.9322   1.0524   1.0671   1.2283
     1.4113   1.8682   1.9371   2.1266   2.1898   3.9143   3.9283   3.9596
     4.0705   4.0768   4.1404   4.1646   4.2361   4.2546   4.3014   4.3191

          k = 0.0380-0.0839 0.0000 ( 17916 PWs)   bands (ev):

   -55.3532 -55.3501 -55.3045 -55.3041 -55.2356 -55.2310 -55.2258 -55.2129
   -55.1748 -55.1708 -55.1686 -55.1344 -55.1336 -55.0889 -54.3320 -54.3317
   -31.7419 -31.7394 -31.7238 -31.6451 -31.6282 -31.6279 -31.6233 -31.5957
   -31.5954 -31.5682 -31.5651 -31.5619 -31.5559 -31.5140 -31.5114 -31.5056
   -31.5015 -31.4985 -31.4979 -31.4949 -31.4679 -31.4654 -31.4452 -31.4422
   -31.4406 -31.4394 -31.4256 -31.4253 -31.4138 -31.4125 -31.4107 -31.4073
   -31.4035 -31.4015 -31.4012 -31.3597 -31.3423 -31.3402 -31.3151 -31.3146
   -31.3027 -31.2865 -30.6539 -30.6537 -30.5709 -30.5707 -30.5313 -30.5312
   -16.9862 -15.7577 -15.6499 -15.5516 -15.4565 -15.4513 -15.3156 -15.3089
   -15.2381 -15.2283 -15.2160 -15.1785 -15.1026 -15.0755 -14.9924 -14.9882
   -14.9520 -14.9419 -14.9356 -14.9250 -14.8575 -14.8426 -14.8402 -14.8024
   -14.7968 -14.7399 -14.7290 -14.7108 -14.7095 -14.6423 -14.5328 -12.8360
   -12.8360  -8.1801  -4.9702  -4.8961  -4.3224  -3.0079  -2.8960  -2.8614
    -2.8410  -2.8117  -2.6529  -2.6244  -2.6129  -2.5727  -2.5506  -2.5282
    -2.4714  -2.4668  -2.4468  -2.4441  -2.4316  -2.4121  -2.4002  -2.3427
    -2.3363  -2.2891  -2.2707  -2.2474  -2.2209  -2.1973  -2.1235  -2.0899
    -2.0492  -2.0325  -1.9712  -1.9481  -1.8703  -1.7904  -1.6191  -1.5686
    -1.5106  -1.4455  -1.3672  -1.3276  -1.3060  -1.2928  -1.2268  -1.2183
    -1.1160  -1.1042  -1.0489  -1.0449  -1.0038  -0.9308  -0.8724  -0.8291
    -0.7820  -0.7056  -0.6812  -0.6322  -0.6005  -0.4336  -0.3909  -0.3636
    -0.3359  -0.2826  -0.2211  -0.1837  -0.1658  -0.1616  -0.1377  -0.0686
    -0.0146  -0.0088  -0.0016   0.0220   0.0761   0.1038   0.1316   0.1568
     0.1757   0.3455   0.3665   0.3873   0.4156   0.5308   0.5724   0.6959
     0.7007   0.7513   0.7673   0.8677   0.8762   0.9611   1.0026   1.1870
     1.1966   2.0130   2.0132   2.1306   2.1312   3.8929   3.9859   4.0177
     4.0464   4.1137   4.1531   4.1890   4.2042   4.3201   4.3356   4.3811

          k = 0.0380-0.0419 0.0000 ( 17876 PWs)   bands (ev):

   -55.3643 -55.3389 -55.3163 -55.2922 -55.2408 -55.2379 -55.2160 -55.2141
   -55.1818 -55.1725 -55.1576 -55.1459 -55.1221 -55.0876 -54.3438 -54.3198
   -31.8803 -31.7669 -31.7606 -31.6855 -31.6668 -31.6278 -31.6229 -31.6142
   -31.6115 -31.6052 -31.5944 -31.5609 -31.5585 -31.5526 -31.5410 -31.5107
   -31.5059 -31.4919 -31.4764 -31.4698 -31.4622 -31.4582 -31.4514 -31.4342
   -31.4317 -31.4129 -31.4034 -31.4011 -31.3937 -31.3917 -31.3862 -31.3786
   -31.3667 -31.3526 -31.3427 -31.3399 -31.3387 -31.3362 -31.3155 -31.2895
   -31.2882 -31.2521 -30.7036 -30.6636 -30.6441 -30.5619 -30.5005 -30.4340
   -16.9894 -15.9901 -15.7294 -15.6969 -15.5310 -15.4086 -15.3875 -15.3549
   -15.2860 -15.2387 -15.1672 -15.1229 -15.1068 -15.0448 -15.0371 -15.0153
   -14.9873 -14.9337 -14.9175 -14.8906 -14.8400 -14.8373 -14.8087 -14.7821
   -14.7390 -14.7302 -14.6901 -14.6582 -14.6468 -14.5961 -14.2915 -12.8530
   -12.7738  -8.1793  -4.9725  -4.8962  -4.3120  -3.2466  -3.0926  -3.0439
    -2.9809  -2.9641  -2.8544  -2.8030  -2.7930  -2.7381  -2.7070  -2.6260
    -2.6076  -2.5456  -2.4602  -2.4369  -2.4045  -2.3655  -2.3393  -2.3013
    -2.2633  -2.2222  -2.1863  -2.1602  -2.1303  -2.1141  -2.0654  -2.0601
    -1.9957  -1.9582  -1.9213  -1.8768  -1.8057  -1.7728  -1.7471  -1.6666
    -1.5889  -1.5510  -1.4300  -1.3712  -1.3560  -1.2360  -1.1827  -1.1467
    -1.0758  -0.9757  -0.9124  -0.8508  -0.8233  -0.7787  -0.7464  -0.7140
    -0.6980  -0.6470  -0.6170  -0.5482  -0.4966  -0.4536  -0.4420  -0.3388
    -0.3110  -0.2952  -0.2535  -0.1872  -0.1450  -0.1282  -0.0762  -0.0641
    -0.0374  -0.0058   0.0130   0.0355   0.0658   0.1099   0.1873   0.2120
     0.2797   0.2940   0.3606   0.3782   0.4566   0.5437   0.5995   0.6586
     0.7283   0.7694   0.7920   0.8740   0.9258   1.0521   1.0674   1.2286
     1.4117   1.8682   1.9371   2.1264   2.1904   3.9091   3.9306   3.9558
     4.0693   4.0807   4.1414   4.1623   4.2378   4.2574   4.3018   4.3208

          k =-0.0760-0.0000 0.0000 ( 17886 PWs)   bands (ev):

   -55.3695 -55.3336 -55.3213 -55.2872 -55.2458 -55.2399 -55.2155 -55.2110
   -55.1866 -55.1704 -55.1526 -55.1510 -55.1171 -55.0863 -54.3488 -54.3148
   -31.9376 -31.8156 -31.8040 -31.7444 -31.6846 -31.6806 -31.6743 -31.6567
   -31.6099 -31.6005 -31.5703 -31.5659 -31.5394 -31.5365 -31.5242 -31.5180
   -31.4940 -31.4819 -31.4683 -31.4668 -31.4594 -31.4561 -31.4348 -31.4293
   -31.4238 -31.4176 -31.4140 -31.3916 -31.3895 -31.3786 -31.3755 -31.3532
   -31.3499 -31.3481 -31.3429 -31.3398 -31.2987 -31.2933 -31.2844 -31.2787
   -31.2630 -31.2104 -30.7573 -30.6712 -30.6388 -30.5744 -30.4877 -30.3768
   -16.9920 -15.9871 -15.8535 -15.6824 -15.5686 -15.4335 -15.4215 -15.3988
   -15.2697 -15.2242 -15.2195 -15.1766 -15.1579 -15.1427 -15.1212 -15.0820
   -15.0771 -14.9877 -14.8504 -14.8414 -14.8206 -14.7906 -14.7741 -14.7689
   -14.7361 -14.6952 -14.6418 -14.6129 -14.5310 -14.5016 -14.1610 -12.8453
   -12.7337  -8.1789  -4.9760  -4.8944  -4.2819  -3.3913  -3.2168  -3.0976
    -3.0730  -3.0050  -2.9231  -2.8648  -2.8507  -2.8425  -2.7624  -2.7389
    -2.6765  -2.6145  -2.5983  -2.4861  -2.4330  -2.2984  -2.2262  -2.2078
    -2.1096  -2.0662  -2.0058  -1.9742  -1.9239  -1.9068  -1.9029  -1.8604
    -1.8494  -1.7786  -1.7293  -1.7193  -1.6920  -1.6880  -1.6700  -1.6571
    -1.6522  -1.5726  -1.4705  -1.4383  -1.3355  -1.2264  -1.1789  -1.0593
    -1.0581  -1.0070  -0.9966  -0.9776  -0.9509  -0.9332  -0.8921  -0.8597
    -0.8074  -0.7845  -0.7036  -0.6771  -0.6570  -0.6372  -0.5643  -0.3182
    -0.3092  -0.2925  -0.2548  -0.2402  -0.1312  -0.0795  -0.0593  -0.0419
     0.0140   0.0386   0.0769   0.1343   0.1392   0.1598   0.2218   0.2403
     0.2929   0.3195   0.3795   0.4276   0.4344   0.4795   0.5083   0.6020
     0.6155   0.6523   0.7613   0.8991   0.9082   1.1213   1.1651   1.3216
     1.5905   1.7069   1.8014   2.0068   2.1599   3.7459   3.7898   3.8727
     4.0031   4.0419   4.1141   4.1641   4.1796   4.2192   4.2475   4.3075

          k =-0.0760 0.0419 0.0000 ( 17914 PWs)   bands (ev):

   -55.3643 -55.3389 -55.3163 -55.2922 -55.2408 -55.2378 -55.2160 -55.2142
   -55.1816 -55.1725 -55.1576 -55.1461 -55.1221 -55.0876 -54.3438 -54.3198
   -31.8806 -31.7672 -31.7616 -31.6917 -31.6669 -31.6321 -31.6262 -31.6147
   -31.6117 -31.6052 -31.5944 -31.5611 -31.5582 -31.5411 -31.5357 -31.5104
   -31.4968 -31.4922 -31.4765 -31.4622 -31.4556 -31.4536 -31.4482 -31.4315
   -31.4175 -31.4158 -31.4138 -31.4028 -31.3981 -31.3941 -31.3913 -31.3889
   -31.3570 -31.3528 -31.3522 -31.3439 -31.3407 -31.3391 -31.3162 -31.2920
   -31.2895 -31.2523 -30.7034 -30.6665 -30.6434 -30.5619 -30.5006 -30.4340
   -16.9890 -15.8700 -15.7738 -15.6038 -15.4774 -15.3977 -15.3362 -15.3192
   -15.2846 -15.1926 -15.1605 -15.1572 -15.1393 -15.1048 -15.0968 -15.0663
   -15.0594 -14.9841 -14.9181 -14.9086 -14.8411 -14.8290 -14.8226 -14.7933
   -14.7567 -14.7428 -14.7250 -14.6566 -14.6190 -14.6085 -14.2917 -12.8508
   -12.7742  -8.1796  -4.9733  -4.8960  -4.3018  -3.2245  -3.0714  -3.0149
    -2.9725  -2.7642  -2.7466  -2.6639  -2.6404  -2.6329  -2.5739  -2.5542
    -2.5141  -2.5002  -2.4151  -2.3984  -2.3778  -2.3168  -2.3032  -2.2919
    -2.2386  -2.1857  -2.1543  -2.0892  -2.0541  -2.0458  -1.9644  -1.9456
    -1.9224  -1.9208  -1.9155  -1.8588  -1.8417  -1.8201  -1.6687  -1.5785
    -1.5461  -1.5345  -1.5028  -1.4295  -1.3319  -1.1475  -1.1335  -1.1015
    -1.0914  -0.9949  -0.9766  -0.9532  -0.9369  -0.8633  -0.7781  -0.7724
    -0.7525  -0.7262  -0.6793  -0.6373  -0.6306  -0.6104  -0.5754  -0.5518
    -0.5081  -0.4532  -0.4350  -0.3433  -0.3119  -0.2581  -0.1731  -0.1623
    -0.1362  -0.1059  -0.0651  -0.0372  -0.0204   0.0861   0.1207   0.1705
     0.2048   0.3305   0.3638   0.3964   0.4523   0.5442   0.6109   0.6487
     0.7249   0.8348   0.8685   0.9063   0.9882   1.0500   1.1296   1.1483
     1.2890   1.8834   1.9393   2.0488   2.1790   3.9073   3.9274   3.9473
     3.9593   4.0381   4.0836   4.1327   4.1888   4.2558   4.2924   4.3593

          k =-0.0760-0.0839 0.0000 ( 17948 PWs)   bands (ev):

   -55.3531 -55.3501 -55.3045 -55.3041 -55.2355 -55.2310 -55.2259 -55.2130
   -55.1749 -55.1707 -55.1685 -55.1345 -55.1337 -55.0889 -54.3320 -54.3317
   -31.7422 -31.7397 -31.7240 -31.6453 -31.6290 -31.6287 -31.6235 -31.5957
   -31.5955 -31.5762 -31.5696 -31.5653 -31.5567 -31.5088 -31.5039 -31.5019
   -31.5006 -31.5002 -31.4944 -31.4896 -31.4677 -31.4640 -31.4434 -31.4418
   -31.4406 -31.4359 -31.4245 -31.4242 -31.4239 -31.4182 -31.4036 -31.4016
   -31.3983 -31.3840 -31.3814 -31.3659 -31.3633 -31.3631 -31.3151 -31.3146
   -31.3019 -31.2930 -30.6549 -30.6547 -30.5708 -30.5706 -30.5314 -30.5312
   -16.9860 -15.6969 -15.5949 -15.5762 -15.3843 -15.3679 -15.3364 -15.3324
   -15.1806 -15.1513 -15.1436 -15.1261 -15.0777 -15.0697 -15.0641 -15.0522
   -14.9734 -14.9625 -14.9604 -14.9432 -14.8822 -14.8722 -14.8692 -14.8594
   -14.8438 -14.8169 -14.8133 -14.7196 -14.7166 -14.6316 -14.5244 -12.8358
   -12.8358  -8.1804  -4.9712  -4.8970  -4.3198  -2.9948  -2.8931  -2.8523
    -2.8404  -2.8011  -2.5962  -2.5640  -2.5356  -2.4787  -2.4112  -2.3696
    -2.3593  -2.3392  -2.2797  -2.2312  -2.2265  -2.2085  -2.1884  -2.1865
    -2.1630  -2.1357  -2.0955  -2.0854  -2.0663  -2.0481  -2.0193  -1.9999
    -1.9714  -1.9530  -1.9308  -1.9242  -1.8152  -1.8013  -1.7249  -1.6908
    -1.6347  -1.5714  -1.5663  -1.4690  -1.4618  -1.4049  -1.3955  -1.3787
    -1.2598  -1.1743  -1.1201  -1.1090  -1.1014  -0.9903  -0.9398  -0.9096
    -0.8750  -0.8518  -0.7737  -0.7105  -0.6903  -0.6500  -0.5743  -0.5643
    -0.5045  -0.3916  -0.3618  -0.3411  -0.3238  -0.3182  -0.2645  -0.2527
    -0.1797  -0.1338  -0.0999  -0.0894  -0.0534  -0.0120   0.1570   0.1691
     0.2095   0.3244   0.3840   0.4980   0.5726   0.5872   0.6668   0.7017
     0.7452   0.8057   0.8967   0.9384   0.9429   1.0216   1.0472   1.0897
     1.0979   2.0307   2.0310   2.1176   2.1178   3.8672   3.9806   3.9903
     4.0369   4.1368   4.1614   4.2485   4.2677   4.3148   4.3165   4.3856

     the Fermi energy is     3.7917 ev

!    total energy              =   -2940.42014941 Ry
     estimated scf accuracy    <       0.00000005 Ry
     smearing contrib. (-TS)   =      -0.03734260 Ry
     internal energy E=F+TS    =   -2940.38280680 Ry

     The total energy is F=E-TS. E is the sum of the following terms:
     one-electron contribution =  -23616.91706379 Ry
     hartree contribution      =   11900.30663858 Ry
     xc contribution           =    -485.96823944 Ry
     ewald contribution        =    9262.19262406 Ry
     electric field correction =       0.00323380 Ry

     convergence has been achieved in  76 iterations

     Forces acting on atoms (cartesian axes, Ry/au):

     atom    1 type  1   force =     0.00014133   -0.00015047    0.09349330
     atom    2 type  1   force =    -0.00005253   -0.00032411   -0.17807395
     atom    3 type  2   force =     0.00009680   -0.00033436   -0.02052819
     atom    4 type  2   force =     0.00002628   -0.00190139    0.05839861
     atom    5 type  2   force =    -0.01038426   -0.00109164    0.00771497
     atom    6 type  2   force =     0.01183861   -0.00048044    0.00666823
     atom    7 type  1   force =    -0.00029109    0.00214060   -0.01418190
     atom    8 type  1   force =     0.00033075    0.00049745   -0.00325654
     atom    9 type  2   force =    -0.00006621    0.00009290   -0.00002856
     atom   10 type  2   force =    -0.00246741    0.00082005    0.00005629
     atom   11 type  2   force =    -0.00018434   -0.00028350    0.00029612
     atom   12 type  2   force =    -0.00010922   -0.00013763   -0.00056651
     atom   13 type  1   force =    -0.00001742   -0.00006869   -0.00000815
     atom   14 type  1   force =     0.00009026    0.00018306    0.00007401
     atom   15 type  2   force =     0.00029601    0.00005040   -0.00025788
     atom   16 type  2   force =     0.00028018   -0.00000569   -0.00004192
     atom   17 type  2   force =     0.00016877   -0.00016662   -0.00050103
     atom   18 type  2   force =     0.00022552    0.00031700   -0.00005274
     atom   19 type  1   force =    -0.00003299    0.00006383   -0.00005473
     atom   20 type  1   force =    -0.00063320    0.00034637   -0.00024843
     atom   21 type  2   force =     0.00010197    0.00000359    0.10392739
     atom   22 type  2   force =     0.00047542    0.00047156    0.00011055
     atom   23 type  2   force =    -0.07041064   -0.00011462   -0.02694228
     atom   24 type  2   force =     0.07039010    0.00035249   -0.02699181
     atom   25 type  1   force =     0.00020152   -0.00015793    0.09278440
     atom   26 type  1   force =    -0.00009781   -0.00030235   -0.17828108
     atom   27 type  2   force =     0.00012955   -0.00023804   -0.01952796
     atom   28 type  2   force =     0.00007360   -0.00167596    0.05797959
     atom   29 type  2   force =    -0.01079384   -0.00122358    0.00798833
     atom   30 type  2   force =     0.01213597   -0.00083839    0.00702660
     atom   31 type  1   force =    -0.00034808    0.00574691   -0.01493731
     atom   32 type  1   force =     0.00039162   -0.00107010   -0.00338363
     atom   33 type  2   force =    -0.00030894    0.00005280   -0.00020829
     atom   34 type  2   force =    -0.00155330   -0.00229919    0.00038738
     atom   35 type  2   force =    -0.00008715    0.00013592   -0.00003522
     atom   36 type  2   force =     0.00010730    0.00009871    0.00012151
     atom   37 type  1   force =     0.00024519   -0.00002726   -0.00004653
     atom   38 type  1   force =     0.00004908    0.00013203   -0.00015100
     atom   39 type  2   force =     0.00010705    0.00017685    0.00008729
     atom   40 type  2   force =     0.00014333    0.00001331   -0.00002373
     atom   41 type  2   force =    -0.00002022    0.00019363    0.00000315
     atom   42 type  2   force =     0.00039813    0.00002535    0.00016815
     atom   43 type  1   force =    -0.00026828    0.00019152    0.00030204
     atom   44 type  1   force =    -0.00021809   -0.00028280   -0.00013130
     atom   45 type  2   force =     0.00009739   -0.00002360    0.10385812
     atom   46 type  2   force =    -0.07040228   -0.00004965   -0.02692505
     atom   47 type  2   force =     0.07035937    0.00036658   -0.02695298
     atom   48 type  3   force =    -0.00101092    0.00061866   -0.00008726
     atom   49 type  4   force =     0.00051803    0.00046106    0.00010768
     atom   50 type  5   force =     0.00029162   -0.00034767   -0.00003076
     atom   51 type  3   force =     0.00162798   -0.00521466    0.00668005
     atom   52 type  5   force =     0.00050382   -0.00083068    0.00027348
     atom   53 type  5   force =     0.00115141    0.00044823    0.00082955
     atom   54 type  5   force =    -0.00323570    0.00564015   -0.00688003

     Total force =     0.366258     Total SCF correction =     0.000703
  @ DRIVER MODE: Message from server: STATUS
  @ DRIVER MODE: Message from server: GETFORCE
  @ DRIVER MODE: Returning v,forces,stress,ensemble 

     Writing output data file ./calc.save/
  @ DRIVER MODE: Message from server: EXIT
  @ DRIVE MODE: Exiting  
 
     init_run     :     17.64s CPU     17.97s WALL (       1 calls)
     electrons    :   1800.36s CPU   1839.24s WALL (       1 calls)
     forces       :      3.70s CPU      3.85s WALL (       1 calls)

     Called by init_run:
     wfcinit      :      7.75s CPU      7.84s WALL (       1 calls)
     potinit      :      8.89s CPU      8.98s WALL (       1 calls)
     hinit0       :      0.48s CPU      0.50s WALL (       1 calls)

     Called by electrons:
     c_bands      :   1495.20s CPU   1514.35s WALL (      76 calls)
     sum_band     :    206.81s CPU    216.26s WALL (      76 calls)
     v_of_rho     :     73.54s CPU     76.11s WALL (      77 calls)
     newd         :     29.84s CPU     37.53s WALL (      77 calls)
     mix_rho      :      2.75s CPU      2.82s WALL (      76 calls)
     vdW_kernel   :      7.57s CPU      7.59s WALL (       1 calls)

     Called by c_bands:
     init_us_2    :     10.87s CPU     10.91s WALL (    1540 calls)
     cegterg      :   1462.10s CPU   1480.71s WALL (     772 calls)

     Called by *egterg:
     cdiaghg      :    181.73s CPU    182.46s WALL (    7154 calls)
     h_psi        :    845.73s CPU    857.63s WALL (    7164 calls)
     s_psi        :    110.98s CPU    111.30s WALL (    7164 calls)
     g_psi        :      2.96s CPU      2.97s WALL (    6382 calls)

     Called by h_psi:
     h_psi:calbec :    103.21s CPU    104.41s WALL (    7164 calls)
     vloc_psi     :    627.51s CPU    632.67s WALL (    7164 calls)
     add_vuspsi   :    111.20s CPU    113.45s WALL (    7164 calls)

     General routines
     calbec       :    138.23s CPU    139.54s WALL (    7964 calls)
     fft          :     39.73s CPU     39.90s WALL (    4851 calls)
     ffts         :      0.26s CPU      0.26s WALL (     153 calls)
     fftw         :    700.02s CPU    705.70s WALL (  980700 calls)
     interpolate  :      0.75s CPU      0.76s WALL (      77 calls)
     davcio       :      0.00s CPU      0.20s WALL (      10 calls)
 
     Parallel routines
 
     PWSCF        :  30m21.94s CPU  31m 1.72s WALL

 
   This run was terminated on:  10:27:41  24Aug2021            

=------------------------------------------------------------------------------=
   JOB DONE.
=------------------------------------------------------------------------------=
