
     Program PWSCF v.6.7GPU starts on 12Oct2021 at 22: 4:54 

     This program is part of the open-source Quantum ESPRESSO suite
     for quantum simulation of materials; please cite
         "P. Giannozzi et al., J. Phys.:Condens. Matter 21 395502 (2009);
         "P. Giannozzi et al., J. Phys.:Condens. Matter 29 465901 (2017);
         "P. Giannozzi et al., J. Chem. Phys. 152 154105 (2020);
          URL http://www.quantum-espresso.org", 
     in publications or presentations arising from this work. More details at
     http://www.quantum-espresso.org/quote

     Parallel version (MPI), running on     8 processors

     MPI processes distributed on     1 nodes
     R & G space division:  proc/nbgrp/npool/nimage =       8
     Reading input from /storage/home/hcoda1/3/ntian30/research/carbon/ACS_vib/ads_slab/HNNH/out_0019/pw.inp
Warning: card &CELL ignored
Warning: card   CELL_DYNAMICS='IPI', ignored
Warning: card / ignored

     Current dimensions of program PWSCF are:
     Max number of different atomic species (ntypx) = 10
     Max number of k-points (npk) =  40000
     Max angular momentum in pseudopotentials (lmaxx) =  3
     Presently no symmetry can be used with electric field

     Message from routine cell_base_init:
     DEPRECATED: use true lattice parameter, not A to a.u. conversion factor

     **************************************************************************
     Initializing libbeef V0.1.2 with the BEEF-vdW functional.
     Citation: Wellendorff et al., PRB 85, 235149 (2012).
     **************************************************************************


     IMPORTANT: XC functional enforced from input :
     Exchange-correlation= BEEF-VDW
                           (   1   4  43  14   2   0   0)
     Any further DFT definition will be discarded
     Please, verify this is what you really want


     Subspace diagonalization in iterative solution of the eigenvalue problem:
     one sub-group per band group will be used
     scalapack distributed-memory algorithm (size of sub-group:  2*  2 procs)

  @ DRIVER MODE: Connecting to 
 qe_1139763_3181311.sched-torque.pace.gatech.educw88aeqt_scratch
  using UNIX socket
  @ DRIVER MODE: Message from server: STATUS
  @ DRIVER MODE: Message from server: INIT
  @ DRIVER MODE: Receiving replica           0          -1
  @ DRIVER MODE: Receiving encoded integer          25
  @ DRIVER MODE:  SCF:  T  FORCE:  T  STRESS:  F  VC:  F  ENSEMBLE:  F
  @ DRIVER MODE:  SCF:  T  FORCE:  T  STRESS:  F  VC:  F  ENSEMBLE:  F
 
     Parallelization info
     --------------------
     sticks:   dense  smooth     PW     G-vecs:    dense   smooth      PW
     Min         409     164     47                70857    17926    2743
     Max         411     165     48                70858    17931    2751
     Sum        3275    1317    379               566857   143421   21985
 
     Using Slab Decomposition
 


     bravais-lattice index     =            0
     lattice parameter (alat)  =       1.8897  a.u.
     unit-cell volume          =    6658.9804 (a.u.)^3
     number of atoms/cell      =           51
     number of atomic types    =            4
     number of electrons       =       390.00
     number of Kohn-Sham states=          205
     kinetic-energy cutoff     =      29.3995  Ry
     charge density cutoff     =     293.9946  Ry
     scf convergence threshold =      7.3E-08
     mixing beta               =       0.0500
     number of iterations used =            8  plain     mixing
     Exchange-correlation= BEEF-VDW
                           (   1   4  43  14   2   0   0)

     celldm(1)=   1.889726  celldm(2)=   0.000000  celldm(3)=   0.000000
     celldm(4)=   0.000000  celldm(5)=   0.000000  celldm(6)=   0.000000

     crystal axes: (cart. coord. in units of alat)
               a(1) = (   6.579727   0.000000   0.000000 )  
               a(2) = (  -0.000775   5.961596   0.000000 )  
               a(3) = (   0.000000   0.000000  25.155947 )  

     reciprocal axes: (cart. coord. in units 2 pi/alat)
               b(1) = (  0.151982  0.000020  0.000000 )  
               b(2) = (  0.000000  0.167740  0.000000 )  
               b(3) = (  0.000000  0.000000  0.039752 )  


     PseudoPot. # 1 for Ti read from file:
     /storage/coda1/p-amedford6/0/shared/rich_project_chbe-medford/medford-share/data/pseudos_module/espresso/nninc/pbe/van/Ti.UPF
     MD5 check sum: 8e4df49b7f0d34bbd5052bf3f5ea0213
     Pseudo is Ultrasoft, Zval = 12.0
     Generated by new atomic code, or converted to UPF format
     Using radial grid of  851 points,  6 beta functions with: 
                l(1) =   0
                l(2) =   0
                l(3) =   1
                l(4) =   1
                l(5) =   2
                l(6) =   2
     Q(r) pseudized with  8 coefficients,  rinner =    1.000   1.000   1.000
                                                       1.000   1.000

     PseudoPot. # 2 for O  read from file:
     /storage/coda1/p-amedford6/0/shared/rich_project_chbe-medford/medford-share/data/pseudos_module/espresso/nninc/pbe/van/O.UPF
     MD5 check sum: 78c19812648e8988a0fe644b0f25305e
     Pseudo is Ultrasoft, Zval =  6.0
     Generated by new atomic code, or converted to UPF format
     Using radial grid of  737 points,  4 beta functions with: 
                l(1) =   0
                l(2) =   0
                l(3) =   1
                l(4) =   1
     Q(r) pseudized with  8 coefficients,  rinner =    0.800   0.800   0.800


     PseudoPot. # 3 for H  read from file:
     /storage/coda1/p-amedford6/0/shared/rich_project_chbe-medford/medford-share/data/pseudos_module/espresso/nninc/pbe/van/H.UPF
     MD5 check sum: b5ee9d7bfd3a09ee7748110bda690ff7
     Pseudo is Ultrasoft, Zval =  1.0
     Generated by new atomic code, or converted to UPF format
     Using radial grid of  615 points,  1 beta functions with: 
                l(1) =   0
     Q(r) pseudized with  8 coefficients,  rinner =    0.800

     PseudoPot. # 4 for N  read from file:
     /storage/coda1/p-amedford6/0/shared/rich_project_chbe-medford/medford-share/data/pseudos_module/espresso/nninc/pbe/van/N.UPF
     MD5 check sum: 90d10febe142ad51ac9d5be1deb811c4
     Pseudo is Ultrasoft, Zval =  5.0
     Generated by new atomic code, or converted to UPF format
     Using radial grid of  729 points,  4 beta functions with: 
                l(1) =   0
                l(2) =   0
                l(3) =   1
                l(4) =   1
     Q(r) pseudized with  8 coefficients,  rinner =    0.800   0.800   0.800


     atomic species   valence    mass     pseudopotential
        Ti1           12.00    47.86700     Ti( 1.00)
        O1             6.00    15.99900     O ( 1.00)
        H1             1.00     1.00800     H ( 1.00)
        N1             5.00    14.00700     N ( 1.00)

     No symmetry found



   Cartesian axes

     site n.     atom                  positions (alat units)
         1           Ti1 tau(   1) = (   0.0004258   2.9801865   6.0000000  )
         2           Ti1 tau(   2) = (   3.2906075   1.4906267   6.0002472  )
         3           O1  tau(   3) = (   0.0006271   0.0005054   7.9858123  )
         4           O1  tau(   4) = (   3.2906025   0.0005020   7.3038282  )
         5           O1  tau(   5) = (   4.5942328   1.4918067   9.2879030  )
         6           O1  tau(   6) = (   1.9868534   1.4903216   9.2879459  )
         7           Ti1 tau(   7) = (   3.2908881   2.9042228   9.1664735  )
         8           Ti1 tau(   8) = (   0.0028208   1.4453605   9.2576896  )
         9           O1  tau(   9) = (   3.2707936   0.0024169  11.3547307  )
        10           O1  tau(  10) = (   6.5771562   5.9613851  10.5998947  )
        11           O1  tau(  11) = (   1.2750810   1.4887983  12.6623546  )
        12           O1  tau(  12) = (   5.2735957   1.4941237  12.6366476  )
        13           Ti1 tau(  13) = (   6.5484273   3.0048924  12.8091026  )
        14           Ti1 tau(  14) = (   3.2635572   1.4892482  12.5038529  )
        15           O1  tau(  15) = (   6.5112577   5.9342846  14.6610847  )
        16           O1  tau(  16) = (   3.2966729   5.9487847  13.9562402  )
        17           O1  tau(  17) = (   4.4981853   1.5100712  16.1215815  )
        18           O1  tau(  18) = (   1.9927245   1.4809274  16.0269182  )
        19           Ti1 tau(  19) = (   3.2349744   2.9714856  15.7300180  )
        20           Ti1 tau(  20) = (   6.5689460   1.3052557  15.9023701  )
        21           O1  tau(  21) = (   3.2904802   0.0005063   4.7018136  )
        22           O1  tau(  22) = (   6.5497555   0.0700294  17.2054191  )
        23           O1  tau(  23) = (   1.3043587   1.4918075   6.0039043  )
        24           O1  tau(  24) = (   5.2767064   1.4903225   6.0039473  )
        25           Ti1 tau(  25) = (   0.0000382   5.9609847   6.0000000  )
        26           Ti1 tau(  26) = (   3.2902200   4.4714249   6.0002472  )
        27           O1  tau(  27) = (   0.0002396   2.9813036   7.9858123  )
        28           O1  tau(  28) = (   3.2902150   2.9813002   7.3038282  )
        29           O1  tau(  29) = (   4.5938453   4.4726049   9.2879030  )
        30           O1  tau(  30) = (   1.9864658   4.4711199   9.2879459  )
        31           Ti1 tau(  31) = (   3.2899333   5.8856170   9.1744801  )
        32           Ti1 tau(  32) = (   0.0020137   4.3658053   9.3606106  )
        33           O1  tau(  33) = (   3.2690173   2.9735267  11.3530824  )
        34           O1  tau(  34) = (   0.0002412   2.9750176  10.5666245  )
        35           O1  tau(  35) = (   1.2748646   4.4726994  12.6423647  )
        36           O1  tau(  36) = (   5.2720213   4.4664742  12.6163582  )
        37           Ti1 tau(  37) = (   6.5582605   0.0201509  12.4985948  )
        38           Ti1 tau(  38) = (   3.2618569   4.4653106  12.4956167  )
        39           O1  tau(  39) = (   6.5348066   3.0079926  14.7180217  )
        40           O1  tau(  40) = (   3.2797409   2.9875293  13.9337705  )
        41           O1  tau(  41) = (   4.5027845   4.4373921  16.1556124  )
        42           O1  tau(  42) = (   1.9850320   4.4617864  16.0830993  )
        43           Ti1 tau(  43) = (   3.2823567   5.9555293  15.7495178  )
        44           Ti1 tau(  44) = (   6.5552429   4.5047081  16.0597439  )
        45           O1  tau(  45) = (   3.2900926   2.9813045   4.7018136  )
        46           O1  tau(  46) = (   1.3039711   4.4726057   6.0039043  )
        47           O1  tau(  47) = (   5.2763189   4.4711207   6.0039473  )
        48           H1  tau(  48) = (   0.5659039   2.5807529  19.4396776  )
        49           N1  tau(  49) = (   0.9330341   2.9538053  18.5544450  )
        50           N1  tau(  50) = (   6.5241730   3.1816813  17.7405862  )
        51           H1  tau(  51) = (   5.5806726   3.0068531  18.1306748  )

     number of k points=    10  Fermi-Dirac smearing, width (Ry)=  0.0073
                       cart. coord. in units 2pi/alat
        k(    1) = (   0.0000000   0.0000000   0.0000000), wk =   0.1250000
        k(    2) = (   0.0000000   0.0419351   0.0000000), wk =   0.2500000
        k(    3) = (   0.0000000  -0.0838702   0.0000000), wk =   0.1250000
        k(    4) = (   0.0379955   0.0000049   0.0000000), wk =   0.2500000
        k(    5) = (   0.0379955   0.0419400   0.0000000), wk =   0.2500000
        k(    6) = (   0.0379955  -0.0838652   0.0000000), wk =   0.2500000
        k(    7) = (   0.0379955  -0.0419301   0.0000000), wk =   0.2500000
        k(    8) = (  -0.0759910  -0.0000099   0.0000000), wk =   0.1250000
        k(    9) = (  -0.0759910   0.0419252   0.0000000), wk =   0.2500000
        k(   10) = (  -0.0759910  -0.0838800   0.0000000), wk =   0.1250000

     Dense  grid:   566857 G-vectors     FFT dimensions: (  72,  64, 270)

     Smooth grid:   143421 G-vectors     FFT dimensions: (  45,  40, 180)

     Estimated max dynamical RAM per process >     447.97 MB

     Estimated total dynamical RAM >       3.50 GB
     Cannot read rho : file not found

     Initial potential from superposition of free atoms

     starting charge  373.99921, renormalised to  390.00000

     negative rho (up, down):  1.940E-02 0.000E+00


     %%%%%%%%%%%%%%%%%%%%%%%%%%%%%%%%%%%%%%%%%%%%%%%%%%%%%%%%%%%%%%%%%%%%%%%%
     %                                                                      %
     % You are using vdW-DF, which was implemented by the Thonhauser group. %
     % Please cite the following two papers that made this development      %
     % possible and the two reviews that describe the various versions:     %
     %                                                                      %
     %   T. Thonhauser et al., PRL 115, 136402 (2015).                      %
     %   T. Thonhauser et al., PRB 76, 125112 (2007).                       %
     %   K. Berland et al., Rep. Prog. Phys. 78, 066501 (2015).             %
     %   D.C. Langreth et al., J. Phys.: Condens. Matter 21, 084203 (2009). %
     %                                                                      %
     %                                                                      %
     % If you are calculating the stress with vdW-DF, please also cite:     %
     %                                                                      %
     %   R. Sabatini et al., J. Phys.: Condens. Matter 24, 424209 (2012).   %
     %                                                                      %
     %%%%%%%%%%%%%%%%%%%%%%%%%%%%%%%%%%%%%%%%%%%%%%%%%%%%%%%%%%%%%%%%%%%%%%%%


 
     Adding external electric field

     Computed dipole along edir(3) : 
        Dipole               -5.1488 Ry au,        -13.0871 Debye
        Dipole field         -0.0097 Ry au, 
 
        Potential amp.        0.9007 Ry
        Total length         46.3494 bohr
 
     Starting wfcs are  294 atomic wfcs
  @ DRIVER MODE: Message from server: STATUS
  @ DRIVER MODE: Message from server: POSDATA
  @ DRIVER MODE: Reading and sharing cell 
  @ DRIVER MODE: Reading and sharing positions 
  @ DRIVER MODE: Received positions 

     total cpu time spent up to now is       13.7 secs

     Self-consistent Calculation

     iteration #  1     ecut=    29.40 Ry     beta= 0.05
     Davidson diagonalization with overlap
     c_bands:  3 eigenvalues not converged
     c_bands:  3 eigenvalues not converged
     c_bands:  1 eigenvalues not converged
     c_bands:  3 eigenvalues not converged
     c_bands:  2 eigenvalues not converged
     c_bands:  3 eigenvalues not converged
     ethr =  1.00E-05,  avg # of iterations = 22.2

     negative rho (up, down):  1.879E-02 0.000E+00
 
     Adding external electric field

     Computed dipole along edir(3) : 
        Dipole               19.5864 Ry au,         49.7838 Debye
        Dipole field          0.0370 Ry au, 
 
        Potential amp.       -3.4264 Ry
        Total length         46.3494 bohr
 

     total cpu time spent up to now is       62.5 secs

     total energy              =   -2837.80649224 Ry
     estimated scf accuracy    <     992.31959249 Ry

     iteration #  2     ecut=    29.40 Ry     beta= 0.05
     Davidson diagonalization with overlap
     ethr =  1.00E-02,  avg # of iterations = 16.4

     negative rho (up, down):  7.282E-03 0.000E+00
 
     Adding external electric field

     Computed dipole along edir(3) : 
        Dipole               -1.9511 Ry au,         -4.9591 Debye
        Dipole field         -0.0037 Ry au, 
 
        Potential amp.        0.3413 Ry
        Total length         46.3494 bohr
 

     total cpu time spent up to now is      109.1 secs

     total energy              =   -2773.65344149 Ry
     estimated scf accuracy    <   20009.42887781 Ry

     iteration #  3     ecut=    29.40 Ry     beta= 0.05
     Davidson diagonalization with overlap
     c_bands:  2 eigenvalues not converged
     c_bands:  1 eigenvalues not converged
     c_bands:  1 eigenvalues not converged
     ethr =  1.00E-02,  avg # of iterations = 17.1

     negative rho (up, down):  7.305E-03 0.000E+00
 
     Adding external electric field

     Computed dipole along edir(3) : 
        Dipole               -2.7839 Ry au,         -7.0759 Debye
        Dipole field         -0.0053 Ry au, 
 
        Potential amp.        0.4870 Ry
        Total length         46.3494 bohr
 

     total cpu time spent up to now is      147.8 secs

     total energy              =   -2918.07387530 Ry
     estimated scf accuracy    <     652.14225758 Ry

     iteration #  4     ecut=    29.40 Ry     beta= 0.05
     Davidson diagonalization with overlap
     ethr =  1.00E-02,  avg # of iterations =  7.6

     negative rho (up, down):  7.342E-03 0.000E+00
 
     Adding external electric field

     Computed dipole along edir(3) : 
        Dipole               -3.3917 Ry au,         -8.6207 Debye
        Dipole field         -0.0064 Ry au, 
 
        Potential amp.        0.5933 Ry
        Total length         46.3494 bohr
 

     total cpu time spent up to now is      163.0 secs

     total energy              =   -2919.24938634 Ry
     estimated scf accuracy    <     268.63348090 Ry

     iteration #  5     ecut=    29.40 Ry     beta= 0.05
     Davidson diagonalization with overlap
     ethr =  1.00E-02,  avg # of iterations =  5.2

     negative rho (up, down):  7.401E-03 0.000E+00
 
     Adding external electric field

     Computed dipole along edir(3) : 
        Dipole               -4.2410 Ry au,        -10.7796 Debye
        Dipole field         -0.0080 Ry au, 
 
        Potential amp.        0.7419 Ry
        Total length         46.3494 bohr
 

     total cpu time spent up to now is      177.2 secs

     total energy              =   -2917.54668952 Ry
     estimated scf accuracy    <     161.93808891 Ry

     iteration #  6     ecut=    29.40 Ry     beta= 0.05
     Davidson diagonalization with overlap
     ethr =  1.00E-02,  avg # of iterations = 11.1

     negative rho (up, down):  6.794E-03 0.000E+00
 
     Adding external electric field

     Computed dipole along edir(3) : 
        Dipole               -3.4558 Ry au,         -8.7837 Debye
        Dipole field         -0.0065 Ry au, 
 
        Potential amp.        0.6045 Ry
        Total length         46.3494 bohr
 

     total cpu time spent up to now is      195.7 secs

     total energy              =   -2928.17413635 Ry
     estimated scf accuracy    <      15.69332177 Ry

     iteration #  7     ecut=    29.40 Ry     beta= 0.05
     Davidson diagonalization with overlap
     ethr =  4.02E-03,  avg # of iterations =  1.7

     negative rho (up, down):  6.812E-03 0.000E+00
 
     Adding external electric field

     Computed dipole along edir(3) : 
        Dipole               -2.3649 Ry au,         -6.0109 Debye
        Dipole field         -0.0045 Ry au, 
 
        Potential amp.        0.4137 Ry
        Total length         46.3494 bohr
 

     total cpu time spent up to now is      208.5 secs

     total energy              =   -2927.68958587 Ry
     estimated scf accuracy    <      13.05147435 Ry

     iteration #  8     ecut=    29.40 Ry     beta= 0.05
     Davidson diagonalization with overlap
     ethr =  3.35E-03,  avg # of iterations =  3.9

     negative rho (up, down):  6.813E-03 0.000E+00
 
     Adding external electric field

     Computed dipole along edir(3) : 
        Dipole               -2.0099 Ry au,         -5.1085 Debye
        Dipole field         -0.0038 Ry au, 
 
        Potential amp.        0.3516 Ry
        Total length         46.3494 bohr
 

     total cpu time spent up to now is      222.1 secs

     total energy              =   -2928.08805290 Ry
     estimated scf accuracy    <       9.72713362 Ry

     iteration #  9     ecut=    29.40 Ry     beta= 0.05
     Davidson diagonalization with overlap
     ethr =  2.49E-03,  avg # of iterations =  3.6

     negative rho (up, down):  6.690E-03 0.000E+00
 
     Adding external electric field

     Computed dipole along edir(3) : 
        Dipole                4.5467 Ry au,         11.5565 Debye
        Dipole field          0.0086 Ry au, 
 
        Potential amp.       -0.7954 Ry
        Total length         46.3494 bohr
 

     total cpu time spent up to now is      235.5 secs

     total energy              =   -2928.61656197 Ry
     estimated scf accuracy    <       9.43675586 Ry

     iteration # 10     ecut=    29.40 Ry     beta= 0.05
     Davidson diagonalization with overlap
     ethr =  2.42E-03,  avg # of iterations = 13.3

     negative rho (up, down):  6.673E-03 0.000E+00
 
     Adding external electric field

     Computed dipole along edir(3) : 
        Dipole                5.9684 Ry au,         15.1701 Debye
        Dipole field          0.0113 Ry au, 
 
        Potential amp.       -1.0441 Ry
        Total length         46.3494 bohr
 

     total cpu time spent up to now is      263.1 secs

     total energy              =   -2999.18952455 Ry
     estimated scf accuracy    <    2264.76465788 Ry

     iteration # 11     ecut=    29.40 Ry     beta= 0.05
     Davidson diagonalization with overlap
     ethr =  2.42E-03,  avg # of iterations =  2.0

     negative rho (up, down):  6.527E-03 0.000E+00
 
     Adding external electric field

     Computed dipole along edir(3) : 
        Dipole                1.7616 Ry au,          4.4775 Debye
        Dipole field          0.0033 Ry au, 
 
        Potential amp.       -0.3082 Ry
        Total length         46.3494 bohr
 

     total cpu time spent up to now is      276.2 secs

     total energy              =   -2933.31112659 Ry
     estimated scf accuracy    <    3262.28195039 Ry

     iteration # 12     ecut=    29.40 Ry     beta= 0.05
     Davidson diagonalization with overlap
     ethr =  2.42E-03,  avg # of iterations = 11.1

     negative rho (up, down):  6.693E-03 0.000E+00
 
     Adding external electric field

     Computed dipole along edir(3) : 
        Dipole                4.2188 Ry au,         10.7231 Debye
        Dipole field          0.0080 Ry au, 
 
        Potential amp.       -0.7380 Ry
        Total length         46.3494 bohr
 

     total cpu time spent up to now is      298.0 secs

     total energy              =   -2966.95681909 Ry
     estimated scf accuracy    <    1674.50519168 Ry

     iteration # 13     ecut=    29.40 Ry     beta= 0.05
     Davidson diagonalization with overlap
     ethr =  2.42E-03,  avg # of iterations =  9.4

     negative rho (up, down):  6.606E-03 0.000E+00
 
     Adding external electric field

     Computed dipole along edir(3) : 
        Dipole                2.0922 Ry au,          5.3179 Debye
        Dipole field          0.0039 Ry au, 
 
        Potential amp.       -0.3660 Ry
        Total length         46.3494 bohr
 

     total cpu time spent up to now is      315.0 secs

     total energy              =   -2947.40062561 Ry
     estimated scf accuracy    <    2338.73488935 Ry

     iteration # 14     ecut=    29.40 Ry     beta= 0.05
     Davidson diagonalization with overlap
     ethr =  2.42E-03,  avg # of iterations =  9.8

     negative rho (up, down):  6.526E-03 0.000E+00
 
     Adding external electric field

     Computed dipole along edir(3) : 
        Dipole               -1.4084 Ry au,         -3.5797 Debye
        Dipole field         -0.0027 Ry au, 
 
        Potential amp.        0.2464 Ry
        Total length         46.3494 bohr
 

     total cpu time spent up to now is      331.8 secs

     total energy              =   -2914.28316551 Ry
     estimated scf accuracy    <    1644.49563381 Ry

     iteration # 15     ecut=    29.40 Ry     beta= 0.05
     Davidson diagonalization with overlap
     c_bands:  1 eigenvalues not converged
     c_bands:  2 eigenvalues not converged
     c_bands:  1 eigenvalues not converged
     ethr =  2.42E-03,  avg # of iterations = 18.7

     negative rho (up, down):  6.261E-03 0.000E+00
 
     Adding external electric field

     Computed dipole along edir(3) : 
        Dipole               -2.9393 Ry au,         -7.4711 Debye
        Dipole field         -0.0055 Ry au, 
 
        Potential amp.        0.5142 Ry
        Total length         46.3494 bohr
 

     total cpu time spent up to now is      362.8 secs

     total energy              =   -2924.27602089 Ry
     estimated scf accuracy    <      22.86947975 Ry

     iteration # 16     ecut=    29.40 Ry     beta= 0.05
     Davidson diagonalization with overlap
     c_bands:  4 eigenvalues not converged
     ethr =  2.42E-03,  avg # of iterations = 15.4

     negative rho (up, down):  6.420E-03 0.000E+00
 
     Adding external electric field

     Computed dipole along edir(3) : 
        Dipole               -1.1653 Ry au,         -2.9619 Debye
        Dipole field         -0.0022 Ry au, 
 
        Potential amp.        0.2038 Ry
        Total length         46.3494 bohr
 

     total cpu time spent up to now is      386.6 secs

     total energy              =   -2924.93496888 Ry
     estimated scf accuracy    <      31.32679560 Ry

     iteration # 17     ecut=    29.40 Ry     beta= 0.05
     Davidson diagonalization with overlap
     c_bands:  1 eigenvalues not converged
     c_bands:  3 eigenvalues not converged
     c_bands:  5 eigenvalues not converged
     ethr =  2.42E-03,  avg # of iterations = 10.7

     negative rho (up, down):  6.340E-03 0.000E+00
 
     Adding external electric field

     Computed dipole along edir(3) : 
        Dipole               -0.6260 Ry au,         -1.5912 Debye
        Dipole field         -0.0012 Ry au, 
 
        Potential amp.        0.1095 Ry
        Total length         46.3494 bohr
 

     total cpu time spent up to now is      404.1 secs

     total energy              =   -2926.32025614 Ry
     estimated scf accuracy    <       1.41544314 Ry

     iteration # 18     ecut=    29.40 Ry     beta= 0.05
     Davidson diagonalization with overlap
     c_bands:  4 eigenvalues not converged
     c_bands:  5 eigenvalues not converged
     c_bands:  1 eigenvalues not converged
     c_bands:  5 eigenvalues not converged
     c_bands:  1 eigenvalues not converged
     c_bands:  2 eigenvalues not converged
     ethr =  3.63E-04,  avg # of iterations = 17.8

     negative rho (up, down):  6.360E-03 0.000E+00
 
     Adding external electric field

     Computed dipole along edir(3) : 
        Dipole               -0.5074 Ry au,         -1.2896 Debye
        Dipole field         -0.0010 Ry au, 
 
        Potential amp.        0.0888 Ry
        Total length         46.3494 bohr
 

     total cpu time spent up to now is      427.7 secs

     total energy              =   -2926.50971443 Ry
     estimated scf accuracy    <       1.52069158 Ry

     iteration # 19     ecut=    29.40 Ry     beta= 0.05
     Davidson diagonalization with overlap
     ethr =  3.63E-04,  avg # of iterations =  9.3

     negative rho (up, down):  6.598E-03 0.000E+00
 
     Adding external electric field

     Computed dipole along edir(3) : 
        Dipole               -0.0116 Ry au,         -0.0295 Debye
        Dipole field         -0.0000 Ry au, 
 
        Potential amp.        0.0020 Ry
        Total length         46.3494 bohr
 

     total cpu time spent up to now is      443.0 secs

     total energy              =   -2926.51700323 Ry
     estimated scf accuracy    <       1.69990478 Ry

     iteration # 20     ecut=    29.40 Ry     beta= 0.05
     Davidson diagonalization with overlap
     ethr =  3.63E-04,  avg # of iterations =  7.5

     negative rho (up, down):  6.704E-03 0.000E+00
 
     Adding external electric field

     Computed dipole along edir(3) : 
        Dipole               -0.0475 Ry au,         -0.1208 Debye
        Dipole field         -0.0001 Ry au, 
 
        Potential amp.        0.0083 Ry
        Total length         46.3494 bohr
 

     total cpu time spent up to now is      458.1 secs

     total energy              =   -2926.50852103 Ry
     estimated scf accuracy    <      14.18562380 Ry

     iteration # 21     ecut=    29.40 Ry     beta= 0.05
     Davidson diagonalization with overlap
     ethr =  3.63E-04,  avg # of iterations = 10.7

     negative rho (up, down):  6.583E-03 0.000E+00
 
     Adding external electric field

     Computed dipole along edir(3) : 
        Dipole               -0.1029 Ry au,         -0.2616 Debye
        Dipole field         -0.0002 Ry au, 
 
        Potential amp.        0.0180 Ry
        Total length         46.3494 bohr
 

     total cpu time spent up to now is      473.9 secs

     total energy              =   -2926.56046431 Ry
     estimated scf accuracy    <       5.45523792 Ry

     iteration # 22     ecut=    29.40 Ry     beta= 0.05
     Davidson diagonalization with overlap
     ethr =  3.63E-04,  avg # of iterations =  1.3

     negative rho (up, down):  6.435E-03 0.000E+00
 
     Adding external electric field

     Computed dipole along edir(3) : 
        Dipole               -0.6897 Ry au,         -1.7531 Debye
        Dipole field         -0.0013 Ry au, 
 
        Potential amp.        0.1207 Ry
        Total length         46.3494 bohr
 

     total cpu time spent up to now is      486.3 secs

     total energy              =   -2926.22593712 Ry
     estimated scf accuracy    <       6.60598666 Ry

     iteration # 23     ecut=    29.40 Ry     beta= 0.05
     Davidson diagonalization with overlap
     ethr =  3.63E-04,  avg # of iterations =  7.2

     negative rho (up, down):  6.457E-03 0.000E+00
 
     Adding external electric field

     Computed dipole along edir(3) : 
        Dipole               -1.1320 Ry au,         -2.8774 Debye
        Dipole field         -0.0021 Ry au, 
 
        Potential amp.        0.1980 Ry
        Total length         46.3494 bohr
 

     total cpu time spent up to now is      501.2 secs

     total energy              =   -2926.37481436 Ry
     estimated scf accuracy    <       0.78436985 Ry

     iteration # 24     ecut=    29.40 Ry     beta= 0.05
     Davidson diagonalization with overlap
     c_bands:  3 eigenvalues not converged
     c_bands:  1 eigenvalues not converged
     ethr =  2.01E-04,  avg # of iterations = 17.8

     negative rho (up, down):  6.428E-03 0.000E+00
 
     Adding external electric field

     Computed dipole along edir(3) : 
        Dipole               -1.1157 Ry au,         -2.8358 Debye
        Dipole field         -0.0021 Ry au, 
 
        Potential amp.        0.1952 Ry
        Total length         46.3494 bohr
 

     total cpu time spent up to now is      526.2 secs

     total energy              =   -2926.56123552 Ry
     estimated scf accuracy    <       4.69631676 Ry

     iteration # 25     ecut=    29.40 Ry     beta= 0.05
     Davidson diagonalization with overlap
     ethr =  2.01E-04,  avg # of iterations =  1.1

     negative rho (up, down):  6.409E-03 0.000E+00
 
     Adding external electric field

     Computed dipole along edir(3) : 
        Dipole               -1.0003 Ry au,         -2.5425 Debye
        Dipole field         -0.0019 Ry au, 
 
        Potential amp.        0.1750 Ry
        Total length         46.3494 bohr
 

     total cpu time spent up to now is      538.4 secs

     total energy              =   -2926.55775760 Ry
     estimated scf accuracy    <       4.69786414 Ry

     iteration # 26     ecut=    29.40 Ry     beta= 0.05
     Davidson diagonalization with overlap
     ethr =  2.01E-04,  avg # of iterations =  3.1

     negative rho (up, down):  6.496E-03 0.000E+00
 
     Adding external electric field

     Computed dipole along edir(3) : 
        Dipole               -0.8596 Ry au,         -2.1848 Debye
        Dipole field         -0.0016 Ry au, 
 
        Potential amp.        0.1504 Ry
        Total length         46.3494 bohr
 

     total cpu time spent up to now is      551.6 secs

     total energy              =   -2926.49678223 Ry
     estimated scf accuracy    <       4.23124673 Ry

     iteration # 27     ecut=    29.40 Ry     beta= 0.05
     Davidson diagonalization with overlap
     ethr =  2.01E-04,  avg # of iterations =  1.9

     negative rho (up, down):  6.535E-03 0.000E+00
 
     Adding external electric field

     Computed dipole along edir(3) : 
        Dipole               -0.5787 Ry au,         -1.4709 Debye
        Dipole field         -0.0011 Ry au, 
 
        Potential amp.        0.1012 Ry
        Total length         46.3494 bohr
 

     total cpu time spent up to now is      564.3 secs

     total energy              =   -2926.39368694 Ry
     estimated scf accuracy    <       1.88870384 Ry

     iteration # 28     ecut=    29.40 Ry     beta= 0.05
     Davidson diagonalization with overlap
     ethr =  2.01E-04,  avg # of iterations = 10.8

     negative rho (up, down):  6.520E-03 0.000E+00
 
     Adding external electric field

     Computed dipole along edir(3) : 
        Dipole               -0.3047 Ry au,         -0.7745 Debye
        Dipole field         -0.0006 Ry au, 
 
        Potential amp.        0.0533 Ry
        Total length         46.3494 bohr
 

     total cpu time spent up to now is      580.8 secs

     total energy              =   -2926.38034846 Ry
     estimated scf accuracy    <       0.57617858 Ry

     iteration # 29     ecut=    29.40 Ry     beta= 0.05
     Davidson diagonalization with overlap
     c_bands:  1 eigenvalues not converged
     c_bands:  2 eigenvalues not converged
     c_bands:  2 eigenvalues not converged
     c_bands:  2 eigenvalues not converged
     c_bands:  2 eigenvalues not converged
     ethr =  1.48E-04,  avg # of iterations = 18.2

     negative rho (up, down):  7.046E-03 0.000E+00
 
     Adding external electric field

     Computed dipole along edir(3) : 
        Dipole                0.4269 Ry au,          1.0852 Debye
        Dipole field          0.0008 Ry au, 
 
        Potential amp.       -0.0747 Ry
        Total length         46.3494 bohr
 

     total cpu time spent up to now is      600.7 secs

     total energy              =   -2926.36826852 Ry
     estimated scf accuracy    <       0.44314256 Ry

     iteration # 30     ecut=    29.40 Ry     beta= 0.05
     Davidson diagonalization with overlap
     c_bands:  2 eigenvalues not converged
     c_bands:  1 eigenvalues not converged
     c_bands:  1 eigenvalues not converged
     c_bands:  1 eigenvalues not converged
     c_bands:  3 eigenvalues not converged
     ethr =  1.14E-04,  avg # of iterations = 18.3

     negative rho (up, down):  7.283E-03 0.000E+00
 
     Adding external electric field

     Computed dipole along edir(3) : 
        Dipole                0.3188 Ry au,          0.8103 Debye
        Dipole field          0.0006 Ry au, 
 
        Potential amp.       -0.0558 Ry
        Total length         46.3494 bohr
 

     total cpu time spent up to now is      623.2 secs

     total energy              =   -2926.35884416 Ry
     estimated scf accuracy    <       0.48163040 Ry

     iteration # 31     ecut=    29.40 Ry     beta= 0.05
     Davidson diagonalization with overlap
     ethr =  1.14E-04,  avg # of iterations = 13.7

     negative rho (up, down):  7.389E-03 0.000E+00
 
     Adding external electric field

     Computed dipole along edir(3) : 
        Dipole                0.3135 Ry au,          0.7967 Debye
        Dipole field          0.0006 Ry au, 
 
        Potential amp.       -0.0548 Ry
        Total length         46.3494 bohr
 

     total cpu time spent up to now is      640.7 secs

     total energy              =   -2926.39881811 Ry
     estimated scf accuracy    <       0.71825657 Ry

     iteration # 32     ecut=    29.40 Ry     beta= 0.05
     Davidson diagonalization with overlap
     ethr =  1.14E-04,  avg # of iterations =  1.7

     negative rho (up, down):  8.280E-03 0.000E+00
 
     Adding external electric field

     Computed dipole along edir(3) : 
        Dipole                0.4340 Ry au,          1.1031 Debye
        Dipole field          0.0008 Ry au, 
 
        Potential amp.       -0.0759 Ry
        Total length         46.3494 bohr
 

     total cpu time spent up to now is      653.4 secs

     total energy              =   -2926.35945514 Ry
     estimated scf accuracy    <       0.49933609 Ry

     iteration # 33     ecut=    29.40 Ry     beta= 0.05
     Davidson diagonalization with overlap
     c_bands:  1 eigenvalues not converged
     ethr =  1.14E-04,  avg # of iterations = 13.1

     negative rho (up, down):  8.269E-03 0.000E+00
 
     Adding external electric field

     Computed dipole along edir(3) : 
        Dipole                0.4489 Ry au,          1.1409 Debye
        Dipole field          0.0008 Ry au, 
 
        Potential amp.       -0.0785 Ry
        Total length         46.3494 bohr
 

     total cpu time spent up to now is      671.2 secs

     total energy              =   -2926.41201567 Ry
     estimated scf accuracy    <       0.51482651 Ry

     iteration # 34     ecut=    29.40 Ry     beta= 0.05
     Davidson diagonalization with overlap
     c_bands:  3 eigenvalues not converged
     ethr =  1.14E-04,  avg # of iterations =  5.2

     negative rho (up, down):  8.250E-03 0.000E+00
 
     Adding external electric field

     Computed dipole along edir(3) : 
        Dipole                0.4806 Ry au,          1.2217 Debye
        Dipole field          0.0009 Ry au, 
 
        Potential amp.       -0.0841 Ry
        Total length         46.3494 bohr
 

     total cpu time spent up to now is      685.1 secs

     total energy              =   -2926.40534091 Ry
     estimated scf accuracy    <       0.47486578 Ry

     iteration # 35     ecut=    29.40 Ry     beta= 0.05
     Davidson diagonalization with overlap
     ethr =  1.14E-04,  avg # of iterations =  2.3

     negative rho (up, down):  8.337E-03 0.000E+00
 
     Adding external electric field

     Computed dipole along edir(3) : 
        Dipole                0.6034 Ry au,          1.5337 Debye
        Dipole field          0.0011 Ry au, 
 
        Potential amp.       -0.1056 Ry
        Total length         46.3494 bohr
 

     total cpu time spent up to now is      697.7 secs

     total energy              =   -2926.37201963 Ry
     estimated scf accuracy    <       0.30427962 Ry

     iteration # 36     ecut=    29.40 Ry     beta= 0.05
     Davidson diagonalization with overlap
     c_bands:  2 eigenvalues not converged
     ethr =  7.80E-05,  avg # of iterations = 11.2

     negative rho (up, down):  9.104E-03 0.000E+00
 
     Adding external electric field

     Computed dipole along edir(3) : 
        Dipole                0.6191 Ry au,          1.5737 Debye
        Dipole field          0.0012 Ry au, 
 
        Potential amp.       -0.1083 Ry
        Total length         46.3494 bohr
 

     total cpu time spent up to now is      714.6 secs

     total energy              =   -2926.38804829 Ry
     estimated scf accuracy    <       0.24506984 Ry

     iteration # 37     ecut=    29.40 Ry     beta= 0.05
     Davidson diagonalization with overlap
     ethr =  6.28E-05,  avg # of iterations =  2.4

     negative rho (up, down):  1.369E-02 0.000E+00
 
     Adding external electric field

     Computed dipole along edir(3) : 
        Dipole                0.7096 Ry au,          1.8037 Debye
        Dipole field          0.0013 Ry au, 
 
        Potential amp.       -0.1241 Ry
        Total length         46.3494 bohr
 

     total cpu time spent up to now is      727.7 secs

     total energy              =   -2926.38692856 Ry
     estimated scf accuracy    <       0.07758754 Ry

     iteration # 38     ecut=    29.40 Ry     beta= 0.05
     Davidson diagonalization with overlap
     c_bands:  1 eigenvalues not converged
     c_bands:  2 eigenvalues not converged
     c_bands:  4 eigenvalues not converged
     c_bands:  2 eigenvalues not converged
     c_bands:  4 eigenvalues not converged
     c_bands:  3 eigenvalues not converged
     c_bands:  1 eigenvalues not converged
     ethr =  1.99E-05,  avg # of iterations = 19.5

     negative rho (up, down):  1.322E-02 0.000E+00
 
     Adding external electric field

     Computed dipole along edir(3) : 
        Dipole                0.7394 Ry au,          1.8793 Debye
        Dipole field          0.0014 Ry au, 
 
        Potential amp.       -0.1293 Ry
        Total length         46.3494 bohr
 

     total cpu time spent up to now is      751.8 secs

     total energy              =   -2926.39940707 Ry
     estimated scf accuracy    <       0.42765138 Ry

     iteration # 39     ecut=    29.40 Ry     beta= 0.05
     Davidson diagonalization with overlap
     ethr =  1.99E-05,  avg # of iterations =  6.3

     negative rho (up, down):  1.104E-02 0.000E+00
 
     Adding external electric field

     Computed dipole along edir(3) : 
        Dipole                0.6745 Ry au,          1.7145 Debye
        Dipole field          0.0013 Ry au, 
 
        Potential amp.       -0.1180 Ry
        Total length         46.3494 bohr
 

     total cpu time spent up to now is      765.6 secs

     total energy              =   -2926.39390652 Ry
     estimated scf accuracy    <       0.11844396 Ry

     iteration # 40     ecut=    29.40 Ry     beta= 0.05
     Davidson diagonalization with overlap
     c_bands:  1 eigenvalues not converged
     ethr =  1.99E-05,  avg # of iterations = 14.5

     negative rho (up, down):  1.102E-02 0.000E+00
 
     Adding external electric field

     Computed dipole along edir(3) : 
        Dipole                0.6566 Ry au,          1.6688 Debye
        Dipole field          0.0012 Ry au, 
 
        Potential amp.       -0.1149 Ry
        Total length         46.3494 bohr
 

     total cpu time spent up to now is      783.3 secs

     total energy              =   -2926.39582620 Ry
     estimated scf accuracy    <       0.01965801 Ry

     iteration # 41     ecut=    29.40 Ry     beta= 0.05
     Davidson diagonalization with overlap
     c_bands:  1 eigenvalues not converged
     c_bands:  1 eigenvalues not converged
     c_bands:  2 eigenvalues not converged
     c_bands:  2 eigenvalues not converged
     ethr =  5.04E-06,  avg # of iterations = 18.1

     negative rho (up, down):  1.477E-02 0.000E+00
 
     Adding external electric field

     Computed dipole along edir(3) : 
        Dipole                0.7722 Ry au,          1.9626 Debye
        Dipole field          0.0015 Ry au, 
 
        Potential amp.       -0.1351 Ry
        Total length         46.3494 bohr
 

     total cpu time spent up to now is      804.3 secs

     total energy              =   -2926.39784659 Ry
     estimated scf accuracy    <       0.01198873 Ry

     iteration # 42     ecut=    29.40 Ry     beta= 0.05
     Davidson diagonalization with overlap
     c_bands:  2 eigenvalues not converged
     c_bands:  1 eigenvalues not converged
     ethr =  3.07E-06,  avg # of iterations = 12.9

     negative rho (up, down):  1.768E-02 0.000E+00
 
     Adding external electric field

     Computed dipole along edir(3) : 
        Dipole                0.8364 Ry au,          2.1259 Debye
        Dipole field          0.0016 Ry au, 
 
        Potential amp.       -0.1463 Ry
        Total length         46.3494 bohr
 

     total cpu time spent up to now is      821.9 secs

     total energy              =   -2926.39919349 Ry
     estimated scf accuracy    <       0.00664769 Ry

     iteration # 43     ecut=    29.40 Ry     beta= 0.05
     Davidson diagonalization with overlap
     c_bands:  1 eigenvalues not converged
     c_bands:  1 eigenvalues not converged
     ethr =  1.70E-06,  avg # of iterations = 13.8

     negative rho (up, down):  1.741E-02 0.000E+00
 
     Adding external electric field

     Computed dipole along edir(3) : 
        Dipole                0.8041 Ry au,          2.0437 Debye
        Dipole field          0.0015 Ry au, 
 
        Potential amp.       -0.1407 Ry
        Total length         46.3494 bohr
 

     total cpu time spent up to now is      840.3 secs

     total energy              =   -2926.39929243 Ry
     estimated scf accuracy    <       0.00948738 Ry

     iteration # 44     ecut=    29.40 Ry     beta= 0.05
     Davidson diagonalization with overlap
     ethr =  1.70E-06,  avg # of iterations =  4.7

     negative rho (up, down):  1.715E-02 0.000E+00
 
     Adding external electric field

     Computed dipole along edir(3) : 
        Dipole                0.7726 Ry au,          1.9637 Debye
        Dipole field          0.0015 Ry au, 
 
        Potential amp.       -0.1352 Ry
        Total length         46.3494 bohr
 

     total cpu time spent up to now is      854.4 secs

     total energy              =   -2926.39917429 Ry
     estimated scf accuracy    <       0.01307195 Ry

     iteration # 45     ecut=    29.40 Ry     beta= 0.05
     Davidson diagonalization with overlap
     ethr =  1.70E-06,  avg # of iterations =  2.3

     negative rho (up, down):  1.733E-02 0.000E+00
 
     Adding external electric field

     Computed dipole along edir(3) : 
        Dipole                0.7707 Ry au,          1.9590 Debye
        Dipole field          0.0015 Ry au, 
 
        Potential amp.       -0.1348 Ry
        Total length         46.3494 bohr
 

     total cpu time spent up to now is      867.5 secs

     total energy              =   -2926.39941873 Ry
     estimated scf accuracy    <       0.00308808 Ry

     iteration # 46     ecut=    29.40 Ry     beta= 0.05
     Davidson diagonalization with overlap
     c_bands:  1 eigenvalues not converged
     ethr =  7.92E-07,  avg # of iterations = 12.1

     negative rho (up, down):  1.804E-02 0.000E+00
 
     Adding external electric field

     Computed dipole along edir(3) : 
        Dipole                0.7738 Ry au,          1.9669 Debye
        Dipole field          0.0015 Ry au, 
 
        Potential amp.       -0.1354 Ry
        Total length         46.3494 bohr
 

     total cpu time spent up to now is      883.9 secs

     total energy              =   -2926.39915543 Ry
     estimated scf accuracy    <       0.00466766 Ry

     iteration # 47     ecut=    29.40 Ry     beta= 0.05
     Davidson diagonalization with overlap
     ethr =  7.92E-07,  avg # of iterations =  9.5

     negative rho (up, down):  1.861E-02 0.000E+00
 
     Adding external electric field

     Computed dipole along edir(3) : 
        Dipole                0.7795 Ry au,          1.9812 Debye
        Dipole field          0.0015 Ry au, 
 
        Potential amp.       -0.1364 Ry
        Total length         46.3494 bohr
 

     total cpu time spent up to now is      900.3 secs

     total energy              =   -2926.39941257 Ry
     estimated scf accuracy    <       0.00059503 Ry

     iteration # 48     ecut=    29.40 Ry     beta= 0.05
     Davidson diagonalization with overlap
     c_bands:  1 eigenvalues not converged
     ethr =  1.53E-07,  avg # of iterations = 13.2

     negative rho (up, down):  1.882E-02 0.000E+00
 
     Adding external electric field

     Computed dipole along edir(3) : 
        Dipole                0.7848 Ry au,          1.9948 Debye
        Dipole field          0.0015 Ry au, 
 
        Potential amp.       -0.1373 Ry
        Total length         46.3494 bohr
 

     total cpu time spent up to now is      918.7 secs

     total energy              =   -2926.39948616 Ry
     estimated scf accuracy    <       0.00025814 Ry

     iteration # 49     ecut=    29.40 Ry     beta= 0.05
     Davidson diagonalization with overlap
     ethr =  6.62E-08,  avg # of iterations =  6.4

     negative rho (up, down):  1.900E-02 0.000E+00
 
     Adding external electric field

     Computed dipole along edir(3) : 
        Dipole                0.7905 Ry au,          2.0092 Debye
        Dipole field          0.0015 Ry au, 
 
        Potential amp.       -0.1383 Ry
        Total length         46.3494 bohr
 

     total cpu time spent up to now is      934.3 secs

     total energy              =   -2926.39951962 Ry
     estimated scf accuracy    <       0.00013468 Ry

     iteration # 50     ecut=    29.40 Ry     beta= 0.05
     Davidson diagonalization with overlap
     ethr =  3.45E-08,  avg # of iterations = 13.9

     negative rho (up, down):  1.911E-02 0.000E+00
 
     Adding external electric field

     Computed dipole along edir(3) : 
        Dipole                0.7863 Ry au,          1.9987 Debye
        Dipole field          0.0015 Ry au, 
 
        Potential amp.       -0.1376 Ry
        Total length         46.3494 bohr
 

     total cpu time spent up to now is     1055.8 secs

     total energy              =   -2926.39955254 Ry
     estimated scf accuracy    <       0.00009146 Ry

     iteration # 51     ecut=    29.40 Ry     beta= 0.05
     Davidson diagonalization with overlap
     ethr =  2.35E-08,  avg # of iterations =  8.5

     negative rho (up, down):  1.910E-02 0.000E+00
 
     Adding external electric field

     Computed dipole along edir(3) : 
        Dipole                0.7847 Ry au,          1.9945 Debye
        Dipole field          0.0015 Ry au, 
 
        Potential amp.       -0.1373 Ry
        Total length         46.3494 bohr
 

     total cpu time spent up to now is     1198.9 secs

     total energy              =   -2926.39957186 Ry
     estimated scf accuracy    <       0.00004340 Ry

     iteration # 52     ecut=    29.40 Ry     beta= 0.05
     Davidson diagonalization with overlap
     ethr =  1.11E-08,  avg # of iterations = 10.1

     negative rho (up, down):  1.921E-02 0.000E+00
 
     Adding external electric field

     Computed dipole along edir(3) : 
        Dipole                0.7897 Ry au,          2.0073 Debye
        Dipole field          0.0015 Ry au, 
 
        Potential amp.       -0.1381 Ry
        Total length         46.3494 bohr
 

     total cpu time spent up to now is     1396.9 secs

     total energy              =   -2926.39959051 Ry
     estimated scf accuracy    <       0.00002597 Ry

     iteration # 53     ecut=    29.40 Ry     beta= 0.05
     Davidson diagonalization with overlap
     ethr =  6.66E-09,  avg # of iterations =  7.4

     negative rho (up, down):  1.930E-02 0.000E+00
 
     Adding external electric field

     Computed dipole along edir(3) : 
        Dipole                0.7903 Ry au,          2.0088 Debye
        Dipole field          0.0015 Ry au, 
 
        Potential amp.       -0.1383 Ry
        Total length         46.3494 bohr
 

     total cpu time spent up to now is     1549.8 secs

     total energy              =   -2926.39960576 Ry
     estimated scf accuracy    <       0.00001545 Ry

     iteration # 54     ecut=    29.40 Ry     beta= 0.05
     Davidson diagonalization with overlap
     ethr =  3.96E-09,  avg # of iterations = 12.8

     negative rho (up, down):  1.926E-02 0.000E+00
 
     Adding external electric field

     Computed dipole along edir(3) : 
        Dipole                0.7894 Ry au,          2.0064 Debye
        Dipole field          0.0015 Ry au, 
 
        Potential amp.       -0.1381 Ry
        Total length         46.3494 bohr
 

     total cpu time spent up to now is     1725.6 secs

     total energy              =   -2926.39961782 Ry
     estimated scf accuracy    <       0.00000680 Ry

     iteration # 55     ecut=    29.40 Ry     beta= 0.05
     Davidson diagonalization with overlap
     ethr =  1.74E-09,  avg # of iterations =  9.6

     negative rho (up, down):  1.923E-02 0.000E+00
 
     Adding external electric field

     Computed dipole along edir(3) : 
        Dipole                0.7895 Ry au,          2.0066 Debye
        Dipole field          0.0015 Ry au, 
 
        Potential amp.       -0.1381 Ry
        Total length         46.3494 bohr
 

     total cpu time spent up to now is     1925.2 secs

     total energy              =   -2926.39962852 Ry
     estimated scf accuracy    <       0.00000429 Ry

     iteration # 56     ecut=    29.40 Ry     beta= 0.05
     Davidson diagonalization with overlap
     ethr =  1.10E-09,  avg # of iterations =  9.7

     negative rho (up, down):  1.917E-02 0.000E+00
 
     Adding external electric field

     Computed dipole along edir(3) : 
        Dipole                0.7878 Ry au,          2.0023 Debye
        Dipole field          0.0015 Ry au, 
 
        Potential amp.       -0.1378 Ry
        Total length         46.3494 bohr
 

     total cpu time spent up to now is     2094.8 secs

     total energy              =   -2926.39963794 Ry
     estimated scf accuracy    <       0.00000218 Ry

     iteration # 57     ecut=    29.40 Ry     beta= 0.05
     Davidson diagonalization with overlap
     ethr =  5.60E-10,  avg # of iterations =  8.5

     negative rho (up, down):  1.915E-02 0.000E+00
 
     Adding external electric field

     Computed dipole along edir(3) : 
        Dipole                0.7874 Ry au,          2.0014 Debye
        Dipole field          0.0015 Ry au, 
 
        Potential amp.       -0.1377 Ry
        Total length         46.3494 bohr
 

     total cpu time spent up to now is     2282.0 secs

     total energy              =   -2926.39964672 Ry
     estimated scf accuracy    <       0.00000125 Ry

     iteration # 58     ecut=    29.40 Ry     beta= 0.05
     Davidson diagonalization with overlap
     ethr =  3.19E-10,  avg # of iterations = 10.4

     negative rho (up, down):  1.915E-02 0.000E+00
 
     Adding external electric field

     Computed dipole along edir(3) : 
        Dipole                0.7876 Ry au,          2.0018 Debye
        Dipole field          0.0015 Ry au, 
 
        Potential amp.       -0.1378 Ry
        Total length         46.3494 bohr
 

     total cpu time spent up to now is     2430.4 secs

     total energy              =   -2926.39965449 Ry
     estimated scf accuracy    <       0.00000070 Ry

     iteration # 59     ecut=    29.40 Ry     beta= 0.05
     Davidson diagonalization with overlap
     ethr =  1.79E-10,  avg # of iterations = 11.2

     negative rho (up, down):  1.910E-02 0.000E+00
 
     Adding external electric field

     Computed dipole along edir(3) : 
        Dipole                0.7870 Ry au,          2.0004 Debye
        Dipole field          0.0015 Ry au, 
 
        Potential amp.       -0.1377 Ry
        Total length         46.3494 bohr
 

     total cpu time spent up to now is     2605.5 secs

     total energy              =   -2926.39966155 Ry
     estimated scf accuracy    <       0.00000049 Ry

     iteration # 60     ecut=    29.40 Ry     beta= 0.05
     Davidson diagonalization with overlap
     ethr =  1.25E-10,  avg # of iterations = 11.1

     negative rho (up, down):  1.910E-02 0.000E+00
 
     Adding external electric field

     Computed dipole along edir(3) : 
        Dipole                0.7870 Ry au,          2.0004 Debye
        Dipole field          0.0015 Ry au, 
 
        Potential amp.       -0.1377 Ry
        Total length         46.3494 bohr
 

     total cpu time spent up to now is     2843.0 secs

     total energy              =   -2926.39966794 Ry
     estimated scf accuracy    <       0.00000052 Ry

     iteration # 61     ecut=    29.40 Ry     beta= 0.05
     Davidson diagonalization with overlap
     ethr =  1.25E-10,  avg # of iterations =  2.0

     negative rho (up, down):  1.911E-02 0.000E+00
 
     Adding external electric field

     Computed dipole along edir(3) : 
        Dipole                0.7870 Ry au,          2.0003 Debye
        Dipole field          0.0015 Ry au, 
 
        Potential amp.       -0.1377 Ry
        Total length         46.3494 bohr
 

     total cpu time spent up to now is     2966.0 secs

     total energy              =   -2926.39967349 Ry
     estimated scf accuracy    <       0.00000036 Ry

     iteration # 62     ecut=    29.40 Ry     beta= 0.05
     Davidson diagonalization with overlap
     ethr =  9.21E-11,  avg # of iterations = 14.3

     negative rho (up, down):  1.909E-02 0.000E+00
 
     Adding external electric field

     Computed dipole along edir(3) : 
        Dipole                0.7868 Ry au,          1.9997 Debye
        Dipole field          0.0015 Ry au, 
 
        Potential amp.       -0.1376 Ry
        Total length         46.3494 bohr
 

     total cpu time spent up to now is     3114.4 secs

     total energy              =   -2926.39967869 Ry
     estimated scf accuracy    <       0.00000020 Ry

     iteration # 63     ecut=    29.40 Ry     beta= 0.05
     Davidson diagonalization with overlap
     ethr =  5.05E-11,  avg # of iterations = 11.0

     negative rho (up, down):  1.908E-02 0.000E+00
 
     Adding external electric field

     Computed dipole along edir(3) : 
        Dipole                0.7864 Ry au,          1.9989 Debye
        Dipole field          0.0015 Ry au, 
 
        Potential amp.       -0.1376 Ry
        Total length         46.3494 bohr
 

     total cpu time spent up to now is     3302.6 secs

     total energy              =   -2926.39968335 Ry
     estimated scf accuracy    <       0.00000009 Ry

     iteration # 64     ecut=    29.40 Ry     beta= 0.05
     Davidson diagonalization with overlap
     ethr =  2.22E-11,  avg # of iterations = 11.3

     negative rho (up, down):  1.911E-02 0.000E+00
 
     Adding external electric field

     Computed dipole along edir(3) : 
        Dipole                0.7854 Ry au,          1.9963 Debye
        Dipole field          0.0015 Ry au, 
 
        Potential amp.       -0.1374 Ry
        Total length         46.3494 bohr
 

     total cpu time spent up to now is     3406.0 secs

     End of self-consistent calculation

          k = 0.0000 0.0000 0.0000 ( 18029 PWs)   bands (ev):

   -55.9562 -55.9430 -55.9183 -55.9064 -55.8653 -55.8244 -55.8019 -55.7891
   -55.7311 -55.7066 -55.6730 -55.6167 -55.5672 -55.4978 -54.9234 -54.8893
   -32.5104 -32.4220 -32.3059 -32.2963 -32.2732 -32.2505 -32.2261 -32.1982
   -32.1915 -32.1836 -32.1640 -32.1510 -32.1251 -32.1231 -32.1153 -32.0973
   -32.0902 -32.0740 -32.0544 -32.0443 -32.0203 -32.0072 -31.9985 -31.9983
   -31.9827 -31.9686 -31.9506 -31.9426 -31.9295 -31.9208 -31.9159 -31.8910
   -31.8828 -31.8552 -31.8381 -31.8198 -31.8171 -31.8046 -31.7980 -31.7306
   -31.6833 -31.6117 -31.3316 -31.2403 -31.2176 -31.1479 -31.0616 -30.9508
   -18.0612 -16.7128 -16.4111 -16.2766 -16.1303 -16.0844 -15.9833 -15.7992
   -15.6958 -15.6447 -15.5803 -15.5571 -15.5543 -15.5032 -15.4936 -15.4877
   -15.4636 -15.4246 -15.3893 -15.3483 -15.3451 -15.3379 -15.3047 -15.2427
   -15.2123 -15.1152 -15.0610 -14.9646 -14.9605 -14.8269 -13.4263 -13.3095
   -10.2788  -6.6085  -4.0632  -3.9441  -3.8785  -3.8336  -3.7777  -3.5735
    -3.5203  -3.3196  -3.2493  -3.1462  -3.1022  -3.0829  -3.0771  -3.0092
    -2.8693  -2.7734  -2.7647  -2.7509  -2.7285  -2.7170  -2.7076  -2.6914
    -2.6863  -2.6409  -2.5675  -2.4988  -2.4361  -2.3762  -2.3252  -2.2457
    -2.2319  -2.2169  -2.2055  -2.1999  -2.1643  -2.1568  -2.1462  -2.0180
    -1.9947  -1.9060  -1.7833  -1.7626  -1.6472  -1.5669  -1.5486  -1.4188
    -1.3826  -1.3494  -1.3161  -1.2705  -1.2370  -1.2266  -1.1517  -1.1100
    -1.0141  -0.9781  -0.8787  -0.8336  -0.8285  -0.7676  -0.6905  -0.6792
    -0.6653  -0.5266  -0.4396  -0.4302  -0.4263  -0.3430  -0.2873  -0.2347
    -0.1877  -0.1792  -0.1604  -0.1213  -0.0937   0.0049   0.0146   0.0482
     0.0621   0.1002   0.1901   0.2592   0.2722   0.3316   0.3471   0.5573
     0.5681   0.5791   0.7177   0.7647   1.0127   1.0978   1.1238   1.2853
     1.6782   1.7331   3.1504   3.2385   3.2545   3.2913   3.3553   3.4009
     3.5539   3.6058   3.6504   3.6774   3.7021

          k = 0.0000 0.0419 0.0000 ( 17933 PWs)   bands (ev):

   -55.9518 -55.9378 -55.9225 -55.9116 -55.8628 -55.8202 -55.8042 -55.7931
   -55.7296 -55.7017 -55.6779 -55.6179 -55.5651 -55.4997 -54.9183 -54.8942
   -32.4528 -32.3683 -32.2633 -32.2523 -32.2460 -32.2444 -32.2134 -32.2030
   -32.1825 -32.1522 -32.1405 -32.1394 -32.1361 -32.1213 -32.1017 -32.1008
   -32.0916 -32.0853 -32.0846 -32.0488 -32.0340 -32.0097 -32.0020 -31.9967
   -31.9856 -31.9767 -31.9757 -31.9745 -31.9444 -31.9381 -31.9194 -31.9026
   -31.8815 -31.8744 -31.8612 -31.8596 -31.8321 -31.8176 -31.8009 -31.7303
   -31.6969 -31.6369 -31.2775 -31.2368 -31.2207 -31.1353 -31.0741 -31.0079
   -18.0588 -16.5789 -16.2909 -16.1666 -16.0383 -15.9788 -15.9514 -15.8372
   -15.7400 -15.6768 -15.6039 -15.5930 -15.5568 -15.5470 -15.4977 -15.4422
   -15.4392 -15.4259 -15.4048 -15.4034 -15.3500 -15.3278 -15.2922 -15.2720
   -15.2603 -15.1706 -15.1196 -15.0227 -15.0206 -14.9026 -13.4302 -13.3489
   -10.2803  -6.6089  -3.8749  -3.7803  -3.7190  -3.6568  -3.6199  -3.4401
    -3.2803  -3.2483  -3.1849  -3.1270  -3.0250  -3.0086  -2.9894  -2.9343
    -2.9145  -2.8989  -2.8700  -2.8572  -2.8269  -2.8014  -2.7659  -2.7228
    -2.6741  -2.6718  -2.6597  -2.6270  -2.5992  -2.4955  -2.4511  -2.4008
    -2.3836  -2.3415  -2.3022  -2.2164  -2.2114  -2.1644  -2.0560  -2.0082
    -1.8729  -1.7663  -1.7552  -1.6399  -1.6248  -1.5860  -1.4618  -1.3467
    -1.2829  -1.2674  -1.2366  -1.1556  -1.0839  -1.0410  -1.0142  -1.0024
    -0.9190  -0.9133  -0.8805  -0.8545  -0.8270  -0.7715  -0.6964  -0.6713
    -0.6390  -0.6238  -0.5795  -0.4568  -0.4434  -0.4246  -0.3836  -0.3691
    -0.3084  -0.2547  -0.2140  -0.1877  -0.1375  -0.0904  -0.0573  -0.0418
    -0.0208   0.0562   0.1234   0.1430   0.1824   0.2729   0.3854   0.3921
     0.4458   0.4773   0.5667   0.6734   0.7146   0.9954   1.2875   1.3646
     1.6277   1.6447   3.1995   3.3678   3.4102   3.4839   3.5106   3.5709
     3.5777   3.6334   3.6396   3.6704   3.7293

          k = 0.0000-0.0839 0.0000 ( 17884 PWs)   bands (ev):

   -55.9455 -55.9287 -55.9275 -55.9218 -55.8602 -55.8140 -55.8067 -55.7992
   -55.7282 -55.6901 -55.6895 -55.6192 -55.5629 -55.5018 -54.9068 -54.9057
   -32.3148 -32.3104 -32.2472 -32.2464 -32.2378 -32.2282 -32.2128 -32.2122
   -32.1537 -32.1462 -32.1298 -32.1218 -32.1155 -32.1125 -32.1099 -32.0941
   -32.0735 -32.0735 -32.0673 -32.0622 -32.0545 -32.0309 -32.0145 -32.0063
   -32.0048 -32.0040 -31.9903 -31.9868 -31.9658 -31.9520 -31.9318 -31.9273
   -31.9247 -31.9227 -31.8804 -31.8617 -31.8450 -31.8183 -31.7981 -31.7317
   -31.7195 -31.6568 -31.2291 -31.2279 -31.1450 -31.1441 -31.1052 -31.1041
   -18.0564 -16.2485 -16.2348 -16.0209 -16.0087 -15.8959 -15.8909 -15.8441
   -15.7887 -15.7657 -15.7296 -15.6763 -15.6481 -15.5554 -15.4774 -15.4693
   -15.4144 -15.3951 -15.3627 -15.3368 -15.3253 -15.3067 -15.3024 -15.2653
   -15.2584 -15.2351 -15.1659 -15.1466 -15.1381 -15.0032 -13.4134 -13.4097
   -10.2819  -6.6094  -3.4814  -3.4199  -3.4138  -3.3565  -3.3440  -3.3087
    -3.2905  -3.2672  -3.2142  -3.2046  -3.1576  -3.0770  -3.0667  -3.0533
    -3.0382  -2.9829  -2.9122  -2.8831  -2.8697  -2.8213  -2.8161  -2.7468
    -2.7194  -2.7097  -2.7085  -2.6713  -2.6459  -2.5625  -2.5368  -2.4927
    -2.4196  -2.3942  -2.3264  -2.2922  -2.0381  -1.9885  -1.8866  -1.8611
    -1.8431  -1.6879  -1.6460  -1.6329  -1.5823  -1.4205  -1.4105  -1.3659
    -1.3479  -1.3326  -1.3129  -1.2839  -1.2501  -1.2110  -1.1545  -1.0815
    -1.0447  -0.8367  -0.8069  -0.7525  -0.6524  -0.6432  -0.6058  -0.5914
    -0.5596  -0.5548  -0.5395  -0.4214  -0.4161  -0.3996  -0.3945  -0.3756
    -0.3445  -0.3375  -0.3078  -0.2738  -0.2610  -0.2077  -0.2033  -0.1608
    -0.1372  -0.0817  -0.0674  -0.0039   0.0810   0.2100   0.2526   0.3009
     0.3046   0.5480   0.5615   0.5783   0.7308   0.7869   1.4270   1.4283
     1.5695   1.5698   3.2291   3.4712   3.4832   3.5079   3.5571   3.6218
     3.6448   3.6640   3.7809   3.8188   3.8235

          k = 0.0380 0.0000 0.0000 ( 17913 PWs)   bands (ev):

   -55.9560 -55.9429 -55.9182 -55.9063 -55.8652 -55.8244 -55.8017 -55.7889
   -55.7308 -55.7066 -55.6729 -55.6166 -55.5671 -55.4977 -54.9233 -54.8892
   -32.5105 -32.4229 -32.3079 -32.3016 -32.2731 -32.2503 -32.2261 -32.1981
   -32.1952 -32.1837 -32.1639 -32.1332 -32.1259 -32.1231 -32.1125 -32.0899
   -32.0893 -32.0676 -32.0542 -32.0440 -32.0258 -32.0201 -31.9982 -31.9806
   -31.9795 -31.9678 -31.9495 -31.9433 -31.9295 -31.9205 -31.9158 -31.8989
   -31.8871 -31.8549 -31.8378 -31.8196 -31.8164 -31.8099 -31.7989 -31.7315
   -31.6831 -31.6116 -31.3311 -31.2435 -31.2156 -31.1477 -31.0614 -30.9505
   -18.0606 -16.6417 -16.3217 -16.2115 -16.1278 -15.9909 -15.9824 -15.8476
   -15.7133 -15.6758 -15.6481 -15.6451 -15.6199 -15.6033 -15.5427 -15.5199
   -15.5180 -15.4442 -15.3763 -15.3368 -15.3101 -15.2623 -15.2317 -15.1958
   -15.1728 -15.1268 -15.0837 -15.0500 -14.9556 -14.8238 -13.4230 -13.3092
   -10.2794  -6.6122  -3.9871  -3.7457  -3.6639  -3.6067  -3.5544  -3.5024
    -3.4701  -3.4211  -3.3268  -3.2409  -3.1667  -3.1180  -3.0404  -3.0122
    -2.9665  -2.9509  -2.8494  -2.7225  -2.6947  -2.6537  -2.6423  -2.6341
    -2.5642  -2.5506  -2.5165  -2.4670  -2.4607  -2.3208  -2.2981  -2.2728
    -2.2062  -2.1834  -2.1734  -2.1232  -2.0619  -1.9989  -1.9542  -1.9326
    -1.8961  -1.8478  -1.8016  -1.7877  -1.7169  -1.5960  -1.5618  -1.5185
    -1.4464  -1.3695  -1.3449  -1.3256  -1.3093  -1.2382  -1.2278  -1.1931
    -1.1335  -0.9816  -0.8840  -0.8198  -0.8012  -0.7872  -0.7603  -0.7457
    -0.6618  -0.5608  -0.5097  -0.4614  -0.4324  -0.3992  -0.3408  -0.2918
    -0.2794  -0.2110  -0.2040  -0.1874  -0.1222  -0.1119  -0.0741  -0.0614
    -0.0355   0.0633   0.1134   0.1922   0.2309   0.2850   0.3213   0.3460
     0.4083   0.5852   0.6678   0.7627   0.9857   1.0212   1.1097   1.2540
     1.5644   1.6457   3.1574   3.2746   3.3843   3.4803   3.4986   3.5160
     3.5686   3.6178   3.6484   3.6890   3.7158

          k = 0.0380 0.0419 0.0000 ( 17878 PWs)   bands (ev):

   -55.9517 -55.9376 -55.9225 -55.9115 -55.8628 -55.8202 -55.8041 -55.7931
   -55.7295 -55.7017 -55.6779 -55.6179 -55.5651 -55.4996 -54.9183 -54.8942
   -32.4529 -32.3691 -32.2633 -32.2542 -32.2517 -32.2447 -32.2134 -32.2030
   -32.1825 -32.1524 -32.1437 -32.1372 -32.1246 -32.1217 -32.1013 -32.0989
   -32.0934 -32.0775 -32.0749 -32.0489 -32.0336 -32.0205 -32.0070 -31.9930
   -31.9777 -31.9772 -31.9746 -31.9688 -31.9434 -31.9387 -31.9195 -31.9027
   -31.8852 -31.8741 -31.8671 -31.8593 -31.8320 -31.8175 -31.8068 -31.7318
   -31.6967 -31.6367 -31.2771 -31.2393 -31.2197 -31.1351 -31.0742 -31.0077
   -18.0583 -16.5138 -16.2071 -16.1121 -16.0290 -15.9497 -15.8903 -15.8305
   -15.7820 -15.7064 -15.6352 -15.6226 -15.5888 -15.5655 -15.5559 -15.5301
   -15.4783 -15.4506 -15.3959 -15.3586 -15.3350 -15.3096 -15.2923 -15.2522
   -15.2436 -15.1800 -15.1528 -15.0986 -15.0160 -14.9001 -13.4279 -13.3491
   -10.2809  -6.6109  -3.8120  -3.5955  -3.5095  -3.4494  -3.3797  -3.3331
    -3.2759  -3.2528  -3.2258  -3.1213  -3.0289  -2.9946  -2.9798  -2.9464
    -2.9165  -2.8659  -2.8400  -2.8114  -2.7956  -2.7320  -2.7206  -2.6884
    -2.6783  -2.6447  -2.6183  -2.5672  -2.5611  -2.5095  -2.4409  -2.4146
    -2.3671  -2.2829  -2.2798  -2.1839  -2.1603  -2.0997  -1.9706  -1.9526
    -1.8948  -1.8451  -1.7055  -1.6707  -1.6163  -1.5196  -1.4460  -1.4236
    -1.3709  -1.3096  -1.2816  -1.2354  -1.2204  -1.1864  -1.1336  -1.0530
    -1.0036  -0.9672  -0.9500  -0.8993  -0.8453  -0.7907  -0.7738  -0.7029
    -0.6957  -0.6550  -0.6519  -0.6124  -0.5621  -0.5262  -0.4965  -0.4541
    -0.4417  -0.3798  -0.3470  -0.2768  -0.2366  -0.1829  -0.1325  -0.0589
    -0.0545   0.0438   0.1119   0.1837   0.2188   0.3179   0.3419   0.3824
     0.4388   0.5305   0.5775   0.6274   0.6753   0.9480   1.2996   1.3692
     1.5501   1.6219   3.1990   3.3841   3.4398   3.5236   3.5487   3.5935
     3.6249   3.6490   3.7120   3.7281   3.7602

          k = 0.0380-0.0839 0.0000 ( 17916 PWs)   bands (ev):

   -55.9455 -55.9288 -55.9275 -55.9218 -55.8602 -55.8141 -55.8067 -55.7993
   -55.7281 -55.6901 -55.6895 -55.6192 -55.5630 -55.5018 -54.9068 -54.9058
   -32.3150 -32.3106 -32.2473 -32.2470 -32.2380 -32.2289 -32.2129 -32.2123
   -32.1546 -32.1467 -32.1447 -32.1332 -32.1227 -32.0964 -32.0884 -32.0850
   -32.0730 -32.0724 -32.0651 -32.0611 -32.0520 -32.0300 -32.0157 -32.0106
   -32.0087 -32.0043 -31.9998 -31.9958 -31.9536 -31.9434 -31.9316 -31.9275
   -31.9256 -31.9102 -31.8842 -31.8732 -31.8450 -31.8182 -31.8055 -31.7332
   -31.7197 -31.6567 -31.2301 -31.2288 -31.1449 -31.1440 -31.1052 -31.1041
   -18.0562 -16.1988 -16.1954 -15.9664 -15.9544 -15.9124 -15.8480 -15.7940
   -15.7682 -15.7428 -15.7232 -15.6648 -15.6234 -15.5431 -15.5038 -15.4843
   -15.4586 -15.4402 -15.4123 -15.3878 -15.3539 -15.3473 -15.3350 -15.2977
   -15.2742 -15.2298 -15.2173 -15.1890 -15.1215 -14.9971 -13.4132 -13.4095
   -10.2827  -6.6093  -3.4423  -3.4037  -3.3432  -3.2241  -3.1592  -3.1467
    -3.1260  -3.1127  -3.0875  -3.0210  -2.9994  -2.9975  -2.9845  -2.9645
    -2.9371  -2.9061  -2.8718  -2.8466  -2.8143  -2.7985  -2.7509  -2.7329
    -2.7076  -2.6800  -2.6720  -2.6427  -2.6118  -2.5832  -2.5482  -2.4755
    -2.4680  -2.4110  -2.1418  -2.0953  -2.0485  -1.9910  -1.8776  -1.8606
    -1.8237  -1.7780  -1.7632  -1.7265  -1.7182  -1.6685  -1.6415  -1.5907
    -1.5539  -1.4601  -1.4473  -1.3967  -1.2420  -1.2208  -1.1497  -1.1395
    -1.0129  -1.0015  -0.9100  -0.8999  -0.8250  -0.7850  -0.7330  -0.6981
    -0.6810  -0.6641  -0.6551  -0.6090  -0.5863  -0.5276  -0.5087  -0.4871
    -0.4749  -0.4345  -0.4069  -0.3504  -0.3298  -0.2282  -0.1360  -0.0943
    -0.0635   0.0702   0.1151   0.1356   0.1921   0.2061   0.2535   0.3488
     0.3890   0.5095   0.5190   0.5821   0.7236   0.7650   1.4412   1.4428
     1.5571   1.5614   3.2198   3.4116   3.4489   3.5216   3.5599   3.6088
     3.6263   3.7194   3.8032   3.8291   3.8368

          k = 0.0380-0.0419 0.0000 ( 17876 PWs)   bands (ev):

   -55.9517 -55.9376 -55.9225 -55.9115 -55.8628 -55.8202 -55.8041 -55.7931
   -55.7295 -55.7017 -55.6779 -55.6179 -55.5651 -55.4996 -54.9183 -54.8942
   -32.4529 -32.3691 -32.2633 -32.2543 -32.2517 -32.2447 -32.2134 -32.2030
   -32.1825 -32.1524 -32.1437 -32.1371 -32.1243 -32.1219 -32.1011 -32.0991
   -32.0935 -32.0771 -32.0747 -32.0489 -32.0336 -32.0211 -32.0067 -31.9938
   -31.9775 -31.9772 -31.9743 -31.9688 -31.9434 -31.9387 -31.9195 -31.9027
   -31.8851 -31.8742 -31.8671 -31.8592 -31.8320 -31.8176 -31.8069 -31.7315
   -31.6968 -31.6368 -31.2771 -31.2393 -31.2196 -31.1351 -31.0742 -31.0077
   -18.0583 -16.5138 -16.2071 -16.1128 -16.0282 -15.9499 -15.8899 -15.8304
   -15.7819 -15.6999 -15.6463 -15.6248 -15.5849 -15.5654 -15.5564 -15.5290
   -15.4773 -15.4481 -15.3961 -15.3580 -15.3350 -15.3110 -15.2935 -15.2524
   -15.2433 -15.1802 -15.1523 -15.0989 -15.0161 -14.8995 -13.4279 -13.3491
   -10.2811  -6.6105  -3.8121  -3.5900  -3.5095  -3.4491  -3.3791  -3.3349
    -3.2743  -3.2537  -3.2314  -3.1258  -3.0324  -2.9986  -2.9731  -2.9468
    -2.9130  -2.8734  -2.8346  -2.8094  -2.7883  -2.7320  -2.7085  -2.6923
    -2.6789  -2.6455  -2.6260  -2.5683  -2.5610  -2.5031  -2.4507  -2.4152
    -2.3915  -2.2907  -2.2745  -2.1830  -2.1604  -2.0991  -1.9675  -1.9536
    -1.8908  -1.8424  -1.7012  -1.6670  -1.6111  -1.5196  -1.4470  -1.4203
    -1.3683  -1.3057  -1.2844  -1.2357  -1.2113  -1.1844  -1.1387  -1.0523
    -1.0001  -0.9663  -0.9437  -0.9106  -0.8473  -0.7934  -0.7771  -0.7124
    -0.6796  -0.6540  -0.6384  -0.6064  -0.5609  -0.5231  -0.5016  -0.4537
    -0.4450  -0.3844  -0.3500  -0.2692  -0.2368  -0.1853  -0.1350  -0.0651
    -0.0532   0.0427   0.1141   0.1809   0.2174   0.3105   0.3480   0.3776
     0.4383   0.5295   0.5708   0.6320   0.6761   0.9481   1.2997   1.3691
     1.5500   1.6225   3.1876   3.3810   3.4423   3.5203   3.5506   3.5908
     3.6242   3.6499   3.7210   3.7349   3.7613

          k =-0.0760-0.0000 0.0000 ( 17886 PWs)   bands (ev):

   -55.9560 -55.9428 -55.9182 -55.9063 -55.8651 -55.8244 -55.8017 -55.7889
   -55.7306 -55.7067 -55.6729 -55.6166 -55.5670 -55.4976 -54.9232 -54.8892
   -32.5107 -32.4238 -32.3099 -32.3067 -32.2729 -32.2502 -32.2261 -32.1989
   -32.1980 -32.1839 -32.1640 -32.1271 -32.1230 -32.1097 -32.1044 -32.0898
   -32.0809 -32.0622 -32.0550 -32.0540 -32.0440 -32.0204 -31.9982 -31.9789
   -31.9677 -31.9489 -31.9448 -31.9429 -31.9296 -31.9259 -31.9204 -31.9157
   -31.8926 -31.8546 -31.8375 -31.8196 -31.8170 -31.8128 -31.8002 -31.7325
   -31.6830 -31.6116 -31.3307 -31.2467 -31.2143 -31.1476 -31.0613 -30.9506
   -18.0600 -16.5465 -16.2708 -16.0984 -16.0697 -15.9837 -15.9380 -15.8499
   -15.7658 -15.7358 -15.7248 -15.7030 -15.6378 -15.6262 -15.6167 -15.5996
   -15.5066 -15.4913 -15.3266 -15.3255 -15.3226 -15.2997 -15.2866 -15.1855
   -15.1493 -15.1305 -15.0834 -14.9963 -14.9554 -14.8215 -13.4200 -13.3089
   -10.2801  -6.6158  -3.9663  -3.6639  -3.5478  -3.4842  -3.3741  -3.3320
    -3.3288  -3.3175  -3.2565  -3.2213  -3.1961  -3.1761  -3.1403  -2.9793
    -2.9629  -2.8475  -2.7502  -2.7158  -2.6981  -2.6269  -2.5164  -2.5129
    -2.4821  -2.4661  -2.4398  -2.4343  -2.3924  -2.3129  -2.2781  -2.2093
    -2.1924  -2.1861  -2.1677  -2.1633  -2.1443  -2.1076  -2.0794  -2.0068
    -1.9449  -1.7954  -1.7085  -1.6985  -1.6020  -1.5961  -1.5558  -1.5149
    -1.5062  -1.4589  -1.3986  -1.3553  -1.3243  -1.2792  -1.2720  -1.2149
    -1.2014  -1.1304  -1.0868  -1.0499  -0.8595  -0.7737  -0.7513  -0.7316
    -0.6742  -0.6486  -0.6171  -0.5959  -0.4861  -0.4739  -0.4570  -0.3995
    -0.3377  -0.2822  -0.2318  -0.1851  -0.1732  -0.1584  -0.1543  -0.1018
    -0.0566   0.0494   0.0654   0.1232   0.1692   0.1949   0.3722   0.3978
     0.4829   0.5960   0.6858   0.7480   0.7615   1.0276   1.1316   1.2292
     1.4292   1.5835   3.1430   3.2750   3.2993   3.4175   3.4816   3.5226
     3.5980   3.6251   3.6560   3.6795   3.7010

          k =-0.0760 0.0419 0.0000 ( 17914 PWs)   bands (ev):

   -55.9517 -55.9376 -55.9225 -55.9116 -55.8628 -55.8203 -55.8041 -55.7931
   -55.7294 -55.7018 -55.6779 -55.6179 -55.5651 -55.4997 -54.9183 -54.8942
   -32.4532 -32.3701 -32.2635 -32.2578 -32.2563 -32.2448 -32.2135 -32.2030
   -32.1825 -32.1526 -32.1476 -32.1372 -32.1225 -32.1045 -32.1012 -32.0973
   -32.0944 -32.0700 -32.0653 -32.0488 -32.0422 -32.0335 -32.0075 -31.9902
   -31.9805 -31.9793 -31.9739 -31.9425 -31.9410 -31.9315 -31.9289 -31.9194
   -31.8895 -31.8688 -31.8687 -31.8624 -31.8320 -31.8176 -31.8135 -31.7332
   -31.6968 -31.6368 -31.2769 -31.2420 -31.2190 -31.1352 -31.0742 -31.0078
   -18.0579 -16.4272 -16.1614 -16.0068 -15.9727 -15.9468 -15.8550 -15.8239
   -15.7626 -15.7310 -15.6793 -15.6673 -15.6252 -15.6144 -15.5937 -15.5857
   -15.4917 -15.4567 -15.4197 -15.3730 -15.3434 -15.3418 -15.3386 -15.2473
   -15.2250 -15.1958 -15.1624 -15.0913 -15.0159 -14.8979 -13.4258 -13.3495
   -10.2818  -6.6125  -3.7974  -3.5231  -3.3137  -3.2787  -3.2712  -3.1672
    -3.1250  -3.1010  -3.0551  -3.0196  -3.0113  -3.0018  -2.9769  -2.9166
    -2.9096  -2.8843  -2.8559  -2.7531  -2.7275  -2.7271  -2.6784  -2.6453
    -2.6021  -2.5987  -2.5500  -2.5184  -2.4955  -2.4920  -2.4130  -2.4079
    -2.3256  -2.3090  -2.2475  -2.1239  -2.0678  -2.0437  -2.0142  -1.9858
    -1.9454  -1.8265  -1.7152  -1.6155  -1.5718  -1.5018  -1.4952  -1.4805
    -1.4552  -1.4303  -1.3702  -1.2996  -1.2726  -1.2552  -1.1942  -1.1795
    -1.1574  -1.1252  -1.0821  -1.0477  -1.0418  -0.9917  -0.9527  -0.8775
    -0.8219  -0.7993  -0.7493  -0.6843  -0.6530  -0.6448  -0.6035  -0.5479
    -0.4984  -0.4641  -0.3742  -0.3156  -0.2963  -0.2002  -0.0809  -0.0711
    -0.0360   0.0554   0.1636   0.2042   0.2445   0.3460   0.4003   0.4509
     0.5342   0.5611   0.6199   0.6250   0.6444   0.7997   1.3154   1.3726
     1.4748   1.6082   3.1771   3.3345   3.3896   3.4819   3.5198   3.5543
     3.5718   3.6338   3.6947   3.7597   3.7921

          k =-0.0760-0.0839 0.0000 ( 17948 PWs)   bands (ev):

   -55.9455 -55.9288 -55.9275 -55.9218 -55.8602 -55.8141 -55.8067 -55.7993
   -55.7281 -55.6902 -55.6896 -55.6193 -55.5630 -55.5019 -54.9068 -54.9058
   -32.3153 -32.3109 -32.2475 -32.2475 -32.2382 -32.2297 -32.2131 -32.2123
   -32.1555 -32.1524 -32.1470 -32.1400 -32.1235 -32.0977 -32.0786 -32.0712
   -32.0672 -32.0650 -32.0623 -32.0599 -32.0475 -32.0282 -32.0219 -32.0141
   -32.0123 -32.0090 -32.0068 -32.0030 -31.9543 -31.9314 -31.9273 -31.9272
   -31.9121 -31.8994 -31.8954 -31.8883 -31.8449 -31.8182 -31.8145 -31.7348
   -31.7200 -31.6567 -31.2310 -31.2297 -31.1449 -31.1440 -31.1052 -31.1041
   -18.0559 -16.1507 -16.1227 -15.9728 -15.8818 -15.8706 -15.8254 -15.7667
   -15.7380 -15.6820 -15.6494 -15.6307 -15.6140 -15.5971 -15.5723 -15.5241
   -15.4742 -15.4683 -15.4585 -15.4433 -15.3928 -15.3833 -15.3582 -15.3497
   -15.3270 -15.2622 -15.2405 -15.1947 -15.1150 -14.9922 -13.4130 -13.4093
   -10.2834  -6.6092  -3.4366  -3.4037  -3.3089  -3.2060  -3.0966  -3.0921
    -3.0128  -2.9499  -2.9104  -2.8619  -2.8178  -2.7943  -2.7623  -2.7583
    -2.7507  -2.7387  -2.7298  -2.6978  -2.6852  -2.6789  -2.6446  -2.6294
    -2.6083  -2.6014  -2.5606  -2.5488  -2.5341  -2.4913  -2.4883  -2.4830
    -2.4781  -2.2865  -2.2468  -2.2002  -2.1497  -2.0703  -2.0542  -2.0405
    -2.0001  -1.9853  -1.9746  -1.9068  -1.8118  -1.6938  -1.6581  -1.6351
    -1.6221  -1.5805  -1.4049  -1.3727  -1.3576  -1.3347  -1.3031  -1.2504
    -1.2185  -1.1995  -1.1043  -1.0838  -1.0407  -0.9666  -0.9110  -0.8909
    -0.8602  -0.8227  -0.7780  -0.7391  -0.6972  -0.6818  -0.6169  -0.5683
    -0.5235  -0.5040  -0.4857  -0.4016  -0.3233  -0.2982  -0.0956   0.0371
     0.0708   0.0834   0.2203   0.2363   0.2728   0.3442   0.3774   0.4203
     0.4786   0.5844   0.5866   0.5988   0.6082   0.6676   1.4592   1.4638
     1.5383   1.5502   3.2145   3.3988   3.4422   3.4817   3.5428   3.6862
     3.7102   3.7117   3.7348   3.7882   3.8564

     the Fermi energy is     3.1953 ev

!    total energy              =   -2926.39972560 Ry
     estimated scf accuracy    <       0.00000004 Ry
     smearing contrib. (-TS)   =      -0.03281136 Ry
     internal energy E=F+TS    =   -2926.36691424 Ry

     The total energy is F=E-TS. E is the sum of the following terms:
     one-electron contribution =  -24581.00477820 Ry
     hartree contribution      =   12374.65372938 Ry
     xc contribution           =    -480.78168405 Ry
     ewald contribution        =    9760.76465453 Ry
     electric field correction =       0.00116409 Ry

     convergence has been achieved in  64 iterations

     Forces acting on atoms (cartesian axes, Ry/au):

     atom    1 type  1   force =     0.00019734    0.00160221    0.10332691
     atom    2 type  1   force =     0.00006821   -0.00228423   -0.17662750
     atom    3 type  2   force =     0.00017959    0.00648831   -0.03461296
     atom    4 type  2   force =    -0.00004848   -0.00102516    0.05239710
     atom    5 type  2   force =    -0.01731864   -0.00086741    0.00516226
     atom    6 type  2   force =     0.01632898   -0.00066162    0.00402317
     atom    7 type  1   force =     0.00051284    0.00281198   -0.00769738
     atom    8 type  1   force =    -0.00011317   -0.00003555    0.00050120
     atom    9 type  2   force =     0.00014013   -0.00018704   -0.00051261
     atom   10 type  2   force =     0.00007012   -0.00014302   -0.00039825
     atom   11 type  2   force =     0.00024319    0.00017261    0.00031712
     atom   12 type  2   force =     0.00018745    0.00030932    0.00019922
     atom   13 type  1   force =    -0.00040159    0.00068125   -0.00078017
     atom   14 type  1   force =    -0.00040395   -0.00004063   -0.00101454
     atom   15 type  2   force =     0.00000623    0.00080488    0.00012920
     atom   16 type  2   force =     0.00003951   -0.00015635    0.00088394
     atom   17 type  2   force =     0.00024359    0.00037526    0.00032187
     atom   18 type  2   force =    -0.00041209    0.00030753    0.00010249
     atom   19 type  1   force =     0.00009272   -0.00048910    0.00037063
     atom   20 type  1   force =    -0.00011857   -0.00141218    0.00021006
     atom   21 type  2   force =     0.00012774   -0.00007498    0.10332625
     atom   22 type  2   force =    -0.00030198    0.00021851    0.00139623
     atom   23 type  2   force =    -0.07031765    0.00113334   -0.02967254
     atom   24 type  2   force =     0.07030738    0.00156338   -0.02967707
     atom   25 type  1   force =     0.00011286   -0.00166550    0.11621021
     atom   26 type  1   force =    -0.00002389    0.00129333   -0.17610463
     atom   27 type  2   force =     0.00011073   -0.00260935   -0.02894458
     atom   28 type  2   force =    -0.00004101   -0.00141304    0.05145377
     atom   29 type  2   force =    -0.01884335    0.00097813    0.00642663
     atom   30 type  2   force =     0.01784494    0.00162300    0.00534065
     atom   31 type  1   force =     0.00052064   -0.00133220   -0.01367290
     atom   32 type  1   force =    -0.00010586   -0.00102167    0.00068077
     atom   33 type  2   force =     0.00007290   -0.00014377   -0.00046481
     atom   34 type  2   force =     0.00008652   -0.00065576    0.00083660
     atom   35 type  2   force =     0.00036897   -0.00019916    0.00041181
     atom   36 type  2   force =     0.00008574   -0.00015432    0.00030763
     atom   37 type  1   force =    -0.00013394    0.00021068   -0.00002586
     atom   38 type  1   force =    -0.00052198   -0.00055309   -0.00078954
     atom   39 type  2   force =    -0.00033589   -0.00049997    0.00093207
     atom   40 type  2   force =     0.00010697   -0.00014682    0.00151746
     atom   41 type  2   force =     0.00033908   -0.00045940    0.00027494
     atom   42 type  2   force =    -0.00071997   -0.00021485   -0.00009588
     atom   43 type  1   force =     0.00020287    0.00022186    0.00003700
     atom   44 type  1   force =    -0.00006229    0.00139521    0.00052398
     atom   45 type  2   force =     0.00012446   -0.00004405    0.10351849
     atom   46 type  2   force =    -0.07074785   -0.00147285   -0.02963741
     atom   47 type  2   force =     0.07072735   -0.00104439   -0.02967191
     atom   48 type  3   force =     0.00037783   -0.00062849    0.00056697
     atom   49 type  4   force =     0.00005210    0.00039998   -0.00068668
     atom   50 type  4   force =    -0.01044340   -0.00166296    0.00328308
     atom   51 type  3   force =     0.01153660    0.00070816   -0.00390247

     Total force =     0.374977     Total SCF correction =     0.000513
  @ DRIVER MODE: Message from server: STATUS
  @ DRIVER MODE: Message from server: GETFORCE
  @ DRIVER MODE: Returning v,forces,stress,ensemble 

     Writing output data file ./calc.save/
  @ DRIVER MODE: Message from server: EXIT
  @ DRIVE MODE: Exiting  
 
     init_run     :     13.03s CPU     13.35s WALL (       1 calls)
     electrons    :   2992.77s CPU   3392.37s WALL (       1 calls)
     forces       :      7.07s CPU      8.79s WALL (       1 calls)

     Called by init_run:
     wfcinit      :      5.63s CPU      5.76s WALL (       1 calls)
     potinit      :      6.73s CPU      6.80s WALL (       1 calls)
     hinit0       :      0.29s CPU      0.30s WALL (       1 calls)

     Called by electrons:
     c_bands      :   2518.68s CPU   2849.69s WALL (      64 calls)
     sum_band     :    389.24s CPU    443.75s WALL (      64 calls)
     v_of_rho     :     53.96s CPU     59.81s WALL (      65 calls)
     newd         :     18.15s CPU     24.08s WALL (      65 calls)
     mix_rho      :     17.48s CPU     19.31s WALL (      64 calls)
     vdW_kernel   :      5.84s CPU      5.85s WALL (       1 calls)

     Called by c_bands:
     init_us_2    :      6.13s CPU      6.30s WALL (    1300 calls)
     cegterg      :   2495.74s CPU   2823.48s WALL (     644 calls)

     Called by *egterg:
     cdiaghg      :    253.73s CPU    286.23s WALL (    7031 calls)
     h_psi        :   1742.11s CPU   1976.56s WALL (    7043 calls)
     s_psi        :     68.36s CPU     70.80s WALL (    7043 calls)
     g_psi        :      1.74s CPU      1.77s WALL (    6389 calls)

     Called by h_psi:
     h_psi:calbec :    117.38s CPU    129.45s WALL (    7043 calls)
     vloc_psi     :   1553.64s CPU   1769.71s WALL (    7043 calls)
     add_vuspsi   :     68.66s CPU     72.46s WALL (    7043 calls)

     General routines
     calbec       :    153.67s CPU    168.83s WALL (    7723 calls)
     fft          :     32.74s CPU     35.06s WALL (    4095 calls)
     ffts         :      0.38s CPU      0.41s WALL (     129 calls)
     fftw         :   1852.04s CPU   2114.38s WALL (  809880 calls)
     interpolate  :      0.67s CPU      0.74s WALL (      65 calls)
     davcio       :      0.00s CPU      0.09s WALL (      10 calls)
 
     Parallel routines
 
     PWSCF        :  50m13.40s CPU  56m59.79s WALL

 
   This run was terminated on:  23: 1:53  12Oct2021            

=------------------------------------------------------------------------------=
   JOB DONE.
=------------------------------------------------------------------------------=
