
     Program PWSCF v.6.7GPU starts on 16Sep2021 at 11:18: 8 

     This program is part of the open-source Quantum ESPRESSO suite
     for quantum simulation of materials; please cite
         "P. Giannozzi et al., J. Phys.:Condens. Matter 21 395502 (2009);
         "P. Giannozzi et al., J. Phys.:Condens. Matter 29 465901 (2017);
         "P. Giannozzi et al., J. Chem. Phys. 152 154105 (2020);
          URL http://www.quantum-espresso.org", 
     in publications or presentations arising from this work. More details at
     http://www.quantum-espresso.org/quote

     Parallel version (MPI), running on    10 processors

     MPI processes distributed on     1 nodes
     R & G space division:  proc/nbgrp/npool/nimage =      10
     Reading input from /storage/home/hcoda1/3/ntian30/research/carbon/CxH_vib/H2O_calc/ads_slab/CH3NNH3H2O_a/out_0056/pw.inp
Warning: card &CELL ignored
Warning: card   CELL_DYNAMICS='IPI', ignored
Warning: card / ignored

     Current dimensions of program PWSCF are:
     Max number of different atomic species (ntypx) = 10
     Max number of k-points (npk) =  40000
     Max angular momentum in pseudopotentials (lmaxx) =  3
     Presently no symmetry can be used with electric field

     Message from routine cell_base_init:
     DEPRECATED: use true lattice parameter, not A to a.u. conversion factor

     **************************************************************************
     Initializing libbeef V0.1.2 with the BEEF-vdW functional.
     Citation: Wellendorff et al., PRB 85, 235149 (2012).
     **************************************************************************


     IMPORTANT: XC functional enforced from input :
     Exchange-correlation= BEEF-VDW
                           (   1   4  43  14   2   0   0)
     Any further DFT definition will be discarded
     Please, verify this is what you really want


     Subspace diagonalization in iterative solution of the eigenvalue problem:
     one sub-group per band group will be used
     scalapack distributed-memory algorithm (size of sub-group:  3*  3 procs)

  @ DRIVER MODE: Connecting to 
 qe_1139763_2852621.sched-torque.pace.gatech.edu68uxo9kf_scratch
  using UNIX socket
  @ DRIVER MODE: Message from server: STATUS
  @ DRIVER MODE: Message from server: INIT
  @ DRIVER MODE: Receiving replica           0          -1
  @ DRIVER MODE: Receiving encoded integer          25
  @ DRIVER MODE:  SCF:  T  FORCE:  T  STRESS:  F  VC:  F  ENSEMBLE:  F
  @ DRIVER MODE:  SCF:  T  FORCE:  T  STRESS:  F  VC:  F  ENSEMBLE:  F
 
     Parallelization info
     --------------------
     sticks:   dense  smooth     PW     G-vecs:    dense   smooth      PW
     Min         327     131     37                56683    14340    2191
     Max         328     133     38                56694    14346    2206
     Sum        3275    1317    379               566857   143421   21985
 
     Using Slab Decomposition
 


     bravais-lattice index     =            0
     lattice parameter (alat)  =       1.8897  a.u.
     unit-cell volume          =    6658.9804 (a.u.)^3
     number of atoms/cell      =           59
     number of atomic types    =            5
     number of electrons       =       406.00
     number of Kohn-Sham states=          213
     kinetic-energy cutoff     =      29.3995  Ry
     charge density cutoff     =     293.9946  Ry
     scf convergence threshold =      7.3E-08
     mixing beta               =       0.0500
     number of iterations used =            8  plain     mixing
     Exchange-correlation= BEEF-VDW
                           (   1   4  43  14   2   0   0)

     celldm(1)=   1.889726  celldm(2)=   0.000000  celldm(3)=   0.000000
     celldm(4)=   0.000000  celldm(5)=   0.000000  celldm(6)=   0.000000

     crystal axes: (cart. coord. in units of alat)
               a(1) = (   6.579727   0.000000   0.000000 )  
               a(2) = (  -0.000775   5.961596   0.000000 )  
               a(3) = (   0.000000   0.000000  25.155947 )  

     reciprocal axes: (cart. coord. in units 2 pi/alat)
               b(1) = (  0.151982  0.000020  0.000000 )  
               b(2) = (  0.000000  0.167740  0.000000 )  
               b(3) = (  0.000000  0.000000  0.039752 )  


     PseudoPot. # 1 for Ti read from file:
     /storage/coda1/p-amedford6/0/shared/rich_project_chbe-medford/medford-share/data/pseudos_module/espresso/nninc/pbe/van/Ti.UPF
     MD5 check sum: 8e4df49b7f0d34bbd5052bf3f5ea0213
     Pseudo is Ultrasoft, Zval = 12.0
     Generated by new atomic code, or converted to UPF format
     Using radial grid of  851 points,  6 beta functions with: 
                l(1) =   0
                l(2) =   0
                l(3) =   1
                l(4) =   1
                l(5) =   2
                l(6) =   2
     Q(r) pseudized with  8 coefficients,  rinner =    1.000   1.000   1.000
                                                       1.000   1.000

     PseudoPot. # 2 for O  read from file:
     /storage/coda1/p-amedford6/0/shared/rich_project_chbe-medford/medford-share/data/pseudos_module/espresso/nninc/pbe/van/O.UPF
     MD5 check sum: 78c19812648e8988a0fe644b0f25305e
     Pseudo is Ultrasoft, Zval =  6.0
     Generated by new atomic code, or converted to UPF format
     Using radial grid of  737 points,  4 beta functions with: 
                l(1) =   0
                l(2) =   0
                l(3) =   1
                l(4) =   1
     Q(r) pseudized with  8 coefficients,  rinner =    0.800   0.800   0.800


     PseudoPot. # 3 for N  read from file:
     /storage/coda1/p-amedford6/0/shared/rich_project_chbe-medford/medford-share/data/pseudos_module/espresso/nninc/pbe/van/N.UPF
     MD5 check sum: 90d10febe142ad51ac9d5be1deb811c4
     Pseudo is Ultrasoft, Zval =  5.0
     Generated by new atomic code, or converted to UPF format
     Using radial grid of  729 points,  4 beta functions with: 
                l(1) =   0
                l(2) =   0
                l(3) =   1
                l(4) =   1
     Q(r) pseudized with  8 coefficients,  rinner =    0.800   0.800   0.800


     PseudoPot. # 4 for C  read from file:
     /storage/coda1/p-amedford6/0/shared/rich_project_chbe-medford/medford-share/data/pseudos_module/espresso/nninc/pbe/van/C.UPF
     MD5 check sum: 1a69bf6b8db32088f5b2163dbdb77a27
     Pseudo is Ultrasoft, Zval =  4.0
     Generated by new atomic code, or converted to UPF format
     Using radial grid of  721 points,  4 beta functions with: 
                l(1) =   0
                l(2) =   0
                l(3) =   1
                l(4) =   1
     Q(r) pseudized with  8 coefficients,  rinner =    0.800   0.800   0.800


     PseudoPot. # 5 for H  read from file:
     /storage/coda1/p-amedford6/0/shared/rich_project_chbe-medford/medford-share/data/pseudos_module/espresso/nninc/pbe/van/H.UPF
     MD5 check sum: b5ee9d7bfd3a09ee7748110bda690ff7
     Pseudo is Ultrasoft, Zval =  1.0
     Generated by new atomic code, or converted to UPF format
     Using radial grid of  615 points,  1 beta functions with: 
                l(1) =   0
     Q(r) pseudized with  8 coefficients,  rinner =    0.800

     atomic species   valence    mass     pseudopotential
        Ti1           12.00    47.86700     Ti( 1.00)
        O1             6.00    15.99900     O ( 1.00)
        N1             5.00    14.00700     N ( 1.00)
        C1             4.00    12.01100     C ( 1.00)
        H1             1.00     1.00800     H ( 1.00)

     No symmetry found



   Cartesian axes

     site n.     atom                  positions (alat units)
         1           Ti1 tau(   1) = (   0.0004258   2.9801865   6.0000000  )
         2           Ti1 tau(   2) = (   3.2906075   1.4906267   6.0002472  )
         3           O1  tau(   3) = (   0.0006271   0.0005054   7.9858123  )
         4           O1  tau(   4) = (   3.2906025   0.0005020   7.3038282  )
         5           O1  tau(   5) = (   4.5942328   1.4918067   9.2879030  )
         6           O1  tau(   6) = (   1.9868534   1.4903216   9.2879459  )
         7           Ti1 tau(   7) = (   3.2907910   2.8959150   9.1758416  )
         8           Ti1 tau(   8) = (   0.0015273   1.4827037   9.2680791  )
         9           O1  tau(   9) = (   3.2954490   0.0159868  11.2922163  )
        10           O1  tau(  10) = (   0.0116148   5.9584955  10.6183126  )
        11           O1  tau(  11) = (   1.3242731   1.5050266  12.6143764  )
        12           O1  tau(  12) = (   5.3073597   1.5103589  12.6267567  )
        13           Ti1 tau(  13) = (   6.4831477   3.0011104  12.7364612  )
        14           Ti1 tau(  14) = (   3.1751638   1.4975352  12.4748964  )
        15           O1  tau(  15) = (   0.0212859   5.9607631  14.5987152  )
        16           O1  tau(  16) = (   3.3058086   0.0238703  13.8910224  )
        17           O1  tau(  17) = (   4.5539421   1.5574750  15.9960573  )
        18           O1  tau(  18) = (   2.0731809   1.5597727  15.9888445  )
        19           Ti1 tau(  19) = (   3.3176354   3.0289328  15.6523405  )
        20           Ti1 tau(  20) = (   0.0198791   1.6227889  16.0606591  )
        21           O1  tau(  21) = (   3.2904802   0.0005063   4.7018136  )
        22           O1  tau(  22) = (   0.0290054   0.0533443  17.2129705  )
        23           O1  tau(  23) = (   1.3043587   1.4918075   6.0039043  )
        24           O1  tau(  24) = (   5.2767064   1.4903225   6.0039473  )
        25           Ti1 tau(  25) = (   0.0000382   5.9609847   6.0000000  )
        26           Ti1 tau(  26) = (   3.2902200   4.4714249   6.0002472  )
        27           O1  tau(  27) = (   0.0002396   2.9813036   7.9858123  )
        28           O1  tau(  28) = (   3.2902150   2.9813002   7.3038282  )
        29           O1  tau(  29) = (   4.5938453   4.4726049   9.2879030  )
        30           O1  tau(  30) = (   1.9864658   4.4711199   9.2879459  )
        31           Ti1 tau(  31) = (   3.2891106   5.8743827   9.1763621  )
        32           Ti1 tau(  32) = (   0.0006254   4.4649316   9.2693709  )
        33           O1  tau(  33) = (   3.2918316   2.9938763  11.2915017  )
        34           O1  tau(  34) = (   0.0092240   2.9805883  10.6323155  )
        35           O1  tau(  35) = (   1.3226278   4.4784642  12.6110361  )
        36           O1  tau(  36) = (   5.3078083   4.4770455  12.6250823  )
        37           Ti1 tau(  37) = (   6.5141033   0.0190828  12.7620745  )
        38           Ti1 tau(  38) = (   3.1722404   4.4939287  12.4712879  )
        39           O1  tau(  39) = (   0.0035410   2.9850241  14.6487316  )
        40           O1  tau(  40) = (   3.3118331   3.0109266  13.8519036  )
        41           O1  tau(  41) = (   4.5522870   4.5059159  16.0259181  )
        42           O1  tau(  42) = (   2.0778134   4.5048723  16.0185459  )
        43           Ti1 tau(  43) = (   3.3116469   0.0596163  15.7453941  )
        44           Ti1 tau(  44) = (   0.0183239   4.5967015  16.1059876  )
        45           O1  tau(  45) = (   3.2900926   2.9813045   4.7018136  )
        46           O1  tau(  46) = (   1.3039711   4.4726057   6.0039043  )
        47           O1  tau(  47) = (   5.2763189   4.4711207   6.0039473  )
        48           N1  tau(  48) = (   0.0600715   3.0265251  17.3188267  )
        49           N1  tau(  49) = (   6.2826239   2.5295367  22.6224490  )
        50           C1  tau(  50) = (   0.2859397   3.0149959  18.7399364  )
        51           H1  tau(  51) = (   0.1411154   4.0060466  19.1894648  )
        52           H1  tau(  52) = (   6.1913215   2.3105648  19.2421896  )
        53           H1  tau(  53) = (   1.3125146   2.6868920  18.9691123  )
        54           H1  tau(  54) = (   6.1000088   3.2491606  23.3142794  )
        55           H1  tau(  55) = (   0.1456284   1.7586669  23.1118534  )
        56           H1  tau(  56) = (   0.3974265   2.9048463  21.9856970  )
        57           O1  tau(  57) = (   3.3008421   0.1144680  18.1630233  )
        58           H1  tau(  58) = (   4.0679411   5.5688996  18.4486002  )
        59           H1  tau(  59) = (   2.5060966   5.5711546  18.4327789  )

     number of k points=    10  Fermi-Dirac smearing, width (Ry)=  0.0073
                       cart. coord. in units 2pi/alat
        k(    1) = (   0.0000000   0.0000000   0.0000000), wk =   0.1250000
        k(    2) = (   0.0000000   0.0419351   0.0000000), wk =   0.2500000
        k(    3) = (   0.0000000  -0.0838702   0.0000000), wk =   0.1250000
        k(    4) = (   0.0379955   0.0000049   0.0000000), wk =   0.2500000
        k(    5) = (   0.0379955   0.0419400   0.0000000), wk =   0.2500000
        k(    6) = (   0.0379955  -0.0838652   0.0000000), wk =   0.2500000
        k(    7) = (   0.0379955  -0.0419301   0.0000000), wk =   0.2500000
        k(    8) = (  -0.0759910  -0.0000099   0.0000000), wk =   0.1250000
        k(    9) = (  -0.0759910   0.0419252   0.0000000), wk =   0.2500000
        k(   10) = (  -0.0759910  -0.0838800   0.0000000), wk =   0.1250000

     Dense  grid:   566857 G-vectors     FFT dimensions: (  72,  64, 270)

     Smooth grid:   143421 G-vectors     FFT dimensions: (  45,  40, 180)

     Estimated max dynamical RAM per process >     368.16 MB

     Estimated total dynamical RAM >       3.60 GB
     Cannot read rho : file not found

     Initial potential from superposition of free atoms

     starting charge  389.99912, renormalised to  406.00000

     negative rho (up, down):  6.916E-03 0.000E+00


     %%%%%%%%%%%%%%%%%%%%%%%%%%%%%%%%%%%%%%%%%%%%%%%%%%%%%%%%%%%%%%%%%%%%%%%%
     %                                                                      %
     % You are using vdW-DF, which was implemented by the Thonhauser group. %
     % Please cite the following two papers that made this development      %
     % possible and the two reviews that describe the various versions:     %
     %                                                                      %
     %   T. Thonhauser et al., PRL 115, 136402 (2015).                      %
     %   T. Thonhauser et al., PRB 76, 125112 (2007).                       %
     %   K. Berland et al., Rep. Prog. Phys. 78, 066501 (2015).             %
     %   D.C. Langreth et al., J. Phys.: Condens. Matter 21, 084203 (2009). %
     %                                                                      %
     %                                                                      %
     % If you are calculating the stress with vdW-DF, please also cite:     %
     %                                                                      %
     %   R. Sabatini et al., J. Phys.: Condens. Matter 24, 424209 (2012).   %
     %                                                                      %
     %%%%%%%%%%%%%%%%%%%%%%%%%%%%%%%%%%%%%%%%%%%%%%%%%%%%%%%%%%%%%%%%%%%%%%%%


 
     Adding external electric field

     Computed dipole along edir(3) : 
        Dipole              -16.2336 Ry au,        -41.2616 Debye
        Dipole field         -0.0306 Ry au, 
 
        Potential amp.        2.8398 Ry
        Total length         46.3494 bohr
 
     Starting wfcs are  308 atomic wfcs
  @ DRIVER MODE: Message from server: STATUS
  @ DRIVER MODE: Message from server: POSDATA
  @ DRIVER MODE: Reading and sharing cell 
  @ DRIVER MODE: Reading and sharing positions 
  @ DRIVER MODE: Received positions 

     total cpu time spent up to now is       11.8 secs

     Self-consistent Calculation

     iteration #  1     ecut=    29.40 Ry     beta= 0.05
     Davidson diagonalization with overlap
     c_bands:  2 eigenvalues not converged
     c_bands:  3 eigenvalues not converged
     c_bands:  5 eigenvalues not converged
     c_bands:  3 eigenvalues not converged
     c_bands:  4 eigenvalues not converged
     c_bands:  3 eigenvalues not converged
     c_bands:  1 eigenvalues not converged
     c_bands:  5 eigenvalues not converged
     c_bands:  3 eigenvalues not converged
     ethr =  1.00E-05,  avg # of iterations = 20.6

     negative rho (up, down):  5.168E-03 0.000E+00
 
     Adding external electric field

     Computed dipole along edir(3) : 
        Dipole               58.5858 Ry au,        148.9102 Debye
        Dipole field          0.1106 Ry au, 
 
        Potential amp.      -10.2487 Ry
        Total length         46.3494 bohr
 

     total cpu time spent up to now is       58.0 secs

     total energy              =   -2253.49845119 Ry
     estimated scf accuracy    <    8262.67103829 Ry

     iteration #  2     ecut=    29.40 Ry     beta= 0.05
     Davidson diagonalization with overlap
     ethr =  1.00E-02,  avg # of iterations = 26.3

     negative rho (up, down):  1.485E-04 0.000E+00
 
     Adding external electric field

     Computed dipole along edir(3) : 
        Dipole               -2.8887 Ry au,         -7.3422 Debye
        Dipole field         -0.0055 Ry au, 
 
        Potential amp.        0.5053 Ry
        Total length         46.3494 bohr
 

     total cpu time spent up to now is      149.0 secs

     total energy              =   -2401.07827629 Ry
     estimated scf accuracy    <   83812.05848082 Ry

     iteration #  3     ecut=    29.40 Ry     beta= 0.05
     Davidson diagonalization with overlap
     ethr =  1.00E-02,  avg # of iterations = 16.0

     negative rho (up, down):  1.862E-04 0.000E+00
 
     Adding external electric field

     Computed dipole along edir(3) : 
        Dipole               -5.6055 Ry au,        -14.2477 Debye
        Dipole field         -0.0106 Ry au, 
 
        Potential amp.        0.9806 Ry
        Total length         46.3494 bohr
 

     total cpu time spent up to now is      198.9 secs

     total energy              =   -2959.86524816 Ry
     estimated scf accuracy    <    8542.11016374 Ry

     iteration #  4     ecut=    29.40 Ry     beta= 0.05
     Davidson diagonalization with overlap
     ethr =  1.00E-02,  avg # of iterations = 13.3

     negative rho (up, down):  1.921E-04 0.000E+00
 
     Adding external electric field

     Computed dipole along edir(3) : 
        Dipole               -6.4901 Ry au,        -16.4962 Debye
        Dipole field         -0.0122 Ry au, 
 
        Potential amp.        1.1353 Ry
        Total length         46.3494 bohr
 

     total cpu time spent up to now is      224.8 secs

     total energy              =   -2979.05296633 Ry
     estimated scf accuracy    <    1956.56555077 Ry

     iteration #  5     ecut=    29.40 Ry     beta= 0.05
     Davidson diagonalization with overlap
     ethr =  1.00E-02,  avg # of iterations =  1.9

     negative rho (up, down):  2.195E-04 0.000E+00
 
     Adding external electric field

     Computed dipole along edir(3) : 
        Dipole               -8.1999 Ry au,        -20.8420 Debye
        Dipole field         -0.0155 Ry au, 
 
        Potential amp.        1.4344 Ry
        Total length         46.3494 bohr
 

     total cpu time spent up to now is      235.4 secs

     total energy              =   -2945.07236791 Ry
     estimated scf accuracy    <    1919.37400700 Ry

     iteration #  6     ecut=    29.40 Ry     beta= 0.05
     Davidson diagonalization with overlap
     ethr =  1.00E-02,  avg # of iterations = 12.6

     negative rho (up, down):  1.811E-04 0.000E+00
 
     Adding external electric field

     Computed dipole along edir(3) : 
        Dipole               -5.5884 Ry au,        -14.2044 Debye
        Dipole field         -0.0105 Ry au, 
 
        Potential amp.        0.9776 Ry
        Total length         46.3494 bohr
 

     total cpu time spent up to now is      261.6 secs

     total energy              =   -2981.27719182 Ry
     estimated scf accuracy    <     119.37553349 Ry

     iteration #  7     ecut=    29.40 Ry     beta= 0.05
     Davidson diagonalization with overlap
     ethr =  1.00E-02,  avg # of iterations =  3.1

     negative rho (up, down):  1.895E-04 0.000E+00
 
     Adding external electric field

     Computed dipole along edir(3) : 
        Dipole               -4.2687 Ry au,        -10.8499 Debye
        Dipole field         -0.0081 Ry au, 
 
        Potential amp.        0.7467 Ry
        Total length         46.3494 bohr
 

     total cpu time spent up to now is      272.7 secs

     total energy              =   -2982.54034302 Ry
     estimated scf accuracy    <      53.53895737 Ry

     iteration #  8     ecut=    29.40 Ry     beta= 0.05
     Davidson diagonalization with overlap
     ethr =  1.00E-02,  avg # of iterations =  5.1

     negative rho (up, down):  2.058E-04 0.000E+00
 
     Adding external electric field

     Computed dipole along edir(3) : 
        Dipole               -2.3848 Ry au,         -6.0615 Debye
        Dipole field         -0.0045 Ry au, 
 
        Potential amp.        0.4172 Ry
        Total length         46.3494 bohr
 

     total cpu time spent up to now is      284.7 secs

     total energy              =   -2982.31822089 Ry
     estimated scf accuracy    <      50.82042667 Ry

     iteration #  9     ecut=    29.40 Ry     beta= 0.05
     Davidson diagonalization with overlap
     ethr =  1.00E-02,  avg # of iterations =  4.8

     negative rho (up, down):  2.089E-04 0.000E+00
 
     Adding external electric field

     Computed dipole along edir(3) : 
        Dipole               -2.2418 Ry au,         -5.6980 Debye
        Dipole field         -0.0042 Ry au, 
 
        Potential amp.        0.3922 Ry
        Total length         46.3494 bohr
 

     total cpu time spent up to now is      296.6 secs

     total energy              =   -2987.13174129 Ry
     estimated scf accuracy    <     451.29912110 Ry

     iteration # 10     ecut=    29.40 Ry     beta= 0.05
     Davidson diagonalization with overlap
     ethr =  1.00E-02,  avg # of iterations =  3.4

     negative rho (up, down):  2.016E-04 0.000E+00
 
     Adding external electric field

     Computed dipole along edir(3) : 
        Dipole               -1.3755 Ry au,         -3.4963 Debye
        Dipole field         -0.0026 Ry au, 
 
        Potential amp.        0.2406 Ry
        Total length         46.3494 bohr
 

     total cpu time spent up to now is      307.9 secs

     total energy              =   -2987.53472288 Ry
     estimated scf accuracy    <     529.17077005 Ry

     iteration # 11     ecut=    29.40 Ry     beta= 0.05
     Davidson diagonalization with overlap
     ethr =  1.00E-02,  avg # of iterations =  5.7

     negative rho (up, down):  1.674E-04 0.000E+00
 
     Adding external electric field

     Computed dipole along edir(3) : 
        Dipole                1.7154 Ry au,          4.3601 Debye
        Dipole field          0.0032 Ry au, 
 
        Potential amp.       -0.3001 Ry
        Total length         46.3494 bohr
 

     total cpu time spent up to now is      319.9 secs

     total energy              =   -2970.23023442 Ry
     estimated scf accuracy    <     604.22098564 Ry

     iteration # 12     ecut=    29.40 Ry     beta= 0.05
     Davidson diagonalization with overlap
     ethr =  1.00E-02,  avg # of iterations =  7.4

     negative rho (up, down):  1.776E-04 0.000E+00
 
     Adding external electric field

     Computed dipole along edir(3) : 
        Dipole                1.9953 Ry au,          5.0715 Debye
        Dipole field          0.0038 Ry au, 
 
        Potential amp.       -0.3490 Ry
        Total length         46.3494 bohr
 

     total cpu time spent up to now is      334.6 secs

     total energy              =   -2983.08702136 Ry
     estimated scf accuracy    <     291.14439409 Ry

     iteration # 13     ecut=    29.40 Ry     beta= 0.05
     Davidson diagonalization with overlap
     ethr =  1.00E-02,  avg # of iterations =  3.4

     negative rho (up, down):  1.796E-04 0.000E+00
 
     Adding external electric field

     Computed dipole along edir(3) : 
        Dipole                2.1141 Ry au,          5.3735 Debye
        Dipole field          0.0040 Ry au, 
 
        Potential amp.       -0.3698 Ry
        Total length         46.3494 bohr
 

     total cpu time spent up to now is      346.0 secs

     total energy              =   -2984.97973627 Ry
     estimated scf accuracy    <     463.74791200 Ry

     iteration # 14     ecut=    29.40 Ry     beta= 0.05
     Davidson diagonalization with overlap
     ethr =  1.00E-02,  avg # of iterations =  2.3

     negative rho (up, down):  1.912E-04 0.000E+00
 
     Adding external electric field

     Computed dipole along edir(3) : 
        Dipole                3.5108 Ry au,          8.9235 Debye
        Dipole field          0.0066 Ry au, 
 
        Potential amp.       -0.6142 Ry
        Total length         46.3494 bohr
 

     total cpu time spent up to now is      356.9 secs

     total energy              =   -2986.81516359 Ry
     estimated scf accuracy    <     533.58414415 Ry

     iteration # 15     ecut=    29.40 Ry     beta= 0.05
     Davidson diagonalization with overlap
     ethr =  1.00E-02,  avg # of iterations =  1.9

     negative rho (up, down):  2.222E-04 0.000E+00
 
     Adding external electric field

     Computed dipole along edir(3) : 
        Dipole                5.3605 Ry au,         13.6250 Debye
        Dipole field          0.0101 Ry au, 
 
        Potential amp.       -0.9377 Ry
        Total length         46.3494 bohr
 

     total cpu time spent up to now is      367.6 secs

     total energy              =   -2995.04509839 Ry
     estimated scf accuracy    <     495.78626504 Ry

     iteration # 16     ecut=    29.40 Ry     beta= 0.05
     Davidson diagonalization with overlap
     ethr =  1.00E-02,  avg # of iterations =  5.4

     negative rho (up, down):  1.824E-04 0.000E+00
 
     Adding external electric field

     Computed dipole along edir(3) : 
        Dipole                3.7953 Ry au,          9.6466 Debye
        Dipole field          0.0072 Ry au, 
 
        Potential amp.       -0.6639 Ry
        Total length         46.3494 bohr
 

     total cpu time spent up to now is      379.8 secs

     total energy              =   -2984.48806624 Ry
     estimated scf accuracy    <    1105.40659470 Ry

     iteration # 17     ecut=    29.40 Ry     beta= 0.05
     Davidson diagonalization with overlap
     ethr =  1.00E-02,  avg # of iterations =  2.4

     negative rho (up, down):  1.762E-04 0.000E+00
 
     Adding external electric field

     Computed dipole along edir(3) : 
        Dipole                6.1976 Ry au,         15.7528 Debye
        Dipole field          0.0117 Ry au, 
 
        Potential amp.       -1.0842 Ry
        Total length         46.3494 bohr
 

     total cpu time spent up to now is      390.9 secs

     total energy              =   -2987.50328471 Ry
     estimated scf accuracy    <     656.17578209 Ry

     iteration # 18     ecut=    29.40 Ry     beta= 0.05
     Davidson diagonalization with overlap
     ethr =  1.00E-02,  avg # of iterations = 12.2

     negative rho (up, down):  6.991E-05 0.000E+00
 
     Adding external electric field

     Computed dipole along edir(3) : 
        Dipole                4.0421 Ry au,         10.2739 Debye
        Dipole field          0.0076 Ry au, 
 
        Potential amp.       -0.7071 Ry
        Total length         46.3494 bohr
 

     total cpu time spent up to now is      419.1 secs

     total energy              =   -2975.71782115 Ry
     estimated scf accuracy    <    7283.90313789 Ry

     iteration # 19     ecut=    29.40 Ry     beta= 0.05
     Davidson diagonalization with overlap
     ethr =  1.00E-02,  avg # of iterations = 12.0

     negative rho (up, down):  8.305E-05 0.000E+00
 
     Adding external electric field

     Computed dipole along edir(3) : 
        Dipole                2.7992 Ry au,          7.1149 Debye
        Dipole field          0.0053 Ry au, 
 
        Potential amp.       -0.4897 Ry
        Total length         46.3494 bohr
 

     total cpu time spent up to now is      436.9 secs

     total energy              =   -2976.21381127 Ry
     estimated scf accuracy    <    2339.12718908 Ry

     iteration # 20     ecut=    29.40 Ry     beta= 0.05
     Davidson diagonalization with overlap
     ethr =  1.00E-02,  avg # of iterations = 12.7

     negative rho (up, down):  5.860E-05 0.000E+00
 
     Adding external electric field

     Computed dipole along edir(3) : 
        Dipole                1.3046 Ry au,          3.3161 Debye
        Dipole field          0.0025 Ry au, 
 
        Potential amp.       -0.2282 Ry
        Total length         46.3494 bohr
 

     total cpu time spent up to now is      453.5 secs

     total energy              =   -2979.03209752 Ry
     estimated scf accuracy    <     986.67176719 Ry

     iteration # 21     ecut=    29.40 Ry     beta= 0.05
     Davidson diagonalization with overlap
     ethr =  1.00E-02,  avg # of iterations =  1.7

     negative rho (up, down):  4.429E-05 0.000E+00
 
     Adding external electric field

     Computed dipole along edir(3) : 
        Dipole               -1.0511 Ry au,         -2.6717 Debye
        Dipole field         -0.0020 Ry au, 
 
        Potential amp.        0.1839 Ry
        Total length         46.3494 bohr
 

     total cpu time spent up to now is      464.2 secs

     total energy              =   -2974.35062243 Ry
     estimated scf accuracy    <     578.67429868 Ry

     iteration # 22     ecut=    29.40 Ry     beta= 0.05
     Davidson diagonalization with overlap
     ethr =  1.00E-02,  avg # of iterations =  9.8

     negative rho (up, down):  3.977E-05 0.000E+00
 
     Adding external electric field

     Computed dipole along edir(3) : 
        Dipole               -1.3131 Ry au,         -3.3377 Debye
        Dipole field         -0.0025 Ry au, 
 
        Potential amp.        0.2297 Ry
        Total length         46.3494 bohr
 

     total cpu time spent up to now is      481.6 secs

     total energy              =   -2982.22757040 Ry
     estimated scf accuracy    <     764.03481605 Ry

     iteration # 23     ecut=    29.40 Ry     beta= 0.05
     Davidson diagonalization with overlap
     ethr =  1.00E-02,  avg # of iterations =  1.2

     negative rho (up, down):  4.919E-05 0.000E+00
 
     Adding external electric field

     Computed dipole along edir(3) : 
        Dipole               -1.6976 Ry au,         -4.3150 Debye
        Dipole field         -0.0032 Ry au, 
 
        Potential amp.        0.2970 Ry
        Total length         46.3494 bohr
 

     total cpu time spent up to now is      491.9 secs

     total energy              =   -2978.37671428 Ry
     estimated scf accuracy    <     584.41488343 Ry

     iteration # 24     ecut=    29.40 Ry     beta= 0.05
     Davidson diagonalization with overlap
     ethr =  1.00E-02,  avg # of iterations =  1.3

     negative rho (up, down):  5.539E-05 0.000E+00
 
     Adding external electric field

     Computed dipole along edir(3) : 
        Dipole               -2.4899 Ry au,         -6.3287 Debye
        Dipole field         -0.0047 Ry au, 
 
        Potential amp.        0.4356 Ry
        Total length         46.3494 bohr
 

     total cpu time spent up to now is      502.3 secs

     total energy              =   -2969.80483808 Ry
     estimated scf accuracy    <     443.19655953 Ry

     iteration # 25     ecut=    29.40 Ry     beta= 0.05
     Davidson diagonalization with overlap
     ethr =  1.00E-02,  avg # of iterations =  7.9

     negative rho (up, down):  5.452E-05 0.000E+00
 
     Adding external electric field

     Computed dipole along edir(3) : 
        Dipole               -2.6066 Ry au,         -6.6253 Debye
        Dipole field         -0.0049 Ry au, 
 
        Potential amp.        0.4560 Ry
        Total length         46.3494 bohr
 

     total cpu time spent up to now is      518.7 secs

     total energy              =   -2978.33683495 Ry
     estimated scf accuracy    <      29.71864492 Ry

     iteration # 26     ecut=    29.40 Ry     beta= 0.05
     Davidson diagonalization with overlap
     ethr =  7.32E-03,  avg # of iterations =  3.2

     negative rho (up, down):  7.768E-05 0.000E+00
 
     Adding external electric field

     Computed dipole along edir(3) : 
        Dipole               -2.2328 Ry au,         -5.6753 Debye
        Dipole field         -0.0042 Ry au, 
 
        Potential amp.        0.3906 Ry
        Total length         46.3494 bohr
 

     total cpu time spent up to now is      530.2 secs

     total energy              =   -2978.37582560 Ry
     estimated scf accuracy    <       8.06181357 Ry

     iteration # 27     ecut=    29.40 Ry     beta= 0.05
     Davidson diagonalization with overlap
     c_bands:  2 eigenvalues not converged
     c_bands:  1 eigenvalues not converged
     ethr =  1.99E-03,  avg # of iterations = 10.7

     negative rho (up, down):  2.264E-04 0.000E+00
 
     Adding external electric field

     Computed dipole along edir(3) : 
        Dipole               -1.2868 Ry au,         -3.2706 Debye
        Dipole field         -0.0024 Ry au, 
 
        Potential amp.        0.2251 Ry
        Total length         46.3494 bohr
 

     total cpu time spent up to now is      544.1 secs

     total energy              =   -2977.42023275 Ry
     estimated scf accuracy    <       8.04502210 Ry

     iteration # 28     ecut=    29.40 Ry     beta= 0.05
     Davidson diagonalization with overlap
     ethr =  1.98E-03,  avg # of iterations =  3.6

     negative rho (up, down):  5.245E-04 0.000E+00
 
     Adding external electric field

     Computed dipole along edir(3) : 
        Dipole               -0.5870 Ry au,         -1.4919 Debye
        Dipole field         -0.0011 Ry au, 
 
        Potential amp.        0.1027 Ry
        Total length         46.3494 bohr
 

     total cpu time spent up to now is      555.6 secs

     total energy              =   -2977.41379379 Ry
     estimated scf accuracy    <       1.69151893 Ry

     iteration # 29     ecut=    29.40 Ry     beta= 0.05
     Davidson diagonalization with overlap
     ethr =  4.17E-04,  avg # of iterations =  8.7

     negative rho (up, down):  4.715E-04 0.000E+00
 
     Adding external electric field

     Computed dipole along edir(3) : 
        Dipole               -0.5421 Ry au,         -1.3780 Debye
        Dipole field         -0.0010 Ry au, 
 
        Potential amp.        0.0948 Ry
        Total length         46.3494 bohr
 

     total cpu time spent up to now is      574.0 secs

     total energy              =   -2977.86754715 Ry
     estimated scf accuracy    <       3.73468971 Ry

     iteration # 30     ecut=    29.40 Ry     beta= 0.05
     Davidson diagonalization with overlap
     ethr =  4.17E-04,  avg # of iterations =  7.9

     negative rho (up, down):  3.833E-04 0.000E+00
 
     Adding external electric field

     Computed dipole along edir(3) : 
        Dipole               -0.7855 Ry au,         -1.9966 Debye
        Dipole field         -0.0015 Ry au, 
 
        Potential amp.        0.1374 Ry
        Total length         46.3494 bohr
 

     total cpu time spent up to now is      586.6 secs

     total energy              =   -2977.77915369 Ry
     estimated scf accuracy    <       1.31719001 Ry

     iteration # 31     ecut=    29.40 Ry     beta= 0.05
     Davidson diagonalization with overlap
     ethr =  3.24E-04,  avg # of iterations =  3.8

     negative rho (up, down):  3.922E-04 0.000E+00
 
     Adding external electric field

     Computed dipole along edir(3) : 
        Dipole               -0.9291 Ry au,         -2.3616 Debye
        Dipole field         -0.0018 Ry au, 
 
        Potential amp.        0.1625 Ry
        Total length         46.3494 bohr
 

     total cpu time spent up to now is      598.1 secs

     total energy              =   -2977.62778721 Ry
     estimated scf accuracy    <       0.75810533 Ry

     iteration # 32     ecut=    29.40 Ry     beta= 0.05
     Davidson diagonalization with overlap
     c_bands:  2 eigenvalues not converged
     c_bands:  1 eigenvalues not converged
     c_bands:  3 eigenvalues not converged
     c_bands:  2 eigenvalues not converged
     c_bands:  3 eigenvalues not converged
     ethr =  1.87E-04,  avg # of iterations = 19.9

     negative rho (up, down):  8.108E-04 0.000E+00
 
     Adding external electric field

     Computed dipole along edir(3) : 
        Dipole               -0.2547 Ry au,         -0.6474 Debye
        Dipole field         -0.0005 Ry au, 
 
        Potential amp.        0.0446 Ry
        Total length         46.3494 bohr
 

     total cpu time spent up to now is      622.7 secs

     total energy              =   -2977.67151495 Ry
     estimated scf accuracy    <       1.01762986 Ry

     iteration # 33     ecut=    29.40 Ry     beta= 0.05
     Davidson diagonalization with overlap
     ethr =  1.87E-04,  avg # of iterations =  7.6

     negative rho (up, down):  8.784E-04 0.000E+00
 
     Adding external electric field

     Computed dipole along edir(3) : 
        Dipole               -0.1709 Ry au,         -0.4343 Debye
        Dipole field         -0.0003 Ry au, 
 
        Potential amp.        0.0299 Ry
        Total length         46.3494 bohr
 

     total cpu time spent up to now is      635.8 secs

     total energy              =   -2977.72345719 Ry
     estimated scf accuracy    <       0.30474030 Ry

     iteration # 34     ecut=    29.40 Ry     beta= 0.05
     Davidson diagonalization with overlap
     c_bands:  1 eigenvalues not converged
     c_bands:  1 eigenvalues not converged
     ethr =  7.51E-05,  avg # of iterations = 15.4

     negative rho (up, down):  1.033E-03 0.000E+00
 
     Adding external electric field

     Computed dipole along edir(3) : 
        Dipole               -0.0237 Ry au,         -0.0601 Debye
        Dipole field         -0.0000 Ry au, 
 
        Potential amp.        0.0041 Ry
        Total length         46.3494 bohr
 

     total cpu time spent up to now is      653.1 secs

     total energy              =   -2977.73835897 Ry
     estimated scf accuracy    <       0.20588380 Ry

     iteration # 35     ecut=    29.40 Ry     beta= 0.05
     Davidson diagonalization with overlap
     c_bands:  1 eigenvalues not converged
     c_bands:  2 eigenvalues not converged
     ethr =  5.07E-05,  avg # of iterations = 15.8

     negative rho (up, down):  1.644E-03 0.000E+00
 
     Adding external electric field

     Computed dipole along edir(3) : 
        Dipole                0.1452 Ry au,          0.3691 Debye
        Dipole field          0.0003 Ry au, 
 
        Potential amp.       -0.0254 Ry
        Total length         46.3494 bohr
 

     total cpu time spent up to now is      673.4 secs

     total energy              =   -2977.72997952 Ry
     estimated scf accuracy    <       0.34854730 Ry

     iteration # 36     ecut=    29.40 Ry     beta= 0.05
     Davidson diagonalization with overlap
     ethr =  5.07E-05,  avg # of iterations =  4.9

     negative rho (up, down):  2.447E-03 0.000E+00
 
     Adding external electric field

     Computed dipole along edir(3) : 
        Dipole                0.2479 Ry au,          0.6301 Debye
        Dipole field          0.0005 Ry au, 
 
        Potential amp.       -0.0434 Ry
        Total length         46.3494 bohr
 

     total cpu time spent up to now is      685.8 secs

     total energy              =   -2977.75258259 Ry
     estimated scf accuracy    <       0.11373843 Ry

     iteration # 37     ecut=    29.40 Ry     beta= 0.05
     Davidson diagonalization with overlap
     c_bands:  1 eigenvalues not converged
     c_bands:  4 eigenvalues not converged
     c_bands:  3 eigenvalues not converged
     ethr =  2.80E-05,  avg # of iterations = 11.1

     negative rho (up, down):  3.935E-03 0.000E+00
 
     Adding external electric field

     Computed dipole along edir(3) : 
        Dipole                0.3462 Ry au,          0.8799 Debye
        Dipole field          0.0007 Ry au, 
 
        Potential amp.       -0.0606 Ry
        Total length         46.3494 bohr
 

     total cpu time spent up to now is      699.6 secs

     total energy              =   -2977.75103526 Ry
     estimated scf accuracy    <       0.14339673 Ry

     iteration # 38     ecut=    29.40 Ry     beta= 0.05
     Davidson diagonalization with overlap
     c_bands:  1 eigenvalues not converged
     c_bands:  1 eigenvalues not converged
     c_bands:  5 eigenvalues not converged
     c_bands:  3 eigenvalues not converged
     c_bands:  1 eigenvalues not converged
     ethr =  2.80E-05,  avg # of iterations = 12.9

     negative rho (up, down):  2.885E-03 0.000E+00
 
     Adding external electric field

     Computed dipole along edir(3) : 
        Dipole                0.2692 Ry au,          0.6842 Debye
        Dipole field          0.0005 Ry au, 
 
        Potential amp.       -0.0471 Ry
        Total length         46.3494 bohr
 

     total cpu time spent up to now is      713.9 secs

     total energy              =   -2977.72917255 Ry
     estimated scf accuracy    <       0.15578437 Ry

     iteration # 39     ecut=    29.40 Ry     beta= 0.05
     Davidson diagonalization with overlap
     c_bands:  3 eigenvalues not converged
     c_bands:  2 eigenvalues not converged
     c_bands:  2 eigenvalues not converged
     c_bands:  4 eigenvalues not converged
     c_bands:  2 eigenvalues not converged
     c_bands:  1 eigenvalues not converged
     c_bands:  1 eigenvalues not converged
     ethr =  2.80E-05,  avg # of iterations = 17.1

     negative rho (up, down):  3.963E-03 0.000E+00
 
     Adding external electric field

     Computed dipole along edir(3) : 
        Dipole                0.3218 Ry au,          0.8180 Debye
        Dipole field          0.0006 Ry au, 
 
        Potential amp.       -0.0563 Ry
        Total length         46.3494 bohr
 

     total cpu time spent up to now is      732.2 secs

     total energy              =   -2977.74235545 Ry
     estimated scf accuracy    <       0.02208395 Ry

     iteration # 40     ecut=    29.40 Ry     beta= 0.05
     Davidson diagonalization with overlap
     c_bands:  1 eigenvalues not converged
     c_bands:  2 eigenvalues not converged
     ethr =  5.44E-06,  avg # of iterations = 14.4

     negative rho (up, down):  5.811E-03 0.000E+00
 
     Adding external electric field

     Computed dipole along edir(3) : 
        Dipole                0.3737 Ry au,          0.9499 Debye
        Dipole field          0.0007 Ry au, 
 
        Potential amp.       -0.0654 Ry
        Total length         46.3494 bohr
 

     total cpu time spent up to now is      751.4 secs

     total energy              =   -2977.74318059 Ry
     estimated scf accuracy    <       0.02066332 Ry

     iteration # 41     ecut=    29.40 Ry     beta= 0.05
     Davidson diagonalization with overlap
     ethr =  5.09E-06,  avg # of iterations =  5.6

     negative rho (up, down):  6.631E-03 0.000E+00
 
     Adding external electric field

     Computed dipole along edir(3) : 
        Dipole                0.4443 Ry au,          1.1294 Debye
        Dipole field          0.0008 Ry au, 
 
        Potential amp.       -0.0777 Ry
        Total length         46.3494 bohr
 

     total cpu time spent up to now is      763.8 secs

     total energy              =   -2977.74402414 Ry
     estimated scf accuracy    <       0.01092810 Ry

     iteration # 42     ecut=    29.40 Ry     beta= 0.05
     Davidson diagonalization with overlap
     c_bands:  2 eigenvalues not converged
     ethr =  2.69E-06,  avg # of iterations = 12.1

     negative rho (up, down):  7.507E-03 0.000E+00
 
     Adding external electric field

     Computed dipole along edir(3) : 
        Dipole                0.4830 Ry au,          1.2278 Debye
        Dipole field          0.0009 Ry au, 
 
        Potential amp.       -0.0845 Ry
        Total length         46.3494 bohr
 

     total cpu time spent up to now is      782.4 secs

     total energy              =   -2977.74374116 Ry
     estimated scf accuracy    <       0.01536336 Ry

     iteration # 43     ecut=    29.40 Ry     beta= 0.05
     Davidson diagonalization with overlap
     ethr =  2.69E-06,  avg # of iterations =  6.2

     negative rho (up, down):  8.970E-03 0.000E+00
 
     Adding external electric field

     Computed dipole along edir(3) : 
        Dipole                0.4994 Ry au,          1.2693 Debye
        Dipole field          0.0009 Ry au, 
 
        Potential amp.       -0.0874 Ry
        Total length         46.3494 bohr
 

     total cpu time spent up to now is      794.5 secs

     total energy              =   -2977.74413584 Ry
     estimated scf accuracy    <       0.00628807 Ry

     iteration # 44     ecut=    29.40 Ry     beta= 0.05
     Davidson diagonalization with overlap
     c_bands:  1 eigenvalues not converged
     ethr =  1.55E-06,  avg # of iterations =  9.1

     negative rho (up, down):  7.627E-03 0.000E+00
 
     Adding external electric field

     Computed dipole along edir(3) : 
        Dipole                0.5230 Ry au,          1.3293 Debye
        Dipole field          0.0010 Ry au, 
 
        Potential amp.       -0.0915 Ry
        Total length         46.3494 bohr
 

     total cpu time spent up to now is      808.9 secs

     total energy              =   -2977.74417809 Ry
     estimated scf accuracy    <       0.00390925 Ry

     iteration # 45     ecut=    29.40 Ry     beta= 0.05
     Davidson diagonalization with overlap
     ethr =  9.63E-07,  avg # of iterations =  6.6

     negative rho (up, down):  9.426E-03 0.000E+00
 
     Adding external electric field

     Computed dipole along edir(3) : 
        Dipole                0.5720 Ry au,          1.4539 Debye
        Dipole field          0.0011 Ry au, 
 
        Potential amp.       -0.1001 Ry
        Total length         46.3494 bohr
 

     total cpu time spent up to now is      822.7 secs

     total energy              =   -2977.74425720 Ry
     estimated scf accuracy    <       0.00466303 Ry

     iteration # 46     ecut=    29.40 Ry     beta= 0.05
     Davidson diagonalization with overlap
     ethr =  9.63E-07,  avg # of iterations =  5.0

     negative rho (up, down):  9.367E-03 0.000E+00
 
     Adding external electric field

     Computed dipole along edir(3) : 
        Dipole                0.6107 Ry au,          1.5521 Debye
        Dipole field          0.0012 Ry au, 
 
        Potential amp.       -0.1068 Ry
        Total length         46.3494 bohr
 

     total cpu time spent up to now is      835.0 secs

     total energy              =   -2977.74393736 Ry
     estimated scf accuracy    <       0.00293522 Ry

     iteration # 47     ecut=    29.40 Ry     beta= 0.05
     Davidson diagonalization with overlap
     ethr =  7.23E-07,  avg # of iterations =  5.6

     negative rho (up, down):  8.580E-03 0.000E+00
 
     Adding external electric field

     Computed dipole along edir(3) : 
        Dipole                0.6102 Ry au,          1.5509 Debye
        Dipole field          0.0012 Ry au, 
 
        Potential amp.       -0.1067 Ry
        Total length         46.3494 bohr
 

     total cpu time spent up to now is      849.1 secs

     total energy              =   -2977.74424377 Ry
     estimated scf accuracy    <       0.00163461 Ry

     iteration # 48     ecut=    29.40 Ry     beta= 0.05
     Davidson diagonalization with overlap
     ethr =  4.03E-07,  avg # of iterations =  1.6

     negative rho (up, down):  8.324E-03 0.000E+00
 
     Adding external electric field

     Computed dipole along edir(3) : 
        Dipole                0.6184 Ry au,          1.5719 Debye
        Dipole field          0.0012 Ry au, 
 
        Potential amp.       -0.1082 Ry
        Total length         46.3494 bohr
 

     total cpu time spent up to now is      859.8 secs

     total energy              =   -2977.74410004 Ry
     estimated scf accuracy    <       0.00152273 Ry

     iteration # 49     ecut=    29.40 Ry     beta= 0.05
     Davidson diagonalization with overlap
     ethr =  3.75E-07,  avg # of iterations =  2.3

     negative rho (up, down):  8.635E-03 0.000E+00
 
     Adding external electric field

     Computed dipole along edir(3) : 
        Dipole                0.6818 Ry au,          1.7329 Debye
        Dipole field          0.0013 Ry au, 
 
        Potential amp.       -0.1193 Ry
        Total length         46.3494 bohr
 

     total cpu time spent up to now is      871.0 secs

     total energy              =   -2977.74387947 Ry
     estimated scf accuracy    <       0.00107051 Ry

     iteration # 50     ecut=    29.40 Ry     beta= 0.05
     Davidson diagonalization with overlap
     ethr =  2.64E-07,  avg # of iterations =  5.2

     negative rho (up, down):  8.748E-03 0.000E+00
 
     Adding external electric field

     Computed dipole along edir(3) : 
        Dipole                0.7240 Ry au,          1.8403 Debye
        Dipole field          0.0014 Ry au, 
 
        Potential amp.       -0.1267 Ry
        Total length         46.3494 bohr
 

     total cpu time spent up to now is      883.9 secs

     total energy              =   -2977.74389889 Ry
     estimated scf accuracy    <       0.00041418 Ry

     iteration # 51     ecut=    29.40 Ry     beta= 0.05
     Davidson diagonalization with overlap
     ethr =  1.02E-07,  avg # of iterations =  5.6

     negative rho (up, down):  8.712E-03 0.000E+00
 
     Adding external electric field

     Computed dipole along edir(3) : 
        Dipole                0.7308 Ry au,          1.8574 Debye
        Dipole field          0.0014 Ry au, 
 
        Potential amp.       -0.1278 Ry
        Total length         46.3494 bohr
 

     total cpu time spent up to now is      898.2 secs

     total energy              =   -2977.74395733 Ry
     estimated scf accuracy    <       0.00017445 Ry

     iteration # 52     ecut=    29.40 Ry     beta= 0.05
     Davidson diagonalization with overlap
     ethr =  4.30E-08,  avg # of iterations =  6.0

     negative rho (up, down):  8.669E-03 0.000E+00
 
     Adding external electric field

     Computed dipole along edir(3) : 
        Dipole                0.7386 Ry au,          1.8772 Debye
        Dipole field          0.0014 Ry au, 
 
        Potential amp.       -0.1292 Ry
        Total length         46.3494 bohr
 

     total cpu time spent up to now is      911.2 secs

     total energy              =   -2977.74395860 Ry
     estimated scf accuracy    <       0.00013541 Ry

     iteration # 53     ecut=    29.40 Ry     beta= 0.05
     Davidson diagonalization with overlap
     ethr =  3.34E-08,  avg # of iterations =  6.0

     negative rho (up, down):  8.719E-03 0.000E+00
 
     Adding external electric field

     Computed dipole along edir(3) : 
        Dipole                0.7521 Ry au,          1.9115 Debye
        Dipole field          0.0014 Ry au, 
 
        Potential amp.       -0.1316 Ry
        Total length         46.3494 bohr
 

     total cpu time spent up to now is      925.7 secs

     total energy              =   -2977.74398566 Ry
     estimated scf accuracy    <       0.00007507 Ry

     iteration # 54     ecut=    29.40 Ry     beta= 0.05
     Davidson diagonalization with overlap
     ethr =  1.85E-08,  avg # of iterations =  5.0

     negative rho (up, down):  8.723E-03 0.000E+00
 
     Adding external electric field

     Computed dipole along edir(3) : 
        Dipole                0.7574 Ry au,          1.9252 Debye
        Dipole field          0.0014 Ry au, 
 
        Potential amp.       -0.1325 Ry
        Total length         46.3494 bohr
 

     total cpu time spent up to now is      939.3 secs

     total energy              =   -2977.74400875 Ry
     estimated scf accuracy    <       0.00003526 Ry

     iteration # 55     ecut=    29.40 Ry     beta= 0.05
     Davidson diagonalization with overlap
     ethr =  8.69E-09,  avg # of iterations =  5.4

     negative rho (up, down):  8.731E-03 0.000E+00
 
     Adding external electric field

     Computed dipole along edir(3) : 
        Dipole                0.7563 Ry au,          1.9223 Debye
        Dipole field          0.0014 Ry au, 
 
        Potential amp.       -0.1323 Ry
        Total length         46.3494 bohr
 

     total cpu time spent up to now is      954.2 secs

     total energy              =   -2977.74402538 Ry
     estimated scf accuracy    <       0.00004089 Ry

     iteration # 56     ecut=    29.40 Ry     beta= 0.05
     Davidson diagonalization with overlap
     ethr =  8.69E-09,  avg # of iterations =  3.0

     negative rho (up, down):  8.802E-03 0.000E+00
 
     Adding external electric field

     Computed dipole along edir(3) : 
        Dipole                0.7624 Ry au,          1.9378 Debye
        Dipole field          0.0014 Ry au, 
 
        Potential amp.       -0.1334 Ry
        Total length         46.3494 bohr
 

     total cpu time spent up to now is      965.9 secs

     total energy              =   -2977.74403995 Ry
     estimated scf accuracy    <       0.00001602 Ry

     iteration # 57     ecut=    29.40 Ry     beta= 0.05
     Davidson diagonalization with overlap
     ethr =  3.94E-09,  avg # of iterations =  6.5

     negative rho (up, down):  8.787E-03 0.000E+00
 
     Adding external electric field

     Computed dipole along edir(3) : 
        Dipole                0.7623 Ry au,          1.9375 Debye
        Dipole field          0.0014 Ry au, 
 
        Potential amp.       -0.1334 Ry
        Total length         46.3494 bohr
 

     total cpu time spent up to now is      984.4 secs

     total energy              =   -2977.74406497 Ry
     estimated scf accuracy    <       0.00002408 Ry

     iteration # 58     ecut=    29.40 Ry     beta= 0.05
     Davidson diagonalization with overlap
     ethr =  3.94E-09,  avg # of iterations =  1.5

     negative rho (up, down):  8.838E-03 0.000E+00
 
     Adding external electric field

     Computed dipole along edir(3) : 
        Dipole                0.7646 Ry au,          1.9434 Debye
        Dipole field          0.0014 Ry au, 
 
        Potential amp.       -0.1338 Ry
        Total length         46.3494 bohr
 

     total cpu time spent up to now is      995.0 secs

     total energy              =   -2977.74407716 Ry
     estimated scf accuracy    <       0.00002853 Ry

     iteration # 59     ecut=    29.40 Ry     beta= 0.05
     Davidson diagonalization with overlap
     ethr =  3.94E-09,  avg # of iterations =  1.0

     negative rho (up, down):  8.811E-03 0.000E+00
 
     Adding external electric field

     Computed dipole along edir(3) : 
        Dipole                0.7634 Ry au,          1.9403 Debye
        Dipole field          0.0014 Ry au, 
 
        Potential amp.       -0.1335 Ry
        Total length         46.3494 bohr
 

     total cpu time spent up to now is     1005.1 secs

     total energy              =   -2977.74409008 Ry
     estimated scf accuracy    <       0.00002475 Ry

     iteration # 60     ecut=    29.40 Ry     beta= 0.05
     Davidson diagonalization with overlap
     ethr =  3.94E-09,  avg # of iterations =  1.3

     negative rho (up, down):  8.924E-03 0.000E+00
 
     Adding external electric field

     Computed dipole along edir(3) : 
        Dipole                0.7642 Ry au,          1.9423 Debye
        Dipole field          0.0014 Ry au, 
 
        Potential amp.       -0.1337 Ry
        Total length         46.3494 bohr
 

     total cpu time spent up to now is     1015.4 secs

     total energy              =   -2977.74410008 Ry
     estimated scf accuracy    <       0.00002546 Ry

     iteration # 61     ecut=    29.40 Ry     beta= 0.05
     Davidson diagonalization with overlap
     ethr =  3.94E-09,  avg # of iterations =  1.0

     negative rho (up, down):  8.886E-03 0.000E+00
 
     Adding external electric field

     Computed dipole along edir(3) : 
        Dipole                0.7646 Ry au,          1.9434 Debye
        Dipole field          0.0014 Ry au, 
 
        Potential amp.       -0.1338 Ry
        Total length         46.3494 bohr
 

     total cpu time spent up to now is     1025.5 secs

     total energy              =   -2977.74411180 Ry
     estimated scf accuracy    <       0.00002127 Ry

     iteration # 62     ecut=    29.40 Ry     beta= 0.05
     Davidson diagonalization with overlap
     ethr =  3.94E-09,  avg # of iterations =  1.0

     negative rho (up, down):  8.870E-03 0.000E+00
 
     Adding external electric field

     Computed dipole along edir(3) : 
        Dipole                0.7644 Ry au,          1.9429 Debye
        Dipole field          0.0014 Ry au, 
 
        Potential amp.       -0.1337 Ry
        Total length         46.3494 bohr
 

     total cpu time spent up to now is     1035.6 secs

     total energy              =   -2977.74412275 Ry
     estimated scf accuracy    <       0.00002504 Ry

     iteration # 63     ecut=    29.40 Ry     beta= 0.05
     Davidson diagonalization with overlap
     ethr =  3.94E-09,  avg # of iterations =  1.0

     negative rho (up, down):  8.871E-03 0.000E+00
 
     Adding external electric field

     Computed dipole along edir(3) : 
        Dipole                0.7645 Ry au,          1.9431 Debye
        Dipole field          0.0014 Ry au, 
 
        Potential amp.       -0.1337 Ry
        Total length         46.3494 bohr
 

     total cpu time spent up to now is     1045.7 secs

     total energy              =   -2977.74413167 Ry
     estimated scf accuracy    <       0.00003318 Ry

     iteration # 64     ecut=    29.40 Ry     beta= 0.05
     Davidson diagonalization with overlap
     ethr =  3.94E-09,  avg # of iterations =  1.0

     negative rho (up, down):  8.873E-03 0.000E+00
 
     Adding external electric field

     Computed dipole along edir(3) : 
        Dipole                0.7647 Ry au,          1.9438 Debye
        Dipole field          0.0014 Ry au, 
 
        Potential amp.       -0.1338 Ry
        Total length         46.3494 bohr
 

     total cpu time spent up to now is     1055.8 secs

     total energy              =   -2977.74413300 Ry
     estimated scf accuracy    <       0.00003459 Ry

     iteration # 65     ecut=    29.40 Ry     beta= 0.05
     Davidson diagonalization with overlap
     ethr =  3.94E-09,  avg # of iterations =  2.6

     negative rho (up, down):  8.884E-03 0.000E+00
 
     Adding external electric field

     Computed dipole along edir(3) : 
        Dipole                0.7651 Ry au,          1.9447 Debye
        Dipole field          0.0014 Ry au, 
 
        Potential amp.       -0.1338 Ry
        Total length         46.3494 bohr
 

     total cpu time spent up to now is     1067.2 secs

     total energy              =   -2977.74414208 Ry
     estimated scf accuracy    <       0.00001804 Ry

     iteration # 66     ecut=    29.40 Ry     beta= 0.05
     Davidson diagonalization with overlap
     ethr =  3.94E-09,  avg # of iterations =  1.0

     negative rho (up, down):  8.925E-03 0.000E+00
 
     Adding external electric field

     Computed dipole along edir(3) : 
        Dipole                0.7664 Ry au,          1.9480 Debye
        Dipole field          0.0014 Ry au, 
 
        Potential amp.       -0.1341 Ry
        Total length         46.3494 bohr
 

     total cpu time spent up to now is     1077.3 secs

     total energy              =   -2977.74414043 Ry
     estimated scf accuracy    <       0.00002076 Ry

     iteration # 67     ecut=    29.40 Ry     beta= 0.05
     Davidson diagonalization with overlap
     ethr =  3.94E-09,  avg # of iterations =  6.9

     negative rho (up, down):  8.900E-03 0.000E+00
 
     Adding external electric field

     Computed dipole along edir(3) : 
        Dipole                0.7664 Ry au,          1.9480 Debye
        Dipole field          0.0014 Ry au, 
 
        Potential amp.       -0.1341 Ry
        Total length         46.3494 bohr
 

     total cpu time spent up to now is     1096.1 secs

     total energy              =   -2977.74414827 Ry
     estimated scf accuracy    <       0.00002486 Ry

     iteration # 68     ecut=    29.40 Ry     beta= 0.05
     Davidson diagonalization with overlap
     ethr =  3.94E-09,  avg # of iterations =  5.0

     negative rho (up, down):  8.832E-03 0.000E+00
 
     Adding external electric field

     Computed dipole along edir(3) : 
        Dipole                0.7666 Ry au,          1.9485 Debye
        Dipole field          0.0014 Ry au, 
 
        Potential amp.       -0.1341 Ry
        Total length         46.3494 bohr
 

     total cpu time spent up to now is     1110.5 secs

     total energy              =   -2977.74415693 Ry
     estimated scf accuracy    <       0.00000271 Ry

     iteration # 69     ecut=    29.40 Ry     beta= 0.05
     Davidson diagonalization with overlap
     ethr =  6.68E-10,  avg # of iterations =  6.0

     negative rho (up, down):  8.826E-03 0.000E+00
 
     Adding external electric field

     Computed dipole along edir(3) : 
        Dipole                0.7679 Ry au,          1.9519 Debye
        Dipole field          0.0014 Ry au, 
 
        Potential amp.       -0.1343 Ry
        Total length         46.3494 bohr
 

     total cpu time spent up to now is     1129.8 secs

     total energy              =   -2977.74416089 Ry
     estimated scf accuracy    <       0.00001171 Ry

     iteration # 70     ecut=    29.40 Ry     beta= 0.05
     Davidson diagonalization with overlap
     ethr =  6.68E-10,  avg # of iterations =  5.1

     negative rho (up, down):  8.846E-03 0.000E+00
 
     Adding external electric field

     Computed dipole along edir(3) : 
        Dipole                0.7686 Ry au,          1.9536 Debye
        Dipole field          0.0015 Ry au, 
 
        Potential amp.       -0.1345 Ry
        Total length         46.3494 bohr
 

     total cpu time spent up to now is     1145.0 secs

     total energy              =   -2977.74416557 Ry
     estimated scf accuracy    <       0.00000238 Ry

     iteration # 71     ecut=    29.40 Ry     beta= 0.05
     Davidson diagonalization with overlap
     ethr =  5.86E-10,  avg # of iterations =  1.3

     negative rho (up, down):  8.869E-03 0.000E+00
 
     Adding external electric field

     Computed dipole along edir(3) : 
        Dipole                0.7691 Ry au,          1.9548 Debye
        Dipole field          0.0015 Ry au, 
 
        Potential amp.       -0.1345 Ry
        Total length         46.3494 bohr
 

     total cpu time spent up to now is     1155.4 secs

     total energy              =   -2977.74416896 Ry
     estimated scf accuracy    <       0.00000193 Ry

     iteration # 72     ecut=    29.40 Ry     beta= 0.05
     Davidson diagonalization with overlap
     ethr =  4.76E-10,  avg # of iterations =  4.9

     negative rho (up, down):  8.837E-03 0.000E+00
 
     Adding external electric field

     Computed dipole along edir(3) : 
        Dipole                0.7675 Ry au,          1.9507 Debye
        Dipole field          0.0014 Ry au, 
 
        Potential amp.       -0.1343 Ry
        Total length         46.3494 bohr
 

     total cpu time spent up to now is     1168.9 secs

     total energy              =   -2977.74417248 Ry
     estimated scf accuracy    <       0.00000104 Ry

     iteration # 73     ecut=    29.40 Ry     beta= 0.05
     Davidson diagonalization with overlap
     ethr =  2.57E-10,  avg # of iterations =  6.6

     negative rho (up, down):  8.785E-03 0.000E+00
 
     Adding external electric field

     Computed dipole along edir(3) : 
        Dipole                0.7658 Ry au,          1.9464 Debye
        Dipole field          0.0014 Ry au, 
 
        Potential amp.       -0.1340 Ry
        Total length         46.3494 bohr
 

     total cpu time spent up to now is     1187.8 secs

     total energy              =   -2977.74417571 Ry
     estimated scf accuracy    <       0.00000334 Ry

     iteration # 74     ecut=    29.40 Ry     beta= 0.05
     Davidson diagonalization with overlap
     ethr =  2.57E-10,  avg # of iterations =  3.0

     negative rho (up, down):  8.759E-03 0.000E+00
 
     Adding external electric field

     Computed dipole along edir(3) : 
        Dipole                0.7652 Ry au,          1.9450 Debye
        Dipole field          0.0014 Ry au, 
 
        Potential amp.       -0.1339 Ry
        Total length         46.3494 bohr
 

     total cpu time spent up to now is     1200.0 secs

     total energy              =   -2977.74417807 Ry
     estimated scf accuracy    <       0.00000163 Ry

     iteration # 75     ecut=    29.40 Ry     beta= 0.05
     Davidson diagonalization with overlap
     ethr =  2.57E-10,  avg # of iterations =  5.9

     negative rho (up, down):  8.757E-03 0.000E+00
 
     Adding external electric field

     Computed dipole along edir(3) : 
        Dipole                0.7653 Ry au,          1.9451 Debye
        Dipole field          0.0014 Ry au, 
 
        Potential amp.       -0.1339 Ry
        Total length         46.3494 bohr
 

     total cpu time spent up to now is     1217.9 secs

     total energy              =   -2977.74418102 Ry
     estimated scf accuracy    <       0.00000056 Ry

     iteration # 76     ecut=    29.40 Ry     beta= 0.05
     Davidson diagonalization with overlap
     ethr =  1.39E-10,  avg # of iterations =  1.0

     negative rho (up, down):  8.749E-03 0.000E+00
 
     Adding external electric field

     Computed dipole along edir(3) : 
        Dipole                0.7652 Ry au,          1.9448 Debye
        Dipole field          0.0014 Ry au, 
 
        Potential amp.       -0.1339 Ry
        Total length         46.3494 bohr
 

     total cpu time spent up to now is     1227.9 secs

     total energy              =   -2977.74418321 Ry
     estimated scf accuracy    <       0.00000041 Ry

     iteration # 77     ecut=    29.40 Ry     beta= 0.05
     Davidson diagonalization with overlap
     ethr =  1.02E-10,  avg # of iterations =  4.5

     negative rho (up, down):  8.756E-03 0.000E+00
 
     Adding external electric field

     Computed dipole along edir(3) : 
        Dipole                0.7650 Ry au,          1.9444 Debye
        Dipole field          0.0014 Ry au, 
 
        Potential amp.       -0.1338 Ry
        Total length         46.3494 bohr
 

     total cpu time spent up to now is     1239.8 secs

     total energy              =   -2977.74418522 Ry
     estimated scf accuracy    <       0.00000018 Ry

     iteration # 78     ecut=    29.40 Ry     beta= 0.05
     Davidson diagonalization with overlap
     ethr =  4.52E-11,  avg # of iterations =  2.3

     negative rho (up, down):  8.750E-03 0.000E+00
 
     Adding external electric field

     Computed dipole along edir(3) : 
        Dipole                0.7648 Ry au,          1.9440 Debye
        Dipole field          0.0014 Ry au, 
 
        Potential amp.       -0.1338 Ry
        Total length         46.3494 bohr
 

     total cpu time spent up to now is     1251.1 secs

     total energy              =   -2977.74418701 Ry
     estimated scf accuracy    <       0.00000014 Ry

     iteration # 79     ecut=    29.40 Ry     beta= 0.05
     Davidson diagonalization with overlap
     ethr =  3.45E-11,  avg # of iterations =  5.7

     negative rho (up, down):  8.750E-03 0.000E+00
 
     Adding external electric field

     Computed dipole along edir(3) : 
        Dipole                0.7648 Ry au,          1.9440 Debye
        Dipole field          0.0014 Ry au, 
 
        Potential amp.       -0.1338 Ry
        Total length         46.3494 bohr
 

     total cpu time spent up to now is     1268.6 secs

     total energy              =   -2977.74418870 Ry
     estimated scf accuracy    <       0.00000012 Ry

     iteration # 80     ecut=    29.40 Ry     beta= 0.05
     Davidson diagonalization with overlap
     ethr =  3.03E-11,  avg # of iterations =  1.0

     negative rho (up, down):  8.747E-03 0.000E+00
 
     Adding external electric field

     Computed dipole along edir(3) : 
        Dipole                0.7649 Ry au,          1.9441 Debye
        Dipole field          0.0014 Ry au, 
 
        Potential amp.       -0.1338 Ry
        Total length         46.3494 bohr
 

     total cpu time spent up to now is     1278.7 secs

     total energy              =   -2977.74419017 Ry
     estimated scf accuracy    <       0.00000011 Ry

     iteration # 81     ecut=    29.40 Ry     beta= 0.05
     Davidson diagonalization with overlap
     ethr =  2.59E-11,  avg # of iterations =  5.0

     negative rho (up, down):  8.782E-03 0.000E+00
 
     Adding external electric field

     Computed dipole along edir(3) : 
        Dipole                0.7641 Ry au,          1.9420 Debye
        Dipole field          0.0014 Ry au, 
 
        Potential amp.       -0.1337 Ry
        Total length         46.3494 bohr
 

     total cpu time spent up to now is     1291.2 secs

     End of self-consistent calculation

          k = 0.0000 0.0000 0.0000 ( 18029 PWs)   bands (ev):

   -56.2619 -56.2283 -55.3790 -55.3450 -55.3368 -55.3019 -55.1541 -55.1188
   -55.0321 -54.9118 -54.8933 -54.8920 -54.8779 -54.8069 -54.3908 -54.3413
   -32.6887 -32.5363 -32.5082 -32.4383 -32.3473 -32.3148 -31.8468 -31.8191
   -31.6895 -31.6448 -31.5960 -31.5781 -31.5479 -31.5389 -31.5098 -31.5048
   -31.4863 -31.4799 -31.4577 -31.4433 -31.4301 -31.3807 -31.3705 -31.3318
   -31.3193 -31.3027 -31.2938 -31.2804 -31.2564 -31.2554 -31.2513 -31.2271
   -31.1322 -31.1217 -31.0818 -31.0712 -31.0439 -31.0386 -31.0297 -31.0111
   -30.9804 -30.9277 -30.9055 -30.6344 -30.6122 -30.5812 -30.5604 -30.4515
   -18.4465 -16.4176 -15.9515 -15.7081 -15.6185 -15.5354 -15.4965 -15.4525
   -15.3004 -15.2330 -15.2103 -15.2100 -15.1393 -14.9911 -14.9439 -14.8460
   -14.7522 -14.6174 -14.6004 -14.5671 -14.5491 -14.5165 -14.5093 -14.4577
   -14.2943 -14.2586 -14.2105 -14.1474 -14.0621 -14.0406 -13.8371 -13.4099
   -13.3002 -12.6438  -7.4500  -6.2351  -4.1066  -4.0861  -3.9850  -3.4512
    -3.1819  -3.1542  -3.0257  -3.0210  -2.9757  -2.8356  -2.8277  -2.7543
    -2.7305  -2.6934  -2.6170  -2.5843  -2.5349  -2.4455  -2.4329  -2.4129
    -2.3995  -2.3838  -2.2622  -2.2207  -2.1686  -2.0648  -1.9567  -1.9136
    -1.8865  -1.8428  -1.8047  -1.7575  -1.7454  -1.7305  -1.7239  -1.6127
    -1.4985  -1.4656  -1.4507  -1.4046  -1.3863  -1.3775  -1.3557  -1.2705
    -1.1608  -1.0673  -1.0000  -0.9878  -0.9203  -0.9124  -0.8532  -0.7374
    -0.6766  -0.6722  -0.6559  -0.5525  -0.5259  -0.4546  -0.3915  -0.3337
    -0.2790  -0.2162  -0.1661  -0.1434  -0.1306  -0.0317   0.0399   0.0634
     0.1145   0.1239   0.1328   0.1536   0.2501   0.2860   0.3598   0.4041
     0.4404   0.4851   0.5678   0.6181   0.6857   0.7355   0.7584   0.8199
     0.8734   0.9290   1.0242   1.0725   1.0785   1.0870   1.1101   1.1702
     1.1840   1.2602   1.3433   1.3586   1.4310   1.4994   1.6602   1.6993
     1.9492   2.0206   2.6471   3.0153   3.1766   3.4718   3.6616   3.7990
     3.9945   4.0050   4.0121   4.2380   4.2617

          k = 0.0000 0.0419 0.0000 ( 17933 PWs)   bands (ev):

   -56.2570 -56.2332 -55.3741 -55.3499 -55.3321 -55.3065 -55.1489 -55.1239
   -55.0309 -54.9067 -54.8930 -54.8915 -54.8827 -54.8086 -54.3875 -54.3445
   -32.6353 -32.5321 -32.5120 -32.4250 -32.3707 -32.3606 -31.7946 -31.7656
   -31.6356 -31.6313 -31.5846 -31.5723 -31.5631 -31.5404 -31.5345 -31.5213
   -31.5015 -31.4993 -31.4875 -31.4172 -31.4060 -31.3643 -31.3571 -31.3365
   -31.3300 -31.3208 -31.2869 -31.2537 -31.2503 -31.2487 -31.2476 -31.2304
   -31.1277 -31.1096 -31.0989 -31.0886 -31.0685 -31.0507 -31.0414 -31.0302
   -31.0116 -30.9844 -30.8571 -30.6428 -30.6103 -30.5894 -30.5638 -30.4855
   -18.4462 -16.2965 -15.8328 -15.6710 -15.6055 -15.5588 -15.4551 -15.4347
   -15.2701 -15.2320 -15.1936 -15.1724 -15.0741 -14.9637 -14.9542 -14.8882
   -14.8449 -14.6921 -14.6218 -14.5846 -14.5815 -14.5593 -14.4891 -14.4358
   -14.3102 -14.2848 -14.2151 -14.2054 -14.0827 -14.0402 -13.9047 -13.4173
   -13.3414 -12.6538  -7.4472  -6.2351  -4.1110  -4.0872  -3.8032  -3.2745
    -3.0273  -3.0022  -2.9594  -2.8749  -2.8365  -2.8171  -2.7672  -2.7621
    -2.7504  -2.6896  -2.5830  -2.5696  -2.4890  -2.4200  -2.4132  -2.3961
    -2.3519  -2.3147  -2.2749  -2.2427  -2.1833  -2.1262  -2.0741  -2.0553
    -2.0258  -1.9471  -1.9390  -1.8890  -1.8595  -1.7823  -1.6907  -1.6519
    -1.6415  -1.5254  -1.4691  -1.4363  -1.4113  -1.3378  -1.2368  -1.1428
    -1.0673  -1.0391  -1.0092  -1.0010  -0.8453  -0.8049  -0.7484  -0.7270
    -0.6831  -0.6666  -0.6021  -0.5292  -0.5069  -0.4467  -0.4042  -0.3492
    -0.2546  -0.1901  -0.0874  -0.0737  -0.0530  -0.0311  -0.0156   0.0597
     0.0798   0.1115   0.1294   0.1360   0.2431   0.2491   0.3300   0.3602
     0.4390   0.4880   0.5195   0.5961   0.6213   0.6578   0.6858   0.7361
     0.7660   0.7883   0.8080   0.8197   0.9684   1.0175   1.0740   1.0960
     1.1697   1.2645   1.3448   1.4020   1.4261   1.4565   1.6068   1.6141
     1.8960   1.9025   2.5341   3.2821   3.2879   3.4812   3.8283   3.8484
     3.8832   3.9649   4.0083   4.1593   4.2351

          k = 0.0000-0.0839 0.0000 ( 17884 PWs)   bands (ev):

   -56.2453 -56.2448 -55.3641 -55.3598 -55.3241 -55.3144 -55.1375 -55.1352
   -55.0298 -54.8948 -54.8946 -54.8941 -54.8896 -54.8104 -54.3836 -54.3483
   -32.5222 -32.5218 -32.5044 -32.5042 -32.3930 -32.3925 -31.6695 -31.6638
   -31.6387 -31.6299 -31.5995 -31.5963 -31.5714 -31.5577 -31.5523 -31.5488
   -31.4962 -31.4953 -31.4910 -31.4786 -31.3830 -31.3808 -31.3449 -31.3436
   -31.3206 -31.2859 -31.2479 -31.2414 -31.2389 -31.2387 -31.2251 -31.1909
   -31.1518 -31.1197 -31.1194 -31.1105 -31.0960 -31.0804 -31.0803 -31.0656
   -31.0414 -31.0132 -30.7662 -30.7039 -30.6083 -30.5857 -30.5665 -30.5221
   -18.4460 -15.9960 -15.9949 -15.5729 -15.5672 -15.4145 -15.4144 -15.3985
   -15.3914 -15.2780 -15.1839 -15.0781 -15.0677 -14.9325 -14.9166 -14.8510
   -14.8217 -14.7730 -14.7623 -14.7471 -14.7264 -14.4398 -14.4330 -14.3597
   -14.3351 -14.3188 -14.3099 -14.1673 -14.1494 -14.0399 -13.9933 -13.4043
   -13.4040 -12.6637  -7.4444  -6.2351  -4.1162  -4.0876  -3.3490  -3.3489
    -2.8604  -2.8564  -2.8560  -2.8550  -2.8075  -2.7607  -2.7549  -2.7496
    -2.6669  -2.6111  -2.5781  -2.5026  -2.4804  -2.4106  -2.3895  -2.3682
    -2.3628  -2.3521  -2.3118  -2.3081  -2.2273  -2.1565  -2.1334  -2.1180
    -2.0609  -2.0132  -1.8757  -1.8496  -1.7601  -1.7506  -1.6652  -1.6431
    -1.6001  -1.5626  -1.5455  -1.4934  -1.4574  -1.3848  -1.3153  -1.3111
    -1.1998  -1.1833  -0.9795  -0.9157  -0.8384  -0.7403  -0.7141  -0.6914
    -0.6493  -0.6088  -0.5945  -0.5284  -0.4831  -0.3895  -0.3877  -0.3620
    -0.2817  -0.1904  -0.1448  -0.1386  -0.1031  -0.0452  -0.0311  -0.0132
    -0.0050   0.0955   0.1936   0.2000   0.2180   0.2719   0.3470   0.4129
     0.4830   0.4884   0.5151   0.5363   0.5616   0.5858   0.6240   0.6670
     0.6769   0.7104   0.7235   0.7497   0.7648   0.8495   0.9905   1.0704
     1.0776   1.3206   1.3670   1.4769   1.4778   1.5017   1.5779   1.5861
     1.6533   1.8602   2.4182   3.5268   3.5274   3.6602   3.6605   3.7220
     3.7223   4.0863   4.1063   4.2395   4.2535

          k = 0.0380 0.0000 0.0000 ( 17913 PWs)   bands (ev):

   -56.2618 -56.2282 -55.3788 -55.3449 -55.3369 -55.3018 -55.1540 -55.1187
   -55.0320 -54.9117 -54.8932 -54.8919 -54.8778 -54.8068 -54.3907 -54.3412
   -32.6893 -32.5361 -32.5081 -32.4363 -32.3470 -32.3145 -31.8471 -31.8236
   -31.6895 -31.6246 -31.5953 -31.5785 -31.5411 -31.5388 -31.5254 -31.5097
   -31.4868 -31.4789 -31.4586 -31.4434 -31.4299 -31.3963 -31.3616 -31.3318
   -31.3027 -31.3023 -31.2936 -31.2800 -31.2563 -31.2537 -31.2531 -31.2253
   -31.1403 -31.1215 -31.0815 -31.0707 -31.0436 -31.0385 -31.0301 -31.0109
   -30.9802 -30.9275 -30.9047 -30.6342 -30.6140 -30.5811 -30.5597 -30.4513
   -18.4462 -16.3141 -15.8691 -15.7760 -15.6917 -15.5704 -15.4493 -15.3441
   -15.3342 -15.2161 -15.2033 -15.1609 -15.1463 -15.1063 -14.9981 -14.7724
   -14.7513 -14.6769 -14.6699 -14.6664 -14.6134 -14.5628 -14.3538 -14.3452
   -14.3376 -14.2979 -14.2186 -14.1593 -14.0609 -14.0404 -13.8361 -13.4072
   -13.2999 -12.6422  -7.4490  -6.2291  -4.1068  -4.0859  -3.7011  -3.2641
    -3.1723  -3.1524  -3.0440  -2.9793  -2.8398  -2.7947  -2.7836  -2.7654
    -2.7533  -2.6997  -2.5763  -2.5560  -2.5192  -2.5003  -2.4343  -2.4114
    -2.3953  -2.3942  -2.2454  -2.1598  -2.1279  -2.0726  -1.9223  -1.8868
    -1.8612  -1.8385  -1.7744  -1.7572  -1.7147  -1.6638  -1.5602  -1.5255
    -1.5073  -1.4420  -1.4128  -1.3991  -1.3795  -1.3573  -1.3057  -1.2790
    -1.2006  -1.1107  -1.0649  -1.0124  -0.9629  -0.8795  -0.8055  -0.7449
    -0.7042  -0.6843  -0.6417  -0.6222  -0.5676  -0.5537  -0.4910  -0.4744
    -0.3266  -0.2375  -0.2352  -0.2127  -0.1381  -0.0981  -0.0659  -0.0191
     0.0242   0.0778   0.0984   0.2684   0.2977   0.3366   0.3729   0.3868
     0.4458   0.5354   0.5428   0.5974   0.6120   0.6209   0.7049   0.7664
     0.7879   0.8637   0.9470   0.9772   1.0142   1.0662   1.1200   1.1238
     1.1475   1.2365   1.2763   1.2946   1.3270   1.3914   1.5570   1.6108
     1.8913   1.9578   2.5087   3.1588   3.1906   3.4710   3.6378   3.7382
     4.0197   4.0221   4.0882   4.1038   4.2850

          k = 0.0380 0.0419 0.0000 ( 17878 PWs)   bands (ev):

   -56.2569 -56.2332 -55.3739 -55.3498 -55.3321 -55.3065 -55.1488 -55.1239
   -55.0309 -54.9067 -54.8930 -54.8914 -54.8827 -54.8086 -54.3874 -54.3444
   -32.6359 -32.5319 -32.5121 -32.4233 -32.3707 -32.3603 -31.7948 -31.7707
   -31.6357 -31.6139 -31.5837 -31.5727 -31.5517 -31.5404 -31.5344 -31.5241
   -31.5214 -31.4944 -31.4925 -31.4170 -31.4069 -31.3619 -31.3578 -31.3537
   -31.3342 -31.2926 -31.2868 -31.2537 -31.2500 -31.2495 -31.2470 -31.2295
   -31.1345 -31.1095 -31.0991 -31.0876 -31.0682 -31.0508 -31.0420 -31.0307
   -31.0115 -30.9843 -30.8565 -30.6427 -30.6117 -30.5892 -30.5639 -30.4854
   -18.4460 -16.1990 -15.7583 -15.7568 -15.6169 -15.5294 -15.4910 -15.3713
   -15.3324 -15.2310 -15.1401 -15.0992 -15.0709 -15.0671 -14.9669 -14.9029
   -14.7390 -14.7292 -14.7043 -14.6583 -14.6243 -14.5166 -14.4825 -14.4343
   -14.3822 -14.2683 -14.2468 -14.1802 -14.0829 -14.0401 -13.9044 -13.4153
   -13.3417 -12.6527  -7.4465  -6.2301  -4.1111  -4.0871  -3.5234  -3.0977
    -3.0295  -2.9850  -2.8965  -2.8824  -2.8025  -2.7205  -2.6707  -2.6642
    -2.6524  -2.6216  -2.5885  -2.5318  -2.4980  -2.4639  -2.4164  -2.3459
    -2.3117  -2.2730  -2.2608  -2.2327  -2.1634  -2.1105  -2.0666  -2.0386
    -1.9632  -1.9155  -1.8844  -1.8394  -1.7842  -1.7659  -1.7091  -1.6294
    -1.6043  -1.5240  -1.4999  -1.4484  -1.3670  -1.2643  -1.1948  -1.1699
    -1.1085  -1.0824  -1.0513  -0.9750  -0.9515  -0.8588  -0.8084  -0.7624
    -0.7283  -0.7009  -0.6647  -0.5975  -0.5231  -0.4669  -0.4099  -0.3818
    -0.3478  -0.3134  -0.2436  -0.1902  -0.1569  -0.1315  -0.0835  -0.0442
    -0.0270   0.0265   0.0323   0.1066   0.1723   0.2258   0.2633   0.3175
     0.3616   0.4470   0.4661   0.5249   0.5651   0.6008   0.6294   0.6964
     0.7351   0.7533   0.7958   0.8403   0.9893   1.0556   1.0711   1.1011
     1.2348   1.2605   1.3093   1.3601   1.3916   1.4841   1.5312   1.5896
     1.8208   1.9266   2.4966   3.2747   3.4318   3.5249   3.6856   3.8649
     3.9507   4.0042   4.1090   4.1789   4.3155

          k = 0.0380-0.0839 0.0000 ( 17916 PWs)   bands (ev):

   -56.2453 -56.2448 -55.3641 -55.3597 -55.3242 -55.3145 -55.1375 -55.1352
   -55.0298 -54.8948 -54.8946 -54.8941 -54.8896 -54.8105 -54.3836 -54.3483
   -32.5222 -32.5218 -32.5050 -32.5048 -32.3922 -32.3918 -31.6702 -31.6646
   -31.6479 -31.6405 -31.5770 -31.5747 -31.5711 -31.5570 -31.5529 -31.5491
   -31.5081 -31.5030 -31.4954 -31.4788 -31.3830 -31.3809 -31.3457 -31.3431
   -31.3215 -31.2860 -31.2479 -31.2404 -31.2396 -31.2394 -31.2200 -31.1919
   -31.1510 -31.1196 -31.1193 -31.1130 -31.0946 -31.0804 -31.0803 -31.0656
   -31.0449 -31.0132 -30.7662 -30.7037 -30.6092 -30.5857 -30.5674 -30.5221
   -18.4458 -15.9266 -15.9253 -15.5732 -15.5703 -15.4906 -15.4867 -15.3690
   -15.3629 -15.2516 -15.1491 -15.0580 -15.0427 -14.9110 -14.8852 -14.8438
   -14.8194 -14.8086 -14.7700 -14.7386 -14.7316 -14.5153 -14.5094 -14.4470
   -14.4285 -14.2878 -14.2759 -14.1605 -14.1389 -14.0399 -13.9916 -13.4042
   -13.4038 -12.6630  -7.4441  -6.2313  -4.1164  -4.0878  -3.1377  -3.1364
    -2.8206  -2.7821  -2.7817  -2.7594  -2.7573  -2.7488  -2.6879  -2.6565
    -2.6037  -2.5898  -2.5349  -2.4108  -2.3963  -2.3415  -2.3155  -2.3111
    -2.2946  -2.2697  -2.2613  -2.2268  -2.1776  -2.1518  -2.0849  -2.0223
    -1.9790  -1.9617  -1.8227  -1.7947  -1.7606  -1.7572  -1.7132  -1.6815
    -1.6401  -1.5736  -1.5485  -1.5318  -1.4825  -1.4643  -1.2850  -1.2704
    -1.2077  -1.1946  -1.0084  -0.9861  -0.9427  -0.9281  -0.8711  -0.7970
    -0.7763  -0.7314  -0.6743  -0.6384  -0.6205  -0.5219  -0.5074  -0.4101
    -0.3360  -0.3001  -0.2522  -0.2422  -0.2331  -0.1723  -0.1509  -0.0086
     0.0072   0.0648   0.1056   0.1789   0.1971   0.2244   0.2354   0.2573
     0.2927   0.3437   0.3688   0.3855   0.4092   0.4960   0.5459   0.6002
     0.6125   0.7748   0.8579   0.8667   0.8875   1.0482   1.0684   1.1529
     1.1896   1.3302   1.3711   1.4850   1.4870   1.5245   1.5445   1.5830
     1.6129   1.8992   2.4678   3.5312   3.5327   3.6916   3.6934   3.8905
     3.8912   4.0576   4.0752   4.2520   4.2734

          k = 0.0380-0.0419 0.0000 ( 17876 PWs)   bands (ev):

   -56.2569 -56.2332 -55.3739 -55.3498 -55.3321 -55.3065 -55.1488 -55.1239
   -55.0309 -54.9067 -54.8930 -54.8914 -54.8827 -54.8086 -54.3874 -54.3444
   -32.6359 -32.5319 -32.5121 -32.4233 -32.3707 -32.3603 -31.7948 -31.7707
   -31.6357 -31.6139 -31.5837 -31.5727 -31.5517 -31.5404 -31.5343 -31.5242
   -31.5214 -31.4944 -31.4925 -31.4170 -31.4069 -31.3616 -31.3582 -31.3535
   -31.3342 -31.2927 -31.2868 -31.2537 -31.2500 -31.2495 -31.2470 -31.2294
   -31.1344 -31.1095 -31.0991 -31.0876 -31.0682 -31.0508 -31.0418 -31.0308
   -31.0115 -30.9843 -30.8565 -30.6426 -30.6117 -30.5895 -30.5637 -30.4854
   -18.4460 -16.1988 -15.7590 -15.7568 -15.6169 -15.5289 -15.4911 -15.3710
   -15.3326 -15.2311 -15.1401 -15.0993 -15.0711 -15.0676 -14.9663 -14.9028
   -14.7387 -14.7292 -14.7040 -14.6577 -14.6244 -14.5160 -14.4837 -14.4354
   -14.3816 -14.2685 -14.2465 -14.1801 -14.0829 -14.0401 -13.9044 -13.4153
   -13.3417 -12.6527  -7.4465  -6.2302  -4.1111  -4.0871  -3.5228  -3.0965
    -3.0308  -2.9860  -2.8955  -2.8825  -2.7949  -2.7366  -2.6706  -2.6647
    -2.6420  -2.6238  -2.5860  -2.5313  -2.5007  -2.4629  -2.4253  -2.3454
    -2.3111  -2.2795  -2.2554  -2.2325  -2.1603  -2.1071  -2.0655  -2.0397
    -1.9608  -1.9145  -1.8864  -1.8350  -1.7923  -1.7611  -1.7135  -1.6245
    -1.6049  -1.5209  -1.4921  -1.4478  -1.3664  -1.2674  -1.1981  -1.1842
    -1.1095  -1.0824  -1.0655  -0.9794  -0.9257  -0.8574  -0.8127  -0.7629
    -0.7295  -0.6989  -0.6657  -0.5931  -0.5177  -0.4707  -0.4066  -0.3785
    -0.3512  -0.3137  -0.2487  -0.2047  -0.1458  -0.1334  -0.0913  -0.0425
    -0.0250   0.0288   0.0457   0.1226   0.1556   0.2242   0.2674   0.3244
     0.3685   0.4211   0.4655   0.5449   0.5628   0.6029   0.6407   0.6790
     0.7341   0.7525   0.7927   0.8600   0.9801   1.0467   1.0673   1.0982
     1.2288   1.2598   1.3124   1.3596   1.3931   1.4847   1.5308   1.5902
     1.8195   1.9283   2.4983   3.2754   3.4320   3.5250   3.6847   3.8646
     3.9514   4.0037   4.1037   4.1774   4.3140

          k =-0.0760-0.0000 0.0000 ( 17886 PWs)   bands (ev):

   -56.2618 -56.2282 -55.3786 -55.3449 -55.3369 -55.3018 -55.1539 -55.1187
   -55.0319 -54.9116 -54.8932 -54.8919 -54.8777 -54.8068 -54.3906 -54.3412
   -32.6900 -32.5360 -32.5080 -32.4343 -32.3473 -32.3145 -31.8474 -31.8280
   -31.6896 -31.5948 -31.5810 -31.5766 -31.5717 -31.5386 -31.5347 -31.5096
   -31.4880 -31.4782 -31.4596 -31.4439 -31.4298 -31.4078 -31.3518 -31.3317
   -31.3021 -31.2936 -31.2909 -31.2799 -31.2562 -31.2561 -31.2511 -31.2242
   -31.1495 -31.1215 -31.0816 -31.0702 -31.0436 -31.0384 -31.0309 -31.0108
   -30.9802 -30.9275 -30.9040 -30.6341 -30.6163 -30.5811 -30.5593 -30.4513
   -18.4459 -16.1538 -15.8590 -15.8237 -15.6977 -15.6216 -15.4460 -15.3798
   -15.2522 -15.2052 -15.1824 -15.1749 -15.1259 -15.0840 -15.0048 -14.8482
   -14.7988 -14.7438 -14.7333 -14.7009 -14.5876 -14.5804 -14.4233 -14.3099
   -14.2852 -14.2659 -14.2261 -14.1612 -14.0605 -14.0404 -13.8355 -13.4046
   -13.2996 -12.6407  -7.4481  -6.2231  -4.1070  -4.0857  -3.3122  -3.3097
    -3.2033  -3.1776  -2.9013  -2.8974  -2.8358  -2.7735  -2.7560  -2.7246
    -2.6897  -2.6642  -2.5731  -2.4906  -2.4614  -2.4225  -2.3844  -2.3531
    -2.3437  -2.1879  -2.1557  -2.1424  -2.0950  -2.0314  -1.9950  -1.9594
    -1.8349  -1.7916  -1.7666  -1.7604  -1.6738  -1.6402  -1.6297  -1.5616
    -1.5428  -1.4923  -1.3983  -1.3594  -1.3434  -1.3433  -1.3071  -1.2762
    -1.2379  -1.1303  -1.0939  -1.0745  -0.9838  -0.9270  -0.8580  -0.8364
    -0.7982  -0.7326  -0.6243  -0.5990  -0.5784  -0.5379  -0.4355  -0.4221
    -0.4027  -0.3768  -0.3696  -0.3334  -0.2585  -0.1717  -0.1102  -0.0920
    -0.0203   0.0531   0.1066   0.1072   0.2109   0.3051   0.3537   0.3970
     0.4474   0.5044   0.5412   0.5469   0.5728   0.6621   0.7103   0.7652
     0.8097   0.8520   0.8825   0.9146   1.0103   1.0468   1.0583   1.0846
     1.1383   1.1925   1.2254   1.2877   1.3390   1.4279   1.4776   1.5448
     1.6701   1.9574   2.3888   3.1475   3.2830   3.3817   3.4701   3.8260
     3.8707   4.0315   4.1793   4.2025   4.2096

          k =-0.0760 0.0419 0.0000 ( 17914 PWs)   bands (ev):

   -56.2569 -56.2332 -55.3738 -55.3498 -55.3323 -55.3065 -55.1488 -55.1239
   -55.0309 -54.9067 -54.8930 -54.8915 -54.8827 -54.8086 -54.3874 -54.3445
   -32.6367 -32.5319 -32.5121 -32.4219 -32.3710 -32.3603 -31.7953 -31.7759
   -31.6359 -31.5834 -31.5790 -31.5704 -31.5659 -31.5405 -31.5380 -31.5316
   -31.5214 -31.5008 -31.4939 -31.4171 -31.4080 -31.3724 -31.3589 -31.3482
   -31.3341 -31.2871 -31.2782 -31.2537 -31.2516 -31.2498 -31.2455 -31.2288
   -31.1419 -31.1095 -31.0995 -31.0870 -31.0681 -31.0508 -31.0429 -31.0312
   -31.0115 -30.9844 -30.8561 -30.6427 -30.6134 -30.5895 -30.5639 -30.4855
   -18.4458 -16.0403 -15.8139 -15.7548 -15.6218 -15.5542 -15.5196 -15.3283
   -15.3191 -15.2273 -15.1327 -15.0903 -15.0704 -14.9910 -14.9731 -14.9107
   -14.8482 -14.7319 -14.6942 -14.6768 -14.6419 -14.6233 -14.4724 -14.4634
   -14.3991 -14.2608 -14.2376 -14.1728 -14.0835 -14.0401 -13.9046 -13.4135
   -13.3419 -12.6517  -7.4459  -6.2254  -4.1114  -4.0872  -3.1032  -3.0499
    -3.0397  -3.0054  -2.7935  -2.7882  -2.7664  -2.7458  -2.6548  -2.6468
    -2.6156  -2.5791  -2.5595  -2.4280  -2.3864  -2.3715  -2.3261  -2.2685
    -2.2580  -2.2214  -2.1812  -2.1423  -2.1271  -2.0887  -2.0680  -1.9972
    -1.9019  -1.8993  -1.8405  -1.8377  -1.7348  -1.7078  -1.6900  -1.6456
    -1.5805  -1.5534  -1.4676  -1.4029  -1.3849  -1.2956  -1.2636  -1.2568
    -1.2339  -1.1366  -1.0188  -1.0073  -0.9476  -0.9110  -0.8852  -0.8492
    -0.7803  -0.7482  -0.6984  -0.6535  -0.6123  -0.5782  -0.5414  -0.4909
    -0.4435  -0.4226  -0.3353  -0.2905  -0.2717  -0.2171  -0.1555  -0.1229
    -0.0760  -0.0593  -0.0353   0.0034   0.0987   0.1508   0.1617   0.2021
     0.2739   0.3394   0.3695   0.4707   0.5152   0.5574   0.6690   0.6780
     0.7280   0.7567   0.8824   0.9484   1.0578   1.0631   1.1285   1.1779
     1.2006   1.2603   1.3031   1.3986   1.4493   1.4670   1.4772   1.5769
     1.6846   1.9492   2.4739   3.2875   3.4652   3.4713   3.5719   3.9694
     4.0308   4.0367   4.0738   4.2365   4.3175

          k =-0.0760-0.0839 0.0000 ( 17948 PWs)   bands (ev):

   -56.2453 -56.2448 -55.3640 -55.3596 -55.3243 -55.3146 -55.1375 -55.1353
   -55.0298 -54.8948 -54.8946 -54.8941 -54.8896 -54.8105 -54.3837 -54.3483
   -32.5222 -32.5218 -32.5057 -32.5054 -32.3915 -32.3910 -31.6705 -31.6646
   -31.6549 -31.6474 -31.5711 -31.5560 -31.5540 -31.5497 -31.5435 -31.5419
   -31.5362 -31.5275 -31.4956 -31.4791 -31.3831 -31.3810 -31.3473 -31.3416
   -31.3223 -31.2861 -31.2479 -31.2402 -31.2400 -31.2393 -31.2148 -31.1929
   -31.1499 -31.1196 -31.1194 -31.1158 -31.0931 -31.0804 -31.0803 -31.0655
   -31.0487 -31.0133 -30.7662 -30.7036 -30.6100 -30.5857 -30.5683 -30.5221
   -18.4456 -15.7682 -15.7662 -15.7311 -15.7303 -15.4634 -15.4601 -15.3667
   -15.3614 -15.2269 -15.1100 -15.0084 -14.9956 -14.9601 -14.9330 -14.8210
   -14.8001 -14.7911 -14.7809 -14.6692 -14.6491 -14.6039 -14.5927 -14.5764
   -14.5665 -14.2724 -14.2593 -14.1563 -14.1325 -14.0398 -13.9902 -13.4040
   -13.4036 -12.6624  -7.4436  -6.2276  -4.1166  -4.0879  -2.8647  -2.8576
    -2.8212  -2.8031  -2.8023  -2.7441  -2.6379  -2.5984  -2.5964  -2.5951
    -2.5141  -2.4466  -2.4387  -2.3673  -2.3344  -2.3151  -2.2570  -2.2462
    -2.1809  -2.1546  -2.1464  -2.1298  -2.1063  -2.1050  -2.0090  -1.9463
    -1.8944  -1.8910  -1.8237  -1.8054  -1.7415  -1.7208  -1.7092  -1.6775
    -1.6359  -1.6130  -1.5814  -1.5474  -1.5065  -1.4468  -1.2802  -1.2712
    -1.2618  -1.2402  -1.1150  -1.1083  -1.0770  -1.0469  -1.0411  -0.9673
    -0.9175  -0.8824  -0.8249  -0.7415  -0.7191  -0.6170  -0.5661  -0.5199
    -0.4638  -0.3575  -0.3401  -0.3293  -0.3204  -0.2899  -0.2236  -0.1934
    -0.1791  -0.0582  -0.0384   0.0138   0.0355   0.0920   0.1180   0.1826
     0.2098   0.2810   0.2931   0.3322   0.4060   0.4872   0.5215   0.5697
     0.5744   0.8505   0.9243   1.0544   1.0633   1.1223   1.1810   1.2522
     1.3122   1.3441   1.3712   1.4944   1.4986   1.5080   1.5084   1.5798
     1.5849   1.9269   2.5243   3.5912   3.5915   3.6580   3.6587   3.9794
     3.9856   4.0926   4.1029   4.2637   4.2787

     the Fermi energy is     2.8432 ev

!    total energy              =   -2977.74420374 Ry
     estimated scf accuracy    <       0.00000005 Ry
     smearing contrib. (-TS)   =      -0.00445468 Ry
     internal energy E=F+TS    =   -2977.73974906 Ry

     The total energy is F=E-TS. E is the sum of the following terms:
     one-electron contribution =  -22875.94710814 Ry
     hartree contribution      =   11535.68698380 Ry
     xc contribution           =    -496.32674109 Ry
     ewald contribution        =    8858.84601470 Ry
     electric field correction =       0.00110168 Ry

     convergence has been achieved in  81 iterations

     Forces acting on atoms (cartesian axes, Ry/au):

     atom    1 type  1   force =    -0.00003258   -0.00046522    0.12449824
     atom    2 type  1   force =    -0.00008974   -0.00047053   -0.15981485
     atom    3 type  2   force =     0.00019123   -0.00024412   -0.06791270
     atom    4 type  2   force =    -0.00000656   -0.00011846    0.02622482
     atom    5 type  2   force =    -0.01447993    0.00182095   -0.00990507
     atom    6 type  2   force =     0.01625926    0.00224429   -0.01024868
     atom    7 type  1   force =     0.00070709   -0.00387840    0.02890324
     atom    8 type  1   force =    -0.00034220   -0.00439915    0.10954825
     atom    9 type  2   force =     0.00023276   -0.00029203   -0.00051592
     atom   10 type  2   force =    -0.00231292    0.00256402   -0.07335332
     atom   11 type  2   force =    -0.00001893   -0.00033338   -0.00000489
     atom   12 type  2   force =    -0.00016154   -0.00082384    0.00001838
     atom   13 type  1   force =     0.00106607   -0.00040247    0.00012343
     atom   14 type  1   force =    -0.00064778    0.00064584   -0.00010792
     atom   15 type  2   force =    -0.00027944   -0.00039753   -0.00073858
     atom   16 type  2   force =    -0.00001812   -0.00011146    0.00067396
     atom   17 type  2   force =     0.00019248   -0.00076932   -0.00041583
     atom   18 type  2   force =     0.00053287   -0.00066833    0.00033284
     atom   19 type  1   force =    -0.00094650   -0.00009070   -0.00097957
     atom   20 type  1   force =     0.00069803   -0.00013779   -0.00046410
     atom   21 type  2   force =     0.00004638   -0.00003715    0.09943067
     atom   22 type  2   force =     0.00015302   -0.00024171   -0.00037904
     atom   23 type  2   force =    -0.07968489   -0.00005410   -0.03250131
     atom   24 type  2   force =     0.07952667    0.00038498   -0.03255055
     atom   25 type  1   force =    -0.00000290   -0.00057644    0.12415240
     atom   26 type  1   force =    -0.00008760   -0.00063650   -0.15996659
     atom   27 type  2   force =     0.00030071   -0.00036259   -0.06696692
     atom   28 type  2   force =    -0.00002090    0.00015098    0.02513601
     atom   29 type  2   force =    -0.01510372    0.00192663   -0.00984267
     atom   30 type  2   force =     0.01677992    0.00242672   -0.01015496
     atom   31 type  1   force =     0.00073491   -0.00075942    0.02408220
     atom   32 type  1   force =    -0.00027151    0.00204625    0.11016474
     atom   33 type  2   force =     0.00007175    0.00029314    0.00058817
     atom   34 type  2   force =    -0.00193547    0.00199993   -0.07166724
     atom   35 type  2   force =    -0.00001381    0.00034238   -0.00001712
     atom   36 type  2   force =    -0.00054066    0.00060986   -0.00005850
     atom   37 type  1   force =     0.00120619    0.00043103    0.00030666
     atom   38 type  1   force =    -0.00054479   -0.00088422   -0.00022698
     atom   39 type  2   force =    -0.00024671   -0.00013727    0.00088875
     atom   40 type  2   force =     0.00016294   -0.00012784    0.00025308
     atom   41 type  2   force =     0.00105907    0.00001579   -0.00001203
     atom   42 type  2   force =    -0.00047992   -0.00009699    0.00071595
     atom   43 type  1   force =    -0.00121633    0.00001112   -0.00028999
     atom   44 type  1   force =     0.00078823   -0.00013841   -0.00040033
     atom   45 type  2   force =     0.00002204   -0.00004786    0.09943408
     atom   46 type  2   force =    -0.07969867    0.00000008   -0.03251534
     atom   47 type  2   force =     0.07954907    0.00043448   -0.03253913
     atom   48 type  3   force =    -0.00085099   -0.00077318   -0.00042518
     atom   49 type  3   force =    -0.00033881   -0.00048472    0.00131431
     atom   50 type  4   force =    -0.00027122   -0.00011356    0.00004149
     atom   51 type  5   force =    -0.00020971    0.00037948    0.00028098
     atom   52 type  5   force =    -0.00006606   -0.00053199    0.00072490
     atom   53 type  5   force =     0.00052683   -0.00014156    0.00021054
     atom   54 type  5   force =     0.00006491   -0.00023271   -0.00059339
     atom   55 type  5   force =     0.00003089    0.00031462   -0.00029327
     atom   56 type  5   force =     0.00028795    0.00036399   -0.00182071
     atom   57 type  2   force =    -0.02428091    0.00002290   -0.00086642
     atom   58 type  5   force =     0.01235489   -0.00753203    0.00461674
     atom   59 type  5   force =     0.01165570    0.00808351   -0.00411568

     Total force =     0.424762     Total SCF correction =     0.000569
  @ DRIVER MODE: Message from server: STATUS
  @ DRIVER MODE: Message from server: GETFORCE
  @ DRIVER MODE: Returning v,forces,stress,ensemble 

     Writing output data file ./calc.save/
  @ DRIVER MODE: Message from server: EXIT
  @ DRIVE MODE: Exiting  
 
     init_run     :     11.00s CPU     11.23s WALL (       1 calls)
     electrons    :   1260.75s CPU   1279.45s WALL (       1 calls)
     forces       :      2.47s CPU      2.56s WALL (       1 calls)

     Called by init_run:
     wfcinit      :      4.95s CPU      5.02s WALL (       1 calls)
     potinit      :      5.39s CPU      5.45s WALL (       1 calls)
     hinit0       :      0.30s CPU      0.31s WALL (       1 calls)

     Called by electrons:
     c_bands      :   1063.58s CPU   1071.17s WALL (      81 calls)
     sum_band     :    133.53s CPU    138.01s WALL (      81 calls)
     v_of_rho     :     46.72s CPU     49.06s WALL (      82 calls)
     newd         :     19.60s CPU     23.85s WALL (      82 calls)
     mix_rho      :      1.77s CPU      1.83s WALL (      81 calls)
     vdW_kernel   :      4.55s CPU      4.57s WALL (       1 calls)

     Called by c_bands:
     init_us_2    :      9.16s CPU      9.20s WALL (    1640 calls)
     cegterg      :   1039.82s CPU   1047.08s WALL (     822 calls)

     Called by *egterg:
     cdiaghg      :    136.12s CPU    136.72s WALL (    6059 calls)
     h_psi        :    575.09s CPU    580.30s WALL (    6070 calls)
     s_psi        :     73.94s CPU     74.16s WALL (    6070 calls)
     g_psi        :      2.33s CPU      2.35s WALL (    5238 calls)

     Called by h_psi:
     h_psi:calbec :     70.85s CPU     71.19s WALL (    6070 calls)
     vloc_psi     :    425.58s CPU    429.77s WALL (    6070 calls)
     add_vuspsi   :     74.12s CPU     74.55s WALL (    6070 calls)

     General routines
     calbec       :     94.38s CPU     94.78s WALL (    6920 calls)
     fft          :     24.63s CPU     24.82s WALL (    5166 calls)
     ffts         :      0.15s CPU      0.15s WALL (     163 calls)
     fftw         :    476.49s CPU    481.15s WALL ( 1143166 calls)
     interpolate  :      0.50s CPU      0.51s WALL (      82 calls)
     davcio       :      0.01s CPU      0.45s WALL (      10 calls)
 
     Parallel routines
 
     PWSCF        :  21m14.48s CPU  21m34.68s WALL

 
   This run was terminated on:  11:39:43  16Sep2021            

=------------------------------------------------------------------------------=
   JOB DONE.
=------------------------------------------------------------------------------=
