
     Program PWSCF v.6.7GPU starts on 23Sep2021 at 18:50: 8 

     This program is part of the open-source Quantum ESPRESSO suite
     for quantum simulation of materials; please cite
         "P. Giannozzi et al., J. Phys.:Condens. Matter 21 395502 (2009);
         "P. Giannozzi et al., J. Phys.:Condens. Matter 29 465901 (2017);
         "P. Giannozzi et al., J. Chem. Phys. 152 154105 (2020);
          URL http://www.quantum-espresso.org", 
     in publications or presentations arising from this work. More details at
     http://www.quantum-espresso.org/quote

     Parallel version (MPI), running on     8 processors

     MPI processes distributed on     1 nodes
     R & G space division:  proc/nbgrp/npool/nimage =       8
     Reading input from /storage/home/hcoda1/3/ntian30/research/carbon/CxH_vib/H2O_calc/ads_slab/CH3N2HHO_a/out_0051/pw.inp
Warning: card &CELL ignored
Warning: card   CELL_DYNAMICS='IPI', ignored
Warning: card / ignored

     Current dimensions of program PWSCF are:
     Max number of different atomic species (ntypx) = 10
     Max number of k-points (npk) =  40000
     Max angular momentum in pseudopotentials (lmaxx) =  3
     Presently no symmetry can be used with electric field

     Message from routine cell_base_init:
     DEPRECATED: use true lattice parameter, not A to a.u. conversion factor

     **************************************************************************
     Initializing libbeef V0.1.2 with the BEEF-vdW functional.
     Citation: Wellendorff et al., PRB 85, 235149 (2012).
     **************************************************************************


     IMPORTANT: XC functional enforced from input :
     Exchange-correlation= BEEF-VDW
                           (   1   4  43  14   2   0   0)
     Any further DFT definition will be discarded
     Please, verify this is what you really want


     Subspace diagonalization in iterative solution of the eigenvalue problem:
     one sub-group per band group will be used
     scalapack distributed-memory algorithm (size of sub-group:  2*  2 procs)

  @ DRIVER MODE: Connecting to 
 qe_1139763_2941009.sched-torque.pace.gatech.edux0og4zr1_scratch
  using UNIX socket
  @ DRIVER MODE: Message from server: STATUS
  @ DRIVER MODE: Message from server: INIT
  @ DRIVER MODE: Receiving replica           0          -1
  @ DRIVER MODE: Receiving encoded integer          25
  @ DRIVER MODE:  SCF:  T  FORCE:  T  STRESS:  F  VC:  F  ENSEMBLE:  F
  @ DRIVER MODE:  SCF:  T  FORCE:  T  STRESS:  F  VC:  F  ENSEMBLE:  F
 
     Parallelization info
     --------------------
     sticks:   dense  smooth     PW     G-vecs:    dense   smooth      PW
     Min         409     164     47                70857    17926    2743
     Max         411     165     48                70858    17931    2751
     Sum        3275    1317    379               566857   143421   21985
 
     Using Slab Decomposition
 


     bravais-lattice index     =            0
     lattice parameter (alat)  =       1.8897  a.u.
     unit-cell volume          =    6658.9804 (a.u.)^3
     number of atoms/cell      =           56
     number of atomic types    =            5
     number of electrons       =       403.00
     number of Kohn-Sham states=          211
     kinetic-energy cutoff     =      29.3995  Ry
     charge density cutoff     =     293.9946  Ry
     scf convergence threshold =      7.3E-08
     mixing beta               =       0.0500
     number of iterations used =            8  plain     mixing
     Exchange-correlation= BEEF-VDW
                           (   1   4  43  14   2   0   0)

     celldm(1)=   1.889726  celldm(2)=   0.000000  celldm(3)=   0.000000
     celldm(4)=   0.000000  celldm(5)=   0.000000  celldm(6)=   0.000000

     crystal axes: (cart. coord. in units of alat)
               a(1) = (   6.579727   0.000000   0.000000 )  
               a(2) = (  -0.000775   5.961596   0.000000 )  
               a(3) = (   0.000000   0.000000  25.155947 )  

     reciprocal axes: (cart. coord. in units 2 pi/alat)
               b(1) = (  0.151982  0.000020  0.000000 )  
               b(2) = (  0.000000  0.167740  0.000000 )  
               b(3) = (  0.000000  0.000000  0.039752 )  


     PseudoPot. # 1 for Ti read from file:
     /storage/coda1/p-amedford6/0/shared/rich_project_chbe-medford/medford-share/data/pseudos_module/espresso/nninc/pbe/van/Ti.UPF
     MD5 check sum: 8e4df49b7f0d34bbd5052bf3f5ea0213
     Pseudo is Ultrasoft, Zval = 12.0
     Generated by new atomic code, or converted to UPF format
     Using radial grid of  851 points,  6 beta functions with: 
                l(1) =   0
                l(2) =   0
                l(3) =   1
                l(4) =   1
                l(5) =   2
                l(6) =   2
     Q(r) pseudized with  8 coefficients,  rinner =    1.000   1.000   1.000
                                                       1.000   1.000

     PseudoPot. # 2 for O  read from file:
     /storage/coda1/p-amedford6/0/shared/rich_project_chbe-medford/medford-share/data/pseudos_module/espresso/nninc/pbe/van/O.UPF
     MD5 check sum: 78c19812648e8988a0fe644b0f25305e
     Pseudo is Ultrasoft, Zval =  6.0
     Generated by new atomic code, or converted to UPF format
     Using radial grid of  737 points,  4 beta functions with: 
                l(1) =   0
                l(2) =   0
                l(3) =   1
                l(4) =   1
     Q(r) pseudized with  8 coefficients,  rinner =    0.800   0.800   0.800


     PseudoPot. # 3 for N  read from file:
     /storage/coda1/p-amedford6/0/shared/rich_project_chbe-medford/medford-share/data/pseudos_module/espresso/nninc/pbe/van/N.UPF
     MD5 check sum: 90d10febe142ad51ac9d5be1deb811c4
     Pseudo is Ultrasoft, Zval =  5.0
     Generated by new atomic code, or converted to UPF format
     Using radial grid of  729 points,  4 beta functions with: 
                l(1) =   0
                l(2) =   0
                l(3) =   1
                l(4) =   1
     Q(r) pseudized with  8 coefficients,  rinner =    0.800   0.800   0.800


     PseudoPot. # 4 for C  read from file:
     /storage/coda1/p-amedford6/0/shared/rich_project_chbe-medford/medford-share/data/pseudos_module/espresso/nninc/pbe/van/C.UPF
     MD5 check sum: 1a69bf6b8db32088f5b2163dbdb77a27
     Pseudo is Ultrasoft, Zval =  4.0
     Generated by new atomic code, or converted to UPF format
     Using radial grid of  721 points,  4 beta functions with: 
                l(1) =   0
                l(2) =   0
                l(3) =   1
                l(4) =   1
     Q(r) pseudized with  8 coefficients,  rinner =    0.800   0.800   0.800


     PseudoPot. # 5 for H  read from file:
     /storage/coda1/p-amedford6/0/shared/rich_project_chbe-medford/medford-share/data/pseudos_module/espresso/nninc/pbe/van/H.UPF
     MD5 check sum: b5ee9d7bfd3a09ee7748110bda690ff7
     Pseudo is Ultrasoft, Zval =  1.0
     Generated by new atomic code, or converted to UPF format
     Using radial grid of  615 points,  1 beta functions with: 
                l(1) =   0
     Q(r) pseudized with  8 coefficients,  rinner =    0.800

     atomic species   valence    mass     pseudopotential
        Ti1           12.00    47.86700     Ti( 1.00)
        O1             6.00    15.99900     O ( 1.00)
        N1             5.00    14.00700     N ( 1.00)
        C1             4.00    12.01100     C ( 1.00)
        H1             1.00     1.00800     H ( 1.00)

     No symmetry found



   Cartesian axes

     site n.     atom                  positions (alat units)
         1           Ti1 tau(   1) = (   0.0004258   2.9801865   6.0000000  )
         2           Ti1 tau(   2) = (   3.2906075   1.4906267   6.0002472  )
         3           O1  tau(   3) = (   0.0006271   0.0005054   7.9858123  )
         4           O1  tau(   4) = (   3.2906025   0.0005020   7.3038282  )
         5           O1  tau(   5) = (   4.5942328   1.4918067   9.2879030  )
         6           O1  tau(   6) = (   1.9868534   1.4903216   9.2879459  )
         7           Ti1 tau(   7) = (   3.2907910   2.8959150   9.1758416  )
         8           Ti1 tau(   8) = (   0.0015273   1.4827037   9.2680791  )
         9           O1  tau(   9) = (   3.2827749   5.9542966  11.3123607  )
        10           O1  tau(  10) = (   0.0116148   5.9584955  10.6183126  )
        11           O1  tau(  11) = (   1.2790800   1.4852124  12.6463597  )
        12           O1  tau(  12) = (   5.2943908   1.4901875  12.6352807  )
        13           Ti1 tau(  13) = (   6.5507123   3.1127926  12.6266869  )
        14           Ti1 tau(  14) = (   3.2873181   1.3120036  12.6863921  )
        15           O1  tau(  15) = (   6.5656690   0.0172326  14.6855350  )
        16           O1  tau(  16) = (   3.2842416   0.0515509  13.9244022  )
        17           O1  tau(  17) = (   4.5437539   1.5966601  16.0680646  )
        18           O1  tau(  18) = (   2.0303991   1.5956099  16.0781401  )
        19           Ti1 tau(  19) = (   3.2961159   3.0594788  15.6697774  )
        20           Ti1 tau(  20) = (   6.5318457   1.5630605  15.7780207  )
        21           O1  tau(  21) = (   3.2904802   0.0005063   4.7018136  )
        22           O1  tau(  22) = (   6.5726385   0.0820865  17.2550913  )
        23           O1  tau(  23) = (   1.3043587   1.4918075   6.0039043  )
        24           O1  tau(  24) = (   5.2767064   1.4903225   6.0039473  )
        25           Ti1 tau(  25) = (   0.0000382   5.9609847   6.0000000  )
        26           Ti1 tau(  26) = (   3.2902200   4.4714249   6.0002472  )
        27           O1  tau(  27) = (   0.0002396   2.9813036   7.9858123  )
        28           O1  tau(  28) = (   3.2902150   2.9813002   7.3038282  )
        29           O1  tau(  29) = (   4.5938453   4.4726049   9.2879030  )
        30           O1  tau(  30) = (   1.9864658   4.4711199   9.2879459  )
        31           Ti1 tau(  31) = (   3.2891106   5.8743827   9.1763621  )
        32           Ti1 tau(  32) = (   0.0006254   4.4649316   9.2693709  )
        33           O1  tau(  33) = (   3.2807365   3.0201584  11.2787527  )
        34           O1  tau(  34) = (   0.0092240   2.9805883  10.6323155  )
        35           O1  tau(  35) = (   1.2751182   4.4744369  12.6357194  )
        36           O1  tau(  36) = (   5.2842299   4.4734050  12.6250694  )
        37           Ti1 tau(  37) = (   0.0094520   0.1224552  12.5707632  )
        38           Ti1 tau(  38) = (   3.2670701   4.4034752  12.4162930  )
        39           O1  tau(  39) = (   6.5622168   3.0106679  14.6773207  )
        40           O1  tau(  40) = (   3.2891587   3.0115246  13.8909557  )
        41           O1  tau(  41) = (   4.5321968   4.4927823  16.1577793  )
        42           O1  tau(  42) = (   2.0250423   4.4919485  16.1304878  )
        43           Ti1 tau(  43) = (   3.2250977   0.0853664  16.3312049  )
        44           Ti1 tau(  44) = (   6.5532039   4.7053171  16.1332850  )
        45           O1  tau(  45) = (   3.2900926   2.9813045   4.7018136  )
        46           O1  tau(  46) = (   1.3039711   4.4726057   6.0039043  )
        47           O1  tau(  47) = (   5.2763189   4.4711207   6.0039473  )
        48           N1  tau(  48) = (   0.0650423   2.5931692  18.6004617  )
        49           N1  tau(  49) = (   0.0051179   2.9528117  17.3995676  )
        50           C1  tau(  50) = (   0.1360749   3.5155665  19.7334966  )
        51           H1  tau(  51) = (   6.1082608   4.3937080  19.5213757  )
        52           H1  tau(  52) = (   6.3628389   3.0028702  20.6266755  )
        53           H1  tau(  53) = (   1.1699357   3.8405576  19.8861820  )
        54           H1  tau(  54) = (   0.1060244   1.5775976  18.7788705  )
        55           O1  tau(  55) = (   3.2396048   0.1449850  18.2004881  )
        56           H1  tau(  56) = (   3.4111690   5.2554565  18.6466900  )

     number of k points=    10  Fermi-Dirac smearing, width (Ry)=  0.0073
                       cart. coord. in units 2pi/alat
        k(    1) = (   0.0000000   0.0000000   0.0000000), wk =   0.1250000
        k(    2) = (   0.0000000   0.0419351   0.0000000), wk =   0.2500000
        k(    3) = (   0.0000000  -0.0838702   0.0000000), wk =   0.1250000
        k(    4) = (   0.0379955   0.0000049   0.0000000), wk =   0.2500000
        k(    5) = (   0.0379955   0.0419400   0.0000000), wk =   0.2500000
        k(    6) = (   0.0379955  -0.0838652   0.0000000), wk =   0.2500000
        k(    7) = (   0.0379955  -0.0419301   0.0000000), wk =   0.2500000
        k(    8) = (  -0.0759910  -0.0000099   0.0000000), wk =   0.1250000
        k(    9) = (  -0.0759910   0.0419252   0.0000000), wk =   0.2500000
        k(   10) = (  -0.0759910  -0.0838800   0.0000000), wk =   0.1250000

     Dense  grid:   566857 G-vectors     FFT dimensions: (  72,  64, 270)

     Smooth grid:   143421 G-vectors     FFT dimensions: (  45,  40, 180)

     Estimated max dynamical RAM per process >     457.66 MB

     Estimated total dynamical RAM >       3.58 GB
     Cannot read rho : file not found

     Initial potential from superposition of free atoms

     starting charge  386.99914, renormalised to  403.00000

     negative rho (up, down):  1.430E-02 0.000E+00


     %%%%%%%%%%%%%%%%%%%%%%%%%%%%%%%%%%%%%%%%%%%%%%%%%%%%%%%%%%%%%%%%%%%%%%%%
     %                                                                      %
     % You are using vdW-DF, which was implemented by the Thonhauser group. %
     % Please cite the following two papers that made this development      %
     % possible and the two reviews that describe the various versions:     %
     %                                                                      %
     %   T. Thonhauser et al., PRL 115, 136402 (2015).                      %
     %   T. Thonhauser et al., PRB 76, 125112 (2007).                       %
     %   K. Berland et al., Rep. Prog. Phys. 78, 066501 (2015).             %
     %   D.C. Langreth et al., J. Phys.: Condens. Matter 21, 084203 (2009). %
     %                                                                      %
     %                                                                      %
     % If you are calculating the stress with vdW-DF, please also cite:     %
     %                                                                      %
     %   R. Sabatini et al., J. Phys.: Condens. Matter 24, 424209 (2012).   %
     %                                                                      %
     %%%%%%%%%%%%%%%%%%%%%%%%%%%%%%%%%%%%%%%%%%%%%%%%%%%%%%%%%%%%%%%%%%%%%%%%


 
     Adding external electric field

     Computed dipole along edir(3) : 
        Dipole              -12.7219 Ry au,        -32.3358 Debye
        Dipole field         -0.0240 Ry au, 
 
        Potential amp.        2.2255 Ry
        Total length         46.3494 bohr
 
     Starting wfcs are  305 atomic wfcs
  @ DRIVER MODE: Message from server: STATUS
  @ DRIVER MODE: Message from server: POSDATA
  @ DRIVER MODE: Reading and sharing cell 
  @ DRIVER MODE: Reading and sharing positions 
  @ DRIVER MODE: Received positions 

     total cpu time spent up to now is       14.1 secs

     Self-consistent Calculation

     iteration #  1     ecut=    29.40 Ry     beta= 0.05
     Davidson diagonalization with overlap
     c_bands:  5 eigenvalues not converged
     c_bands:  4 eigenvalues not converged
     c_bands:  3 eigenvalues not converged
     c_bands:  4 eigenvalues not converged
     c_bands:  5 eigenvalues not converged
     c_bands:  4 eigenvalues not converged
     c_bands:  1 eigenvalues not converged
     c_bands:  4 eigenvalues not converged
     ethr =  1.00E-05,  avg # of iterations = 25.4

     negative rho (up, down):  8.757E-03 0.000E+00
 
     Adding external electric field

     Computed dipole along edir(3) : 
        Dipole               53.8052 Ry au,        136.7591 Debye
        Dipole field          0.1015 Ry au, 
 
        Potential amp.       -9.4124 Ry
        Total length         46.3494 bohr
 

     total cpu time spent up to now is       70.8 secs

     total energy              =   -2361.22685251 Ry
     estimated scf accuracy    <    6936.17489854 Ry

     iteration #  2     ecut=    29.40 Ry     beta= 0.05
     Davidson diagonalization with overlap
     ethr =  1.00E-02,  avg # of iterations = 24.0

     negative rho (up, down):  4.638E-04 0.000E+00
 
     Adding external electric field

     Computed dipole along edir(3) : 
        Dipole               -0.7070 Ry au,         -1.7969 Debye
        Dipole field         -0.0013 Ry au, 
 
        Potential amp.        0.1237 Ry
        Total length         46.3494 bohr
 

     total cpu time spent up to now is      171.1 secs

     total energy              =   -2472.26175947 Ry
     estimated scf accuracy    <   73144.65282183 Ry

     iteration #  3     ecut=    29.40 Ry     beta= 0.05
     Davidson diagonalization with overlap
     c_bands:  2 eigenvalues not converged
     ethr =  1.00E-02,  avg # of iterations = 16.8

     negative rho (up, down):  5.210E-04 0.000E+00
 
     Adding external electric field

     Computed dipole along edir(3) : 
        Dipole               -3.7246 Ry au,         -9.4670 Debye
        Dipole field         -0.0070 Ry au, 
 
        Potential amp.        0.6516 Ry
        Total length         46.3494 bohr
 

     total cpu time spent up to now is      232.5 secs

     total energy              =   -2960.05081584 Ry
     estimated scf accuracy    <    6206.12633344 Ry

     iteration #  4     ecut=    29.40 Ry     beta= 0.05
     Davidson diagonalization with overlap
     ethr =  1.00E-02,  avg # of iterations = 13.6

     negative rho (up, down):  5.372E-04 0.000E+00
 
     Adding external electric field

     Computed dipole along edir(3) : 
        Dipole               -5.1571 Ry au,        -13.1081 Debye
        Dipole field         -0.0097 Ry au, 
 
        Potential amp.        0.9022 Ry
        Total length         46.3494 bohr
 

     total cpu time spent up to now is      260.3 secs

     total energy              =   -2967.54640004 Ry
     estimated scf accuracy    <    1811.45550665 Ry

     iteration #  5     ecut=    29.40 Ry     beta= 0.05
     Davidson diagonalization with overlap
     ethr =  1.00E-02,  avg # of iterations =  2.1

     negative rho (up, down):  5.864E-04 0.000E+00
 
     Adding external electric field

     Computed dipole along edir(3) : 
        Dipole               -6.9987 Ry au,        -17.7890 Debye
        Dipole field         -0.0132 Ry au, 
 
        Potential amp.        1.2243 Ry
        Total length         46.3494 bohr
 

     total cpu time spent up to now is      273.3 secs

     total energy              =   -2949.49925271 Ry
     estimated scf accuracy    <    1872.09780452 Ry

     iteration #  6     ecut=    29.40 Ry     beta= 0.05
     Davidson diagonalization with overlap
     ethr =  1.00E-02,  avg # of iterations = 11.2

     negative rho (up, down):  5.913E-04 0.000E+00
 
     Adding external electric field

     Computed dipole along edir(3) : 
        Dipole               -6.2172 Ry au,        -15.8025 Debye
        Dipole field         -0.0117 Ry au, 
 
        Potential amp.        1.0876 Ry
        Total length         46.3494 bohr
 

     total cpu time spent up to now is      300.7 secs

     total energy              =   -2978.58548876 Ry
     estimated scf accuracy    <      21.64564139 Ry

     iteration #  7     ecut=    29.40 Ry     beta= 0.05
     Davidson diagonalization with overlap
     ethr =  5.37E-03,  avg # of iterations =  1.2

     negative rho (up, down):  7.323E-04 0.000E+00
 
     Adding external electric field

     Computed dipole along edir(3) : 
        Dipole               -0.2784 Ry au,         -0.7076 Debye
        Dipole field         -0.0005 Ry au, 
 
        Potential amp.        0.0487 Ry
        Total length         46.3494 bohr
 

     total cpu time spent up to now is      313.3 secs

     total energy              =   -2972.81388067 Ry
     estimated scf accuracy    <      19.32175811 Ry

     iteration #  8     ecut=    29.40 Ry     beta= 0.05
     Davidson diagonalization with overlap
     c_bands:  3 eigenvalues not converged
     c_bands:  3 eigenvalues not converged
     c_bands:  1 eigenvalues not converged
     c_bands:  3 eigenvalues not converged
     c_bands:  2 eigenvalues not converged
     c_bands:  5 eigenvalues not converged
     ethr =  4.79E-03,  avg # of iterations = 19.7

     negative rho (up, down):  7.692E-04 0.000E+00
 
     Adding external electric field

     Computed dipole along edir(3) : 
        Dipole               -1.6830 Ry au,         -4.2779 Debye
        Dipole field         -0.0032 Ry au, 
 
        Potential amp.        0.2944 Ry
        Total length         46.3494 bohr
 

     total cpu time spent up to now is      340.1 secs

     total energy              =   -2978.37734174 Ry
     estimated scf accuracy    <    1667.63466775 Ry

     iteration #  9     ecut=    29.40 Ry     beta= 0.05
     Davidson diagonalization with overlap
     ethr =  4.79E-03,  avg # of iterations =  3.1

     negative rho (up, down):  7.753E-04 0.000E+00
 
     Adding external electric field

     Computed dipole along edir(3) : 
        Dipole               -2.1516 Ry au,         -5.4688 Debye
        Dipole field         -0.0041 Ry au, 
 
        Potential amp.        0.3764 Ry
        Total length         46.3494 bohr
 

     total cpu time spent up to now is      353.7 secs

     total energy              =   -2976.36655036 Ry
     estimated scf accuracy    <    1208.93979634 Ry

     iteration # 10     ecut=    29.40 Ry     beta= 0.05
     Davidson diagonalization with overlap
     ethr =  4.79E-03,  avg # of iterations =  3.8

     negative rho (up, down):  1.016E-03 0.000E+00
 
     Adding external electric field

     Computed dipole along edir(3) : 
        Dipole                0.3089 Ry au,          0.7851 Debye
        Dipole field          0.0006 Ry au, 
 
        Potential amp.       -0.0540 Ry
        Total length         46.3494 bohr
 

     total cpu time spent up to now is      367.5 secs

     total energy              =   -2987.23490594 Ry
     estimated scf accuracy    <    1146.93260099 Ry

     iteration # 11     ecut=    29.40 Ry     beta= 0.05
     Davidson diagonalization with overlap
     ethr =  4.79E-03,  avg # of iterations =  1.8

     negative rho (up, down):  1.019E-03 0.000E+00
 
     Adding external electric field

     Computed dipole along edir(3) : 
        Dipole               -1.6981 Ry au,         -4.3161 Debye
        Dipole field         -0.0032 Ry au, 
 
        Potential amp.        0.2971 Ry
        Total length         46.3494 bohr
 

     total cpu time spent up to now is      380.6 secs

     total energy              =   -2972.09574550 Ry
     estimated scf accuracy    <    1543.27692916 Ry

     iteration # 12     ecut=    29.40 Ry     beta= 0.05
     Davidson diagonalization with overlap
     ethr =  4.79E-03,  avg # of iterations =  7.2

     negative rho (up, down):  1.010E-03 0.000E+00
 
     Adding external electric field

     Computed dipole along edir(3) : 
        Dipole               -1.1997 Ry au,         -3.0493 Debye
        Dipole field         -0.0023 Ry au, 
 
        Potential amp.        0.2099 Ry
        Total length         46.3494 bohr
 

     total cpu time spent up to now is      395.9 secs

     total energy              =   -2977.71161519 Ry
     estimated scf accuracy    <     777.69119061 Ry

     iteration # 13     ecut=    29.40 Ry     beta= 0.05
     Davidson diagonalization with overlap
     ethr =  4.79E-03,  avg # of iterations =  1.5

     negative rho (up, down):  9.815E-04 0.000E+00
 
     Adding external electric field

     Computed dipole along edir(3) : 
        Dipole                0.1228 Ry au,          0.3122 Debye
        Dipole field          0.0002 Ry au, 
 
        Potential amp.       -0.0215 Ry
        Total length         46.3494 bohr
 

     total cpu time spent up to now is      408.8 secs

     total energy              =   -2984.13749881 Ry
     estimated scf accuracy    <     892.01116245 Ry

     iteration # 14     ecut=    29.40 Ry     beta= 0.05
     Davidson diagonalization with overlap
     ethr =  4.79E-03,  avg # of iterations =  2.3

     negative rho (up, down):  1.140E-03 0.000E+00
 
     Adding external electric field

     Computed dipole along edir(3) : 
        Dipole               -1.1192 Ry au,         -2.8447 Debye
        Dipole field         -0.0021 Ry au, 
 
        Potential amp.        0.1958 Ry
        Total length         46.3494 bohr
 

     total cpu time spent up to now is      421.7 secs

     total energy              =   -2968.34988412 Ry
     estimated scf accuracy    <    1478.82869265 Ry

     iteration # 15     ecut=    29.40 Ry     beta= 0.05
     Davidson diagonalization with overlap
     c_bands:  2 eigenvalues not converged
     c_bands:  2 eigenvalues not converged
     c_bands:  1 eigenvalues not converged
     c_bands:  2 eigenvalues not converged
     ethr =  4.79E-03,  avg # of iterations = 15.8

     negative rho (up, down):  1.135E-03 0.000E+00
 
     Adding external electric field

     Computed dipole along edir(3) : 
        Dipole               -4.2683 Ry au,        -10.8489 Debye
        Dipole field         -0.0081 Ry au, 
 
        Potential amp.        0.7467 Ry
        Total length         46.3494 bohr
 

     total cpu time spent up to now is      442.5 secs

     total energy              =   -2963.93622454 Ry
     estimated scf accuracy    <     250.27820106 Ry

     iteration # 16     ecut=    29.40 Ry     beta= 0.05
     Davidson diagonalization with overlap
     c_bands:  1 eigenvalues not converged
     c_bands:  1 eigenvalues not converged
     ethr =  4.79E-03,  avg # of iterations = 13.1

     negative rho (up, down):  1.193E-03 0.000E+00
 
     Adding external electric field

     Computed dipole along edir(3) : 
        Dipole               -4.2977 Ry au,        -10.9237 Debye
        Dipole field         -0.0081 Ry au, 
 
        Potential amp.        0.7518 Ry
        Total length         46.3494 bohr
 

     total cpu time spent up to now is      469.0 secs

     total energy              =   -2975.31622677 Ry
     estimated scf accuracy    <      58.81505438 Ry

     iteration # 17     ecut=    29.40 Ry     beta= 0.05
     Davidson diagonalization with overlap
     ethr =  4.79E-03,  avg # of iterations =  1.7

     negative rho (up, down):  1.283E-03 0.000E+00
 
     Adding external electric field

     Computed dipole along edir(3) : 
        Dipole               -4.7981 Ry au,        -12.1956 Debye
        Dipole field         -0.0091 Ry au, 
 
        Potential amp.        0.8394 Ry
        Total length         46.3494 bohr
 

     total cpu time spent up to now is      481.8 secs

     total energy              =   -2977.80145661 Ry
     estimated scf accuracy    <     148.55758964 Ry

     iteration # 18     ecut=    29.40 Ry     beta= 0.05
     Davidson diagonalization with overlap
     ethr =  4.79E-03,  avg # of iterations =  4.8

     negative rho (up, down):  1.462E-03 0.000E+00
 
     Adding external electric field

     Computed dipole along edir(3) : 
        Dipole               -2.8501 Ry au,         -7.2443 Debye
        Dipole field         -0.0054 Ry au, 
 
        Potential amp.        0.4986 Ry
        Total length         46.3494 bohr
 

     total cpu time spent up to now is      496.2 secs

     total energy              =   -2972.15316726 Ry
     estimated scf accuracy    <     433.10527544 Ry

     iteration # 19     ecut=    29.40 Ry     beta= 0.05
     Davidson diagonalization with overlap
     ethr =  4.79E-03,  avg # of iterations =  1.5

     negative rho (up, down):  1.465E-03 0.000E+00
 
     Adding external electric field

     Computed dipole along edir(3) : 
        Dipole               -2.9743 Ry au,         -7.5599 Debye
        Dipole field         -0.0056 Ry au, 
 
        Potential amp.        0.5203 Ry
        Total length         46.3494 bohr
 

     total cpu time spent up to now is      509.1 secs

     total energy              =   -2974.52001211 Ry
     estimated scf accuracy    <      11.69846857 Ry

     iteration # 20     ecut=    29.40 Ry     beta= 0.05
     Davidson diagonalization with overlap
     ethr =  2.90E-03,  avg # of iterations =  1.2

     negative rho (up, down):  1.558E-03 0.000E+00
 
     Adding external electric field

     Computed dipole along edir(3) : 
        Dipole               -2.9655 Ry au,         -7.5375 Debye
        Dipole field         -0.0056 Ry au, 
 
        Potential amp.        0.5188 Ry
        Total length         46.3494 bohr
 

     total cpu time spent up to now is      521.7 secs

     total energy              =   -2974.56826899 Ry
     estimated scf accuracy    <      30.51000846 Ry

     iteration # 21     ecut=    29.40 Ry     beta= 0.05
     Davidson diagonalization with overlap
     ethr =  2.90E-03,  avg # of iterations =  1.1

     negative rho (up, down):  3.290E-03 0.000E+00
 
     Adding external electric field

     Computed dipole along edir(3) : 
        Dipole               -2.4620 Ry au,         -6.2579 Debye
        Dipole field         -0.0046 Ry au, 
 
        Potential amp.        0.4307 Ry
        Total length         46.3494 bohr
 

     total cpu time spent up to now is      534.2 secs

     total energy              =   -2973.81411252 Ry
     estimated scf accuracy    <      33.25940226 Ry

     iteration # 22     ecut=    29.40 Ry     beta= 0.05
     Davidson diagonalization with overlap
     ethr =  2.90E-03,  avg # of iterations =  1.9

     negative rho (up, down):  7.511E-03 0.000E+00
 
     Adding external electric field

     Computed dipole along edir(3) : 
        Dipole               -1.7873 Ry au,         -4.5430 Debye
        Dipole field         -0.0034 Ry au, 
 
        Potential amp.        0.3127 Ry
        Total length         46.3494 bohr
 

     total cpu time spent up to now is      547.2 secs

     total energy              =   -2973.96497428 Ry
     estimated scf accuracy    <       5.15023487 Ry

     iteration # 23     ecut=    29.40 Ry     beta= 0.05
     Davidson diagonalization with overlap
     ethr =  1.28E-03,  avg # of iterations =  3.8

     negative rho (up, down):  8.477E-03 0.000E+00
 
     Adding external electric field

     Computed dipole along edir(3) : 
        Dipole               -1.2111 Ry au,         -3.0784 Debye
        Dipole field         -0.0023 Ry au, 
 
        Potential amp.        0.2119 Ry
        Total length         46.3494 bohr
 

     total cpu time spent up to now is      561.1 secs

     total energy              =   -2973.97716204 Ry
     estimated scf accuracy    <       3.84316741 Ry

     iteration # 24     ecut=    29.40 Ry     beta= 0.05
     Davidson diagonalization with overlap
     ethr =  9.54E-04,  avg # of iterations =  5.7

     negative rho (up, down):  6.918E-03 0.000E+00
 
     Adding external electric field

     Computed dipole along edir(3) : 
        Dipole               -0.4155 Ry au,         -1.0561 Debye
        Dipole field         -0.0008 Ry au, 
 
        Potential amp.        0.0727 Ry
        Total length         46.3494 bohr
 

     total cpu time spent up to now is      575.6 secs

     total energy              =   -2973.93866654 Ry
     estimated scf accuracy    <       2.32377250 Ry

     iteration # 25     ecut=    29.40 Ry     beta= 0.05
     Davidson diagonalization with overlap
     c_bands:  4 eigenvalues not converged
     c_bands:  3 eigenvalues not converged
     c_bands:  1 eigenvalues not converged
     c_bands:  1 eigenvalues not converged
     c_bands:  2 eigenvalues not converged
     ethr =  5.77E-04,  avg # of iterations = 16.2

     negative rho (up, down):  6.093E-03 0.000E+00
 
     Adding external electric field

     Computed dipole along edir(3) : 
        Dipole               -0.3086 Ry au,         -0.7843 Debye
        Dipole field         -0.0006 Ry au, 
 
        Potential amp.        0.0540 Ry
        Total length         46.3494 bohr
 

     total cpu time spent up to now is      594.7 secs

     total energy              =   -2974.09234750 Ry
     estimated scf accuracy    <       0.70184214 Ry

     iteration # 26     ecut=    29.40 Ry     beta= 0.05
     Davidson diagonalization with overlap
     c_bands:  2 eigenvalues not converged
     c_bands:  1 eigenvalues not converged
     c_bands:  1 eigenvalues not converged
     c_bands:  2 eigenvalues not converged
     c_bands:  1 eigenvalues not converged
     c_bands:  1 eigenvalues not converged
     ethr =  1.74E-04,  avg # of iterations = 15.6

     negative rho (up, down):  6.098E-03 0.000E+00
 
     Adding external electric field

     Computed dipole along edir(3) : 
        Dipole               -0.3370 Ry au,         -0.8565 Debye
        Dipole field         -0.0006 Ry au, 
 
        Potential amp.        0.0589 Ry
        Total length         46.3494 bohr
 

     total cpu time spent up to now is      613.9 secs

     total energy              =   -2974.14856965 Ry
     estimated scf accuracy    <       1.16695937 Ry

     iteration # 27     ecut=    29.40 Ry     beta= 0.05
     Davidson diagonalization with overlap
     c_bands:  1 eigenvalues not converged
     ethr =  1.74E-04,  avg # of iterations =  3.1

     negative rho (up, down):  6.130E-03 0.000E+00
 
     Adding external electric field

     Computed dipole along edir(3) : 
        Dipole               -0.4603 Ry au,         -1.1701 Debye
        Dipole field         -0.0009 Ry au, 
 
        Potential amp.        0.0805 Ry
        Total length         46.3494 bohr
 

     total cpu time spent up to now is      627.2 secs

     total energy              =   -2974.17395882 Ry
     estimated scf accuracy    <       1.19558691 Ry

     iteration # 28     ecut=    29.40 Ry     beta= 0.05
     Davidson diagonalization with overlap
     ethr =  1.74E-04,  avg # of iterations =  1.2

     negative rho (up, down):  8.514E-03 0.000E+00
 
     Adding external electric field

     Computed dipole along edir(3) : 
        Dipole               -0.0417 Ry au,         -0.1059 Debye
        Dipole field         -0.0001 Ry au, 
 
        Potential amp.        0.0073 Ry
        Total length         46.3494 bohr
 

     total cpu time spent up to now is      639.8 secs

     total energy              =   -2973.97175032 Ry
     estimated scf accuracy    <       1.35130108 Ry

     iteration # 29     ecut=    29.40 Ry     beta= 0.05
     Davidson diagonalization with overlap
     c_bands:  1 eigenvalues not converged
     ethr =  1.74E-04,  avg # of iterations =  8.5

     negative rho (up, down):  1.025E-02 0.000E+00
 
     Adding external electric field

     Computed dipole along edir(3) : 
        Dipole               -0.2820 Ry au,         -0.7167 Debye
        Dipole field         -0.0005 Ry au, 
 
        Potential amp.        0.0493 Ry
        Total length         46.3494 bohr
 

     total cpu time spent up to now is      657.7 secs

     total energy              =   -2973.97015449 Ry
     estimated scf accuracy    <       0.73798723 Ry

     iteration # 30     ecut=    29.40 Ry     beta= 0.05
     Davidson diagonalization with overlap
     ethr =  1.74E-04,  avg # of iterations =  8.3

     negative rho (up, down):  1.205E-02 0.000E+00
 
     Adding external electric field

     Computed dipole along edir(3) : 
        Dipole               -0.1416 Ry au,         -0.3599 Debye
        Dipole field         -0.0003 Ry au, 
 
        Potential amp.        0.0248 Ry
        Total length         46.3494 bohr
 

     total cpu time spent up to now is      674.7 secs

     total energy              =   -2974.09512262 Ry
     estimated scf accuracy    <       0.87405951 Ry

     iteration # 31     ecut=    29.40 Ry     beta= 0.05
     Davidson diagonalization with overlap
     ethr =  1.74E-04,  avg # of iterations =  6.8

     negative rho (up, down):  1.167E-02 0.000E+00
 
     Adding external electric field

     Computed dipole along edir(3) : 
        Dipole               -0.1244 Ry au,         -0.3162 Debye
        Dipole field         -0.0002 Ry au, 
 
        Potential amp.        0.0218 Ry
        Total length         46.3494 bohr
 

     total cpu time spent up to now is      689.5 secs

     total energy              =   -2974.09197994 Ry
     estimated scf accuracy    <       1.36211970 Ry

     iteration # 32     ecut=    29.40 Ry     beta= 0.05
     Davidson diagonalization with overlap
     ethr =  1.74E-04,  avg # of iterations =  2.3

     negative rho (up, down):  8.119E-03 0.000E+00
 
     Adding external electric field

     Computed dipole along edir(3) : 
        Dipole                0.1415 Ry au,          0.3597 Debye
        Dipole field          0.0003 Ry au, 
 
        Potential amp.       -0.0248 Ry
        Total length         46.3494 bohr
 

     total cpu time spent up to now is      702.4 secs

     total energy              =   -2973.95260470 Ry
     estimated scf accuracy    <       1.17783588 Ry

     iteration # 33     ecut=    29.40 Ry     beta= 0.05
     Davidson diagonalization with overlap
     ethr =  1.74E-04,  avg # of iterations =  5.5

     negative rho (up, down):  6.407E-03 0.000E+00
 
     Adding external electric field

     Computed dipole along edir(3) : 
        Dipole                0.0240 Ry au,          0.0611 Debye
        Dipole field          0.0000 Ry au, 
 
        Potential amp.       -0.0042 Ry
        Total length         46.3494 bohr
 

     total cpu time spent up to now is      716.9 secs

     total energy              =   -2973.98082200 Ry
     estimated scf accuracy    <       0.41320476 Ry

     iteration # 34     ecut=    29.40 Ry     beta= 0.05
     Davidson diagonalization with overlap
     c_bands:  3 eigenvalues not converged
     ethr =  1.03E-04,  avg # of iterations =  9.7

     negative rho (up, down):  6.319E-03 0.000E+00
 
     Adding external electric field

     Computed dipole along edir(3) : 
        Dipole                0.1755 Ry au,          0.4460 Debye
        Dipole field          0.0003 Ry au, 
 
        Potential amp.       -0.0307 Ry
        Total length         46.3494 bohr
 

     total cpu time spent up to now is      733.6 secs

     total energy              =   -2973.99244573 Ry
     estimated scf accuracy    <       0.22756157 Ry

     iteration # 35     ecut=    29.40 Ry     beta= 0.05
     Davidson diagonalization with overlap
     ethr =  5.65E-05,  avg # of iterations = 11.0

     negative rho (up, down):  4.875E-03 0.000E+00
 
     Adding external electric field

     Computed dipole along edir(3) : 
        Dipole                0.0836 Ry au,          0.2124 Debye
        Dipole field          0.0002 Ry au, 
 
        Potential amp.       -0.0146 Ry
        Total length         46.3494 bohr
 

     total cpu time spent up to now is      750.4 secs

     total energy              =   -2973.99431724 Ry
     estimated scf accuracy    <       0.19507141 Ry

     iteration # 36     ecut=    29.40 Ry     beta= 0.05
     Davidson diagonalization with overlap
     c_bands:  1 eigenvalues not converged
     c_bands:  1 eigenvalues not converged
     ethr =  4.84E-05,  avg # of iterations = 12.3

     negative rho (up, down):  4.648E-03 0.000E+00
 
     Adding external electric field

     Computed dipole along edir(3) : 
        Dipole                0.1381 Ry au,          0.3511 Debye
        Dipole field          0.0003 Ry au, 
 
        Potential amp.       -0.0242 Ry
        Total length         46.3494 bohr
 

     total cpu time spent up to now is      767.7 secs

     total energy              =   -2973.99569523 Ry
     estimated scf accuracy    <       0.13140733 Ry

     iteration # 37     ecut=    29.40 Ry     beta= 0.05
     Davidson diagonalization with overlap
     c_bands:  1 eigenvalues not converged
     ethr =  3.26E-05,  avg # of iterations =  9.3

     negative rho (up, down):  4.829E-03 0.000E+00
 
     Adding external electric field

     Computed dipole along edir(3) : 
        Dipole                0.3784 Ry au,          0.9619 Debye
        Dipole field          0.0007 Ry au, 
 
        Potential amp.       -0.0662 Ry
        Total length         46.3494 bohr
 

     total cpu time spent up to now is      784.5 secs

     total energy              =   -2973.99702718 Ry
     estimated scf accuracy    <       0.12512882 Ry

     iteration # 38     ecut=    29.40 Ry     beta= 0.05
     Davidson diagonalization with overlap
     c_bands:  2 eigenvalues not converged
     ethr =  3.10E-05,  avg # of iterations =  8.3

     negative rho (up, down):  7.257E-03 0.000E+00
 
     Adding external electric field

     Computed dipole along edir(3) : 
        Dipole                1.1459 Ry au,          2.9125 Debye
        Dipole field          0.0022 Ry au, 
 
        Potential amp.       -0.2005 Ry
        Total length         46.3494 bohr
 

     total cpu time spent up to now is      800.5 secs

     total energy              =   -2973.96921518 Ry
     estimated scf accuracy    <       0.14983303 Ry

     iteration # 39     ecut=    29.40 Ry     beta= 0.05
     Davidson diagonalization with overlap
     c_bands:  1 eigenvalues not converged
     ethr =  3.10E-05,  avg # of iterations = 12.4

     negative rho (up, down):  6.777E-03 0.000E+00
 
     Adding external electric field

     Computed dipole along edir(3) : 
        Dipole                1.0660 Ry au,          2.7094 Debye
        Dipole field          0.0020 Ry au, 
 
        Potential amp.       -0.1865 Ry
        Total length         46.3494 bohr
 

     total cpu time spent up to now is      822.1 secs

     total energy              =   -2973.99191305 Ry
     estimated scf accuracy    <       0.10856584 Ry

     iteration # 40     ecut=    29.40 Ry     beta= 0.05
     Davidson diagonalization with overlap
     ethr =  2.69E-05,  avg # of iterations =  3.5

     negative rho (up, down):  6.775E-03 0.000E+00
 
     Adding external electric field

     Computed dipole along edir(3) : 
        Dipole                1.0377 Ry au,          2.6375 Debye
        Dipole field          0.0020 Ry au, 
 
        Potential amp.       -0.1815 Ry
        Total length         46.3494 bohr
 

     total cpu time spent up to now is      835.5 secs

     total energy              =   -2973.99236668 Ry
     estimated scf accuracy    <       0.03261748 Ry

     iteration # 41     ecut=    29.40 Ry     beta= 0.05
     Davidson diagonalization with overlap
     c_bands:  1 eigenvalues not converged
     c_bands:  1 eigenvalues not converged
     ethr =  8.09E-06,  avg # of iterations = 13.5

     negative rho (up, down):  6.962E-03 0.000E+00
 
     Adding external electric field

     Computed dipole along edir(3) : 
        Dipole                1.0432 Ry au,          2.6516 Debye
        Dipole field          0.0020 Ry au, 
 
        Potential amp.       -0.1825 Ry
        Total length         46.3494 bohr
 

     total cpu time spent up to now is      853.1 secs

     total energy              =   -2973.99317569 Ry
     estimated scf accuracy    <       0.02185789 Ry

     iteration # 42     ecut=    29.40 Ry     beta= 0.05
     Davidson diagonalization with overlap
     c_bands:  1 eigenvalues not converged
     ethr =  5.42E-06,  avg # of iterations =  6.5

     negative rho (up, down):  6.989E-03 0.000E+00
 
     Adding external electric field

     Computed dipole along edir(3) : 
        Dipole                1.0446 Ry au,          2.6552 Debye
        Dipole field          0.0020 Ry au, 
 
        Potential amp.       -0.1827 Ry
        Total length         46.3494 bohr
 

     total cpu time spent up to now is      867.9 secs

     total energy              =   -2973.99384198 Ry
     estimated scf accuracy    <       0.02934901 Ry

     iteration # 43     ecut=    29.40 Ry     beta= 0.05
     Davidson diagonalization with overlap
     ethr =  5.42E-06,  avg # of iterations =  1.0

     negative rho (up, down):  6.991E-03 0.000E+00
 
     Adding external electric field

     Computed dipole along edir(3) : 
        Dipole                1.0906 Ry au,          2.7720 Debye
        Dipole field          0.0021 Ry au, 
 
        Potential amp.       -0.1908 Ry
        Total length         46.3494 bohr
 

     total cpu time spent up to now is      880.3 secs

     total energy              =   -2973.99500811 Ry
     estimated scf accuracy    <       0.03826809 Ry

     iteration # 44     ecut=    29.40 Ry     beta= 0.05
     Davidson diagonalization with overlap
     ethr =  5.42E-06,  avg # of iterations =  2.0

     negative rho (up, down):  1.006E-02 0.000E+00
 
     Adding external electric field

     Computed dipole along edir(3) : 
        Dipole                0.9850 Ry au,          2.5037 Debye
        Dipole field          0.0019 Ry au, 
 
        Potential amp.       -0.1723 Ry
        Total length         46.3494 bohr
 

     total cpu time spent up to now is      893.6 secs

     total energy              =   -2973.98942661 Ry
     estimated scf accuracy    <       0.04272701 Ry

     iteration # 45     ecut=    29.40 Ry     beta= 0.05
     Davidson diagonalization with overlap
     c_bands:  1 eigenvalues not converged
     c_bands:  1 eigenvalues not converged
     c_bands:  2 eigenvalues not converged
     ethr =  5.42E-06,  avg # of iterations = 12.9

     negative rho (up, down):  7.645E-03 0.000E+00
 
     Adding external electric field

     Computed dipole along edir(3) : 
        Dipole                1.0968 Ry au,          2.7877 Debye
        Dipole field          0.0021 Ry au, 
 
        Potential amp.       -0.1919 Ry
        Total length         46.3494 bohr
 

     total cpu time spent up to now is      920.2 secs

     total energy              =   -2973.98358881 Ry
     estimated scf accuracy    <       0.12915421 Ry

     iteration # 46     ecut=    29.40 Ry     beta= 0.05
     Davidson diagonalization with overlap
     c_bands:  1 eigenvalues not converged
     ethr =  5.42E-06,  avg # of iterations = 10.9

     negative rho (up, down):  8.799E-03 0.000E+00
 
     Adding external electric field

     Computed dipole along edir(3) : 
        Dipole                1.1523 Ry au,          2.9289 Debye
        Dipole field          0.0022 Ry au, 
 
        Potential amp.       -0.2016 Ry
        Total length         46.3494 bohr
 

     total cpu time spent up to now is      944.1 secs

     total energy              =   -2973.99406041 Ry
     estimated scf accuracy    <       0.00807030 Ry

     iteration # 47     ecut=    29.40 Ry     beta= 0.05
     Davidson diagonalization with overlap
     c_bands:  1 eigenvalues not converged
     c_bands:  2 eigenvalues not converged
     ethr =  2.00E-06,  avg # of iterations = 10.0

     negative rho (up, down):  1.169E-02 0.000E+00
 
     Adding external electric field

     Computed dipole along edir(3) : 
        Dipole                1.1754 Ry au,          2.9876 Debye
        Dipole field          0.0022 Ry au, 
 
        Potential amp.       -0.2056 Ry
        Total length         46.3494 bohr
 

     total cpu time spent up to now is      961.1 secs

     total energy              =   -2973.99297631 Ry
     estimated scf accuracy    <       0.01039531 Ry

     iteration # 48     ecut=    29.40 Ry     beta= 0.05
     Davidson diagonalization with overlap
     c_bands:  1 eigenvalues not converged
     ethr =  2.00E-06,  avg # of iterations =  8.6

     negative rho (up, down):  1.191E-02 0.000E+00
 
     Adding external electric field

     Computed dipole along edir(3) : 
        Dipole                1.1987 Ry au,          3.0467 Debye
        Dipole field          0.0023 Ry au, 
 
        Potential amp.       -0.2097 Ry
        Total length         46.3494 bohr
 

     total cpu time spent up to now is      981.7 secs

     total energy              =   -2973.99453561 Ry
     estimated scf accuracy    <       0.00487421 Ry

     iteration # 49     ecut=    29.40 Ry     beta= 0.05
     Davidson diagonalization with overlap
     ethr =  1.21E-06,  avg # of iterations =  6.1

     negative rho (up, down):  1.216E-02 0.000E+00
 
     Adding external electric field

     Computed dipole along edir(3) : 
        Dipole                1.2091 Ry au,          3.0733 Debye
        Dipole field          0.0023 Ry au, 
 
        Potential amp.       -0.2115 Ry
        Total length         46.3494 bohr
 

     total cpu time spent up to now is      996.5 secs

     total energy              =   -2973.99432001 Ry
     estimated scf accuracy    <       0.00224763 Ry

     iteration # 50     ecut=    29.40 Ry     beta= 0.05
     Davidson diagonalization with overlap
     ethr =  5.58E-07,  avg # of iterations =  7.0

     negative rho (up, down):  1.340E-02 0.000E+00
 
     Adding external electric field

     Computed dipole along edir(3) : 
        Dipole                1.2041 Ry au,          3.0605 Debye
        Dipole field          0.0023 Ry au, 
 
        Potential amp.       -0.2106 Ry
        Total length         46.3494 bohr
 

     total cpu time spent up to now is     1016.2 secs

     total energy              =   -2973.99454043 Ry
     estimated scf accuracy    <       0.00211570 Ry

     iteration # 51     ecut=    29.40 Ry     beta= 0.05
     Davidson diagonalization with overlap
     ethr =  5.25E-07,  avg # of iterations =  6.2

     negative rho (up, down):  1.413E-02 0.000E+00
 
     Adding external electric field

     Computed dipole along edir(3) : 
        Dipole                1.1983 Ry au,          3.0458 Debye
        Dipole field          0.0023 Ry au, 
 
        Potential amp.       -0.2096 Ry
        Total length         46.3494 bohr
 

     total cpu time spent up to now is     1034.8 secs

     total energy              =   -2973.99499226 Ry
     estimated scf accuracy    <       0.00108016 Ry

     iteration # 52     ecut=    29.40 Ry     beta= 0.05
     Davidson diagonalization with overlap
     ethr =  2.68E-07,  avg # of iterations =  5.4

     negative rho (up, down):  1.489E-02 0.000E+00
 
     Adding external electric field

     Computed dipole along edir(3) : 
        Dipole                1.1948 Ry au,          3.0368 Debye
        Dipole field          0.0023 Ry au, 
 
        Potential amp.       -0.2090 Ry
        Total length         46.3494 bohr
 

     total cpu time spent up to now is     1049.3 secs

     total energy              =   -2973.99494675 Ry
     estimated scf accuracy    <       0.00060063 Ry

     iteration # 53     ecut=    29.40 Ry     beta= 0.05
     Davidson diagonalization with overlap
     ethr =  1.49E-07,  avg # of iterations =  6.1

     negative rho (up, down):  1.483E-02 0.000E+00
 
     Adding external electric field

     Computed dipole along edir(3) : 
        Dipole                1.1954 Ry au,          3.0384 Debye
        Dipole field          0.0023 Ry au, 
 
        Potential amp.       -0.2091 Ry
        Total length         46.3494 bohr
 

     total cpu time spent up to now is     1067.3 secs

     total energy              =   -2973.99503470 Ry
     estimated scf accuracy    <       0.00035265 Ry

     iteration # 54     ecut=    29.40 Ry     beta= 0.05
     Davidson diagonalization with overlap
     ethr =  8.75E-08,  avg # of iterations =  5.0

     negative rho (up, down):  1.488E-02 0.000E+00
 
     Adding external electric field

     Computed dipole along edir(3) : 
        Dipole                1.1971 Ry au,          3.0428 Debye
        Dipole field          0.0023 Ry au, 
 
        Potential amp.       -0.2094 Ry
        Total length         46.3494 bohr
 

     total cpu time spent up to now is     1082.0 secs

     total energy              =   -2973.99505398 Ry
     estimated scf accuracy    <       0.00016251 Ry

     iteration # 55     ecut=    29.40 Ry     beta= 0.05
     Davidson diagonalization with overlap
     ethr =  4.03E-08,  avg # of iterations =  6.8

     negative rho (up, down):  1.481E-02 0.000E+00
 
     Adding external electric field

     Computed dipole along edir(3) : 
        Dipole                1.1931 Ry au,          3.0325 Debye
        Dipole field          0.0023 Ry au, 
 
        Potential amp.       -0.2087 Ry
        Total length         46.3494 bohr
 

     total cpu time spent up to now is     1097.2 secs

     total energy              =   -2973.99506472 Ry
     estimated scf accuracy    <       0.00007397 Ry

     iteration # 56     ecut=    29.40 Ry     beta= 0.05
     Davidson diagonalization with overlap
     ethr =  1.84E-08,  avg # of iterations =  7.8

     negative rho (up, down):  1.496E-02 0.000E+00
 
     Adding external electric field

     Computed dipole along edir(3) : 
        Dipole                1.1910 Ry au,          3.0273 Debye
        Dipole field          0.0022 Ry au, 
 
        Potential amp.       -0.2084 Ry
        Total length         46.3494 bohr
 

     total cpu time spent up to now is     1118.5 secs

     total energy              =   -2973.99506833 Ry
     estimated scf accuracy    <       0.00013269 Ry

     iteration # 57     ecut=    29.40 Ry     beta= 0.05
     Davidson diagonalization with overlap
     ethr =  1.84E-08,  avg # of iterations =  6.2

     negative rho (up, down):  1.468E-02 0.000E+00
 
     Adding external electric field

     Computed dipole along edir(3) : 
        Dipole                1.1857 Ry au,          3.0138 Debye
        Dipole field          0.0022 Ry au, 
 
        Potential amp.       -0.2074 Ry
        Total length         46.3494 bohr
 

     total cpu time spent up to now is     1138.7 secs

     total energy              =   -2973.99508766 Ry
     estimated scf accuracy    <       0.00005737 Ry

     iteration # 58     ecut=    29.40 Ry     beta= 0.05
     Davidson diagonalization with overlap
     ethr =  1.42E-08,  avg # of iterations =  4.4

     negative rho (up, down):  1.460E-02 0.000E+00
 
     Adding external electric field

     Computed dipole along edir(3) : 
        Dipole                1.1857 Ry au,          3.0137 Debye
        Dipole field          0.0022 Ry au, 
 
        Potential amp.       -0.2074 Ry
        Total length         46.3494 bohr
 

     total cpu time spent up to now is     1153.7 secs

     total energy              =   -2973.99509875 Ry
     estimated scf accuracy    <       0.00002342 Ry

     iteration # 59     ecut=    29.40 Ry     beta= 0.05
     Davidson diagonalization with overlap
     ethr =  5.81E-09,  avg # of iterations =  8.8

     negative rho (up, down):  1.474E-02 0.000E+00
 
     Adding external electric field

     Computed dipole along edir(3) : 
        Dipole                1.1868 Ry au,          3.0166 Debye
        Dipole field          0.0022 Ry au, 
 
        Potential amp.       -0.2076 Ry
        Total length         46.3494 bohr
 

     total cpu time spent up to now is     1175.6 secs

     total energy              =   -2973.99511143 Ry
     estimated scf accuracy    <       0.00003604 Ry

     iteration # 60     ecut=    29.40 Ry     beta= 0.05
     Davidson diagonalization with overlap
     ethr =  5.81E-09,  avg # of iterations =  5.7

     negative rho (up, down):  1.490E-02 0.000E+00
 
     Adding external electric field

     Computed dipole along edir(3) : 
        Dipole                1.1893 Ry au,          3.0228 Debye
        Dipole field          0.0022 Ry au, 
 
        Potential amp.       -0.2080 Ry
        Total length         46.3494 bohr
 

     total cpu time spent up to now is     1191.6 secs

     total energy              =   -2973.99512295 Ry
     estimated scf accuracy    <       0.00001034 Ry

     iteration # 61     ecut=    29.40 Ry     beta= 0.05
     Davidson diagonalization with overlap
     ethr =  2.57E-09,  avg # of iterations =  6.2

     negative rho (up, down):  1.488E-02 0.000E+00
 
     Adding external electric field

     Computed dipole along edir(3) : 
        Dipole                1.1916 Ry au,          3.0287 Debye
        Dipole field          0.0022 Ry au, 
 
        Potential amp.       -0.2084 Ry
        Total length         46.3494 bohr
 

     total cpu time spent up to now is     1211.8 secs

     total energy              =   -2973.99513095 Ry
     estimated scf accuracy    <       0.00000880 Ry

     iteration # 62     ecut=    29.40 Ry     beta= 0.05
     Davidson diagonalization with overlap
     ethr =  2.18E-09,  avg # of iterations =  6.6

     negative rho (up, down):  1.490E-02 0.000E+00
 
     Adding external electric field

     Computed dipole along edir(3) : 
        Dipole                1.1925 Ry au,          3.0310 Debye
        Dipole field          0.0023 Ry au, 
 
        Potential amp.       -0.2086 Ry
        Total length         46.3494 bohr
 

     total cpu time spent up to now is     1231.3 secs

     total energy              =   -2973.99513844 Ry
     estimated scf accuracy    <       0.00000497 Ry

     iteration # 63     ecut=    29.40 Ry     beta= 0.05
     Davidson diagonalization with overlap
     ethr =  1.23E-09,  avg # of iterations =  5.9

     negative rho (up, down):  1.502E-02 0.000E+00
 
     Adding external electric field

     Computed dipole along edir(3) : 
        Dipole                1.1937 Ry au,          3.0340 Debye
        Dipole field          0.0023 Ry au, 
 
        Potential amp.       -0.2088 Ry
        Total length         46.3494 bohr
 

     total cpu time spent up to now is     1246.9 secs

     total energy              =   -2973.99514430 Ry
     estimated scf accuracy    <       0.00000216 Ry

     iteration # 64     ecut=    29.40 Ry     beta= 0.05
     Davidson diagonalization with overlap
     ethr =  5.36E-10,  avg # of iterations =  9.7

     negative rho (up, down):  1.500E-02 0.000E+00
 
     Adding external electric field

     Computed dipole along edir(3) : 
        Dipole                1.1940 Ry au,          3.0350 Debye
        Dipole field          0.0023 Ry au, 
 
        Potential amp.       -0.2089 Ry
        Total length         46.3494 bohr
 

     total cpu time spent up to now is     1273.8 secs

     total energy              =   -2973.99514934 Ry
     estimated scf accuracy    <       0.00000944 Ry

     iteration # 65     ecut=    29.40 Ry     beta= 0.05
     Davidson diagonalization with overlap
     ethr =  5.36E-10,  avg # of iterations =  9.0

     negative rho (up, down):  1.499E-02 0.000E+00
 
     Adding external electric field

     Computed dipole along edir(3) : 
        Dipole                1.1943 Ry au,          3.0355 Debye
        Dipole field          0.0023 Ry au, 
 
        Potential amp.       -0.2089 Ry
        Total length         46.3494 bohr
 

     total cpu time spent up to now is     1295.9 secs

     total energy              =   -2973.99515448 Ry
     estimated scf accuracy    <       0.00000155 Ry

     iteration # 66     ecut=    29.40 Ry     beta= 0.05
     Davidson diagonalization with overlap
     ethr =  3.85E-10,  avg # of iterations =  1.0

     negative rho (up, down):  1.497E-02 0.000E+00
 
     Adding external electric field

     Computed dipole along edir(3) : 
        Dipole                1.1941 Ry au,          3.0351 Debye
        Dipole field          0.0023 Ry au, 
 
        Potential amp.       -0.2089 Ry
        Total length         46.3494 bohr
 

     total cpu time spent up to now is     1308.5 secs

     total energy              =   -2973.99515854 Ry
     estimated scf accuracy    <       0.00000124 Ry

     iteration # 67     ecut=    29.40 Ry     beta= 0.05
     Davidson diagonalization with overlap
     ethr =  3.08E-10,  avg # of iterations =  4.0

     negative rho (up, down):  1.494E-02 0.000E+00
 
     Adding external electric field

     Computed dipole along edir(3) : 
        Dipole                1.1940 Ry au,          3.0349 Debye
        Dipole field          0.0023 Ry au, 
 
        Potential amp.       -0.2089 Ry
        Total length         46.3494 bohr
 

     total cpu time spent up to now is     1322.6 secs

     total energy              =   -2973.99516205 Ry
     estimated scf accuracy    <       0.00000103 Ry

     iteration # 68     ecut=    29.40 Ry     beta= 0.05
     Davidson diagonalization with overlap
     ethr =  2.56E-10,  avg # of iterations =  6.1

     negative rho (up, down):  1.496E-02 0.000E+00
 
     Adding external electric field

     Computed dipole along edir(3) : 
        Dipole                1.1942 Ry au,          3.0354 Debye
        Dipole field          0.0023 Ry au, 
 
        Potential amp.       -0.2089 Ry
        Total length         46.3494 bohr
 

     total cpu time spent up to now is     1340.6 secs

     total energy              =   -2973.99516561 Ry
     estimated scf accuracy    <       0.00000032 Ry

     iteration # 69     ecut=    29.40 Ry     beta= 0.05
     Davidson diagonalization with overlap
     ethr =  7.95E-11,  avg # of iterations =  7.4

     negative rho (up, down):  1.499E-02 0.000E+00
 
     Adding external electric field

     Computed dipole along edir(3) : 
        Dipole                1.1943 Ry au,          3.0357 Debye
        Dipole field          0.0023 Ry au, 
 
        Potential amp.       -0.2089 Ry
        Total length         46.3494 bohr
 

     total cpu time spent up to now is     1361.8 secs

     total energy              =   -2973.99516865 Ry
     estimated scf accuracy    <       0.00000052 Ry

     iteration # 70     ecut=    29.40 Ry     beta= 0.05
     Davidson diagonalization with overlap
     ethr =  7.95E-11,  avg # of iterations =  6.3

     negative rho (up, down):  1.498E-02 0.000E+00
 
     Adding external electric field

     Computed dipole along edir(3) : 
        Dipole                1.1943 Ry au,          3.0356 Debye
        Dipole field          0.0023 Ry au, 
 
        Potential amp.       -0.2089 Ry
        Total length         46.3494 bohr
 

     total cpu time spent up to now is     1380.0 secs

     total energy              =   -2973.99517146 Ry
     estimated scf accuracy    <       0.00000027 Ry

     iteration # 71     ecut=    29.40 Ry     beta= 0.05
     Davidson diagonalization with overlap
     ethr =  6.68E-11,  avg # of iterations =  5.0

     negative rho (up, down):  1.497E-02 0.000E+00
 
     Adding external electric field

     Computed dipole along edir(3) : 
        Dipole                1.1942 Ry au,          3.0354 Debye
        Dipole field          0.0023 Ry au, 
 
        Potential amp.       -0.2089 Ry
        Total length         46.3494 bohr
 

     total cpu time spent up to now is     1394.8 secs

     total energy              =   -2973.99517392 Ry
     estimated scf accuracy    <       0.00000012 Ry

     iteration # 72     ecut=    29.40 Ry     beta= 0.05
     Davidson diagonalization with overlap
     ethr =  2.94E-11,  avg # of iterations =  6.8

     negative rho (up, down):  1.498E-02 0.000E+00
 
     Adding external electric field

     Computed dipole along edir(3) : 
        Dipole                1.1943 Ry au,          3.0357 Debye
        Dipole field          0.0023 Ry au, 
 
        Potential amp.       -0.2089 Ry
        Total length         46.3494 bohr
 

     total cpu time spent up to now is     1414.6 secs

     total energy              =   -2973.99517607 Ry
     estimated scf accuracy    <       0.00000014 Ry

     iteration # 73     ecut=    29.40 Ry     beta= 0.05
     Davidson diagonalization with overlap
     ethr =  2.94E-11,  avg # of iterations =  6.6

     negative rho (up, down):  1.502E-02 0.000E+00
 
     Adding external electric field

     Computed dipole along edir(3) : 
        Dipole                1.1947 Ry au,          3.0367 Debye
        Dipole field          0.0023 Ry au, 
 
        Potential amp.       -0.2090 Ry
        Total length         46.3494 bohr
 

     total cpu time spent up to now is     1432.6 secs

     End of self-consistent calculation

          k = 0.0000 0.0000 0.0000 ( 18029 PWs)   bands (ev):

   -55.7008 -55.6669 -55.3864 -55.3525 -55.2755 -55.1695 -55.1145 -55.0366
   -54.9905 -54.9582 -54.8300 -54.7362 -54.6952 -54.6244 -54.5279 -54.4939
   -32.1608 -31.9950 -31.9712 -31.8620 -31.8558 -31.7842 -31.7626 -31.6517
   -31.6054 -31.6047 -31.5936 -31.5398 -31.5371 -31.5181 -31.4971 -31.4904
   -31.4865 -31.3952 -31.3867 -31.3707 -31.3352 -31.3162 -31.3055 -31.2947
   -31.2748 -31.2711 -31.2375 -31.1997 -31.1758 -31.1747 -31.1649 -31.1471
   -31.0970 -31.0300 -30.9915 -30.9523 -30.9502 -30.9272 -30.9204 -30.9062
   -30.8956 -30.8575 -30.8383 -30.8346 -30.8342 -30.7455 -30.6603 -30.5484
   -19.0753 -16.1780 -16.0572 -15.7655 -15.5942 -15.3875 -15.3586 -15.2642
   -15.1614 -15.1441 -15.0408 -14.9758 -14.8910 -14.8218 -14.8020 -14.7539
   -14.7239 -14.6956 -14.6810 -14.6715 -14.6331 -14.6015 -14.5845 -14.5088
   -14.4638 -14.4457 -14.4180 -14.3529 -14.2570 -13.9911 -13.9280 -13.0257
   -12.9123 -12.5777  -9.3442  -6.2110  -4.7724  -4.7211  -3.7514  -3.5363
    -3.4420  -3.3307  -3.1221  -3.0727  -2.8940  -2.7739  -2.7533  -2.5331
    -2.5055  -2.3938  -2.3786  -2.3322  -2.3254  -2.2915  -2.2251  -2.1968
    -2.1248  -2.0646  -2.0376  -2.0038  -1.9512  -1.8957  -1.8905  -1.8767
    -1.8195  -1.7516  -1.7234  -1.7145  -1.6704  -1.6067  -1.5982  -1.5815
    -1.5624  -1.5411  -1.3982  -1.2917  -1.2308  -1.1923  -1.1427  -1.0864
    -1.0339  -1.0201  -0.9190  -0.8400  -0.7985  -0.6809  -0.6531  -0.6130
    -0.5282  -0.5040  -0.4606  -0.4418  -0.4010  -0.3936  -0.2891  -0.2716
    -0.2372  -0.1947  -0.0758  -0.0275  -0.0193   0.0620   0.1211   0.2012
     0.2427   0.2585   0.2831   0.3689   0.3973   0.4143   0.4219   0.4953
     0.5140   0.5625   0.6159   0.6987   0.7109   0.7510   0.7851   0.7982
     0.9285   0.9363   1.0258   1.0500   1.0609   1.1253   1.2196   1.2792
     1.3908   1.4052   1.4973   1.4977   1.5179   1.7164   1.8911   2.0495
     2.0898   3.5006   3.6199   3.6822   3.7197   3.9305   3.9421   4.2056
     4.2802   4.2833   4.3733

          k = 0.0000 0.0419 0.0000 ( 17933 PWs)   bands (ev):

   -55.6958 -55.6718 -55.3815 -55.3572 -55.2752 -55.1668 -55.1171 -55.0330
   -54.9939 -54.9584 -54.8290 -54.7350 -54.6962 -54.6255 -54.5229 -54.4988
   -32.1070 -31.9906 -31.9722 -31.8422 -31.8406 -31.8127 -31.7762 -31.5986
   -31.5927 -31.5851 -31.5804 -31.5574 -31.5469 -31.5300 -31.4894 -31.4853
   -31.4775 -31.3899 -31.3798 -31.3577 -31.3347 -31.3299 -31.3239 -31.2913
   -31.2662 -31.2454 -31.2252 -31.2156 -31.2041 -31.2031 -31.1732 -31.1674
   -31.0923 -31.0290 -30.9864 -30.9773 -30.9520 -30.9445 -30.9219 -30.9059
   -30.8735 -30.8576 -30.8539 -30.8374 -30.8351 -30.7331 -30.6727 -30.6053
   -19.0737 -16.1747 -15.9322 -15.6440 -15.4882 -15.3305 -15.3018 -15.2541
   -15.1251 -15.1017 -15.0997 -14.9813 -14.9275 -14.8309 -14.8136 -14.7871
   -14.7668 -14.7522 -14.7141 -14.6475 -14.6372 -14.6119 -14.5987 -14.5269
   -14.5004 -14.4445 -14.4001 -14.3916 -14.3182 -14.0661 -13.9860 -13.0313
   -12.9526 -12.5783  -9.3476  -6.2083  -4.7646  -4.7157  -3.7590  -3.4262
    -3.3547  -3.1546  -2.9584  -2.9074  -2.7806  -2.6567  -2.6188  -2.4577
    -2.4568  -2.4348  -2.3508  -2.3318  -2.2796  -2.2471  -2.1992  -2.1856
    -2.1553  -2.1244  -2.1021  -2.0724  -2.0646  -2.0158  -1.9992  -1.9888
    -1.9731  -1.8841  -1.8736  -1.8375  -1.7451  -1.6576  -1.6170  -1.5836
    -1.4905  -1.4533  -1.3558  -1.3200  -1.2226  -1.1092  -1.0515  -1.0310
    -0.9542  -0.8940  -0.8351  -0.7226  -0.6676  -0.6369  -0.5961  -0.5576
    -0.4772  -0.4484  -0.3774  -0.3466  -0.3258  -0.2768  -0.2499  -0.2061
    -0.1912  -0.1493  -0.1182  -0.0648  -0.0053   0.0334   0.0610   0.0975
     0.1297   0.2035   0.2321   0.2823   0.3294   0.3605   0.3832   0.4162
     0.4757   0.5138   0.5390   0.6553   0.6739   0.6910   0.7503   0.7703
     0.8189   0.8331   0.8512   0.8584   1.0127   1.0431   1.0853   1.1426
     1.2109   1.2400   1.2968   1.3861   1.7027   1.7751   1.8200   2.0037
     2.0113   3.6225   3.7309   3.7699   3.8672   4.0431   4.1451   4.2160
     4.2811   4.3454   4.3627

          k = 0.0000-0.0839 0.0000 ( 17884 PWs)   bands (ev):

   -55.6840 -55.6835 -55.3720 -55.3667 -55.2749 -55.1636 -55.1202 -55.0288
   -54.9980 -54.9586 -54.8279 -54.7339 -54.6971 -54.6266 -54.5113 -54.5103
   -31.9808 -31.9804 -31.9751 -31.9749 -31.8095 -31.8089 -31.6896 -31.6841
   -31.5670 -31.5648 -31.5640 -31.5584 -31.5506 -31.4909 -31.4853 -31.4832
   -31.4472 -31.3855 -31.3700 -31.3572 -31.3460 -31.3348 -31.3339 -31.3300
   -31.2647 -31.2419 -31.2412 -31.2370 -31.2092 -31.1940 -31.1702 -31.1561
   -31.0893 -31.0391 -31.0277 -30.9925 -30.9581 -30.9537 -30.9505 -30.9056
   -30.8730 -30.8458 -30.8451 -30.8350 -30.7419 -30.7406 -30.7034 -30.7026
   -19.0721 -16.1720 -15.6285 -15.6191 -15.3541 -15.3378 -15.2804 -15.2001
   -15.1250 -15.1182 -14.9971 -14.9949 -14.9577 -14.9576 -14.9054 -14.8651
   -14.8312 -14.7714 -14.6688 -14.6475 -14.6316 -14.6188 -14.5407 -14.5282
   -14.5008 -14.4762 -14.4514 -14.4168 -14.3175 -14.1731 -14.0684 -13.0156
   -13.0151 -12.5789  -9.3512  -6.2055  -4.7583  -4.7102  -3.7664  -3.4090
    -2.9093  -2.9092  -2.7496  -2.7058  -2.6104  -2.5613  -2.5541  -2.5149
    -2.4920  -2.4838  -2.4798  -2.3946  -2.3788  -2.3613  -2.3348  -2.2997
    -2.2615  -2.2428  -2.2196  -2.1351  -2.1230  -2.0767  -2.0045  -1.9327
    -1.8929  -1.8605  -1.8094  -1.7495  -1.7330  -1.6928  -1.5620  -1.4999
    -1.4058  -1.3327  -1.2200  -1.1845  -1.1337  -1.0836  -1.0647  -0.9403
    -0.9341  -0.8560  -0.7995  -0.7280  -0.7170  -0.6997  -0.6602  -0.6460
    -0.5567  -0.5067  -0.4717  -0.4253  -0.3657  -0.3094  -0.1874  -0.1581
    -0.1074  -0.0781  -0.0512  -0.0372  -0.0088   0.0451   0.0921   0.1179
     0.1936   0.1988   0.2133   0.2570   0.2962   0.3174   0.3778   0.4279
     0.4382   0.4597   0.4770   0.5139   0.5332   0.5513   0.6081   0.6330
     0.7169   0.7521   0.7844   0.8103   0.8273   0.8730   0.9686   1.0331
     1.1243   1.1603   1.3040   1.5068   1.5936   1.8461   1.8552   1.9423
     1.9446   3.5681   3.9615   3.9645   4.0998   4.1028   4.2271   4.2283
     4.2654   4.3164   4.3238

          k = 0.0380 0.0000 0.0000 ( 17913 PWs)   bands (ev):

   -55.7007 -55.6668 -55.3863 -55.3524 -55.2754 -55.1695 -55.1144 -55.0364
   -54.9903 -54.9581 -54.8299 -54.7361 -54.6951 -54.6243 -54.5278 -54.4938
   -32.1615 -31.9948 -31.9711 -31.8621 -31.8534 -31.7839 -31.7623 -31.6623
   -31.6064 -31.6044 -31.5815 -31.5388 -31.5276 -31.5183 -31.4968 -31.4890
   -31.4858 -31.3989 -31.3950 -31.3707 -31.3352 -31.3163 -31.2981 -31.2948
   -31.2745 -31.2715 -31.2374 -31.1963 -31.1760 -31.1748 -31.1606 -31.1474
   -31.0969 -31.0345 -30.9914 -30.9546 -30.9501 -30.9268 -30.9203 -30.9080
   -30.8954 -30.8604 -30.8382 -30.8346 -30.8323 -30.7453 -30.6602 -30.5482
   -19.0752 -16.1756 -15.9636 -15.6691 -15.5186 -15.4214 -15.3191 -15.2798
   -15.2622 -15.1813 -15.0340 -14.9921 -14.8929 -14.8697 -14.8323 -14.8152
   -14.7988 -14.7938 -14.6937 -14.6354 -14.5920 -14.5508 -14.5234 -14.5167
   -14.4839 -14.4383 -14.3766 -14.3741 -14.2983 -13.9882 -13.9264 -13.0227
   -12.9119 -12.5768  -9.3433  -6.2092  -4.7646  -4.7231  -3.7507  -3.4334
    -3.2578  -3.1656  -2.9962  -2.8805  -2.7637  -2.7479  -2.7391  -2.7129
    -2.6207  -2.5362  -2.4486  -2.3903  -2.3228  -2.2760  -2.1682  -2.1530
    -2.1005  -2.0629  -2.0336  -1.9863  -1.9264  -1.9121  -1.8762  -1.7846
    -1.7382  -1.7292  -1.7092  -1.6836  -1.6311  -1.5632  -1.5389  -1.5180
    -1.3633  -1.3292  -1.2424  -1.2322  -1.1629  -1.1362  -1.1129  -1.0883
    -1.0731  -1.0494  -1.0143  -0.8744  -0.8059  -0.7139  -0.6842  -0.6621
    -0.6139  -0.6014  -0.5288  -0.4845  -0.4687  -0.4229  -0.4186  -0.3547
    -0.2903  -0.1897  -0.1260  -0.0942  -0.0399   0.0292   0.0859   0.1221
     0.2211   0.2376   0.2821   0.3000   0.3436   0.3959   0.4164   0.4496
     0.4804   0.5476   0.5840   0.6048   0.6523   0.6752   0.7072   0.7732
     0.8398   0.8673   0.9588   0.9960   1.0436   1.1136   1.1410   1.2058
     1.2681   1.3654   1.4288   1.5091   1.5218   1.6868   1.7684   1.9417
     2.0083   3.5785   3.5843   3.6298   3.8870   3.9370   4.0542   4.1553
     4.2188   4.3546   4.4017

          k = 0.0380 0.0419 0.0000 ( 17878 PWs)   bands (ev):

   -55.6957 -55.6718 -55.3814 -55.3572 -55.2751 -55.1667 -55.1171 -55.0329
   -54.9938 -54.9583 -54.8289 -54.7350 -54.6961 -54.6254 -54.5228 -54.4988
   -32.1077 -31.9904 -31.9722 -31.8412 -31.8396 -31.8129 -31.7759 -31.6150
   -31.5924 -31.5812 -31.5758 -31.5572 -31.5303 -31.5278 -31.4891 -31.4841
   -31.4795 -31.3906 -31.3893 -31.3578 -31.3346 -31.3289 -31.3260 -31.2847
   -31.2675 -31.2454 -31.2255 -31.2122 -31.2050 -31.2027 -31.1738 -31.1628
   -31.0923 -31.0332 -30.9863 -30.9772 -30.9539 -30.9445 -30.9216 -30.9082
   -30.8732 -30.8575 -30.8562 -30.8364 -30.8358 -30.7329 -30.6728 -30.6052
   -19.0736 -16.1731 -15.8454 -15.5544 -15.4262 -15.3381 -15.3279 -15.2540
   -15.1794 -15.1241 -15.0072 -14.9955 -14.9503 -14.9037 -14.8377 -14.8262
   -14.7998 -14.7747 -14.7095 -14.6594 -14.6314 -14.6061 -14.5939 -14.5548
   -14.4877 -14.4627 -14.4253 -14.3992 -14.3272 -14.0621 -13.9855 -13.0292
   -12.9528 -12.5777  -9.3471  -6.2069  -4.7609  -4.7210  -3.7509  -3.4251
    -3.0806  -2.9975  -2.8389  -2.7228  -2.6377  -2.6170  -2.5871  -2.5745
    -2.4332  -2.3477  -2.3406  -2.3077  -2.2765  -2.2381  -2.2166  -2.1835
    -2.1541  -2.1367  -2.0778  -2.0465  -2.0224  -1.9839  -1.9448  -1.9298
    -1.8982  -1.8487  -1.8195  -1.7644  -1.7337  -1.6115  -1.5986  -1.5647
    -1.4519  -1.3925  -1.3237  -1.3048  -1.1855  -1.1347  -1.0825  -0.9813
    -0.9475  -0.8801  -0.8543  -0.7886  -0.7539  -0.7087  -0.6515  -0.5737
    -0.5339  -0.5024  -0.4851  -0.4229  -0.4102  -0.3535  -0.3303  -0.3023
    -0.2535  -0.1982  -0.1674  -0.1270  -0.1040  -0.0677  -0.0220   0.0050
     0.0402   0.0855   0.1224   0.1412   0.2115   0.2833   0.3091   0.3343
     0.4410   0.4724   0.4958   0.5659   0.6231   0.6565   0.7159   0.7873
     0.8200   0.8429   0.8656   0.9180   1.0104   1.0451   1.1339   1.1363
     1.1803   1.2291   1.2930   1.3880   1.7024   1.7138   1.8281   1.9275
     1.9831   3.5457   3.7166   3.7973   4.0076   4.1036   4.1248   4.1811
     4.2758   4.3554   4.4205

          k = 0.0380-0.0839 0.0000 ( 17916 PWs)   bands (ev):

   -55.6840 -55.6835 -55.3720 -55.3667 -55.2749 -55.1637 -55.1202 -55.0288
   -54.9980 -54.9586 -54.8280 -54.7339 -54.6972 -54.6266 -54.5113 -54.5103
   -31.9809 -31.9804 -31.9757 -31.9755 -31.8086 -31.8080 -31.6899 -31.6844
   -31.5676 -31.5661 -31.5647 -31.5585 -31.5514 -31.4910 -31.4821 -31.4767
   -31.4417 -31.3856 -31.3763 -31.3592 -31.3461 -31.3402 -31.3341 -31.3322
   -31.2608 -31.2425 -31.2377 -31.2369 -31.2076 -31.1941 -31.1675 -31.1560
   -31.0892 -31.0394 -31.0313 -30.9922 -30.9585 -30.9537 -30.9517 -30.9084
   -30.8730 -30.8467 -30.8459 -30.8363 -30.7418 -30.7405 -30.7034 -30.7026
   -19.0721 -16.1708 -15.5685 -15.5588 -15.3025 -15.2927 -15.2641 -15.2032
   -15.1319 -15.0932 -15.0080 -15.0003 -14.9460 -14.9372 -14.9087 -14.8716
   -14.8266 -14.7996 -14.7112 -14.6930 -14.6503 -14.6232 -14.6160 -14.5719
   -14.5520 -14.5161 -14.4709 -14.3991 -14.3095 -14.1630 -14.0663 -13.0154
   -13.0149 -12.5785  -9.3510  -6.2046  -4.7595  -4.7167  -3.7554  -3.4111
    -2.7101  -2.7065  -2.6352  -2.5874  -2.5465  -2.4633  -2.4390  -2.4290
    -2.3992  -2.3716  -2.3656  -2.3250  -2.2947  -2.2920  -2.2382  -2.1725
    -2.1579  -2.1504  -2.1361  -2.0962  -2.0838  -2.0534  -2.0052  -1.9752
    -1.9300  -1.8715  -1.8147  -1.7743  -1.6124  -1.5456  -1.5057  -1.4517
    -1.3980  -1.3525  -1.3003  -1.2634  -1.2161  -1.1232  -1.0827  -1.0551
    -1.0347  -0.9780  -0.9338  -0.9250  -0.8756  -0.8435  -0.7730  -0.7356
    -0.6427  -0.5281  -0.4836  -0.4452  -0.4328  -0.4199  -0.2951  -0.2467
    -0.2206  -0.2149  -0.1617  -0.1237  -0.0969  -0.0865  -0.0501  -0.0019
     0.0070   0.0411   0.0842   0.1139   0.1619   0.1917   0.2292   0.3260
     0.3995   0.4484   0.5145   0.5342   0.5851   0.6016   0.6611   0.7099
     0.7367   0.7981   0.8090   0.8431   0.9237   1.0172   1.0521   1.1024
     1.1420   1.1903   1.2984   1.4893   1.5613   1.8578   1.8657   1.9291
     1.9312   3.4675   3.9627   3.9655   4.1319   4.1353   4.2616   4.2699
     4.3049   4.3289   4.4193

          k = 0.0380-0.0419 0.0000 ( 17876 PWs)   bands (ev):

   -55.6957 -55.6718 -55.3814 -55.3572 -55.2751 -55.1667 -55.1171 -55.0329
   -54.9938 -54.9583 -54.8289 -54.7350 -54.6961 -54.6254 -54.5228 -54.4988
   -32.1077 -31.9904 -31.9722 -31.8410 -31.8398 -31.8129 -31.7759 -31.6150
   -31.5924 -31.5812 -31.5758 -31.5572 -31.5303 -31.5278 -31.4889 -31.4842
   -31.4795 -31.3907 -31.3892 -31.3577 -31.3346 -31.3291 -31.3258 -31.2846
   -31.2675 -31.2455 -31.2255 -31.2108 -31.2049 -31.2040 -31.1739 -31.1627
   -31.0923 -31.0334 -30.9864 -30.9771 -30.9539 -30.9444 -30.9217 -30.9081
   -30.8732 -30.8575 -30.8562 -30.8364 -30.8357 -30.7329 -30.6728 -30.6052
   -19.0736 -16.1731 -15.8453 -15.5542 -15.4259 -15.3386 -15.3277 -15.2541
   -15.1783 -15.1263 -15.0072 -14.9954 -14.9498 -14.9035 -14.8376 -14.8265
   -14.8042 -14.7715 -14.7106 -14.6594 -14.6300 -14.6089 -14.5871 -14.5566
   -14.4892 -14.4625 -14.4231 -14.3988 -14.3293 -14.0627 -13.9851 -13.0292
   -12.9529 -12.5776  -9.3470  -6.2068  -4.7620  -4.7187  -3.7552  -3.4216
    -3.0801  -2.9973  -2.8385  -2.7237  -2.6424  -2.6172  -2.5884  -2.5738
    -2.4348  -2.3484  -2.3353  -2.3086  -2.2750  -2.2342  -2.2159  -2.1831
    -2.1542  -2.1373  -2.0803  -2.0457  -2.0304  -1.9778  -1.9466  -1.9310
    -1.9035  -1.8563  -1.8363  -1.7645  -1.7192  -1.6201  -1.5940  -1.5622
    -1.4531  -1.3824  -1.3177  -1.3029  -1.1928  -1.1188  -1.0690  -0.9825
    -0.9497  -0.8813  -0.8559  -0.7929  -0.7499  -0.7081  -0.6462  -0.5801
    -0.5405  -0.5024  -0.4833  -0.4233  -0.4139  -0.3542  -0.3334  -0.3063
    -0.2554  -0.2006  -0.1618  -0.1227  -0.1062  -0.0596  -0.0366   0.0124
     0.0446   0.1089   0.1327   0.1429   0.2111   0.2865   0.3105   0.3340
     0.4074   0.4736   0.4982   0.5675   0.6113   0.6398   0.7440   0.7691
     0.8186   0.8334   0.8591   0.9142   1.0223   1.0540   1.1302   1.1486
     1.1789   1.2183   1.2963   1.3966   1.7015   1.7137   1.8278   1.9273
     1.9837   3.5353   3.7169   3.7973   4.0076   4.1041   4.1227   4.1809
     4.2757   4.3556   4.4240

          k =-0.0760-0.0000 0.0000 ( 17886 PWs)   bands (ev):

   -55.7006 -55.6668 -55.3862 -55.3524 -55.2754 -55.1694 -55.1144 -55.0364
   -54.9903 -54.9581 -54.8299 -54.7361 -54.6951 -54.6243 -54.5277 -54.4938
   -32.1623 -31.9947 -31.9710 -31.8623 -31.8510 -31.7839 -31.7626 -31.6714
   -31.6074 -31.6043 -31.5675 -31.5405 -31.5191 -31.5174 -31.4967 -31.4883
   -31.4848 -31.4128 -31.3950 -31.3709 -31.3351 -31.3169 -31.2966 -31.2889
   -31.2745 -31.2720 -31.2373 -31.1936 -31.1763 -31.1749 -31.1568 -31.1480
   -31.0969 -31.0398 -30.9913 -30.9575 -30.9500 -30.9265 -30.9203 -30.9099
   -30.8954 -30.8632 -30.8382 -30.8348 -30.8311 -30.7452 -30.6601 -30.5482
   -19.0750 -16.1736 -15.8225 -15.5648 -15.4831 -15.4022 -15.3872 -15.2662
   -15.2585 -15.1780 -15.1159 -15.0728 -14.9148 -14.8914 -14.8898 -14.8545
   -14.8044 -14.7831 -14.7167 -14.6779 -14.6412 -14.5578 -14.5332 -14.4663
   -14.4597 -14.4515 -14.3842 -14.3281 -14.2909 -13.9861 -13.9257 -13.0199
   -12.9116 -12.5760  -9.3426  -6.2075  -4.7601  -4.7225  -3.7508  -3.4270
    -3.1475  -2.8694  -2.8627  -2.8420  -2.7998  -2.7098  -2.6958  -2.6019
    -2.5915  -2.5414  -2.4913  -2.3937  -2.2432  -2.1742  -2.1585  -2.0951
    -2.0871  -1.9855  -1.9703  -1.9381  -1.9031  -1.8706  -1.8304  -1.7525
    -1.7236  -1.7165  -1.6734  -1.5815  -1.5706  -1.5338  -1.5008  -1.4701
    -1.4005  -1.3424  -1.3039  -1.2760  -1.2158  -1.1969  -1.0847  -1.0791
    -1.0545  -0.9872  -0.9517  -0.9349  -0.9078  -0.7943  -0.7606  -0.7051
    -0.6726  -0.6248  -0.5583  -0.5002  -0.4816  -0.4711  -0.4544  -0.3720
    -0.3505  -0.3031  -0.1976  -0.1148  -0.0546  -0.0381   0.0082   0.0831
     0.1084   0.1161   0.1852   0.2092   0.2596   0.3117   0.3722   0.4058
     0.4251   0.4537   0.5167   0.5678   0.5831   0.6063   0.7533   0.8184
     0.8217   0.9292   0.9361   1.0159   1.0637   1.0905   1.1085   1.1545
     1.2303   1.3926   1.4028   1.5292   1.5532   1.5631   1.6658   1.8199
     1.9505   3.5509   3.5948   3.6137   3.8253   3.9350   3.9558   4.0438
     4.3055   4.3338   4.3414

          k =-0.0760 0.0419 0.0000 ( 17914 PWs)   bands (ev):

   -55.6957 -55.6718 -55.3814 -55.3572 -55.2751 -55.1667 -55.1171 -55.0329
   -54.9938 -54.9584 -54.8290 -54.7350 -54.6961 -54.6254 -54.5228 -54.4988
   -32.1086 -31.9904 -31.9723 -31.8409 -31.8384 -31.8132 -31.7758 -31.6265
   -31.5924 -31.5823 -31.5654 -31.5575 -31.5303 -31.5142 -31.4888 -31.4831
   -31.4816 -31.4014 -31.3899 -31.3579 -31.3346 -31.3287 -31.3280 -31.2784
   -31.2681 -31.2456 -31.2259 -31.2092 -31.2060 -31.2027 -31.1742 -31.1589
   -31.0923 -31.0381 -30.9864 -30.9772 -30.9562 -30.9445 -30.9217 -30.9106
   -30.8730 -30.8586 -30.8575 -30.8366 -30.8357 -30.7329 -30.6728 -30.6053
   -19.0735 -16.1716 -15.7139 -15.4657 -15.3782 -15.3606 -15.3174 -15.2917
   -15.1767 -15.1236 -15.0422 -15.0251 -14.9383 -14.8895 -14.8728 -14.8497
   -14.8181 -14.8125 -14.7538 -14.7164 -14.6680 -14.5915 -14.5832 -14.5606
   -14.5179 -14.5016 -14.3985 -14.3762 -14.3300 -14.0594 -13.9856 -13.0272
   -12.9532 -12.5770  -9.3466  -6.2056  -4.7611  -4.7217  -3.7476  -3.4221
    -2.9860  -2.7064  -2.6588  -2.5760  -2.5694  -2.5456  -2.5239  -2.4255
    -2.3683  -2.3576  -2.2983  -2.2864  -2.2588  -2.2464  -2.2225  -2.1596
    -2.0992  -2.0960  -2.0624  -2.0569  -1.9900  -1.9099  -1.9025  -1.8771
    -1.8590  -1.7952  -1.7456  -1.6908  -1.6587  -1.5806  -1.5087  -1.4377
    -1.4006  -1.3882  -1.3567  -1.3150  -1.2428  -1.2046  -1.0589  -1.0430
    -0.9384  -0.8761  -0.8719  -0.8422  -0.7947  -0.7757  -0.7348  -0.7038
    -0.6794  -0.6022  -0.5923  -0.5675  -0.4717  -0.4497  -0.4376  -0.3772
    -0.3162  -0.2998  -0.2837  -0.2472  -0.2241  -0.1856  -0.1739  -0.1140
    -0.0900  -0.0617  -0.0275   0.0660   0.1572   0.2108   0.2295   0.2903
     0.3694   0.3934   0.4689   0.5910   0.6568   0.6723   0.6954   0.8103
     0.8539   0.8658   0.9239   0.9936   1.0219   1.0882   1.1012   1.1550
     1.2388   1.2462   1.4067   1.4621   1.4817   1.7227   1.8306   1.8533
     1.9715   3.4748   3.7133   3.7992   3.9053   4.0238   4.0789   4.2450
     4.3595   4.3772   4.4213

          k =-0.0760-0.0839 0.0000 ( 17948 PWs)   bands (ev):

   -55.6840 -55.6835 -55.3720 -55.3668 -55.2749 -55.1637 -55.1202 -55.0288
   -54.9980 -54.9587 -54.8280 -54.7339 -54.6972 -54.6266 -54.5114 -54.5103
   -31.9809 -31.9805 -31.9763 -31.9761 -31.8076 -31.8070 -31.6902 -31.6847
   -31.5701 -31.5661 -31.5647 -31.5585 -31.5523 -31.4911 -31.4809 -31.4678
   -31.4348 -31.3857 -31.3839 -31.3612 -31.3463 -31.3461 -31.3342 -31.3341
   -31.2576 -31.2438 -31.2373 -31.2331 -31.2056 -31.1942 -31.1648 -31.1559
   -31.0891 -31.0397 -31.0352 -30.9919 -30.9587 -30.9538 -30.9529 -30.9112
   -30.8730 -30.8474 -30.8467 -30.8374 -30.7418 -30.7405 -30.7034 -30.7026
   -19.0720 -16.1698 -15.4720 -15.4618 -15.3177 -15.3084 -15.2301 -15.1411
   -15.1229 -15.0939 -15.0452 -15.0231 -14.9416 -14.8853 -14.8656 -14.8404
   -14.8214 -14.8073 -14.7498 -14.7466 -14.7312 -14.7174 -14.6513 -14.6130
   -14.5827 -14.5762 -14.4681 -14.3885 -14.3043 -14.1552 -14.0646 -13.0152
   -13.0147 -12.5781  -9.3508  -6.2037  -4.7624  -4.7215  -3.7444  -3.4140
    -2.6505  -2.6074  -2.5161  -2.4381  -2.4324  -2.3842  -2.3835  -2.3020
    -2.2493  -2.1914  -2.1673  -2.1589  -2.1586  -2.1273  -2.1182  -2.0640
    -2.0591  -2.0414  -2.0385  -1.9820  -1.9571  -1.9427  -1.8909  -1.8356
    -1.7849  -1.7482  -1.7264  -1.6861  -1.6677  -1.6647  -1.5794  -1.5652
    -1.5378  -1.5102  -1.4654  -1.4344  -1.3790  -1.3579  -1.3015  -1.1741
    -1.1026  -1.0174  -0.9116  -0.8905  -0.8576  -0.8240  -0.8117  -0.7884
    -0.7560  -0.6406  -0.6305  -0.5807  -0.5490  -0.5211  -0.5035  -0.4756
    -0.4532  -0.3513  -0.3091  -0.2803  -0.2403  -0.2063  -0.1783  -0.1451
    -0.0931  -0.0543  -0.0443  -0.0129   0.0209   0.0354   0.1884   0.2675
     0.4010   0.4294   0.5193   0.5658   0.5986   0.6273   0.6572   0.7745
     0.8221   0.8447   0.8813   0.9029   1.0018   1.0984   1.1188   1.1870
     1.2217   1.3265   1.3574   1.4452   1.4970   1.8793   1.8871   1.9080
     1.9085   3.3778   4.0456   4.0485   4.0602   4.0734   4.2387   4.2414
     4.3423   4.3664   4.5048

     the Fermi energy is     3.4571 ev

!    total energy              =   -2973.99519638 Ry
     estimated scf accuracy    <       0.00000005 Ry
     smearing contrib. (-TS)   =      -0.01688886 Ry
     internal energy E=F+TS    =   -2973.97830752 Ry

     The total energy is F=E-TS. E is the sum of the following terms:
     one-electron contribution =  -23437.76063016 Ry
     hartree contribution      =   11816.33376758 Ry
     xc contribution           =    -493.94802738 Ry
     ewald contribution        =    9141.39388878 Ry
     electric field correction =       0.00269365 Ry

     convergence has been achieved in  73 iterations

     Forces acting on atoms (cartesian axes, Ry/au):

     atom    1 type  1   force =     0.00012056   -0.00023606    0.10268505
     atom    2 type  1   force =    -0.00011647    0.00008888   -0.16807423
     atom    3 type  2   force =    -0.00000873    0.00045889   -0.03241451
     atom    4 type  2   force =     0.00002782   -0.00097123    0.04009246
     atom    5 type  2   force =    -0.00543178   -0.00191290   -0.00432790
     atom    6 type  2   force =     0.00666633   -0.00135759   -0.00592716
     atom    7 type  1   force =    -0.00053750   -0.00531068    0.03007071
     atom    8 type  1   force =     0.00069587    0.00860925    0.04852929
     atom    9 type  2   force =     0.00012394   -0.00131387   -0.00108827
     atom   10 type  2   force =    -0.00253564    0.00301433   -0.03416051
     atom   11 type  2   force =    -0.00038953   -0.00008414   -0.00023923
     atom   12 type  2   force =     0.00048845   -0.00036709   -0.00012009
     atom   13 type  1   force =     0.00022839   -0.00161923    0.00020021
     atom   14 type  1   force =     0.00017280   -0.00079358    0.00072374
     atom   15 type  2   force =     0.00008806    0.00004900   -0.00028945
     atom   16 type  2   force =    -0.00013035    0.00005207    0.00167756
     atom   17 type  2   force =    -0.00103185   -0.00055201    0.00042875
     atom   18 type  2   force =     0.00064277   -0.00105776    0.00056815
     atom   19 type  1   force =     0.00061100   -0.00094830   -0.00076677
     atom   20 type  1   force =    -0.00077376   -0.00039199   -0.00021336
     atom   21 type  2   force =     0.00004776    0.00012341    0.10111539
     atom   22 type  2   force =    -0.00009594    0.00052413    0.00030678
     atom   23 type  2   force =    -0.07542331   -0.00012000   -0.02930887
     atom   24 type  2   force =     0.07533591    0.00030213   -0.02932651
     atom   25 type  1   force =     0.00013813   -0.00023284    0.10280940
     atom   26 type  1   force =    -0.00004266   -0.00130301   -0.16848304
     atom   27 type  2   force =     0.00011858    0.00017418   -0.03118626
     atom   28 type  2   force =    -0.00000919    0.00072279    0.03581300
     atom   29 type  2   force =    -0.00426076    0.00378580   -0.00625667
     atom   30 type  2   force =     0.00528475    0.00442302   -0.00778166
     atom   31 type  1   force =    -0.00054161    0.00495507    0.01595971
     atom   32 type  1   force =     0.00077122   -0.01041488    0.04921760
     atom   33 type  2   force =     0.00002761   -0.00090892   -0.00139901
     atom   34 type  2   force =    -0.00240585    0.00222338   -0.04432889
     atom   35 type  2   force =     0.00054789    0.00020243   -0.00014654
     atom   36 type  2   force =    -0.00017705    0.00023416   -0.00007657
     atom   37 type  1   force =     0.00026544    0.00038095   -0.00045033
     atom   38 type  1   force =     0.00041759    0.00140768    0.00105514
     atom   39 type  2   force =     0.00036572    0.00045308    0.00009054
     atom   40 type  2   force =     0.00005791    0.00015268    0.00047727
     atom   41 type  2   force =    -0.00088945   -0.00032312    0.00007991
     atom   42 type  2   force =     0.00041866    0.00018898    0.00032190
     atom   43 type  1   force =     0.00030043    0.00016721   -0.00155711
     atom   44 type  1   force =    -0.00066806   -0.00015546   -0.00090425
     atom   45 type  2   force =     0.00007084   -0.00001998    0.10091612
     atom   46 type  2   force =    -0.07547958   -0.00005048   -0.02932721
     atom   47 type  2   force =     0.07539146    0.00038321   -0.02932289
     atom   48 type  3   force =    -0.00066575   -0.00005610    0.00077705
     atom   49 type  3   force =     0.00035334   -0.00064946   -0.00122583
     atom   50 type  4   force =     0.00119129    0.00121721    0.00052756
     atom   51 type  5   force =     0.00014112   -0.00074732   -0.00134833
     atom   52 type  5   force =    -0.00019054   -0.00055018   -0.00047686
     atom   53 type  5   force =    -0.00012059   -0.00053097   -0.00099299
     atom   54 type  5   force =    -0.00005809   -0.00065373   -0.00135782
     atom   55 type  2   force =     0.00255841   -0.01392018    0.00672263
     atom   56 type  5   force =    -0.00168596    0.01325915   -0.00828678

     Total force =     0.373415     Total SCF correction =     0.000585
  @ DRIVER MODE: Message from server: STATUS
  @ DRIVER MODE: Message from server: GETFORCE
  @ DRIVER MODE: Returning v,forces,stress,ensemble 

     Writing output data file ./calc.save/
  @ DRIVER MODE: Message from server: EXIT
  @ DRIVE MODE: Exiting  
 
     init_run     :     13.34s CPU     13.71s WALL (       1 calls)
     electrons    :   1388.99s CPU   1418.57s WALL (       1 calls)
     forces       :      2.68s CPU      2.80s WALL (       1 calls)

     Called by init_run:
     wfcinit      :      5.87s CPU      6.02s WALL (       1 calls)
     potinit      :      6.74s CPU      6.83s WALL (       1 calls)
     hinit0       :      0.36s CPU      0.38s WALL (       1 calls)

     Called by electrons:
     c_bands      :   1182.66s CPU   1197.97s WALL (      73 calls)
     sum_band     :    144.57s CPU    151.32s WALL (      73 calls)
     v_of_rho     :     47.30s CPU     49.20s WALL (      74 calls)
     newd         :     18.63s CPU     24.19s WALL (      74 calls)
     mix_rho      :      1.70s CPU      1.76s WALL (      73 calls)
     vdW_kernel   :      5.84s CPU      5.86s WALL (       1 calls)

     Called by c_bands:
     init_us_2    :      6.20s CPU      6.24s WALL (    1480 calls)
     cegterg      :   1160.43s CPU   1175.36s WALL (     744 calls)

     Called by *egterg:
     cdiaghg      :    171.91s CPU    172.62s WALL (    6139 calls)
     h_psi        :    653.96s CPU    663.80s WALL (    6152 calls)
     s_psi        :     78.55s CPU     78.80s WALL (    6152 calls)
     g_psi        :      2.31s CPU      2.32s WALL (    5398 calls)

     Called by h_psi:
     h_psi:calbec :     75.88s CPU     76.96s WALL (    6152 calls)
     vloc_psi     :    497.18s CPU    501.56s WALL (    6152 calls)
     add_vuspsi   :     78.54s CPU     80.81s WALL (    6152 calls)

     General routines
     calbec       :    101.14s CPU    102.30s WALL (    6922 calls)
     fft          :     23.31s CPU     23.43s WALL (    4662 calls)
     ffts         :      0.18s CPU      0.18s WALL (     147 calls)
     fftw         :    555.06s CPU    559.96s WALL ( 1026580 calls)
     interpolate  :      0.48s CPU      0.49s WALL (      74 calls)
     davcio       :      0.00s CPU     89.61s WALL (      10 calls)
 
     Parallel routines
 
     PWSCF        :  23m29.97s CPU  28m20.78s WALL

 
   This run was terminated on:  19:18:29  23Sep2021            

=------------------------------------------------------------------------------=
   JOB DONE.
=------------------------------------------------------------------------------=
