
     Program PWSCF v.6.7GPU starts on 24Sep2021 at 12:49:32 

     This program is part of the open-source Quantum ESPRESSO suite
     for quantum simulation of materials; please cite
         "P. Giannozzi et al., J. Phys.:Condens. Matter 21 395502 (2009);
         "P. Giannozzi et al., J. Phys.:Condens. Matter 29 465901 (2017);
         "P. Giannozzi et al., J. Chem. Phys. 152 154105 (2020);
          URL http://www.quantum-espresso.org", 
     in publications or presentations arising from this work. More details at
     http://www.quantum-espresso.org/quote

     Parallel version (MPI), running on     8 processors

     MPI processes distributed on     1 nodes
     R & G space division:  proc/nbgrp/npool/nimage =       8
     Reading input from /storage/home/hcoda1/3/ntian30/research/carbon/CxH_vib/H2O_calc/ads_slab/CH2NHNH2HO_a/out_0057/pw.inp
Warning: card &CELL ignored
Warning: card   CELL_DYNAMICS='IPI', ignored
Warning: card / ignored

     Current dimensions of program PWSCF are:
     Max number of different atomic species (ntypx) = 10
     Max number of k-points (npk) =  40000
     Max angular momentum in pseudopotentials (lmaxx) =  3
     Presently no symmetry can be used with electric field

     Message from routine cell_base_init:
     DEPRECATED: use true lattice parameter, not A to a.u. conversion factor

     **************************************************************************
     Initializing libbeef V0.1.2 with the BEEF-vdW functional.
     Citation: Wellendorff et al., PRB 85, 235149 (2012).
     **************************************************************************


     IMPORTANT: XC functional enforced from input :
     Exchange-correlation= BEEF-VDW
                           (   1   4  43  14   2   0   0)
     Any further DFT definition will be discarded
     Please, verify this is what you really want


     Subspace diagonalization in iterative solution of the eigenvalue problem:
     one sub-group per band group will be used
     scalapack distributed-memory algorithm (size of sub-group:  2*  2 procs)

  @ DRIVER MODE: Connecting to 
 qe_1139763_2947313.sched-torque.pace.gatech.edu_jz_q4x2_scratch
  using UNIX socket
  @ DRIVER MODE: Message from server: STATUS
  @ DRIVER MODE: Message from server: INIT
  @ DRIVER MODE: Receiving replica           0          -1
  @ DRIVER MODE: Receiving encoded integer          25
  @ DRIVER MODE:  SCF:  T  FORCE:  T  STRESS:  F  VC:  F  ENSEMBLE:  F
  @ DRIVER MODE:  SCF:  T  FORCE:  T  STRESS:  F  VC:  F  ENSEMBLE:  F
 
     Parallelization info
     --------------------
     sticks:   dense  smooth     PW     G-vecs:    dense   smooth      PW
     Min         409     164     47                70857    17926    2743
     Max         411     165     48                70858    17931    2751
     Sum        3275    1317    379               566857   143421   21985
 
     Using Slab Decomposition
 


     bravais-lattice index     =            0
     lattice parameter (alat)  =       1.8897  a.u.
     unit-cell volume          =    6658.9804 (a.u.)^3
     number of atoms/cell      =           57
     number of atomic types    =            5
     number of electrons       =       404.00
     number of Kohn-Sham states=          212
     kinetic-energy cutoff     =      29.3995  Ry
     charge density cutoff     =     293.9946  Ry
     scf convergence threshold =      7.3E-08
     mixing beta               =       0.0500
     number of iterations used =            8  plain     mixing
     Exchange-correlation= BEEF-VDW
                           (   1   4  43  14   2   0   0)

     celldm(1)=   1.889726  celldm(2)=   0.000000  celldm(3)=   0.000000
     celldm(4)=   0.000000  celldm(5)=   0.000000  celldm(6)=   0.000000

     crystal axes: (cart. coord. in units of alat)
               a(1) = (   6.579727   0.000000   0.000000 )  
               a(2) = (  -0.000775   5.961596   0.000000 )  
               a(3) = (   0.000000   0.000000  25.155947 )  

     reciprocal axes: (cart. coord. in units 2 pi/alat)
               b(1) = (  0.151982  0.000020  0.000000 )  
               b(2) = (  0.000000  0.167740  0.000000 )  
               b(3) = (  0.000000  0.000000  0.039752 )  


     PseudoPot. # 1 for Ti read from file:
     /storage/coda1/p-amedford6/0/shared/rich_project_chbe-medford/medford-share/data/pseudos_module/espresso/nninc/pbe/van/Ti.UPF
     MD5 check sum: 8e4df49b7f0d34bbd5052bf3f5ea0213
     Pseudo is Ultrasoft, Zval = 12.0
     Generated by new atomic code, or converted to UPF format
     Using radial grid of  851 points,  6 beta functions with: 
                l(1) =   0
                l(2) =   0
                l(3) =   1
                l(4) =   1
                l(5) =   2
                l(6) =   2
     Q(r) pseudized with  8 coefficients,  rinner =    1.000   1.000   1.000
                                                       1.000   1.000

     PseudoPot. # 2 for O  read from file:
     /storage/coda1/p-amedford6/0/shared/rich_project_chbe-medford/medford-share/data/pseudos_module/espresso/nninc/pbe/van/O.UPF
     MD5 check sum: 78c19812648e8988a0fe644b0f25305e
     Pseudo is Ultrasoft, Zval =  6.0
     Generated by new atomic code, or converted to UPF format
     Using radial grid of  737 points,  4 beta functions with: 
                l(1) =   0
                l(2) =   0
                l(3) =   1
                l(4) =   1
     Q(r) pseudized with  8 coefficients,  rinner =    0.800   0.800   0.800


     PseudoPot. # 3 for N  read from file:
     /storage/coda1/p-amedford6/0/shared/rich_project_chbe-medford/medford-share/data/pseudos_module/espresso/nninc/pbe/van/N.UPF
     MD5 check sum: 90d10febe142ad51ac9d5be1deb811c4
     Pseudo is Ultrasoft, Zval =  5.0
     Generated by new atomic code, or converted to UPF format
     Using radial grid of  729 points,  4 beta functions with: 
                l(1) =   0
                l(2) =   0
                l(3) =   1
                l(4) =   1
     Q(r) pseudized with  8 coefficients,  rinner =    0.800   0.800   0.800


     PseudoPot. # 4 for C  read from file:
     /storage/coda1/p-amedford6/0/shared/rich_project_chbe-medford/medford-share/data/pseudos_module/espresso/nninc/pbe/van/C.UPF
     MD5 check sum: 1a69bf6b8db32088f5b2163dbdb77a27
     Pseudo is Ultrasoft, Zval =  4.0
     Generated by new atomic code, or converted to UPF format
     Using radial grid of  721 points,  4 beta functions with: 
                l(1) =   0
                l(2) =   0
                l(3) =   1
                l(4) =   1
     Q(r) pseudized with  8 coefficients,  rinner =    0.800   0.800   0.800


     PseudoPot. # 5 for H  read from file:
     /storage/coda1/p-amedford6/0/shared/rich_project_chbe-medford/medford-share/data/pseudos_module/espresso/nninc/pbe/van/H.UPF
     MD5 check sum: b5ee9d7bfd3a09ee7748110bda690ff7
     Pseudo is Ultrasoft, Zval =  1.0
     Generated by new atomic code, or converted to UPF format
     Using radial grid of  615 points,  1 beta functions with: 
                l(1) =   0
     Q(r) pseudized with  8 coefficients,  rinner =    0.800

     atomic species   valence    mass     pseudopotential
        Ti1           12.00    47.86700     Ti( 1.00)
        O1             6.00    15.99900     O ( 1.00)
        N1             5.00    14.00700     N ( 1.00)
        C1             4.00    12.01100     C ( 1.00)
        H1             1.00     1.00800     H ( 1.00)

     No symmetry found



   Cartesian axes

     site n.     atom                  positions (alat units)
         1           Ti1 tau(   1) = (   0.0004258   2.9801865   6.0000000  )
         2           Ti1 tau(   2) = (   3.2906075   1.4906267   6.0002472  )
         3           O1  tau(   3) = (   0.0006271   0.0005054   7.9858123  )
         4           O1  tau(   4) = (   3.2906025   0.0005020   7.3038282  )
         5           O1  tau(   5) = (   4.5942328   1.4918067   9.2879030  )
         6           O1  tau(   6) = (   1.9868534   1.4903216   9.2879459  )
         7           Ti1 tau(   7) = (   3.2907910   2.8959150   9.1758416  )
         8           Ti1 tau(   8) = (   0.0015273   1.4827037   9.2680791  )
         9           O1  tau(   9) = (   3.2769995   5.9424463  11.3879711  )
        10           O1  tau(  10) = (   0.0116148   5.9584955  10.6183126  )
        11           O1  tau(  11) = (   1.2559300   1.4809235  12.6914295  )
        12           O1  tau(  12) = (   5.2914439   1.4888754  12.6824943  )
        13           Ti1 tau(  13) = (   6.5693074   2.9549812  12.5071532  )
        14           Ti1 tau(  14) = (   3.2720578   1.2926143  12.7373905  )
        15           O1  tau(  15) = (   6.5263330   5.9075480  14.6758232  )
        16           O1  tau(  16) = (   3.2750150   0.0724425  14.0538047  )
        17           O1  tau(  17) = (   4.5404297   1.6145126  16.1214498  )
        18           O1  tau(  18) = (   1.9612862   1.5681812  16.1371236  )
        19           Ti1 tau(  19) = (   3.2615978   3.0295928  15.7214328  )
        20           Ti1 tau(  20) = (   6.4910920   1.3289874  15.8500745  )
        21           O1  tau(  21) = (   3.2904802   0.0005063   4.7018136  )
        22           O1  tau(  22) = (   6.5149858   0.1606772  17.2625446  )
        23           O1  tau(  23) = (   1.3043587   1.4918075   6.0039043  )
        24           O1  tau(  24) = (   5.2767064   1.4903225   6.0039473  )
        25           Ti1 tau(  25) = (   0.0000382   5.9609847   6.0000000  )
        26           Ti1 tau(  26) = (   3.2902200   4.4714249   6.0002472  )
        27           O1  tau(  27) = (   0.0002396   2.9813036   7.9858123  )
        28           O1  tau(  28) = (   3.2902150   2.9813002   7.3038282  )
        29           O1  tau(  29) = (   4.5938453   4.4726049   9.2879030  )
        30           O1  tau(  30) = (   1.9864658   4.4711199   9.2879459  )
        31           Ti1 tau(  31) = (   3.2891106   5.8743827   9.1763621  )
        32           Ti1 tau(  32) = (   0.0006254   4.4649316   9.2693709  )
        33           O1  tau(  33) = (   3.2749377   2.9871965  11.3337082  )
        34           O1  tau(  34) = (   0.0092240   2.9805883  10.6323155  )
        35           O1  tau(  35) = (   1.2597673   4.4587344  12.6634223  )
        36           O1  tau(  36) = (   5.2866262   4.4511231  12.6493885  )
        37           Ti1 tau(  37) = (   6.5604603   5.9292220  12.4937940  )
        38           Ti1 tau(  38) = (   3.2724722   4.3622713  12.4512132  )
        39           O1  tau(  39) = (   6.5737517   3.0258615  14.9025115  )
        40           O1  tau(  40) = (   3.2593133   3.0063273  13.9441864  )
        41           O1  tau(  41) = (   4.5441350   4.4310557  16.1689449  )
        42           O1  tau(  42) = (   1.9655774   4.4762250  16.2070539  )
        43           Ti1 tau(  43) = (   3.1776431   0.0563557  16.2565842  )
        44           Ti1 tau(  44) = (   6.5216753   4.5226504  15.9439936  )
        45           O1  tau(  45) = (   3.2900926   2.9813045   4.7018136  )
        46           O1  tau(  46) = (   1.3039711   4.4726057   6.0039043  )
        47           O1  tau(  47) = (   5.2763189   4.4711207   6.0039473  )
        48           N1  tau(  48) = (   0.8157702   2.5297039  18.7633901  )
        49           N1  tau(  49) = (   6.4302604   3.3580032  18.1334362  )
        50           C1  tau(  50) = (   1.9549655   3.0231469  19.2293773  )
        51           H1  tau(  51) = (   2.0901252   4.0892486  19.3254668  )
        52           H1  tau(  52) = (   2.7239663   2.3052050  19.4587972  )
        53           H1  tau(  53) = (   0.7490178   1.5515861  18.4517582  )
        54           H1  tau(  54) = (   6.4535031   4.2829477  18.5696568  )
        55           H1  tau(  55) = (   5.5068980   2.9516776  18.2836589  )
        56           O1  tau(  56) = (   3.3967406   0.0908776  18.1493316  )
        57           H1  tau(  57) = (   4.3453859   0.1413423  18.3540861  )

     number of k points=    10  Fermi-Dirac smearing, width (Ry)=  0.0073
                       cart. coord. in units 2pi/alat
        k(    1) = (   0.0000000   0.0000000   0.0000000), wk =   0.1250000
        k(    2) = (   0.0000000   0.0419351   0.0000000), wk =   0.2500000
        k(    3) = (   0.0000000  -0.0838702   0.0000000), wk =   0.1250000
        k(    4) = (   0.0379955   0.0000049   0.0000000), wk =   0.2500000
        k(    5) = (   0.0379955   0.0419400   0.0000000), wk =   0.2500000
        k(    6) = (   0.0379955  -0.0838652   0.0000000), wk =   0.2500000
        k(    7) = (   0.0379955  -0.0419301   0.0000000), wk =   0.2500000
        k(    8) = (  -0.0759910  -0.0000099   0.0000000), wk =   0.1250000
        k(    9) = (  -0.0759910   0.0419252   0.0000000), wk =   0.2500000
        k(   10) = (  -0.0759910  -0.0838800   0.0000000), wk =   0.1250000

     Dense  grid:   566857 G-vectors     FFT dimensions: (  72,  64, 270)

     Smooth grid:   143421 G-vectors     FFT dimensions: (  45,  40, 180)

     Estimated max dynamical RAM per process >     458.07 MB

     Estimated total dynamical RAM >       3.58 GB
     Cannot read rho : file not found

     Initial potential from superposition of free atoms

     starting charge  387.99913, renormalised to  404.00000

     negative rho (up, down):  1.608E-02 0.000E+00


     %%%%%%%%%%%%%%%%%%%%%%%%%%%%%%%%%%%%%%%%%%%%%%%%%%%%%%%%%%%%%%%%%%%%%%%%
     %                                                                      %
     % You are using vdW-DF, which was implemented by the Thonhauser group. %
     % Please cite the following two papers that made this development      %
     % possible and the two reviews that describe the various versions:     %
     %                                                                      %
     %   T. Thonhauser et al., PRL 115, 136402 (2015).                      %
     %   T. Thonhauser et al., PRB 76, 125112 (2007).                       %
     %   K. Berland et al., Rep. Prog. Phys. 78, 066501 (2015).             %
     %   D.C. Langreth et al., J. Phys.: Condens. Matter 21, 084203 (2009). %
     %                                                                      %
     %                                                                      %
     % If you are calculating the stress with vdW-DF, please also cite:     %
     %                                                                      %
     %   R. Sabatini et al., J. Phys.: Condens. Matter 24, 424209 (2012).   %
     %                                                                      %
     %%%%%%%%%%%%%%%%%%%%%%%%%%%%%%%%%%%%%%%%%%%%%%%%%%%%%%%%%%%%%%%%%%%%%%%%


 
     Adding external electric field

     Computed dipole along edir(3) : 
        Dipole              -13.8429 Ry au,        -35.1851 Debye
        Dipole field         -0.0261 Ry au, 
 
        Potential amp.        2.4216 Ry
        Total length         46.3494 bohr
 
     Starting wfcs are  306 atomic wfcs
  @ DRIVER MODE: Message from server: STATUS
  @ DRIVER MODE: Message from server: POSDATA
  @ DRIVER MODE: Reading and sharing cell 
  @ DRIVER MODE: Reading and sharing positions 
  @ DRIVER MODE: Received positions 

     total cpu time spent up to now is       68.8 secs

     Self-consistent Calculation

     iteration #  1     ecut=    29.40 Ry     beta= 0.05
     Davidson diagonalization with overlap
     c_bands:  1 eigenvalues not converged
     c_bands:  2 eigenvalues not converged
     c_bands:  1 eigenvalues not converged
     c_bands:  1 eigenvalues not converged
     c_bands:  1 eigenvalues not converged
     c_bands:  2 eigenvalues not converged
     c_bands:  5 eigenvalues not converged
     c_bands:  3 eigenvalues not converged
     ethr =  1.00E-05,  avg # of iterations = 32.8

     negative rho (up, down):  8.634E-03 0.000E+00
 
     Adding external electric field

     Computed dipole along edir(3) : 
        Dipole               59.8884 Ry au,        152.2213 Debye
        Dipole field          0.1130 Ry au, 
 
        Potential amp.      -10.4766 Ry
        Total length         46.3494 bohr
 

     total cpu time spent up to now is      135.3 secs

     total energy              =   -2231.89883205 Ry
     estimated scf accuracy    <    8426.10144988 Ry

     iteration #  2     ecut=    29.40 Ry     beta= 0.05
     Davidson diagonalization with overlap
     ethr =  1.00E-02,  avg # of iterations = 27.6

     negative rho (up, down):  3.178E-04 0.000E+00
 
     Adding external electric field

     Computed dipole along edir(3) : 
        Dipole                1.5122 Ry au,          3.8436 Debye
        Dipole field          0.0029 Ry au, 
 
        Potential amp.       -0.2645 Ry
        Total length         46.3494 bohr
 

     total cpu time spent up to now is      247.6 secs

     total energy              =   -2492.25948111 Ry
     estimated scf accuracy    <   74513.67090893 Ry

     iteration #  3     ecut=    29.40 Ry     beta= 0.05
     Davidson diagonalization with overlap
     ethr =  1.00E-02,  avg # of iterations = 16.9

     negative rho (up, down):  3.708E-04 0.000E+00
 
     Adding external electric field

     Computed dipole along edir(3) : 
        Dipole               -2.4304 Ry au,         -6.1773 Debye
        Dipole field         -0.0046 Ry au, 
 
        Potential amp.        0.4252 Ry
        Total length         46.3494 bohr
 

     total cpu time spent up to now is      309.5 secs

     total energy              =   -2960.06848615 Ry
     estimated scf accuracy    <    7904.09268382 Ry

     iteration #  4     ecut=    29.40 Ry     beta= 0.05
     Davidson diagonalization with overlap
     ethr =  1.00E-02,  avg # of iterations = 10.8

     negative rho (up, down):  3.901E-04 0.000E+00
 
     Adding external electric field

     Computed dipole along edir(3) : 
        Dipole               -4.3560 Ry au,        -11.0719 Debye
        Dipole field         -0.0082 Ry au, 
 
        Potential amp.        0.7620 Ry
        Total length         46.3494 bohr
 

     total cpu time spent up to now is      338.6 secs

     total energy              =   -2966.47551218 Ry
     estimated scf accuracy    <    2405.43842836 Ry

     iteration #  5     ecut=    29.40 Ry     beta= 0.05
     Davidson diagonalization with overlap
     ethr =  1.00E-02,  avg # of iterations =  4.8

     negative rho (up, down):  4.467E-04 0.000E+00
 
     Adding external electric field

     Computed dipole along edir(3) : 
        Dipole               -7.4213 Ry au,        -18.8632 Debye
        Dipole field         -0.0140 Ry au, 
 
        Potential amp.        1.2983 Ry
        Total length         46.3494 bohr
 

     total cpu time spent up to now is      353.6 secs

     total energy              =   -2938.11004764 Ry
     estimated scf accuracy    <    2110.13466255 Ry

     iteration #  6     ecut=    29.40 Ry     beta= 0.05
     Davidson diagonalization with overlap
     ethr =  1.00E-02,  avg # of iterations = 13.1

     negative rho (up, down):  4.315E-04 0.000E+00
 
     Adding external electric field

     Computed dipole along edir(3) : 
        Dipole               -5.7863 Ry au,        -14.7074 Debye
        Dipole field         -0.0109 Ry au, 
 
        Potential amp.        1.0122 Ry
        Total length         46.3494 bohr
 

     total cpu time spent up to now is      386.4 secs

     total energy              =   -2979.38785441 Ry
     estimated scf accuracy    <     105.24594160 Ry

     iteration #  7     ecut=    29.40 Ry     beta= 0.05
     Davidson diagonalization with overlap
     ethr =  1.00E-02,  avg # of iterations =  1.4

     negative rho (up, down):  4.426E-04 0.000E+00
 
     Adding external electric field

     Computed dipole along edir(3) : 
        Dipole               -4.9620 Ry au,        -12.6120 Debye
        Dipole field         -0.0094 Ry au, 
 
        Potential amp.        0.8680 Ry
        Total length         46.3494 bohr
 

     total cpu time spent up to now is      399.4 secs

     total energy              =   -2978.96377829 Ry
     estimated scf accuracy    <      23.52423608 Ry

     iteration #  8     ecut=    29.40 Ry     beta= 0.05
     Davidson diagonalization with overlap
     ethr =  5.82E-03,  avg # of iterations =  2.0

     negative rho (up, down):  4.414E-04 0.000E+00
 
     Adding external electric field

     Computed dipole along edir(3) : 
        Dipole               -4.9535 Ry au,        -12.5905 Debye
        Dipole field         -0.0093 Ry au, 
 
        Potential amp.        0.8665 Ry
        Total length         46.3494 bohr
 

     total cpu time spent up to now is      412.6 secs

     total energy              =   -2979.23371294 Ry
     estimated scf accuracy    <      17.30557169 Ry

     iteration #  9     ecut=    29.40 Ry     beta= 0.05
     Davidson diagonalization with overlap
     ethr =  4.28E-03,  avg # of iterations =  1.0

     negative rho (up, down):  4.422E-04 0.000E+00
 
     Adding external electric field

     Computed dipole along edir(3) : 
        Dipole               -5.0836 Ry au,        -12.9213 Debye
        Dipole field         -0.0096 Ry au, 
 
        Potential amp.        0.8893 Ry
        Total length         46.3494 bohr
 

     total cpu time spent up to now is      425.3 secs

     total energy              =   -2979.35693633 Ry
     estimated scf accuracy    <      17.26568111 Ry

     iteration # 10     ecut=    29.40 Ry     beta= 0.05
     Davidson diagonalization with overlap
     ethr =  4.27E-03,  avg # of iterations =  1.0

     negative rho (up, down):  5.971E-04 0.000E+00
 
     Adding external electric field

     Computed dipole along edir(3) : 
        Dipole                0.9601 Ry au,          2.4402 Debye
        Dipole field          0.0018 Ry au, 
 
        Potential amp.       -0.1679 Ry
        Total length         46.3494 bohr
 

     total cpu time spent up to now is      438.0 secs

     total energy              =   -2973.97165469 Ry
     estimated scf accuracy    <      17.30291976 Ry

     iteration # 11     ecut=    29.40 Ry     beta= 0.05
     Davidson diagonalization with overlap
     ethr =  4.27E-03,  avg # of iterations = 12.7

     negative rho (up, down):  8.845E-04 0.000E+00
 
     Adding external electric field

     Computed dipole along edir(3) : 
        Dipole                2.5327 Ry au,          6.4374 Debye
        Dipole field          0.0048 Ry au, 
 
        Potential amp.       -0.4431 Ry
        Total length         46.3494 bohr
 

     total cpu time spent up to now is      470.5 secs

     total energy              =   -3032.02295310 Ry
     estimated scf accuracy    <    3973.68772368 Ry

     iteration # 12     ecut=    29.40 Ry     beta= 0.05
     Davidson diagonalization with overlap
     ethr =  4.27E-03,  avg # of iterations =  2.0

     negative rho (up, down):  1.485E-03 0.000E+00
 
     Adding external electric field

     Computed dipole along edir(3) : 
        Dipole                4.8410 Ry au,         12.3045 Debye
        Dipole field          0.0091 Ry au, 
 
        Potential amp.       -0.8469 Ry
        Total length         46.3494 bohr
 

     total cpu time spent up to now is      484.3 secs

     total energy              =   -3067.79369340 Ry
     estimated scf accuracy    <    4622.52518581 Ry

     iteration # 13     ecut=    29.40 Ry     beta= 0.05
     Davidson diagonalization with overlap
     ethr =  4.27E-03,  avg # of iterations =  5.0

     negative rho (up, down):  1.026E-03 0.000E+00
 
     Adding external electric field

     Computed dipole along edir(3) : 
        Dipole                1.8323 Ry au,          4.6573 Debye
        Dipole field          0.0035 Ry au, 
 
        Potential amp.       -0.3205 Ry
        Total length         46.3494 bohr
 

     total cpu time spent up to now is      499.3 secs

     total energy              =   -3007.61054142 Ry
     estimated scf accuracy    <    5944.02912355 Ry

     iteration # 14     ecut=    29.40 Ry     beta= 0.05
     Davidson diagonalization with overlap
     ethr =  4.27E-03,  avg # of iterations =  2.4

     negative rho (up, down):  7.227E-04 0.000E+00
 
     Adding external electric field

     Computed dipole along edir(3) : 
        Dipole               -4.6856 Ry au,        -11.9096 Debye
        Dipole field         -0.0088 Ry au, 
 
        Potential amp.        0.8197 Ry
        Total length         46.3494 bohr
 

     total cpu time spent up to now is      513.2 secs

     total energy              =   -2923.38457270 Ry
     estimated scf accuracy    <    4054.53430765 Ry

     iteration # 15     ecut=    29.40 Ry     beta= 0.05
     Davidson diagonalization with overlap
     ethr =  4.27E-03,  avg # of iterations = 15.4

     negative rho (up, down):  7.363E-04 0.000E+00
 
     Adding external electric field

     Computed dipole along edir(3) : 
        Dipole               -3.5022 Ry au,         -8.9018 Debye
        Dipole field         -0.0066 Ry au, 
 
        Potential amp.        0.6127 Ry
        Total length         46.3494 bohr
 

     total cpu time spent up to now is      559.5 secs

     total energy              =   -2974.80720085 Ry
     estimated scf accuracy    <     516.03332960 Ry

     iteration # 16     ecut=    29.40 Ry     beta= 0.05
     Davidson diagonalization with overlap
     ethr =  4.27E-03,  avg # of iterations =  4.6

     negative rho (up, down):  7.785E-04 0.000E+00
 
     Adding external electric field

     Computed dipole along edir(3) : 
        Dipole               -4.8976 Ry au,        -12.4485 Debye
        Dipole field         -0.0092 Ry au, 
 
        Potential amp.        0.8568 Ry
        Total length         46.3494 bohr
 

     total cpu time spent up to now is      574.3 secs

     total energy              =   -2978.70441013 Ry
     estimated scf accuracy    <      89.97222965 Ry

     iteration # 17     ecut=    29.40 Ry     beta= 0.05
     Davidson diagonalization with overlap
     ethr =  4.27E-03,  avg # of iterations =  1.2

     negative rho (up, down):  7.547E-04 0.000E+00
 
     Adding external electric field

     Computed dipole along edir(3) : 
        Dipole               -6.3301 Ry au,        -16.0895 Debye
        Dipole field         -0.0119 Ry au, 
 
        Potential amp.        1.1074 Ry
        Total length         46.3494 bohr
 

     total cpu time spent up to now is      587.2 secs

     total energy              =   -2986.97209770 Ry
     estimated scf accuracy    <     715.49804444 Ry

     iteration # 18     ecut=    29.40 Ry     beta= 0.05
     Davidson diagonalization with overlap
     ethr =  4.27E-03,  avg # of iterations = 11.2

     negative rho (up, down):  5.743E-04 0.000E+00
 
     Adding external electric field

     Computed dipole along edir(3) : 
        Dipole               -2.7708 Ry au,         -7.0427 Debye
        Dipole field         -0.0052 Ry au, 
 
        Potential amp.        0.4847 Ry
        Total length         46.3494 bohr
 

     total cpu time spent up to now is      609.2 secs

     total energy              =   -2963.88845571 Ry
     estimated scf accuracy    <    1993.15554596 Ry

     iteration # 19     ecut=    29.40 Ry     beta= 0.05
     Davidson diagonalization with overlap
     ethr =  4.27E-03,  avg # of iterations = 11.7

     negative rho (up, down):  4.325E-04 0.000E+00
 
     Adding external electric field

     Computed dipole along edir(3) : 
        Dipole               -1.3871 Ry au,         -3.5257 Debye
        Dipole field         -0.0026 Ry au, 
 
        Potential amp.        0.2427 Ry
        Total length         46.3494 bohr
 

     total cpu time spent up to now is      631.1 secs

     total energy              =   -2974.95382672 Ry
     estimated scf accuracy    <      32.63436397 Ry

     iteration # 20     ecut=    29.40 Ry     beta= 0.05
     Davidson diagonalization with overlap
     ethr =  4.27E-03,  avg # of iterations =  1.4

     negative rho (up, down):  3.271E-04 0.000E+00
 
     Adding external electric field

     Computed dipole along edir(3) : 
        Dipole               -0.5603 Ry au,         -1.4241 Debye
        Dipole field         -0.0011 Ry au, 
 
        Potential amp.        0.0980 Ry
        Total length         46.3494 bohr
 

     total cpu time spent up to now is      644.2 secs

     total energy              =   -2974.59840009 Ry
     estimated scf accuracy    <      25.62028374 Ry

     iteration # 21     ecut=    29.40 Ry     beta= 0.05
     Davidson diagonalization with overlap
     ethr =  4.27E-03,  avg # of iterations =  3.2

     negative rho (up, down):  2.575E-04 0.000E+00
 
     Adding external electric field

     Computed dipole along edir(3) : 
        Dipole                0.3189 Ry au,          0.8106 Debye
        Dipole field          0.0006 Ry au, 
 
        Potential amp.       -0.0558 Ry
        Total length         46.3494 bohr
 

     total cpu time spent up to now is      657.9 secs

     total energy              =   -2974.52095843 Ry
     estimated scf accuracy    <      18.85977432 Ry

     iteration # 22     ecut=    29.40 Ry     beta= 0.05
     Davidson diagonalization with overlap
     ethr =  4.27E-03,  avg # of iterations =  4.1

     negative rho (up, down):  2.782E-04 0.000E+00
 
     Adding external electric field

     Computed dipole along edir(3) : 
        Dipole                0.0661 Ry au,          0.1680 Debye
        Dipole field          0.0001 Ry au, 
 
        Potential amp.       -0.0116 Ry
        Total length         46.3494 bohr
 

     total cpu time spent up to now is      672.3 secs

     total energy              =   -2975.22821899 Ry
     estimated scf accuracy    <       3.16852780 Ry

     iteration # 23     ecut=    29.40 Ry     beta= 0.05
     Davidson diagonalization with overlap
     c_bands:  5 eigenvalues not converged
     c_bands:  5 eigenvalues not converged
     c_bands:  2 eigenvalues not converged
     c_bands:  4 eigenvalues not converged
     c_bands:  4 eigenvalues not converged
     c_bands:  2 eigenvalues not converged
     ethr =  7.84E-04,  avg # of iterations = 12.8

     negative rho (up, down):  2.872E-04 0.000E+00
 
     Adding external electric field

     Computed dipole along edir(3) : 
        Dipole               -0.0021 Ry au,         -0.0052 Debye
        Dipole field         -0.0000 Ry au, 
 
        Potential amp.        0.0004 Ry
        Total length         46.3494 bohr
 

     total cpu time spent up to now is      693.4 secs

     total energy              =   -2975.61485391 Ry
     estimated scf accuracy    <       8.45657874 Ry

     iteration # 24     ecut=    29.40 Ry     beta= 0.05
     Davidson diagonalization with overlap
     ethr =  7.84E-04,  avg # of iterations =  2.6

     negative rho (up, down):  2.821E-04 0.000E+00
 
     Adding external electric field

     Computed dipole along edir(3) : 
        Dipole                0.3450 Ry au,          0.8769 Debye
        Dipole field          0.0007 Ry au, 
 
        Potential amp.       -0.0604 Ry
        Total length         46.3494 bohr
 

     total cpu time spent up to now is      707.0 secs

     total energy              =   -2975.63595739 Ry
     estimated scf accuracy    <       3.49730120 Ry

     iteration # 25     ecut=    29.40 Ry     beta= 0.05
     Davidson diagonalization with overlap
     c_bands:  2 eigenvalues not converged
     ethr =  7.84E-04,  avg # of iterations =  4.6

     negative rho (up, down):  3.304E-04 0.000E+00
 
     Adding external electric field

     Computed dipole along edir(3) : 
        Dipole                0.5608 Ry au,          1.4253 Debye
        Dipole field          0.0011 Ry au, 
 
        Potential amp.       -0.0981 Ry
        Total length         46.3494 bohr
 

     total cpu time spent up to now is      721.5 secs

     total energy              =   -2975.04011668 Ry
     estimated scf accuracy    <      16.02743655 Ry

     iteration # 26     ecut=    29.40 Ry     beta= 0.05
     Davidson diagonalization with overlap
     ethr =  7.84E-04,  avg # of iterations =  4.6

     negative rho (up, down):  4.497E-04 0.000E+00
 
     Adding external electric field

     Computed dipole along edir(3) : 
        Dipole                0.8978 Ry au,          2.2820 Debye
        Dipole field          0.0017 Ry au, 
 
        Potential amp.       -0.1571 Ry
        Total length         46.3494 bohr
 

     total cpu time spent up to now is      736.3 secs

     total energy              =   -2975.05333160 Ry
     estimated scf accuracy    <       1.68186295 Ry

     iteration # 27     ecut=    29.40 Ry     beta= 0.05
     Davidson diagonalization with overlap
     c_bands:  1 eigenvalues not converged
     c_bands:  2 eigenvalues not converged
     c_bands:  3 eigenvalues not converged
     c_bands:  1 eigenvalues not converged
     ethr =  4.16E-04,  avg # of iterations = 16.2

     negative rho (up, down):  4.010E-04 0.000E+00
 
     Adding external electric field

     Computed dipole along edir(3) : 
        Dipole                1.5914 Ry au,          4.0450 Debye
        Dipole field          0.0030 Ry au, 
 
        Potential amp.       -0.2784 Ry
        Total length         46.3494 bohr
 

     total cpu time spent up to now is      761.5 secs

     total energy              =   -2975.15644980 Ry
     estimated scf accuracy    <       3.01818051 Ry

     iteration # 28     ecut=    29.40 Ry     beta= 0.05
     Davidson diagonalization with overlap
     c_bands:  2 eigenvalues not converged
     ethr =  4.16E-04,  avg # of iterations =  7.8

     negative rho (up, down):  3.955E-04 0.000E+00
 
     Adding external electric field

     Computed dipole along edir(3) : 
        Dipole                0.8954 Ry au,          2.2759 Debye
        Dipole field          0.0017 Ry au, 
 
        Potential amp.       -0.1566 Ry
        Total length         46.3494 bohr
 

     total cpu time spent up to now is      777.2 secs

     total energy              =   -2975.18424933 Ry
     estimated scf accuracy    <       1.44736753 Ry

     iteration # 29     ecut=    29.40 Ry     beta= 0.05
     Davidson diagonalization with overlap
     ethr =  3.58E-04,  avg # of iterations =  3.2

     negative rho (up, down):  4.141E-04 0.000E+00
 
     Adding external electric field

     Computed dipole along edir(3) : 
        Dipole                1.0082 Ry au,          2.5627 Debye
        Dipole field          0.0019 Ry au, 
 
        Potential amp.       -0.1764 Ry
        Total length         46.3494 bohr
 

     total cpu time spent up to now is      790.9 secs

     total energy              =   -2975.18381242 Ry
     estimated scf accuracy    <       1.69229796 Ry

     iteration # 30     ecut=    29.40 Ry     beta= 0.05
     Davidson diagonalization with overlap
     c_bands:  2 eigenvalues not converged
     c_bands:  1 eigenvalues not converged
     c_bands:  3 eigenvalues not converged
     c_bands:  2 eigenvalues not converged
     c_bands:  1 eigenvalues not converged
     c_bands:  2 eigenvalues not converged
     c_bands:  5 eigenvalues not converged
     c_bands:  1 eigenvalues not converged
     ethr =  3.58E-04,  avg # of iterations = 21.8

     negative rho (up, down):  5.304E-04 0.000E+00
 
     Adding external electric field

     Computed dipole along edir(3) : 
        Dipole                1.4263 Ry au,          3.6252 Debye
        Dipole field          0.0027 Ry au, 
 
        Potential amp.       -0.2495 Ry
        Total length         46.3494 bohr
 

     total cpu time spent up to now is      815.3 secs

     total energy              =   -2975.14653763 Ry
     estimated scf accuracy    <       0.74772974 Ry

     iteration # 31     ecut=    29.40 Ry     beta= 0.05
     Davidson diagonalization with overlap
     ethr =  1.85E-04,  avg # of iterations =  7.4

     negative rho (up, down):  6.605E-04 0.000E+00
 
     Adding external electric field

     Computed dipole along edir(3) : 
        Dipole                1.3935 Ry au,          3.5419 Debye
        Dipole field          0.0026 Ry au, 
 
        Potential amp.       -0.2438 Ry
        Total length         46.3494 bohr
 

     total cpu time spent up to now is      830.9 secs

     total energy              =   -2975.15556471 Ry
     estimated scf accuracy    <       0.46643224 Ry

     iteration # 32     ecut=    29.40 Ry     beta= 0.05
     Davidson diagonalization with overlap
     ethr =  1.15E-04,  avg # of iterations =  5.2

     negative rho (up, down):  8.546E-04 0.000E+00
 
     Adding external electric field

     Computed dipole along edir(3) : 
        Dipole                0.9764 Ry au,          2.4817 Debye
        Dipole field          0.0018 Ry au, 
 
        Potential amp.       -0.1708 Ry
        Total length         46.3494 bohr
 

     total cpu time spent up to now is      845.6 secs

     total energy              =   -2975.13246880 Ry
     estimated scf accuracy    <       0.52842249 Ry

     iteration # 33     ecut=    29.40 Ry     beta= 0.05
     Davidson diagonalization with overlap
     c_bands:  1 eigenvalues not converged
     ethr =  1.15E-04,  avg # of iterations =  8.6

     negative rho (up, down):  9.624E-04 0.000E+00
 
     Adding external electric field

     Computed dipole along edir(3) : 
        Dipole                1.2618 Ry au,          3.2073 Debye
        Dipole field          0.0024 Ry au, 
 
        Potential amp.       -0.2207 Ry
        Total length         46.3494 bohr
 

     total cpu time spent up to now is      861.8 secs

     total energy              =   -2975.12439921 Ry
     estimated scf accuracy    <       0.22845394 Ry

     iteration # 34     ecut=    29.40 Ry     beta= 0.05
     Davidson diagonalization with overlap
     c_bands:  2 eigenvalues not converged
     c_bands:  3 eigenvalues not converged
     c_bands:  1 eigenvalues not converged
     c_bands:  1 eigenvalues not converged
     ethr =  5.65E-05,  avg # of iterations = 14.7

     negative rho (up, down):  1.399E-03 0.000E+00
 
     Adding external electric field

     Computed dipole along edir(3) : 
        Dipole                1.1904 Ry au,          3.0258 Debye
        Dipole field          0.0022 Ry au, 
 
        Potential amp.       -0.2082 Ry
        Total length         46.3494 bohr
 

     total cpu time spent up to now is      881.3 secs

     total energy              =   -2975.14741972 Ry
     estimated scf accuracy    <       0.14881848 Ry

     iteration # 35     ecut=    29.40 Ry     beta= 0.05
     Davidson diagonalization with overlap
     c_bands:  2 eigenvalues not converged
     c_bands:  1 eigenvalues not converged
     ethr =  3.68E-05,  avg # of iterations = 10.0

     negative rho (up, down):  1.654E-03 0.000E+00
 
     Adding external electric field

     Computed dipole along edir(3) : 
        Dipole                1.0499 Ry au,          2.6685 Debye
        Dipole field          0.0020 Ry au, 
 
        Potential amp.       -0.1837 Ry
        Total length         46.3494 bohr
 

     total cpu time spent up to now is      898.9 secs

     total energy              =   -2975.12968278 Ry
     estimated scf accuracy    <       0.17049995 Ry

     iteration # 36     ecut=    29.40 Ry     beta= 0.05
     Davidson diagonalization with overlap
     c_bands:  1 eigenvalues not converged
     c_bands:  1 eigenvalues not converged
     ethr =  3.68E-05,  avg # of iterations = 14.5

     negative rho (up, down):  2.284E-03 0.000E+00
 
     Adding external electric field

     Computed dipole along edir(3) : 
        Dipole                1.2847 Ry au,          3.2654 Debye
        Dipole field          0.0024 Ry au, 
 
        Potential amp.       -0.2247 Ry
        Total length         46.3494 bohr
 

     total cpu time spent up to now is      919.8 secs

     total energy              =   -2975.14183118 Ry
     estimated scf accuracy    <       0.11884627 Ry

     iteration # 37     ecut=    29.40 Ry     beta= 0.05
     Davidson diagonalization with overlap
     c_bands:  1 eigenvalues not converged
     c_bands:  5 eigenvalues not converged
     c_bands:  1 eigenvalues not converged
     ethr =  2.94E-05,  avg # of iterations = 13.8

     negative rho (up, down):  4.137E-03 0.000E+00
 
     Adding external electric field

     Computed dipole along edir(3) : 
        Dipole                1.1517 Ry au,          2.9272 Debye
        Dipole field          0.0022 Ry au, 
 
        Potential amp.       -0.2015 Ry
        Total length         46.3494 bohr
 

     total cpu time spent up to now is      938.5 secs

     total energy              =   -2975.14348389 Ry
     estimated scf accuracy    <       0.07268399 Ry

     iteration # 38     ecut=    29.40 Ry     beta= 0.05
     Davidson diagonalization with overlap
     ethr =  1.80E-05,  avg # of iterations =  9.6

     negative rho (up, down):  5.385E-03 0.000E+00
 
     Adding external electric field

     Computed dipole along edir(3) : 
        Dipole                1.1295 Ry au,          2.8708 Debye
        Dipole field          0.0021 Ry au, 
 
        Potential amp.       -0.1976 Ry
        Total length         46.3494 bohr
 

     total cpu time spent up to now is      955.9 secs

     total energy              =   -2975.14716296 Ry
     estimated scf accuracy    <       0.06071841 Ry

     iteration # 39     ecut=    29.40 Ry     beta= 0.05
     Davidson diagonalization with overlap
     c_bands:  1 eigenvalues not converged
     ethr =  1.50E-05,  avg # of iterations = 10.6

     negative rho (up, down):  5.826E-03 0.000E+00
 
     Adding external electric field

     Computed dipole along edir(3) : 
        Dipole                1.1583 Ry au,          2.9442 Debye
        Dipole field          0.0022 Ry au, 
 
        Potential amp.       -0.2026 Ry
        Total length         46.3494 bohr
 

     total cpu time spent up to now is      973.2 secs

     total energy              =   -2975.14852725 Ry
     estimated scf accuracy    <       0.07236238 Ry

     iteration # 40     ecut=    29.40 Ry     beta= 0.05
     Davidson diagonalization with overlap
     ethr =  1.50E-05,  avg # of iterations =  2.8

     negative rho (up, down):  6.920E-03 0.000E+00
 
     Adding external electric field

     Computed dipole along edir(3) : 
        Dipole                1.1736 Ry au,          2.9829 Debye
        Dipole field          0.0022 Ry au, 
 
        Potential amp.       -0.2053 Ry
        Total length         46.3494 bohr
 

     total cpu time spent up to now is      986.5 secs

     total energy              =   -2975.14824623 Ry
     estimated scf accuracy    <       0.01730760 Ry

     iteration # 41     ecut=    29.40 Ry     beta= 0.05
     Davidson diagonalization with overlap
     c_bands:  1 eigenvalues not converged
     c_bands:  3 eigenvalues not converged
     c_bands:  1 eigenvalues not converged
     c_bands:  1 eigenvalues not converged
     ethr =  4.28E-06,  avg # of iterations = 17.5

     negative rho (up, down):  1.031E-02 0.000E+00
 
     Adding external electric field

     Computed dipole along edir(3) : 
        Dipole                1.2025 Ry au,          3.0565 Debye
        Dipole field          0.0023 Ry au, 
 
        Potential amp.       -0.2104 Ry
        Total length         46.3494 bohr
 

     total cpu time spent up to now is     1007.4 secs

     total energy              =   -2975.14924198 Ry
     estimated scf accuracy    <       0.00415058 Ry

     iteration # 42     ecut=    29.40 Ry     beta= 0.05
     Davidson diagonalization with overlap
     c_bands:  1 eigenvalues not converged
     c_bands:  1 eigenvalues not converged
     ethr =  1.03E-06,  avg # of iterations = 13.9

     negative rho (up, down):  9.922E-03 0.000E+00
 
     Adding external electric field

     Computed dipole along edir(3) : 
        Dipole                1.1866 Ry au,          3.0161 Debye
        Dipole field          0.0022 Ry au, 
 
        Potential amp.       -0.2076 Ry
        Total length         46.3494 bohr
 

     total cpu time spent up to now is     1026.8 secs

     total energy              =   -2975.14943661 Ry
     estimated scf accuracy    <       0.00414929 Ry

     iteration # 43     ecut=    29.40 Ry     beta= 0.05
     Davidson diagonalization with overlap
     c_bands:  1 eigenvalues not converged
     ethr =  1.03E-06,  avg # of iterations =  3.8

     negative rho (up, down):  1.163E-02 0.000E+00
 
     Adding external electric field

     Computed dipole along edir(3) : 
        Dipole                1.1944 Ry au,          3.0358 Debye
        Dipole field          0.0023 Ry au, 
 
        Potential amp.       -0.2089 Ry
        Total length         46.3494 bohr
 

     total cpu time spent up to now is     1040.8 secs

     total energy              =   -2975.14944384 Ry
     estimated scf accuracy    <       0.00194599 Ry

     iteration # 44     ecut=    29.40 Ry     beta= 0.05
     Davidson diagonalization with overlap
     c_bands:  1 eigenvalues not converged
     ethr =  4.82E-07,  avg # of iterations = 13.3

     negative rho (up, down):  1.253E-02 0.000E+00
 
     Adding external electric field

     Computed dipole along edir(3) : 
        Dipole                1.1815 Ry au,          3.0030 Debye
        Dipole field          0.0022 Ry au, 
 
        Potential amp.       -0.2067 Ry
        Total length         46.3494 bohr
 

     total cpu time spent up to now is     1066.0 secs

     total energy              =   -2975.14955714 Ry
     estimated scf accuracy    <       0.00516229 Ry

     iteration # 45     ecut=    29.40 Ry     beta= 0.05
     Davidson diagonalization with overlap
     ethr =  4.82E-07,  avg # of iterations = 10.6

     negative rho (up, down):  1.263E-02 0.000E+00
 
     Adding external electric field

     Computed dipole along edir(3) : 
        Dipole                1.1825 Ry au,          3.0056 Debye
        Dipole field          0.0022 Ry au, 
 
        Potential amp.       -0.2069 Ry
        Total length         46.3494 bohr
 

     total cpu time spent up to now is     1084.0 secs

     total energy              =   -2975.14981138 Ry
     estimated scf accuracy    <       0.00071075 Ry

     iteration # 46     ecut=    29.40 Ry     beta= 0.05
     Davidson diagonalization with overlap
     ethr =  1.76E-07,  avg # of iterations =  9.2

     negative rho (up, down):  1.374E-02 0.000E+00
 
     Adding external electric field

     Computed dipole along edir(3) : 
        Dipole                1.1812 Ry au,          3.0023 Debye
        Dipole field          0.0022 Ry au, 
 
        Potential amp.       -0.2066 Ry
        Total length         46.3494 bohr
 

     total cpu time spent up to now is     1100.6 secs

     total energy              =   -2975.14983610 Ry
     estimated scf accuracy    <       0.00051466 Ry

     iteration # 47     ecut=    29.40 Ry     beta= 0.05
     Davidson diagonalization with overlap
     c_bands:  1 eigenvalues not converged
     c_bands:  1 eigenvalues not converged
     ethr =  1.27E-07,  avg # of iterations = 14.3

     negative rho (up, down):  1.475E-02 0.000E+00
 
     Adding external electric field

     Computed dipole along edir(3) : 
        Dipole                1.1812 Ry au,          3.0022 Debye
        Dipole field          0.0022 Ry au, 
 
        Potential amp.       -0.2066 Ry
        Total length         46.3494 bohr
 

     total cpu time spent up to now is     1121.3 secs

     total energy              =   -2975.14991088 Ry
     estimated scf accuracy    <       0.00022856 Ry

     iteration # 48     ecut=    29.40 Ry     beta= 0.05
     Davidson diagonalization with overlap
     c_bands:  1 eigenvalues not converged
     ethr =  5.66E-08,  avg # of iterations =  9.0

     negative rho (up, down):  1.494E-02 0.000E+00
 
     Adding external electric field

     Computed dipole along edir(3) : 
        Dipole                1.1825 Ry au,          3.0056 Debye
        Dipole field          0.0022 Ry au, 
 
        Potential amp.       -0.2069 Ry
        Total length         46.3494 bohr
 

     total cpu time spent up to now is     1138.9 secs

     total energy              =   -2975.14994584 Ry
     estimated scf accuracy    <       0.00009568 Ry

     iteration # 49     ecut=    29.40 Ry     beta= 0.05
     Davidson diagonalization with overlap
     c_bands:  1 eigenvalues not converged
     ethr =  2.37E-08,  avg # of iterations = 15.4

     negative rho (up, down):  1.492E-02 0.000E+00
 
     Adding external electric field

     Computed dipole along edir(3) : 
        Dipole                1.1786 Ry au,          2.9957 Debye
        Dipole field          0.0022 Ry au, 
 
        Potential amp.       -0.2062 Ry
        Total length         46.3494 bohr
 

     total cpu time spent up to now is     1164.2 secs

     total energy              =   -2975.14995889 Ry
     estimated scf accuracy    <       0.00012288 Ry

     iteration # 50     ecut=    29.40 Ry     beta= 0.05
     Davidson diagonalization with overlap
     ethr =  2.37E-08,  avg # of iterations = 11.8

     negative rho (up, down):  1.496E-02 0.000E+00
 
     Adding external electric field

     Computed dipole along edir(3) : 
        Dipole                1.1787 Ry au,          2.9961 Debye
        Dipole field          0.0022 Ry au, 
 
        Potential amp.       -0.2062 Ry
        Total length         46.3494 bohr
 

     total cpu time spent up to now is     1185.9 secs

     total energy              =   -2975.14999006 Ry
     estimated scf accuracy    <       0.00005907 Ry

     iteration # 51     ecut=    29.40 Ry     beta= 0.05
     Davidson diagonalization with overlap
     ethr =  1.46E-08,  avg # of iterations =  1.7

     negative rho (up, down):  1.530E-02 0.000E+00
 
     Adding external electric field

     Computed dipole along edir(3) : 
        Dipole                1.1791 Ry au,          2.9970 Debye
        Dipole field          0.0022 Ry au, 
 
        Potential amp.       -0.2063 Ry
        Total length         46.3494 bohr
 

     total cpu time spent up to now is     1200.3 secs

     total energy              =   -2975.15000518 Ry
     estimated scf accuracy    <       0.00004074 Ry

     iteration # 52     ecut=    29.40 Ry     beta= 0.05
     Davidson diagonalization with overlap
     ethr =  1.01E-08,  avg # of iterations =  9.5

     negative rho (up, down):  1.529E-02 0.000E+00
 
     Adding external electric field

     Computed dipole along edir(3) : 
        Dipole                1.1792 Ry au,          2.9973 Debye
        Dipole field          0.0022 Ry au, 
 
        Potential amp.       -0.2063 Ry
        Total length         46.3494 bohr
 

     total cpu time spent up to now is     1222.4 secs

     total energy              =   -2975.15002540 Ry
     estimated scf accuracy    <       0.00001639 Ry

     iteration # 53     ecut=    29.40 Ry     beta= 0.05
     Davidson diagonalization with overlap
     ethr =  4.06E-09,  avg # of iterations =  3.1

     negative rho (up, down):  1.523E-02 0.000E+00
 
     Adding external electric field

     Computed dipole along edir(3) : 
        Dipole                1.1789 Ry au,          2.9964 Debye
        Dipole field          0.0022 Ry au, 
 
        Potential amp.       -0.2062 Ry
        Total length         46.3494 bohr
 

     total cpu time spent up to now is     1236.6 secs

     total energy              =   -2975.15003572 Ry
     estimated scf accuracy    <       0.00001296 Ry

     iteration # 54     ecut=    29.40 Ry     beta= 0.05
     Davidson diagonalization with overlap
     ethr =  3.21E-09,  avg # of iterations = 12.5

     negative rho (up, down):  1.518E-02 0.000E+00
 
     Adding external electric field

     Computed dipole along edir(3) : 
        Dipole                1.1793 Ry au,          2.9975 Debye
        Dipole field          0.0022 Ry au, 
 
        Potential amp.       -0.2063 Ry
        Total length         46.3494 bohr
 

     total cpu time spent up to now is     1261.5 secs

     total energy              =   -2975.15004485 Ry
     estimated scf accuracy    <       0.00002156 Ry

     iteration # 55     ecut=    29.40 Ry     beta= 0.05
     Davidson diagonalization with overlap
     ethr =  3.21E-09,  avg # of iterations = 10.6

     negative rho (up, down):  1.518E-02 0.000E+00
 
     Adding external electric field

     Computed dipole along edir(3) : 
        Dipole                1.1792 Ry au,          2.9971 Debye
        Dipole field          0.0022 Ry au, 
 
        Potential amp.       -0.2063 Ry
        Total length         46.3494 bohr
 

     total cpu time spent up to now is     1288.3 secs

     total energy              =   -2975.15006119 Ry
     estimated scf accuracy    <       0.00001579 Ry

     iteration # 56     ecut=    29.40 Ry     beta= 0.05
     Davidson diagonalization with overlap
     ethr =  3.21E-09,  avg # of iterations =  1.4

     negative rho (up, down):  1.513E-02 0.000E+00
 
     Adding external electric field

     Computed dipole along edir(3) : 
        Dipole                1.1791 Ry au,          2.9970 Debye
        Dipole field          0.0022 Ry au, 
 
        Potential amp.       -0.2063 Ry
        Total length         46.3494 bohr
 

     total cpu time spent up to now is     1301.4 secs

     total energy              =   -2975.15006901 Ry
     estimated scf accuracy    <       0.00000855 Ry

     iteration # 57     ecut=    29.40 Ry     beta= 0.05
     Davidson diagonalization with overlap
     ethr =  2.12E-09,  avg # of iterations =  7.4

     negative rho (up, down):  1.520E-02 0.000E+00
 
     Adding external electric field

     Computed dipole along edir(3) : 
        Dipole                1.1795 Ry au,          2.9980 Debye
        Dipole field          0.0022 Ry au, 
 
        Potential amp.       -0.2063 Ry
        Total length         46.3494 bohr
 

     total cpu time spent up to now is     1320.0 secs

     total energy              =   -2975.15007935 Ry
     estimated scf accuracy    <       0.00000258 Ry

     iteration # 58     ecut=    29.40 Ry     beta= 0.05
     Davidson diagonalization with overlap
     ethr =  6.39E-10,  avg # of iterations =  8.6

     negative rho (up, down):  1.528E-02 0.000E+00
 
     Adding external electric field

     Computed dipole along edir(3) : 
        Dipole                1.1801 Ry au,          2.9995 Debye
        Dipole field          0.0022 Ry au, 
 
        Potential amp.       -0.2064 Ry
        Total length         46.3494 bohr
 

     total cpu time spent up to now is     1337.4 secs

     total energy              =   -2975.15008752 Ry
     estimated scf accuracy    <       0.00000146 Ry

     iteration # 59     ecut=    29.40 Ry     beta= 0.05
     Davidson diagonalization with overlap
     ethr =  3.61E-10,  avg # of iterations = 15.4

     negative rho (up, down):  1.526E-02 0.000E+00
 
     Adding external electric field

     Computed dipole along edir(3) : 
        Dipole                1.1801 Ry au,          2.9996 Debye
        Dipole field          0.0022 Ry au, 
 
        Potential amp.       -0.2064 Ry
        Total length         46.3494 bohr
 

     total cpu time spent up to now is     1366.1 secs

     total energy              =   -2975.15009427 Ry
     estimated scf accuracy    <       0.00000492 Ry

     iteration # 60     ecut=    29.40 Ry     beta= 0.05
     Davidson diagonalization with overlap
     ethr =  3.61E-10,  avg # of iterations = 10.8

     negative rho (up, down):  1.526E-02 0.000E+00
 
     Adding external electric field

     Computed dipole along edir(3) : 
        Dipole                1.1801 Ry au,          2.9996 Debye
        Dipole field          0.0022 Ry au, 
 
        Potential amp.       -0.2064 Ry
        Total length         46.3494 bohr
 

     total cpu time spent up to now is     1387.8 secs

     total energy              =   -2975.15010081 Ry
     estimated scf accuracy    <       0.00000102 Ry

     iteration # 61     ecut=    29.40 Ry     beta= 0.05
     Davidson diagonalization with overlap
     ethr =  2.53E-10,  avg # of iterations =  2.6

     negative rho (up, down):  1.527E-02 0.000E+00
 
     Adding external electric field

     Computed dipole along edir(3) : 
        Dipole                1.1801 Ry au,          2.9996 Debye
        Dipole field          0.0022 Ry au, 
 
        Potential amp.       -0.2064 Ry
        Total length         46.3494 bohr
 

     total cpu time spent up to now is     1402.0 secs

     total energy              =   -2975.15010650 Ry
     estimated scf accuracy    <       0.00000054 Ry

     iteration # 62     ecut=    29.40 Ry     beta= 0.05
     Davidson diagonalization with overlap
     ethr =  1.34E-10,  avg # of iterations = 16.7

     negative rho (up, down):  1.528E-02 0.000E+00
 
     Adding external electric field

     Computed dipole along edir(3) : 
        Dipole                1.1803 Ry au,          3.0001 Debye
        Dipole field          0.0022 Ry au, 
 
        Potential amp.       -0.2065 Ry
        Total length         46.3494 bohr
 

     total cpu time spent up to now is     1432.2 secs

     total energy              =   -2975.15011186 Ry
     estimated scf accuracy    <       0.00000107 Ry

     iteration # 63     ecut=    29.40 Ry     beta= 0.05
     Davidson diagonalization with overlap
     ethr =  1.34E-10,  avg # of iterations =  6.2

     negative rho (up, down):  1.527E-02 0.000E+00
 
     Adding external electric field

     Computed dipole along edir(3) : 
        Dipole                1.1804 Ry au,          3.0002 Debye
        Dipole field          0.0022 Ry au, 
 
        Potential amp.       -0.2065 Ry
        Total length         46.3494 bohr
 

     total cpu time spent up to now is     1447.8 secs

     total energy              =   -2975.15011641 Ry
     estimated scf accuracy    <       0.00000064 Ry

     iteration # 64     ecut=    29.40 Ry     beta= 0.05
     Davidson diagonalization with overlap
     ethr =  1.34E-10,  avg # of iterations = 10.4

     negative rho (up, down):  1.527E-02 0.000E+00
 
     Adding external electric field

     Computed dipole along edir(3) : 
        Dipole                1.1804 Ry au,          3.0003 Debye
        Dipole field          0.0022 Ry au, 
 
        Potential amp.       -0.2065 Ry
        Total length         46.3494 bohr
 

     total cpu time spent up to now is     1466.1 secs

     total energy              =   -2975.15012061 Ry
     estimated scf accuracy    <       0.00000021 Ry

     iteration # 65     ecut=    29.40 Ry     beta= 0.05
     Davidson diagonalization with overlap
     ethr =  5.29E-11,  avg # of iterations = 10.9

     negative rho (up, down):  1.522E-02 0.000E+00
 
     Adding external electric field

     Computed dipole along edir(3) : 
        Dipole                1.1803 Ry au,          3.0000 Debye
        Dipole field          0.0022 Ry au, 
 
        Potential amp.       -0.2065 Ry
        Total length         46.3494 bohr
 

     total cpu time spent up to now is     1488.2 secs

     total energy              =   -2975.15012451 Ry
     estimated scf accuracy    <       0.00000015 Ry

     iteration # 66     ecut=    29.40 Ry     beta= 0.05
     Davidson diagonalization with overlap
     ethr =  3.64E-11,  avg # of iterations =  7.3

     negative rho (up, down):  1.521E-02 0.000E+00
 
     Adding external electric field

     Computed dipole along edir(3) : 
        Dipole                1.1805 Ry au,          3.0005 Debye
        Dipole field          0.0022 Ry au, 
 
        Potential amp.       -0.2065 Ry
        Total length         46.3494 bohr
 

     total cpu time spent up to now is     1504.7 secs

     total energy              =   -2975.15012795 Ry
     estimated scf accuracy    <       0.00000009 Ry

     iteration # 67     ecut=    29.40 Ry     beta= 0.05
     Davidson diagonalization with overlap
     ethr =  2.15E-11,  avg # of iterations = 11.1

     negative rho (up, down):  1.519E-02 0.000E+00
 
     Adding external electric field

     Computed dipole along edir(3) : 
        Dipole                1.1805 Ry au,          3.0005 Debye
        Dipole field          0.0022 Ry au, 
 
        Potential amp.       -0.2065 Ry
        Total length         46.3494 bohr
 

     total cpu time spent up to now is     1524.6 secs

     total energy              =   -2975.15013107 Ry
     estimated scf accuracy    <       0.00000010 Ry

     iteration # 68     ecut=    29.40 Ry     beta= 0.05
     Davidson diagonalization with overlap
     ethr =  2.15E-11,  avg # of iterations =  2.1

     negative rho (up, down):  1.524E-02 0.000E+00
 
     Adding external electric field

     Computed dipole along edir(3) : 
        Dipole                1.1797 Ry au,          2.9986 Debye
        Dipole field          0.0022 Ry au, 
 
        Potential amp.       -0.2064 Ry
        Total length         46.3494 bohr
 

     total cpu time spent up to now is     1538.4 secs

     End of self-consistent calculation

          k = 0.0000 0.0000 0.0000 ( 18029 PWs)   bands (ev):

   -55.4169 -55.3346 -55.3005 -55.2297 -55.1916 -55.1807 -55.1660 -55.1647
   -55.1498 -55.1302 -55.1019 -55.0308 -55.0230 -54.9964 -54.3290 -54.2949
   -31.8225 -31.7723 -31.7435 -31.7156 -31.6689 -31.6684 -31.6334 -31.6243
   -31.6208 -31.6086 -31.5799 -31.5421 -31.5045 -31.4875 -31.4715 -31.4639
   -31.4471 -31.4443 -31.4430 -31.4087 -31.3920 -31.3807 -31.3751 -31.3712
   -31.3667 -31.3604 -31.3571 -31.3354 -31.3296 -31.3263 -31.3261 -31.3027
   -31.2946 -31.2908 -31.2787 -31.2545 -31.2365 -31.2328 -31.2105 -31.2003
   -31.1972 -31.1937 -30.7360 -30.6470 -30.6247 -30.5533 -30.4667 -30.3551
   -19.3740 -16.2731 -16.0499 -15.8843 -15.6688 -15.6227 -15.5323 -15.3701
   -15.2579 -15.1876 -15.0787 -15.0034 -14.9289 -14.8946 -14.8855 -14.8719
   -14.8665 -14.8155 -14.8066 -14.7928 -14.7824 -14.7722 -14.7648 -14.7310
   -14.6969 -14.6485 -14.6101 -14.4935 -14.4550 -14.4185 -14.2951 -14.2754
   -12.8277 -12.7109 -10.1880  -7.8206  -6.5643  -5.3907  -4.1890  -3.8050
    -3.6666  -3.3925  -3.2840  -3.2525  -3.1890  -3.1575  -2.9030  -2.8036
    -2.7847  -2.6484  -2.5297  -2.4831  -2.4225  -2.3519  -2.3205  -2.2975
    -2.2722  -2.2158  -2.1521  -2.1383  -2.1246  -2.0482  -2.0437  -1.9692
    -1.9202  -1.9075  -1.8025  -1.7300  -1.6987  -1.6855  -1.6740  -1.6574
    -1.6325  -1.6255  -1.6019  -1.5394  -1.4740  -1.4648  -1.3996  -1.3734
    -1.1022  -1.0370  -0.9720  -0.9424  -0.8659  -0.8267  -0.8099  -0.7862
    -0.7430  -0.7399  -0.7180  -0.6574  -0.5595  -0.5055  -0.4750  -0.4552
    -0.4026  -0.2889  -0.2683  -0.1580  -0.1293  -0.1221  -0.0831  -0.0350
     0.0064   0.0458   0.1081   0.1777   0.2278   0.2787   0.3112   0.3370
     0.3774   0.4128   0.4730   0.5506   0.5745   0.6189   0.6491   0.6692
     0.6787   0.7359   0.7523   0.8403   0.9210   0.9329   1.0319   1.0609
     1.1121   1.2974   1.3341   1.6334   1.6798   1.6976   1.8861   2.2673
     2.3137   3.7326   3.8570   3.8870   3.8972   3.9360   3.9694   4.0250
     4.2199   4.2311   4.3431   4.4234

          k = 0.0000 0.0419 0.0000 ( 17933 PWs)   bands (ev):

   -55.4164 -55.3295 -55.3054 -55.2252 -55.1961 -55.1796 -55.1663 -55.1597
   -55.1467 -55.1351 -55.1049 -55.0264 -55.0240 -55.0007 -54.3239 -54.2998
   -31.7685 -31.7319 -31.7116 -31.6658 -31.6604 -31.6268 -31.6198 -31.6195
   -31.5884 -31.5803 -31.5733 -31.5126 -31.5013 -31.4967 -31.4736 -31.4570
   -31.4506 -31.4491 -31.4393 -31.4102 -31.4060 -31.4035 -31.3874 -31.3853
   -31.3812 -31.3767 -31.3762 -31.3497 -31.3391 -31.3325 -31.3304 -31.3232
   -31.3102 -31.3008 -31.2968 -31.2963 -31.2557 -31.2413 -31.2327 -31.2280
   -31.2091 -31.1996 -30.6818 -30.6435 -30.6277 -30.5407 -30.4793 -30.4122
   -19.3721 -16.2609 -15.9409 -15.7778 -15.6097 -15.5431 -15.4287 -15.2934
   -15.2001 -15.1608 -15.1207 -15.0788 -14.9903 -14.9381 -14.8966 -14.8623
   -14.8503 -14.8276 -14.8207 -14.8147 -14.8063 -14.7831 -14.7632 -14.7582
   -14.7131 -14.6443 -14.6199 -14.5497 -14.5149 -14.4769 -14.3683 -14.3239
   -12.8316 -12.7504 -10.1760  -7.8233  -6.5648  -5.3997  -4.1693  -3.8099
    -3.6644  -3.2105  -3.1201  -3.0771  -3.0674  -3.0083  -2.7800  -2.6761
    -2.6143  -2.5022  -2.4617  -2.4298  -2.4091  -2.3593  -2.3426  -2.3171
    -2.2754  -2.2405  -2.2364  -2.2273  -2.1136  -2.0942  -2.0610  -2.0602
    -2.0071  -1.9759  -1.9483  -1.9285  -1.9062  -1.8705  -1.8563  -1.7665
    -1.7260  -1.6501  -1.6243  -1.5273  -1.4298  -1.3537  -1.1996  -1.1761
    -1.1198  -1.1053  -1.0050  -0.9016  -0.8685  -0.7949  -0.7233  -0.6669
    -0.6213  -0.5936  -0.5754  -0.5443  -0.4897  -0.4243  -0.3464  -0.3240
    -0.2928  -0.2763  -0.2373  -0.1949  -0.1835  -0.1441  -0.1173  -0.0797
    -0.0533   0.0300   0.0577   0.0873   0.1461   0.1903   0.2174   0.2839
     0.3292   0.3924   0.4257   0.4495   0.4595   0.4833   0.5251   0.5940
     0.6928   0.7103   0.7435   0.8273   0.8583   0.8949   0.9311   0.9553
     0.9876   1.0557   1.1982   1.3112   1.5674   1.8844   1.9735   2.2226
     2.2251   3.8528   3.9507   3.9834   4.0393   4.1296   4.1418   4.1754
     4.2015   4.3105   4.3369   4.3554

          k = 0.0000-0.0839 0.0000 ( 17884 PWs)   bands (ev):

   -55.4160 -55.3177 -55.3172 -55.2184 -55.2028 -55.1785 -55.1667 -55.1484
   -55.1470 -55.1422 -55.1086 -55.0250 -55.0195 -55.0076 -54.3122 -54.3114
   -31.6826 -31.6710 -31.6632 -31.6364 -31.6360 -31.6220 -31.6099 -31.6094
   -31.5685 -31.5332 -31.5178 -31.4960 -31.4869 -31.4633 -31.4570 -31.4524
   -31.4430 -31.4405 -31.4401 -31.4395 -31.4327 -31.4287 -31.4271 -31.4235
   -31.4135 -31.4099 -31.4060 -31.4021 -31.3678 -31.3460 -31.3422 -31.3256
   -31.3246 -31.3211 -31.3195 -31.2991 -31.2869 -31.2853 -31.2464 -31.2332
   -31.2074 -31.1993 -30.6357 -30.6351 -30.5493 -30.5483 -30.5103 -30.5097
   -19.3702 -16.2519 -15.7814 -15.5959 -15.4935 -15.4637 -15.3083 -15.2870
   -15.2501 -15.2249 -15.1241 -15.0965 -15.0604 -15.0105 -14.9512 -14.9161
   -14.8949 -14.8430 -14.8275 -14.8156 -14.7380 -14.7343 -14.7198 -14.6958
   -14.6830 -14.6684 -14.6508 -14.6314 -14.6038 -14.5611 -14.4557 -14.4002
   -12.8134 -12.8128 -10.1646  -7.8261  -6.5650  -5.4072  -4.1512  -3.8164
    -3.6590  -2.8575  -2.8144  -2.8073  -2.7250  -2.7008  -2.6667  -2.6468
    -2.6385  -2.6331  -2.5563  -2.5280  -2.4262  -2.4169  -2.3952  -2.3776
    -2.3561  -2.3348  -2.3205  -2.2664  -2.2113  -2.2087  -2.1792  -2.1660
    -2.0800  -2.0691  -2.0225  -1.9523  -1.9044  -1.8546  -1.7513  -1.6422
    -1.6215  -1.5140  -1.4955  -1.4768  -1.4246  -1.3728  -1.1950  -1.1186
    -1.0527  -0.9970  -0.9805  -0.8612  -0.8221  -0.7969  -0.7765  -0.7686
    -0.7375  -0.7082  -0.6935  -0.6528  -0.5355  -0.5200  -0.5051  -0.4752
    -0.3913  -0.1959  -0.0826  -0.0624  -0.0514   0.0015   0.0308   0.0335
     0.0587   0.0810   0.1353   0.1400   0.1728   0.1858   0.1992   0.2468
     0.2719   0.3050   0.3512   0.3699   0.4049   0.4355   0.4506   0.4610
     0.5290   0.5627   0.5740   0.6272   0.6914   0.8141   0.8541   0.8914
     0.8940   1.0448   1.1341   1.3128   1.3509   2.0252   2.0339   2.1578
     2.1588   3.7976   4.1537   4.1901   4.2050   4.2223   4.2460   4.2478
     4.3016   4.3282   4.3652   4.4144

          k = 0.0380 0.0000 0.0000 ( 17913 PWs)   bands (ev):

   -55.4168 -55.3345 -55.3004 -55.2296 -55.1915 -55.1805 -55.1660 -55.1643
   -55.1500 -55.1301 -55.1018 -55.0308 -55.0229 -54.9963 -54.3288 -54.2948
   -31.8234 -31.7724 -31.7457 -31.7176 -31.6687 -31.6649 -31.6383 -31.6241
   -31.6202 -31.6088 -31.5798 -31.5425 -31.5043 -31.4844 -31.4623 -31.4469
   -31.4441 -31.4440 -31.4428 -31.4029 -31.3919 -31.3804 -31.3744 -31.3667
   -31.3642 -31.3590 -31.3571 -31.3457 -31.3404 -31.3294 -31.3257 -31.3027
   -31.2963 -31.2907 -31.2774 -31.2550 -31.2379 -31.2326 -31.2195 -31.1973
   -31.1971 -31.1936 -30.7355 -30.6504 -30.6227 -30.5531 -30.4666 -30.3549
   -19.3735 -16.2631 -15.9801 -15.8082 -15.6645 -15.5551 -15.4463 -15.3834
   -15.2720 -15.1908 -15.1415 -15.1050 -15.0359 -14.9977 -14.9910 -14.9252
   -14.8727 -14.8291 -14.8151 -14.8056 -14.7846 -14.7624 -14.6656 -14.6419
   -14.5896 -14.5877 -14.5583 -14.5471 -14.5259 -14.4899 -14.2920 -14.2745
   -12.8245 -12.7106 -10.1856  -7.8021  -6.5624  -5.4233  -4.1762  -3.8166
    -3.6321  -3.2698  -3.0932  -3.0185  -2.9855  -2.9760  -2.8696  -2.8176
    -2.7829  -2.7227  -2.6829  -2.6378  -2.5582  -2.4318  -2.4257  -2.3308
    -2.2706  -2.1439  -2.0835  -2.0549  -2.0233  -1.9911  -1.9346  -1.9212
    -1.8622  -1.7905  -1.7481  -1.7234  -1.6880  -1.6846  -1.6615  -1.6246
    -1.6133  -1.5848  -1.5725  -1.4758  -1.3966  -1.3050  -1.2615  -1.1618
    -1.1310  -1.0870  -1.0317  -0.9655  -0.9279  -0.8993  -0.8574  -0.8014
    -0.7774  -0.7433  -0.7270  -0.6891  -0.6569  -0.6283  -0.5272  -0.5085
    -0.4677  -0.3779  -0.3057  -0.2270  -0.1901  -0.0897  -0.0629  -0.0125
     0.0109   0.0575   0.0779   0.1263   0.1911   0.2595   0.2780   0.3106
     0.3571   0.3742   0.4111   0.4419   0.4924   0.5086   0.5223   0.5663
     0.6433   0.6651   0.7487   0.8238   0.8361   0.8710   0.8980   0.9174
     1.0015   1.1870   1.3337   1.5479   1.6406   1.7095   1.8555   2.1556
     2.2317   3.7443   3.8352   3.8730   3.9928   4.1321   4.1431   4.1983
     4.2060   4.2178   4.2368   4.2773

          k = 0.0380 0.0419 0.0000 ( 17878 PWs)   bands (ev):

   -55.4164 -55.3295 -55.3054 -55.2251 -55.1960 -55.1795 -55.1664 -55.1593
   -55.1469 -55.1350 -55.1049 -55.0264 -55.0239 -55.0006 -54.3238 -54.2998
   -31.7694 -31.7322 -31.7137 -31.6625 -31.6622 -31.6270 -31.6194 -31.6193
   -31.5887 -31.5856 -31.5737 -31.5133 -31.5014 -31.4966 -31.4710 -31.4496
   -31.4484 -31.4392 -31.4339 -31.4130 -31.4056 -31.3944 -31.3879 -31.3817
   -31.3764 -31.3745 -31.3729 -31.3501 -31.3440 -31.3433 -31.3319 -31.3293
   -31.3075 -31.3018 -31.3008 -31.2966 -31.2555 -31.2423 -31.2338 -31.2280
   -31.2156 -31.1992 -30.6815 -30.6462 -30.6267 -30.5405 -30.4794 -30.4121
   -19.3717 -16.2543 -15.8841 -15.7103 -15.6052 -15.4581 -15.3612 -15.2910
   -15.2165 -15.1565 -15.1403 -15.1136 -15.0467 -15.0064 -14.9846 -14.8936
   -14.8822 -14.8644 -14.8532 -14.8224 -14.8038 -14.7837 -14.6868 -14.6720
   -14.6630 -14.6475 -14.6134 -14.5951 -14.5773 -14.5311 -14.3660 -14.3237
   -12.8294 -12.7506 -10.1733  -7.8038  -6.5616  -5.4312  -4.1639  -3.8239
    -3.6372  -3.1096  -2.9448  -2.8617  -2.8417  -2.8023  -2.7328  -2.6790
    -2.6175  -2.5641  -2.5236  -2.4570  -2.3844  -2.3666  -2.2788  -2.2685
    -2.2385  -2.2293  -2.1739  -2.1505  -2.1128  -2.0713  -2.0460  -2.0329
    -1.9996  -1.9723  -1.9564  -1.9126  -1.8789  -1.8161  -1.7743  -1.7294
    -1.6721  -1.6196  -1.5410  -1.4609  -1.3700  -1.3317  -1.3022  -1.1668
    -1.1084  -1.0289  -0.9973  -0.9356  -0.9111  -0.8274  -0.7564  -0.7236
    -0.6902  -0.6717  -0.6450  -0.5990  -0.5520  -0.5171  -0.4921  -0.4405
    -0.3762  -0.3263  -0.3083  -0.2666  -0.2068  -0.1978  -0.1517  -0.1193
    -0.0723  -0.0466  -0.0195   0.0168   0.0488   0.0941   0.1766   0.2015
     0.2202   0.2669   0.3041   0.3466   0.3995   0.4388   0.4755   0.5791
     0.6136   0.6792   0.7584   0.8017   0.8458   0.8777   0.9302   0.9868
     1.0561   1.0824   1.1766   1.2745   1.5057   1.8947   1.9767   2.1451
     2.2061   3.8323   3.9381   3.9662   4.0379   4.1770   4.2083   4.2239
     4.2766   4.3144   4.3448   4.3763

          k = 0.0380-0.0839 0.0000 ( 17916 PWs)   bands (ev):

   -55.4160 -55.3177 -55.3172 -55.2184 -55.2028 -55.1784 -55.1668 -55.1479
   -55.1469 -55.1428 -55.1087 -55.0251 -55.0195 -55.0076 -54.3122 -54.3115
   -31.6837 -31.6728 -31.6596 -31.6371 -31.6368 -31.6218 -31.6099 -31.6094
   -31.5686 -31.5353 -31.5198 -31.4964 -31.4873 -31.4725 -31.4625 -31.4540
   -31.4469 -31.4450 -31.4431 -31.4387 -31.4383 -31.4273 -31.4189 -31.4041
   -31.4032 -31.3988 -31.3962 -31.3906 -31.3677 -31.3465 -31.3451 -31.3311
   -31.3255 -31.3244 -31.3210 -31.3105 -31.2865 -31.2853 -31.2465 -31.2366
   -31.2109 -31.2026 -30.6367 -30.6361 -30.5493 -30.5482 -30.5103 -30.5097
   -19.3698 -16.2480 -15.7678 -15.5486 -15.4400 -15.4134 -15.2662 -15.2388
   -15.2056 -15.1978 -15.1379 -15.0607 -15.0528 -15.0183 -14.9689 -14.9659
   -14.9120 -14.9026 -14.8281 -14.8096 -14.7744 -14.7652 -14.7292 -14.7220
   -14.7176 -14.7022 -14.6969 -14.6790 -14.6546 -14.5422 -14.4474 -14.3989
   -12.8132 -12.8125 -10.1618  -7.8067  -6.5607  -5.4402  -4.1491  -3.8215
    -3.6413  -2.8446  -2.7312  -2.6140  -2.5950  -2.5395  -2.5025  -2.4922
    -2.4574  -2.4469  -2.4400  -2.4357  -2.3881  -2.3703  -2.3171  -2.2879
    -2.2809  -2.2588  -2.2454  -2.2348  -2.1977  -2.1699  -2.1296  -2.1066
    -2.0487  -2.0389  -2.0088  -1.9589  -1.9365  -1.9297  -1.7272  -1.6244
    -1.5409  -1.5295  -1.5121  -1.4506  -1.3620  -1.3133  -1.2289  -1.1916
    -1.1598  -1.1328  -1.0993  -1.0704  -1.0441  -1.0109  -1.0054  -0.8809
    -0.8640  -0.7692  -0.6958  -0.6499  -0.5987  -0.5549  -0.5198  -0.4931
    -0.4103  -0.3120  -0.2770  -0.2025  -0.1645  -0.1367  -0.1066  -0.0801
    -0.0653  -0.0470  -0.0114   0.0320   0.0538   0.0805   0.1032   0.1349
     0.1689   0.1985   0.2923   0.3111   0.3594   0.4645   0.4744   0.5617
     0.6000   0.6562   0.7527   0.7626   0.7866   0.8638   0.8879   0.9337
     0.9510   1.0383   1.1225   1.2937   1.3049   2.0384   2.0467   2.1478
     2.1489   3.7926   4.0298   4.1586   4.1767   4.2017   4.2201   4.2454
     4.3129   4.3369   4.3922   4.4046

          k = 0.0380-0.0419 0.0000 ( 17876 PWs)   bands (ev):

   -55.4164 -55.3295 -55.3054 -55.2251 -55.1960 -55.1794 -55.1664 -55.1593
   -55.1469 -55.1350 -55.1049 -55.0264 -55.0239 -55.0006 -54.3238 -54.2998
   -31.7693 -31.7321 -31.7136 -31.6626 -31.6623 -31.6269 -31.6194 -31.6192
   -31.5887 -31.5856 -31.5737 -31.5133 -31.5013 -31.4966 -31.4710 -31.4497
   -31.4483 -31.4392 -31.4339 -31.4157 -31.4056 -31.3911 -31.3880 -31.3817
   -31.3764 -31.3744 -31.3729 -31.3501 -31.3439 -31.3437 -31.3319 -31.3293
   -31.3077 -31.3018 -31.3007 -31.2966 -31.2555 -31.2416 -31.2347 -31.2280
   -31.2156 -31.1992 -30.6815 -30.6462 -30.6267 -30.5405 -30.4794 -30.4121
   -19.3716 -16.2554 -15.8837 -15.7102 -15.6063 -15.4614 -15.3620 -15.2907
   -15.2157 -15.1554 -15.1339 -15.1149 -15.0387 -15.0069 -14.9849 -14.8976
   -14.8830 -14.8646 -14.8518 -14.8203 -14.7995 -14.7841 -14.6880 -14.6767
   -14.6676 -14.6495 -14.6130 -14.5956 -14.5777 -14.5312 -14.3626 -14.3249
   -12.8294 -12.7507 -10.1735  -7.8049  -6.5618  -5.4337  -4.1600  -3.8141
    -3.6397  -3.1094  -2.9451  -2.8642  -2.8506  -2.8017  -2.7312  -2.6780
    -2.6134  -2.5555  -2.5284  -2.4552  -2.3860  -2.3665  -2.2767  -2.2662
    -2.2434  -2.2261  -2.1754  -2.1434  -2.1111  -2.0696  -2.0489  -2.0326
    -1.9964  -1.9722  -1.9493  -1.9177  -1.8811  -1.8147  -1.7667  -1.7448
    -1.6776  -1.6063  -1.5379  -1.4607  -1.3718  -1.3288  -1.2956  -1.1805
    -1.0953  -1.0402  -1.0268  -0.9726  -0.8964  -0.8609  -0.7612  -0.7127
    -0.6833  -0.6587  -0.6331  -0.5792  -0.5538  -0.5098  -0.4837  -0.4479
    -0.3824  -0.3395  -0.3143  -0.2619  -0.2061  -0.1905  -0.1561  -0.1048
    -0.0706  -0.0443  -0.0136   0.0197   0.0579   0.0793   0.1415   0.1852
     0.2169   0.2615   0.3200   0.3782   0.3918   0.4437   0.4709   0.5981
     0.6219   0.6737   0.7606   0.8122   0.8443   0.8815   0.9288   0.9811
     1.0449   1.0808   1.1764   1.2747   1.5066   1.8947   1.9767   2.1449
     2.2068   3.8359   3.9386   3.9648   4.0179   4.1764   4.2094   4.2264
     4.2675   4.3139   4.3438   4.3764

          k =-0.0760-0.0000 0.0000 ( 17886 PWs)   bands (ev):

   -55.4168 -55.3344 -55.3004 -55.2295 -55.1915 -55.1804 -55.1661 -55.1639
   -55.1503 -55.1301 -55.1018 -55.0307 -55.0228 -54.9963 -54.3288 -54.2948
   -31.8243 -31.7728 -31.7480 -31.7197 -31.6689 -31.6612 -31.6429 -31.6240
   -31.6196 -31.6091 -31.5798 -31.5430 -31.5041 -31.4814 -31.4528 -31.4467
   -31.4439 -31.4428 -31.3986 -31.3960 -31.3923 -31.3919 -31.3794 -31.3738
   -31.3658 -31.3583 -31.3581 -31.3571 -31.3487 -31.3293 -31.3255 -31.3026
   -31.2980 -31.2906 -31.2763 -31.2560 -31.2393 -31.2324 -31.2292 -31.1972
   -31.1951 -31.1935 -30.7351 -30.6537 -30.6214 -30.5530 -30.4665 -30.3549
   -19.3730 -16.2551 -15.8775 -15.7138 -15.6957 -15.4651 -15.3632 -15.3515
   -15.2697 -15.2173 -15.1885 -15.1663 -15.1188 -15.0797 -15.0633 -15.0384
   -14.8673 -14.8480 -14.8375 -14.7952 -14.7716 -14.7251 -14.6839 -14.6711
   -14.6372 -14.6024 -14.5233 -14.5119 -14.4994 -14.4665 -14.2894 -14.2753
   -12.8214 -12.7103 -10.1833  -7.7835  -6.5603  -5.4567  -4.1664  -3.8226
    -3.6024  -3.2394  -3.0012  -2.8998  -2.8623  -2.8138  -2.7945  -2.7677
    -2.6788  -2.6783  -2.6223  -2.6071  -2.6036  -2.5914  -2.3114  -2.3049
    -2.1744  -2.0722  -2.0174  -1.9631  -1.9480  -1.9303  -1.8587  -1.8417
    -1.8096  -1.7995  -1.7472  -1.7180  -1.7166  -1.6846  -1.6327  -1.6009
    -1.5819  -1.5728  -1.5074  -1.5049  -1.4558  -1.4093  -1.2714  -1.1412
    -1.0913  -0.9839  -0.9637  -0.9474  -0.9361  -0.9288  -0.9160  -0.8575
    -0.8170  -0.8066  -0.7921  -0.7389  -0.7134  -0.6673  -0.5851  -0.5706
    -0.5419  -0.4561  -0.4432  -0.2964  -0.2545  -0.1853  -0.1140  -0.0449
     0.0242   0.0363   0.0548   0.0885   0.1172   0.1750   0.1795   0.2369
     0.3155   0.3237   0.3534   0.3886   0.4143   0.4816   0.4859   0.5560
     0.5706   0.5821   0.6521   0.7024   0.8398   0.8514   0.8831   0.9516
     1.0827   1.2371   1.2626   1.3424   1.6463   1.7306   1.8310   2.0278
     2.1767   3.7456   3.7897   3.8478   4.0317   4.0579   4.0790   4.1343
     4.1381   4.2176   4.2859   4.3192

          k =-0.0760 0.0419 0.0000 ( 17914 PWs)   bands (ev):

   -55.4164 -55.3295 -55.3054 -55.2251 -55.1960 -55.1794 -55.1665 -55.1589
   -55.1472 -55.1351 -55.1050 -55.0264 -55.0239 -55.0007 -54.3238 -54.2998
   -31.7704 -31.7325 -31.7160 -31.6647 -31.6590 -31.6273 -31.6193 -31.6190
   -31.5910 -31.5888 -31.5740 -31.5143 -31.5016 -31.4966 -31.4688 -31.4493
   -31.4406 -31.4390 -31.4173 -31.4055 -31.4000 -31.3892 -31.3831 -31.3815
   -31.3800 -31.3755 -31.3708 -31.3614 -31.3516 -31.3493 -31.3316 -31.3284
   -31.3099 -31.3063 -31.3009 -31.2967 -31.2554 -31.2431 -31.2355 -31.2281
   -31.2230 -31.1989 -30.6812 -30.6491 -30.6260 -30.5405 -30.4794 -30.4121
   -19.3712 -16.2494 -15.8148 -15.6220 -15.6022 -15.3718 -15.2882 -15.2770
   -15.2212 -15.1550 -15.1318 -15.1210 -15.0980 -15.0897 -15.0529 -14.9889
   -14.8859 -14.8800 -14.8756 -14.8335 -14.8113 -14.7860 -14.6964 -14.6878
   -14.6849 -14.6430 -14.6196 -14.6056 -14.5652 -14.5324 -14.3605 -14.3265
   -12.8272 -12.7510 -10.1709  -7.7851  -6.5584  -5.4662  -4.1562  -3.8264
    -3.6127  -3.0886  -2.8633  -2.7367  -2.6520  -2.6095  -2.5790  -2.5519
    -2.5306  -2.4556  -2.4455  -2.3928  -2.3890  -2.3107  -2.2963  -2.2823
    -2.2291  -2.1907  -2.1274  -2.1066  -2.0711  -2.0246  -2.0020  -1.9642
    -1.9510  -1.9301  -1.8917  -1.8711  -1.8674  -1.8234  -1.8058  -1.7499
    -1.5651  -1.5302  -1.4910  -1.4055  -1.3558  -1.3366  -1.3137  -1.1677
    -1.1288  -1.0658  -1.0164  -0.9753  -0.9280  -0.8943  -0.8624  -0.8164
    -0.7651  -0.7112  -0.6989  -0.6362  -0.6140  -0.6099  -0.5802  -0.5714
    -0.5376  -0.5040  -0.4566  -0.4228  -0.3803  -0.3377  -0.2833  -0.2494
    -0.1678  -0.1207  -0.0914  -0.0721  -0.0274   0.0006   0.0445   0.1017
     0.1751   0.2541   0.3082   0.3661   0.4274   0.4503   0.4691   0.5077
     0.5390   0.6619   0.7863   0.8153   0.9270   0.9762   0.9905   1.0722
     1.1210   1.1340   1.1534   1.2490   1.3289   1.9087   1.9786   2.0677
     2.1954   3.8073   3.9320   3.9635   3.9956   4.0821   4.1441   4.1603
     4.2046   4.2544   4.3782   4.3962

          k =-0.0760-0.0839 0.0000 ( 17948 PWs)   bands (ev):

   -55.4160 -55.3178 -55.3172 -55.2184 -55.2028 -55.1783 -55.1669 -55.1472
   -55.1469 -55.1435 -55.1088 -55.0251 -55.0195 -55.0076 -54.3122 -54.3115
   -31.6845 -31.6746 -31.6563 -31.6379 -31.6375 -31.6215 -31.6100 -31.6095
   -31.5686 -31.5373 -31.5217 -31.4966 -31.4873 -31.4790 -31.4675 -31.4545
   -31.4530 -31.4476 -31.4444 -31.4375 -31.4370 -31.4276 -31.4116 -31.4039
   -31.3996 -31.3821 -31.3679 -31.3677 -31.3613 -31.3590 -31.3540 -31.3440
   -31.3295 -31.3255 -31.3242 -31.3207 -31.2862 -31.2853 -31.2466 -31.2399
   -31.2146 -31.2061 -30.6377 -30.6371 -30.5492 -30.5482 -30.5103 -30.5097
   -19.3694 -16.2443 -15.7543 -15.4859 -15.3608 -15.3489 -15.2275 -15.2111
   -15.1486 -15.1408 -15.1111 -15.0981 -15.0874 -15.0433 -15.0144 -14.9311
   -14.9154 -14.8746 -14.8712 -14.8254 -14.8231 -14.8214 -14.7998 -14.7782
   -14.7723 -14.7471 -14.7224 -14.6842 -14.6708 -14.5335 -14.4404 -14.3984
   -12.8130 -12.8123 -10.1591  -7.7869  -6.5563  -5.4740  -4.1475  -3.8259
    -3.6239  -2.8416  -2.6987  -2.5973  -2.4873  -2.4552  -2.4066  -2.3575
    -2.3439  -2.3123  -2.2402  -2.2121  -2.1969  -2.1610  -2.1597  -2.1366
    -2.1270  -2.1071  -2.0787  -2.0590  -2.0492  -2.0427  -2.0158  -2.0003
    -1.9860  -1.9607  -1.9328  -1.9119  -1.8985  -1.8907  -1.8402  -1.7348
    -1.6461  -1.5672  -1.5309  -1.5052  -1.4925  -1.4462  -1.4329  -1.4209
    -1.3858  -1.3622  -1.2273  -1.2057  -1.0676  -1.0126  -0.9788  -0.9329
    -0.8790  -0.8704  -0.8533  -0.8137  -0.7741  -0.6416  -0.6102  -0.5753
    -0.5076  -0.4445  -0.3573  -0.3431  -0.3188  -0.3017  -0.2661  -0.2467
    -0.2326  -0.2034  -0.1726  -0.0951  -0.0611  -0.0489  -0.0302   0.0690
     0.1697   0.2075   0.2711   0.3415   0.3831   0.4070   0.4373   0.6217
     0.6514   0.7948   0.8035   0.8080   0.9532   0.9534   1.0019   1.0508
     1.0807   1.1230   1.1519   1.1666   1.2017   2.0564   2.0648   2.1339
     2.1341   3.7690   3.9347   4.1577   4.1803   4.2387   4.2499   4.2809
     4.3065   4.3358   4.3764   4.3960

     the Fermi energy is     3.7824 ev

!    total energy              =   -2975.15015939 Ry
     estimated scf accuracy    <       0.00000004 Ry
     smearing contrib. (-TS)   =      -0.03329058 Ry
     internal energy E=F+TS    =   -2975.11686881 Ry

     The total energy is F=E-TS. E is the sum of the following terms:
     one-electron contribution =  -23379.79395941 Ry
     hartree contribution      =   11787.15065429 Ry
     xc contribution           =    -494.90351872 Ry
     ewald contribution        =    9112.42732855 Ry
     electric field correction =       0.00262649 Ry

     convergence has been achieved in  68 iterations

     Forces acting on atoms (cartesian axes, Ry/au):

     atom    1 type  1   force =     0.00028908   -0.00019737    0.09347908
     atom    2 type  1   force =    -0.00005496    0.00053440   -0.17633175
     atom    3 type  2   force =     0.00004444   -0.00029426   -0.02070079
     atom    4 type  2   force =     0.00001634   -0.00221908    0.05684982
     atom    5 type  2   force =    -0.00785046   -0.00263210    0.00513475
     atom    6 type  2   force =     0.00891794   -0.00211416    0.00325152
     atom    7 type  1   force =    -0.00078204   -0.00333129    0.00576721
     atom    8 type  1   force =     0.00086318    0.00107674   -0.00173139
     atom    9 type  2   force =    -0.00018615    0.00014887    0.00006983
     atom   10 type  2   force =    -0.00341884    0.00105858   -0.00644761
     atom   11 type  2   force =     0.00019138   -0.00013392    0.00031025
     atom   12 type  2   force =    -0.00011994   -0.00022976    0.00003185
     atom   13 type  1   force =     0.00000771   -0.00004686   -0.00020622
     atom   14 type  1   force =     0.00053515   -0.00037027   -0.00026102
     atom   15 type  2   force =    -0.00002957   -0.00100819   -0.00045946
     atom   16 type  2   force =     0.00020951    0.00061484    0.00084447
     atom   17 type  2   force =    -0.00124640    0.00040531   -0.00051372
     atom   18 type  2   force =     0.00140069   -0.00010656   -0.00062816
     atom   19 type  1   force =     0.00005535    0.00054387   -0.00002693
     atom   20 type  1   force =     0.00041943    0.00022468   -0.00053619
     atom   21 type  2   force =     0.00011581    0.00005295    0.10361022
     atom   22 type  2   force =     0.00010337    0.00000298    0.00064719
     atom   23 type  2   force =    -0.07137717   -0.00017196   -0.02701721
     atom   24 type  2   force =     0.07137345    0.00027840   -0.02705059
     atom   25 type  1   force =     0.00007271   -0.00017345    0.09323738
     atom   26 type  1   force =     0.00008024   -0.00126528   -0.17654317
     atom   27 type  2   force =     0.00007787   -0.00015312   -0.01947075
     atom   28 type  2   force =     0.00001939   -0.00060495    0.05221537
     atom   29 type  2   force =    -0.00742180    0.00176497    0.00489414
     atom   30 type  2   force =     0.00835192    0.00235170    0.00299614
     atom   31 type  1   force =    -0.00097999    0.00886684   -0.00435737
     atom   32 type  1   force =     0.00094435   -0.00222547   -0.00239560
     atom   33 type  2   force =    -0.00022363   -0.00134766   -0.00063132
     atom   34 type  2   force =    -0.00214503   -0.00210515   -0.00765043
     atom   35 type  2   force =    -0.00001576    0.00016695    0.00026606
     atom   36 type  2   force =     0.00017877    0.00016202    0.00020729
     atom   37 type  1   force =     0.00003644   -0.00030118    0.00014351
     atom   38 type  1   force =     0.00034786    0.00046415    0.00018530
     atom   39 type  2   force =    -0.00000608    0.00074892   -0.00018630
     atom   40 type  2   force =     0.00021327   -0.00016307    0.00040186
     atom   41 type  2   force =    -0.00049827   -0.00003506    0.00030227
     atom   42 type  2   force =     0.00076780   -0.00033264   -0.00003209
     atom   43 type  1   force =     0.00036801   -0.00050856   -0.00011669
     atom   44 type  1   force =     0.00019793    0.00092750    0.00022448
     atom   45 type  2   force =     0.00010029   -0.00009479    0.10337125
     atom   46 type  2   force =    -0.07142100   -0.00003793   -0.02705604
     atom   47 type  2   force =     0.07139667    0.00038034   -0.02708868
     atom   48 type  3   force =    -0.00084656   -0.00004265   -0.00008352
     atom   49 type  3   force =     0.00040934    0.00056936    0.00040937
     atom   50 type  4   force =     0.00046695    0.00036865    0.00006730
     atom   51 type  5   force =     0.00051061   -0.00092611   -0.00049022
     atom   52 type  5   force =    -0.00006894    0.00009251   -0.00011820
     atom   53 type  5   force =    -0.00017360    0.00047740    0.00002137
     atom   54 type  5   force =    -0.00012226    0.00022978   -0.00036237
     atom   55 type  5   force =     0.00000042    0.00032246    0.00051058
     atom   56 type  2   force =    -0.00025512    0.00071226   -0.00044037
     atom   57 type  5   force =     0.00015991   -0.00037457   -0.00051573

     Total force =     0.363124     Total SCF correction =     0.000631
  @ DRIVER MODE: Message from server: STATUS
  @ DRIVER MODE: Message from server: GETFORCE
  @ DRIVER MODE: Returning v,forces,stress,ensemble 

     Writing output data file ./calc.save/
  @ DRIVER MODE: Message from server: EXIT
  @ DRIVE MODE: Exiting  
 
     init_run     :     13.63s CPU     14.02s WALL (       1 calls)
     electrons    :   1438.80s CPU   1469.66s WALL (       1 calls)
     forces       :      3.02s CPU      3.16s WALL (       1 calls)

     Called by init_run:
     wfcinit      :      5.96s CPU      6.14s WALL (       1 calls)
     potinit      :      6.88s CPU      6.97s WALL (       1 calls)
     hinit0       :      0.37s CPU      0.38s WALL (       1 calls)

     Called by electrons:
     c_bands      :   1234.23s CPU   1250.84s WALL (      68 calls)
     sum_band     :    139.04s CPU    145.76s WALL (      68 calls)
     v_of_rho     :     49.84s CPU     51.77s WALL (      69 calls)
     newd         :     19.76s CPU     25.21s WALL (      69 calls)
     mix_rho      :      1.80s CPU      1.90s WALL (      68 calls)
     vdW_kernel   :      5.83s CPU      5.85s WALL (       1 calls)

     Called by c_bands:
     init_us_2    :      8.18s CPU      8.24s WALL (    1380 calls)
     cegterg      :   1211.35s CPU   1227.53s WALL (     701 calls)

     Called by *egterg:
     cdiaghg      :    188.08s CPU    189.03s WALL (    6936 calls)
     h_psi        :    656.39s CPU    666.52s WALL (    6953 calls)
     s_psi        :     85.56s CPU     85.84s WALL (    6953 calls)
     g_psi        :      2.48s CPU      2.50s WALL (    6242 calls)

     Called by h_psi:
     h_psi:calbec :     80.65s CPU     81.96s WALL (    6953 calls)
     vloc_psi     :    486.28s CPU    490.88s WALL (    6953 calls)
     add_vuspsi   :     85.80s CPU     87.64s WALL (    6953 calls)

     General routines
     calbec       :    105.14s CPU    106.52s WALL (    7673 calls)
     fft          :     25.31s CPU     25.43s WALL (    4347 calls)
     ffts         :      0.18s CPU      0.19s WALL (     137 calls)
     fftw         :    537.08s CPU    542.09s WALL ( 1005596 calls)
     interpolate  :      0.53s CPU      0.53s WALL (      69 calls)
     davcio       :      0.00s CPU      2.86s WALL (      10 calls)
 
     Parallel routines
 
     PWSCF        :  24m16.19s CPU  26m38.29s WALL

 
   This run was terminated on:  13:16:11  24Sep2021            

=------------------------------------------------------------------------------=
   JOB DONE.
=------------------------------------------------------------------------------=
