
     Program PWSCF v.6.7GPU starts on  9Sep2021 at  1: 2:26 

     This program is part of the open-source Quantum ESPRESSO suite
     for quantum simulation of materials; please cite
         "P. Giannozzi et al., J. Phys.:Condens. Matter 21 395502 (2009);
         "P. Giannozzi et al., J. Phys.:Condens. Matter 29 465901 (2017);
         "P. Giannozzi et al., J. Chem. Phys. 152 154105 (2020);
          URL http://www.quantum-espresso.org", 
     in publications or presentations arising from this work. More details at
     http://www.quantum-espresso.org/quote

     Parallel version (MPI), running on    10 processors

     MPI processes distributed on     1 nodes
     R & G space division:  proc/nbgrp/npool/nimage =      10
     Reading input from /storage/home/hcoda1/3/ntian30/research/carbon/CxH_vib/CH2_calc/ads_slab/CH2NNHHH_a/out_0010/pw.inp
Warning: card &CELL ignored
Warning: card   CELL_DYNAMICS='IPI', ignored
Warning: card / ignored

     Current dimensions of program PWSCF are:
     Max number of different atomic species (ntypx) = 10
     Max number of k-points (npk) =  40000
     Max angular momentum in pseudopotentials (lmaxx) =  3
     Presently no symmetry can be used with electric field

     Message from routine cell_base_init:
     DEPRECATED: use true lattice parameter, not A to a.u. conversion factor

     **************************************************************************
     Initializing libbeef V0.1.2 with the BEEF-vdW functional.
     Citation: Wellendorff et al., PRB 85, 235149 (2012).
     **************************************************************************


     IMPORTANT: XC functional enforced from input :
     Exchange-correlation= BEEF-VDW
                           (   1   4  43  14   2   0   0)
     Any further DFT definition will be discarded
     Please, verify this is what you really want


     Subspace diagonalization in iterative solution of the eigenvalue problem:
     one sub-group per band group will be used
     scalapack distributed-memory algorithm (size of sub-group:  3*  3 procs)

  @ DRIVER MODE: Connecting to 
 qe_1139763_2767390.sched-torque.pace.gatech.edunu80rlls_scratch
  using UNIX socket
  @ DRIVER MODE: Message from server: STATUS
  @ DRIVER MODE: Message from server: INIT
  @ DRIVER MODE: Receiving replica           0          -1
  @ DRIVER MODE: Receiving encoded integer          25
  @ DRIVER MODE:  SCF:  T  FORCE:  T  STRESS:  F  VC:  F  ENSEMBLE:  F
  @ DRIVER MODE:  SCF:  T  FORCE:  T  STRESS:  F  VC:  F  ENSEMBLE:  F
 
     Parallelization info
     --------------------
     sticks:   dense  smooth     PW     G-vecs:    dense   smooth      PW
     Min         327     131     37                56683    14340    2191
     Max         328     133     38                56694    14346    2206
     Sum        3275    1317    379               566857   143421   21985
 
     Using Slab Decomposition
 


     bravais-lattice index     =            0
     lattice parameter (alat)  =       1.8897  a.u.
     unit-cell volume          =    6658.9804 (a.u.)^3
     number of atoms/cell      =           55
     number of atomic types    =            5
     number of electrons       =       397.00
     number of Kohn-Sham states=          208
     kinetic-energy cutoff     =      29.3995  Ry
     charge density cutoff     =     293.9946  Ry
     scf convergence threshold =      7.3E-08
     mixing beta               =       0.0500
     number of iterations used =            8  plain     mixing
     Exchange-correlation= BEEF-VDW
                           (   1   4  43  14   2   0   0)

     celldm(1)=   1.889726  celldm(2)=   0.000000  celldm(3)=   0.000000
     celldm(4)=   0.000000  celldm(5)=   0.000000  celldm(6)=   0.000000

     crystal axes: (cart. coord. in units of alat)
               a(1) = (   6.579727   0.000000   0.000000 )  
               a(2) = (  -0.000775   5.961596   0.000000 )  
               a(3) = (   0.000000   0.000000  25.155947 )  

     reciprocal axes: (cart. coord. in units 2 pi/alat)
               b(1) = (  0.151982  0.000020  0.000000 )  
               b(2) = (  0.000000  0.167740  0.000000 )  
               b(3) = (  0.000000  0.000000  0.039752 )  


     PseudoPot. # 1 for Ti read from file:
     /storage/coda1/p-amedford6/0/shared/rich_project_chbe-medford/medford-share/data/pseudos_module/espresso/nninc/pbe/van/Ti.UPF
     MD5 check sum: 8e4df49b7f0d34bbd5052bf3f5ea0213
     Pseudo is Ultrasoft, Zval = 12.0
     Generated by new atomic code, or converted to UPF format
     Using radial grid of  851 points,  6 beta functions with: 
                l(1) =   0
                l(2) =   0
                l(3) =   1
                l(4) =   1
                l(5) =   2
                l(6) =   2
     Q(r) pseudized with  8 coefficients,  rinner =    1.000   1.000   1.000
                                                       1.000   1.000

     PseudoPot. # 2 for O  read from file:
     /storage/coda1/p-amedford6/0/shared/rich_project_chbe-medford/medford-share/data/pseudos_module/espresso/nninc/pbe/van/O.UPF
     MD5 check sum: 78c19812648e8988a0fe644b0f25305e
     Pseudo is Ultrasoft, Zval =  6.0
     Generated by new atomic code, or converted to UPF format
     Using radial grid of  737 points,  4 beta functions with: 
                l(1) =   0
                l(2) =   0
                l(3) =   1
                l(4) =   1
     Q(r) pseudized with  8 coefficients,  rinner =    0.800   0.800   0.800


     PseudoPot. # 3 for N  read from file:
     /storage/coda1/p-amedford6/0/shared/rich_project_chbe-medford/medford-share/data/pseudos_module/espresso/nninc/pbe/van/N.UPF
     MD5 check sum: 90d10febe142ad51ac9d5be1deb811c4
     Pseudo is Ultrasoft, Zval =  5.0
     Generated by new atomic code, or converted to UPF format
     Using radial grid of  729 points,  4 beta functions with: 
                l(1) =   0
                l(2) =   0
                l(3) =   1
                l(4) =   1
     Q(r) pseudized with  8 coefficients,  rinner =    0.800   0.800   0.800


     PseudoPot. # 4 for C  read from file:
     /storage/coda1/p-amedford6/0/shared/rich_project_chbe-medford/medford-share/data/pseudos_module/espresso/nninc/pbe/van/C.UPF
     MD5 check sum: 1a69bf6b8db32088f5b2163dbdb77a27
     Pseudo is Ultrasoft, Zval =  4.0
     Generated by new atomic code, or converted to UPF format
     Using radial grid of  721 points,  4 beta functions with: 
                l(1) =   0
                l(2) =   0
                l(3) =   1
                l(4) =   1
     Q(r) pseudized with  8 coefficients,  rinner =    0.800   0.800   0.800


     PseudoPot. # 5 for H  read from file:
     /storage/coda1/p-amedford6/0/shared/rich_project_chbe-medford/medford-share/data/pseudos_module/espresso/nninc/pbe/van/H.UPF
     MD5 check sum: b5ee9d7bfd3a09ee7748110bda690ff7
     Pseudo is Ultrasoft, Zval =  1.0
     Generated by new atomic code, or converted to UPF format
     Using radial grid of  615 points,  1 beta functions with: 
                l(1) =   0
     Q(r) pseudized with  8 coefficients,  rinner =    0.800

     atomic species   valence    mass     pseudopotential
        Ti1           12.00    47.86700     Ti( 1.00)
        O1             6.00    15.99900     O ( 1.00)
        N1             5.00    14.00700     N ( 1.00)
        C1             4.00    12.01100     C ( 1.00)
        H1             1.00     1.00800     H ( 1.00)

     No symmetry found



   Cartesian axes

     site n.     atom                  positions (alat units)
         1           Ti1 tau(   1) = (   0.0004258   2.9801865   6.0000000  )
         2           Ti1 tau(   2) = (   3.2906075   1.4906267   6.0002472  )
         3           O1  tau(   3) = (   0.0006271   0.0005054   7.9858123  )
         4           O1  tau(   4) = (   3.2906025   0.0005020   7.3038282  )
         5           O1  tau(   5) = (   4.5942328   1.4918067   9.2879030  )
         6           O1  tau(   6) = (   1.9868534   1.4903216   9.2879459  )
         7           Ti1 tau(   7) = (   3.2907910   2.8959150   9.1758416  )
         8           Ti1 tau(   8) = (   0.0015273   1.4827037   9.2680791  )
         9           O1  tau(   9) = (   3.2797308   5.9473376  11.3602069  )
        10           O1  tau(  10) = (   0.0116148   5.9584955  10.6183126  )
        11           O1  tau(  11) = (   1.2902197   1.4970218  12.6485984  )
        12           O1  tau(  12) = (   5.2825647   1.4998509  12.6204812  )
        13           Ti1 tau(  13) = (   6.5707130   2.9731531  12.5352273  )
        14           Ti1 tau(  14) = (   3.2824754   1.4851695  12.4964603  )
        15           O1  tau(  15) = (   6.5335774   0.0914421  14.6722524  )
        16           O1  tau(  16) = (   3.3157438   0.0180770  13.9903400  )
        17           O1  tau(  17) = (   4.5084513   1.5196572  16.2619966  )
        18           O1  tau(  18) = (   2.0062152   1.4815140  16.1839734  )
        19           Ti1 tau(  19) = (   3.2259906   2.9465836  15.7211513  )
        20           Ti1 tau(  20) = (   6.5090593   1.4075841  16.1508600  )
        21           O1  tau(  21) = (   3.2904802   0.0005063   4.7018136  )
        22           O1  tau(  22) = (   6.5630310   5.8123487  17.2302531  )
        23           O1  tau(  23) = (   1.3043587   1.4918075   6.0039043  )
        24           O1  tau(  24) = (   5.2767064   1.4903225   6.0039473  )
        25           Ti1 tau(  25) = (   0.0000382   5.9609847   6.0000000  )
        26           Ti1 tau(  26) = (   3.2902200   4.4714249   6.0002472  )
        27           O1  tau(  27) = (   0.0002396   2.9813036   7.9858123  )
        28           O1  tau(  28) = (   3.2902150   2.9813002   7.3038282  )
        29           O1  tau(  29) = (   4.5938453   4.4726049   9.2879030  )
        30           O1  tau(  30) = (   1.9864658   4.4711199   9.2879459  )
        31           Ti1 tau(  31) = (   3.2891106   5.8743827   9.1763621  )
        32           Ti1 tau(  32) = (   0.0006254   4.4649316   9.2693709  )
        33           O1  tau(  33) = (   3.2783824   2.9878764  11.3535400  )
        34           O1  tau(  34) = (   0.0092240   2.9805883  10.6323155  )
        35           O1  tau(  35) = (   1.2857266   4.4729298  12.7006550  )
        36           O1  tau(  36) = (   5.2845514   4.4687958  12.6640455  )
        37           Ti1 tau(  37) = (   6.5734551   0.0101047  12.5124135  )
        38           Ti1 tau(  38) = (   3.2852174   4.4611384  12.5175569  )
        39           O1  tau(  39) = (   6.5279837   2.9480221  14.9030702  )
        40           O1  tau(  40) = (   3.2956390   2.9588503  13.9390168  )
        41           O1  tau(  41) = (   4.4992944   4.4159585  16.2207858  )
        42           O1  tau(  42) = (   2.0104883   4.4624356  16.0673450  )
        43           Ti1 tau(  43) = (   3.2790961   0.0058003  15.7788240  )
        44           Ti1 tau(  44) = (   0.0606790   4.6093333  15.7554573  )
        45           O1  tau(  45) = (   3.2900926   2.9813045   4.7018136  )
        46           O1  tau(  46) = (   1.3039711   4.4726057   6.0039043  )
        47           O1  tau(  47) = (   5.2763189   4.4711207   6.0039473  )
        48           N1  tau(  48) = (   0.0403274   2.7191540  18.0026804  )
        49           C1  tau(  49) = (   0.9398849   2.5044932  18.9664025  )
        50           H1  tau(  50) = (   0.9073005   3.0183022  19.9142263  )
        51           H1  tau(  51) = (   1.7098349   1.7704235  18.7615287  )
        52           N1  tau(  52) = (   5.5765855   3.6054979  18.4816711  )
        53           H1  tau(  53) = (   5.9881759   4.5320851  18.7147717  )
        54           H1  tau(  54) = (   4.9344470   3.8465857  17.6610935  )
        55           H1  tau(  55) = (   5.0674124   3.1947177  19.2767304  )

     number of k points=    10  Fermi-Dirac smearing, width (Ry)=  0.0073
                       cart. coord. in units 2pi/alat
        k(    1) = (   0.0000000   0.0000000   0.0000000), wk =   0.1250000
        k(    2) = (   0.0000000   0.0419351   0.0000000), wk =   0.2500000
        k(    3) = (   0.0000000  -0.0838702   0.0000000), wk =   0.1250000
        k(    4) = (   0.0379955   0.0000049   0.0000000), wk =   0.2500000
        k(    5) = (   0.0379955   0.0419400   0.0000000), wk =   0.2500000
        k(    6) = (   0.0379955  -0.0838652   0.0000000), wk =   0.2500000
        k(    7) = (   0.0379955  -0.0419301   0.0000000), wk =   0.2500000
        k(    8) = (  -0.0759910  -0.0000099   0.0000000), wk =   0.1250000
        k(    9) = (  -0.0759910   0.0419252   0.0000000), wk =   0.2500000
        k(   10) = (  -0.0759910  -0.0838800   0.0000000), wk =   0.1250000

     Dense  grid:   566857 G-vectors     FFT dimensions: (  72,  64, 270)

     Smooth grid:   143421 G-vectors     FFT dimensions: (  45,  40, 180)

     Estimated max dynamical RAM per process >     363.76 MB

     Estimated total dynamical RAM >       3.55 GB
     Cannot read rho : file not found

     Initial potential from superposition of free atoms

     starting charge  380.99914, renormalised to  397.00000

     negative rho (up, down):  1.589E-02 0.000E+00


     %%%%%%%%%%%%%%%%%%%%%%%%%%%%%%%%%%%%%%%%%%%%%%%%%%%%%%%%%%%%%%%%%%%%%%%%
     %                                                                      %
     % You are using vdW-DF, which was implemented by the Thonhauser group. %
     % Please cite the following two papers that made this development      %
     % possible and the two reviews that describe the various versions:     %
     %                                                                      %
     %   T. Thonhauser et al., PRL 115, 136402 (2015).                      %
     %   T. Thonhauser et al., PRB 76, 125112 (2007).                       %
     %   K. Berland et al., Rep. Prog. Phys. 78, 066501 (2015).             %
     %   D.C. Langreth et al., J. Phys.: Condens. Matter 21, 084203 (2009). %
     %                                                                      %
     %                                                                      %
     % If you are calculating the stress with vdW-DF, please also cite:     %
     %                                                                      %
     %   R. Sabatini et al., J. Phys.: Condens. Matter 24, 424209 (2012).   %
     %                                                                      %
     %%%%%%%%%%%%%%%%%%%%%%%%%%%%%%%%%%%%%%%%%%%%%%%%%%%%%%%%%%%%%%%%%%%%%%%%


 
     Adding external electric field

     Computed dipole along edir(3) : 
        Dipole              -10.3122 Ry au,        -26.2111 Debye
        Dipole field         -0.0195 Ry au, 
 
        Potential amp.        1.8040 Ry
        Total length         46.3494 bohr
 
     Starting wfcs are  301 atomic wfcs
  @ DRIVER MODE: Message from server: STATUS
  @ DRIVER MODE: Message from server: POSDATA
  @ DRIVER MODE: Reading and sharing cell 
  @ DRIVER MODE: Reading and sharing positions 
  @ DRIVER MODE: Received positions 

     total cpu time spent up to now is       11.3 secs

     Self-consistent Calculation

     iteration #  1     ecut=    29.40 Ry     beta= 0.05
     Davidson diagonalization with overlap
     c_bands:  3 eigenvalues not converged
     c_bands:  2 eigenvalues not converged
     c_bands:  3 eigenvalues not converged
     c_bands:  2 eigenvalues not converged
     c_bands:  3 eigenvalues not converged
     c_bands:  2 eigenvalues not converged
     c_bands:  3 eigenvalues not converged
     c_bands:  2 eigenvalues not converged
     c_bands:  2 eigenvalues not converged
     c_bands:  3 eigenvalues not converged
     ethr =  1.00E-05,  avg # of iterations = 20.0

     negative rho (up, down):  1.183E-02 0.000E+00
 
     Adding external electric field

     Computed dipole along edir(3) : 
        Dipole               45.9234 Ry au,        116.7256 Debye
        Dipole field          0.0867 Ry au, 
 
        Potential amp.       -8.0336 Ry
        Total length         46.3494 bohr
 

     total cpu time spent up to now is       51.9 secs

     total energy              =   -2480.06729001 Ry
     estimated scf accuracy    <    5159.14406089 Ry

     iteration #  2     ecut=    29.40 Ry     beta= 0.05
     Davidson diagonalization with overlap
     ethr =  1.00E-02,  avg # of iterations = 22.4

     negative rho (up, down):  2.618E-03 0.000E+00
 
     Adding external electric field

     Computed dipole along edir(3) : 
        Dipole               -1.9459 Ry au,         -4.9461 Debye
        Dipole field         -0.0037 Ry au, 
 
        Potential amp.        0.3404 Ry
        Total length         46.3494 bohr
 

     total cpu time spent up to now is      125.8 secs

     total energy              =   -2453.13938511 Ry
     estimated scf accuracy    <   68343.79976400 Ry

     iteration #  3     ecut=    29.40 Ry     beta= 0.05
     Davidson diagonalization with overlap
     ethr =  1.00E-02,  avg # of iterations = 16.5

     negative rho (up, down):  2.688E-03 0.000E+00
 
     Adding external electric field

     Computed dipole along edir(3) : 
        Dipole               -4.3443 Ry au,        -11.0421 Debye
        Dipole field         -0.0082 Ry au, 
 
        Potential amp.        0.7600 Ry
        Total length         46.3494 bohr
 

     total cpu time spent up to now is      173.4 secs

     total energy              =   -2929.41822617 Ry
     estimated scf accuracy    <    4338.91586226 Ry

     iteration #  4     ecut=    29.40 Ry     beta= 0.05
     Davidson diagonalization with overlap
     c_bands:  2 eigenvalues not converged
     ethr =  1.00E-02,  avg # of iterations = 13.9

     negative rho (up, down):  2.739E-03 0.000E+00
 
     Adding external electric field

     Computed dipole along edir(3) : 
        Dipole               -6.0441 Ry au,        -15.3626 Debye
        Dipole field         -0.0114 Ry au, 
 
        Potential amp.        1.0573 Ry
        Total length         46.3494 bohr
 

     total cpu time spent up to now is      192.0 secs

     total energy              =   -2926.31780590 Ry
     estimated scf accuracy    <    1781.46358608 Ry

     iteration #  5     ecut=    29.40 Ry     beta= 0.05
     Davidson diagonalization with overlap
     c_bands:  1 eigenvalues not converged
     c_bands:  4 eigenvalues not converged
     ethr =  1.00E-02,  avg # of iterations = 17.2

     negative rho (up, down):  2.755E-03 0.000E+00
 
     Adding external electric field

     Computed dipole along edir(3) : 
        Dipole               -5.4245 Ry au,        -13.7877 Debye
        Dipole field         -0.0102 Ry au, 
 
        Potential amp.        0.9489 Ry
        Total length         46.3494 bohr
 

     total cpu time spent up to now is      211.0 secs

     total energy              =   -2944.49517655 Ry
     estimated scf accuracy    <      34.98970682 Ry

     iteration #  6     ecut=    29.40 Ry     beta= 0.05
     Davidson diagonalization with overlap
     ethr =  8.81E-03,  avg # of iterations =  2.4

     negative rho (up, down):  2.766E-03 0.000E+00
 
     Adding external electric field

     Computed dipole along edir(3) : 
        Dipole               -5.0100 Ry au,        -12.7340 Debye
        Dipole field         -0.0095 Ry au, 
 
        Potential amp.        0.8764 Ry
        Total length         46.3494 bohr
 

     total cpu time spent up to now is      221.4 secs

     total energy              =   -2944.48655782 Ry
     estimated scf accuracy    <      24.85276059 Ry

     iteration #  7     ecut=    29.40 Ry     beta= 0.05
     Davidson diagonalization with overlap
     ethr =  6.26E-03,  avg # of iterations =  1.0

     negative rho (up, down):  3.002E-03 0.000E+00
 
     Adding external electric field

     Computed dipole along edir(3) : 
        Dipole               -2.2465 Ry au,         -5.7100 Debye
        Dipole field         -0.0042 Ry au, 
 
        Potential amp.        0.3930 Ry
        Total length         46.3494 bohr
 

     total cpu time spent up to now is      231.3 secs

     total energy              =   -2942.31645793 Ry
     estimated scf accuracy    <      24.29276889 Ry

     iteration #  8     ecut=    29.40 Ry     beta= 0.05
     Davidson diagonalization with overlap
     ethr =  6.12E-03,  avg # of iterations =  2.3

     negative rho (up, down):  3.076E-03 0.000E+00
 
     Adding external electric field

     Computed dipole along edir(3) : 
        Dipole               -1.7424 Ry au,         -4.4287 Debye
        Dipole field         -0.0033 Ry au, 
 
        Potential amp.        0.3048 Ry
        Total length         46.3494 bohr
 

     total cpu time spent up to now is      242.0 secs

     total energy              =   -2945.56831969 Ry
     estimated scf accuracy    <     449.12167371 Ry

     iteration #  9     ecut=    29.40 Ry     beta= 0.05
     Davidson diagonalization with overlap
     ethr =  6.12E-03,  avg # of iterations =  1.1

     negative rho (up, down):  3.432E-03 0.000E+00
 
     Adding external electric field

     Computed dipole along edir(3) : 
        Dipole               -0.4536 Ry au,         -1.1529 Debye
        Dipole field         -0.0009 Ry au, 
 
        Potential amp.        0.0793 Ry
        Total length         46.3494 bohr
 

     total cpu time spent up to now is      251.8 secs

     total energy              =   -2946.60002876 Ry
     estimated scf accuracy    <     618.45323510 Ry

     iteration # 10     ecut=    29.40 Ry     beta= 0.05
     Davidson diagonalization with overlap
     ethr =  6.12E-03,  avg # of iterations =  2.6

     negative rho (up, down):  3.815E-03 0.000E+00
 
     Adding external electric field

     Computed dipole along edir(3) : 
        Dipole               -0.6868 Ry au,         -1.7457 Debye
        Dipole field         -0.0013 Ry au, 
 
        Potential amp.        0.1201 Ry
        Total length         46.3494 bohr
 

     total cpu time spent up to now is      262.6 secs

     total energy              =   -2941.35549658 Ry
     estimated scf accuracy    <     647.14336572 Ry

     iteration # 11     ecut=    29.40 Ry     beta= 0.05
     Davidson diagonalization with overlap
     ethr =  6.12E-03,  avg # of iterations =  3.6

     negative rho (up, down):  3.768E-03 0.000E+00
 
     Adding external electric field

     Computed dipole along edir(3) : 
        Dipole               -1.9971 Ry au,         -5.0760 Debye
        Dipole field         -0.0038 Ry au, 
 
        Potential amp.        0.3494 Ry
        Total length         46.3494 bohr
 

     total cpu time spent up to now is      273.9 secs

     total energy              =   -2938.60009326 Ry
     estimated scf accuracy    <     198.35338405 Ry

     iteration # 12     ecut=    29.40 Ry     beta= 0.05
     Davidson diagonalization with overlap
     ethr =  6.12E-03,  avg # of iterations =  2.9

     negative rho (up, down):  3.731E-03 0.000E+00
 
     Adding external electric field

     Computed dipole along edir(3) : 
        Dipole               -1.5114 Ry au,         -3.8415 Debye
        Dipole field         -0.0029 Ry au, 
 
        Potential amp.        0.2644 Ry
        Total length         46.3494 bohr
 

     total cpu time spent up to now is      284.6 secs

     total energy              =   -2941.85192887 Ry
     estimated scf accuracy    <       6.86936958 Ry

     iteration # 13     ecut=    29.40 Ry     beta= 0.05
     Davidson diagonalization with overlap
     ethr =  1.73E-03,  avg # of iterations =  2.5

     negative rho (up, down):  3.445E-03 0.000E+00
 
     Adding external electric field

     Computed dipole along edir(3) : 
        Dipole               -0.2434 Ry au,         -0.6188 Debye
        Dipole field         -0.0005 Ry au, 
 
        Potential amp.        0.0426 Ry
        Total length         46.3494 bohr
 

     total cpu time spent up to now is      295.5 secs

     total energy              =   -2941.57962214 Ry
     estimated scf accuracy    <       6.85063806 Ry

     iteration # 14     ecut=    29.40 Ry     beta= 0.05
     Davidson diagonalization with overlap
     c_bands:  2 eigenvalues not converged
     ethr =  1.73E-03,  avg # of iterations =  4.2

     negative rho (up, down):  3.633E-03 0.000E+00
 
     Adding external electric field

     Computed dipole along edir(3) : 
        Dipole               -2.2363 Ry au,         -5.6840 Debye
        Dipole field         -0.0042 Ry au, 
 
        Potential amp.        0.3912 Ry
        Total length         46.3494 bohr
 

     total cpu time spent up to now is      307.6 secs

     total energy              =   -2933.19898813 Ry
     estimated scf accuracy    <     397.46498997 Ry

     iteration # 15     ecut=    29.40 Ry     beta= 0.05
     Davidson diagonalization with overlap
     c_bands:  3 eigenvalues not converged
     ethr =  1.73E-03,  avg # of iterations = 10.4

     negative rho (up, down):  4.069E-03 0.000E+00
 
     Adding external electric field

     Computed dipole along edir(3) : 
        Dipole               -3.4377 Ry au,         -8.7377 Debye
        Dipole field         -0.0065 Ry au, 
 
        Potential amp.        0.6014 Ry
        Total length         46.3494 bohr
 

     total cpu time spent up to now is      322.5 secs

     total energy              =   -2943.10475453 Ry
     estimated scf accuracy    <       7.87859145 Ry

     iteration # 16     ecut=    29.40 Ry     beta= 0.05
     Davidson diagonalization with overlap
     ethr =  1.73E-03,  avg # of iterations = 15.4

     negative rho (up, down):  4.239E-03 0.000E+00
 
     Adding external electric field

     Computed dipole along edir(3) : 
        Dipole               -3.3433 Ry au,         -8.4978 Debye
        Dipole field         -0.0063 Ry au, 
 
        Potential amp.        0.5849 Ry
        Total length         46.3494 bohr
 

     total cpu time spent up to now is      347.6 secs

     total energy              =   -2950.13560130 Ry
     estimated scf accuracy    <    1235.71912344 Ry

     iteration # 17     ecut=    29.40 Ry     beta= 0.05
     Davidson diagonalization with overlap
     ethr =  1.73E-03,  avg # of iterations =  1.9

     negative rho (up, down):  4.486E-03 0.000E+00
 
     Adding external electric field

     Computed dipole along edir(3) : 
        Dipole               -2.5940 Ry au,         -6.5933 Debye
        Dipole field         -0.0049 Ry au, 
 
        Potential amp.        0.4538 Ry
        Total length         46.3494 bohr
 

     total cpu time spent up to now is      357.9 secs

     total energy              =   -2945.04841956 Ry
     estimated scf accuracy    <    1248.39574969 Ry

     iteration # 18     ecut=    29.40 Ry     beta= 0.05
     Davidson diagonalization with overlap
     ethr =  1.73E-03,  avg # of iterations =  4.9

     negative rho (up, down):  2.664E-03 0.000E+00
 
     Adding external electric field

     Computed dipole along edir(3) : 
        Dipole               -1.9335 Ry au,         -4.9145 Debye
        Dipole field         -0.0036 Ry au, 
 
        Potential amp.        0.3382 Ry
        Total length         46.3494 bohr
 

     total cpu time spent up to now is      369.3 secs

     total energy              =   -2937.17015110 Ry
     estimated scf accuracy    <     720.05044537 Ry

     iteration # 19     ecut=    29.40 Ry     beta= 0.05
     Davidson diagonalization with overlap
     ethr =  1.73E-03,  avg # of iterations = 12.0

     negative rho (up, down):  2.386E-03 0.000E+00
 
     Adding external electric field

     Computed dipole along edir(3) : 
        Dipole               -1.8729 Ry au,         -4.7605 Debye
        Dipole field         -0.0035 Ry au, 
 
        Potential amp.        0.3276 Ry
        Total length         46.3494 bohr
 

     total cpu time spent up to now is      385.5 secs

     total energy              =   -2941.39295057 Ry
     estimated scf accuracy    <      51.53166477 Ry

     iteration # 20     ecut=    29.40 Ry     beta= 0.05
     Davidson diagonalization with overlap
     ethr =  1.73E-03,  avg # of iterations =  4.3

     negative rho (up, down):  2.192E-03 0.000E+00
 
     Adding external electric field

     Computed dipole along edir(3) : 
        Dipole               -1.7333 Ry au,         -4.4056 Debye
        Dipole field         -0.0033 Ry au, 
 
        Potential amp.        0.3032 Ry
        Total length         46.3494 bohr
 

     total cpu time spent up to now is      396.4 secs

     total energy              =   -2941.51654627 Ry
     estimated scf accuracy    <      37.33805610 Ry

     iteration # 21     ecut=    29.40 Ry     beta= 0.05
     Davidson diagonalization with overlap
     c_bands:  3 eigenvalues not converged
     ethr =  1.73E-03,  avg # of iterations =  2.9

     negative rho (up, down):  1.211E-03 0.000E+00
 
     Adding external electric field

     Computed dipole along edir(3) : 
        Dipole               -0.4839 Ry au,         -1.2300 Debye
        Dipole field         -0.0009 Ry au, 
 
        Potential amp.        0.0847 Ry
        Total length         46.3494 bohr
 

     total cpu time spent up to now is      406.9 secs

     total energy              =   -2941.01076533 Ry
     estimated scf accuracy    <      27.87799090 Ry

     iteration # 22     ecut=    29.40 Ry     beta= 0.05
     Davidson diagonalization with overlap
     c_bands:  1 eigenvalues not converged
     ethr =  1.73E-03,  avg # of iterations =  8.4

     negative rho (up, down):  7.954E-04 0.000E+00
 
     Adding external electric field

     Computed dipole along edir(3) : 
        Dipole                0.5208 Ry au,          1.3237 Debye
        Dipole field          0.0010 Ry au, 
 
        Potential amp.       -0.0911 Ry
        Total length         46.3494 bohr
 

     total cpu time spent up to now is      419.3 secs

     total energy              =   -2941.27325810 Ry
     estimated scf accuracy    <       6.82428033 Ry

     iteration # 23     ecut=    29.40 Ry     beta= 0.05
     Davidson diagonalization with overlap
     c_bands:  1 eigenvalues not converged
     ethr =  1.72E-03,  avg # of iterations =  9.3

     negative rho (up, down):  8.818E-04 0.000E+00
 
     Adding external electric field

     Computed dipole along edir(3) : 
        Dipole                0.7810 Ry au,          1.9850 Debye
        Dipole field          0.0015 Ry au, 
 
        Potential amp.       -0.1366 Ry
        Total length         46.3494 bohr
 

     total cpu time spent up to now is      431.9 secs

     total energy              =   -2941.53315925 Ry
     estimated scf accuracy    <       1.95562368 Ry

     iteration # 24     ecut=    29.40 Ry     beta= 0.05
     Davidson diagonalization with overlap
     c_bands:  4 eigenvalues not converged
     c_bands:  2 eigenvalues not converged
     ethr =  4.93E-04,  avg # of iterations = 20.2

     negative rho (up, down):  1.116E-03 0.000E+00
 
     Adding external electric field

     Computed dipole along edir(3) : 
        Dipole               -0.0376 Ry au,         -0.0957 Debye
        Dipole field         -0.0001 Ry au, 
 
        Potential amp.        0.0066 Ry
        Total length         46.3494 bohr
 

     total cpu time spent up to now is      450.9 secs

     total energy              =   -2941.58162429 Ry
     estimated scf accuracy    <       2.89063921 Ry

     iteration # 25     ecut=    29.40 Ry     beta= 0.05
     Davidson diagonalization with overlap
     ethr =  4.93E-04,  avg # of iterations =  5.5

     negative rho (up, down):  1.050E-03 0.000E+00
 
     Adding external electric field

     Computed dipole along edir(3) : 
        Dipole                0.1643 Ry au,          0.4177 Debye
        Dipole field          0.0003 Ry au, 
 
        Potential amp.       -0.0287 Ry
        Total length         46.3494 bohr
 

     total cpu time spent up to now is      462.2 secs

     total energy              =   -2941.66093762 Ry
     estimated scf accuracy    <       2.00561466 Ry

     iteration # 26     ecut=    29.40 Ry     beta= 0.05
     Davidson diagonalization with overlap
     ethr =  4.93E-04,  avg # of iterations =  1.3

     negative rho (up, down):  1.052E-03 0.000E+00
 
     Adding external electric field

     Computed dipole along edir(3) : 
        Dipole                0.3530 Ry au,          0.8974 Debye
        Dipole field          0.0007 Ry au, 
 
        Potential amp.       -0.0618 Ry
        Total length         46.3494 bohr
 

     total cpu time spent up to now is      472.2 secs

     total energy              =   -2941.71595753 Ry
     estimated scf accuracy    <       2.24128043 Ry

     iteration # 27     ecut=    29.40 Ry     beta= 0.05
     Davidson diagonalization with overlap
     ethr =  4.93E-04,  avg # of iterations =  1.2

     negative rho (up, down):  1.078E-03 0.000E+00
 
     Adding external electric field

     Computed dipole along edir(3) : 
        Dipole               -0.8763 Ry au,         -2.2272 Debye
        Dipole field         -0.0017 Ry au, 
 
        Potential amp.        0.1533 Ry
        Total length         46.3494 bohr
 

     total cpu time spent up to now is      482.2 secs

     total energy              =   -2941.44266715 Ry
     estimated scf accuracy    <       2.52052278 Ry

     iteration # 28     ecut=    29.40 Ry     beta= 0.05
     Davidson diagonalization with overlap
     c_bands:  2 eigenvalues not converged
     c_bands:  2 eigenvalues not converged
     ethr =  4.93E-04,  avg # of iterations = 13.8

     negative rho (up, down):  1.438E-03 0.000E+00
 
     Adding external electric field

     Computed dipole along edir(3) : 
        Dipole               -1.2076 Ry au,         -3.0695 Debye
        Dipole field         -0.0023 Ry au, 
 
        Potential amp.        0.2113 Ry
        Total length         46.3494 bohr
 

     total cpu time spent up to now is      496.5 secs

     total energy              =   -2941.70610851 Ry
     estimated scf accuracy    <       7.04623838 Ry

     iteration # 29     ecut=    29.40 Ry     beta= 0.05
     Davidson diagonalization with overlap
     ethr =  4.93E-04,  avg # of iterations =  6.8

     negative rho (up, down):  1.754E-03 0.000E+00
 
     Adding external electric field

     Computed dipole along edir(3) : 
        Dipole               -0.0627 Ry au,         -0.1593 Debye
        Dipole field         -0.0001 Ry au, 
 
        Potential amp.        0.0110 Ry
        Total length         46.3494 bohr
 

     total cpu time spent up to now is      508.1 secs

     total energy              =   -2941.42323176 Ry
     estimated scf accuracy    <       8.52279042 Ry

     iteration # 30     ecut=    29.40 Ry     beta= 0.05
     Davidson diagonalization with overlap
     ethr =  4.93E-04,  avg # of iterations =  3.3

     negative rho (up, down):  2.753E-03 0.000E+00
 
     Adding external electric field

     Computed dipole along edir(3) : 
        Dipole               -0.3942 Ry au,         -1.0019 Debye
        Dipole field         -0.0007 Ry au, 
 
        Potential amp.        0.0690 Ry
        Total length         46.3494 bohr
 

     total cpu time spent up to now is      518.9 secs

     total energy              =   -2941.52688526 Ry
     estimated scf accuracy    <       1.87850056 Ry

     iteration # 31     ecut=    29.40 Ry     beta= 0.05
     Davidson diagonalization with overlap
     ethr =  4.73E-04,  avg # of iterations =  7.4

     negative rho (up, down):  3.318E-03 0.000E+00
 
     Adding external electric field

     Computed dipole along edir(3) : 
        Dipole                1.9257 Ry au,          4.8947 Debye
        Dipole field          0.0036 Ry au, 
 
        Potential amp.       -0.3369 Ry
        Total length         46.3494 bohr
 

     total cpu time spent up to now is      530.8 secs

     total energy              =   -2941.18528519 Ry
     estimated scf accuracy    <       3.35343591 Ry

     iteration # 32     ecut=    29.40 Ry     beta= 0.05
     Davidson diagonalization with overlap
     c_bands:  1 eigenvalues not converged
     c_bands:  2 eigenvalues not converged
     c_bands:  1 eigenvalues not converged
     c_bands:  1 eigenvalues not converged
     c_bands:  1 eigenvalues not converged
     c_bands:  1 eigenvalues not converged
     ethr =  4.73E-04,  avg # of iterations = 18.8

     negative rho (up, down):  3.138E-03 0.000E+00
 
     Adding external electric field

     Computed dipole along edir(3) : 
        Dipole                1.4760 Ry au,          3.7517 Debye
        Dipole field          0.0028 Ry au, 
 
        Potential amp.       -0.2582 Ry
        Total length         46.3494 bohr
 

     total cpu time spent up to now is      550.1 secs

     total energy              =   -2941.54892407 Ry
     estimated scf accuracy    <      32.32086864 Ry

     iteration # 33     ecut=    29.40 Ry     beta= 0.05
     Davidson diagonalization with overlap
     ethr =  4.73E-04,  avg # of iterations =  1.2

     negative rho (up, down):  2.966E-03 0.000E+00
 
     Adding external electric field

     Computed dipole along edir(3) : 
        Dipole                0.8977 Ry au,          2.2818 Debye
        Dipole field          0.0017 Ry au, 
 
        Potential amp.       -0.1570 Ry
        Total length         46.3494 bohr
 

     total cpu time spent up to now is      560.0 secs

     total energy              =   -2941.55113979 Ry
     estimated scf accuracy    <       3.93470189 Ry

     iteration # 34     ecut=    29.40 Ry     beta= 0.05
     Davidson diagonalization with overlap
     ethr =  4.73E-04,  avg # of iterations =  1.8

     negative rho (up, down):  2.946E-03 0.000E+00
 
     Adding external electric field

     Computed dipole along edir(3) : 
        Dipole                0.8433 Ry au,          2.1434 Debye
        Dipole field          0.0016 Ry au, 
 
        Potential amp.       -0.1475 Ry
        Total length         46.3494 bohr
 

     total cpu time spent up to now is      570.4 secs

     total energy              =   -2941.57142289 Ry
     estimated scf accuracy    <       2.57710975 Ry

     iteration # 35     ecut=    29.40 Ry     beta= 0.05
     Davidson diagonalization with overlap
     ethr =  4.73E-04,  avg # of iterations =  1.0

     negative rho (up, down):  2.718E-03 0.000E+00
 
     Adding external electric field

     Computed dipole along edir(3) : 
        Dipole                0.1789 Ry au,          0.4547 Debye
        Dipole field          0.0003 Ry au, 
 
        Potential amp.       -0.0313 Ry
        Total length         46.3494 bohr
 

     total cpu time spent up to now is      580.2 secs

     total energy              =   -2941.45299571 Ry
     estimated scf accuracy    <       2.51851138 Ry

     iteration # 36     ecut=    29.40 Ry     beta= 0.05
     Davidson diagonalization with overlap
     ethr =  4.73E-04,  avg # of iterations =  4.0

     negative rho (up, down):  2.631E-03 0.000E+00
 
     Adding external electric field

     Computed dipole along edir(3) : 
        Dipole                0.0738 Ry au,          0.1877 Debye
        Dipole field          0.0001 Ry au, 
 
        Potential amp.       -0.0129 Ry
        Total length         46.3494 bohr
 

     total cpu time spent up to now is      591.2 secs

     total energy              =   -2941.50859865 Ry
     estimated scf accuracy    <       0.84166090 Ry

     iteration # 37     ecut=    29.40 Ry     beta= 0.05
     Davidson diagonalization with overlap
     c_bands:  1 eigenvalues not converged
     ethr =  2.12E-04,  avg # of iterations = 12.8

     negative rho (up, down):  2.600E-03 0.000E+00
 
     Adding external electric field

     Computed dipole along edir(3) : 
        Dipole               -0.0302 Ry au,         -0.0767 Debye
        Dipole field         -0.0001 Ry au, 
 
        Potential amp.        0.0053 Ry
        Total length         46.3494 bohr
 

     total cpu time spent up to now is      605.3 secs

     total energy              =   -2941.53786323 Ry
     estimated scf accuracy    <       0.74910127 Ry

     iteration # 38     ecut=    29.40 Ry     beta= 0.05
     Davidson diagonalization with overlap
     ethr =  1.89E-04,  avg # of iterations =  7.4

     negative rho (up, down):  2.690E-03 0.000E+00
 
     Adding external electric field

     Computed dipole along edir(3) : 
        Dipole               -0.0587 Ry au,         -0.1491 Debye
        Dipole field         -0.0001 Ry au, 
 
        Potential amp.        0.0103 Ry
        Total length         46.3494 bohr
 

     total cpu time spent up to now is      617.1 secs

     total energy              =   -2941.57294932 Ry
     estimated scf accuracy    <       0.93911310 Ry

     iteration # 39     ecut=    29.40 Ry     beta= 0.05
     Davidson diagonalization with overlap
     ethr =  1.89E-04,  avg # of iterations =  5.5

     negative rho (up, down):  2.853E-03 0.000E+00
 
     Adding external electric field

     Computed dipole along edir(3) : 
        Dipole                0.0370 Ry au,          0.0940 Debye
        Dipole field          0.0001 Ry au, 
 
        Potential amp.       -0.0065 Ry
        Total length         46.3494 bohr
 

     total cpu time spent up to now is      629.5 secs

     total energy              =   -2941.57554727 Ry
     estimated scf accuracy    <       1.27897898 Ry

     iteration # 40     ecut=    29.40 Ry     beta= 0.05
     Davidson diagonalization with overlap
     ethr =  1.89E-04,  avg # of iterations =  1.1

     negative rho (up, down):  2.658E-03 0.000E+00
 
     Adding external electric field

     Computed dipole along edir(3) : 
        Dipole               -0.1056 Ry au,         -0.2684 Debye
        Dipole field         -0.0002 Ry au, 
 
        Potential amp.        0.0185 Ry
        Total length         46.3494 bohr
 

     total cpu time spent up to now is      639.4 secs

     total energy              =   -2941.59606976 Ry
     estimated scf accuracy    <       1.01268232 Ry

     iteration # 41     ecut=    29.40 Ry     beta= 0.05
     Davidson diagonalization with overlap
     ethr =  1.89E-04,  avg # of iterations =  2.7

     negative rho (up, down):  2.729E-03 0.000E+00
 
     Adding external electric field

     Computed dipole along edir(3) : 
        Dipole                1.0376 Ry au,          2.6374 Debye
        Dipole field          0.0020 Ry au, 
 
        Potential amp.       -0.1815 Ry
        Total length         46.3494 bohr
 

     total cpu time spent up to now is      650.1 secs

     total energy              =   -2941.39320741 Ry
     estimated scf accuracy    <       1.74424566 Ry

     iteration # 42     ecut=    29.40 Ry     beta= 0.05
     Davidson diagonalization with overlap
     ethr =  1.89E-04,  avg # of iterations = 10.2

     negative rho (up, down):  2.266E-03 0.000E+00
 
     Adding external electric field

     Computed dipole along edir(3) : 
        Dipole                0.8984 Ry au,          2.2836 Debye
        Dipole field          0.0017 Ry au, 
 
        Potential amp.       -0.1572 Ry
        Total length         46.3494 bohr
 

     total cpu time spent up to now is      663.2 secs

     total energy              =   -2941.48766442 Ry
     estimated scf accuracy    <       1.47836467 Ry

     iteration # 43     ecut=    29.40 Ry     beta= 0.05
     Davidson diagonalization with overlap
     ethr =  1.89E-04,  avg # of iterations =  1.3

     negative rho (up, down):  2.041E-03 0.000E+00
 
     Adding external electric field

     Computed dipole along edir(3) : 
        Dipole                0.8515 Ry au,          2.1642 Debye
        Dipole field          0.0016 Ry au, 
 
        Potential amp.       -0.1490 Ry
        Total length         46.3494 bohr
 

     total cpu time spent up to now is      673.2 secs

     total energy              =   -2941.49211226 Ry
     estimated scf accuracy    <       0.79918346 Ry

     iteration # 44     ecut=    29.40 Ry     beta= 0.05
     Davidson diagonalization with overlap
     ethr =  1.89E-04,  avg # of iterations =  1.1

     negative rho (up, down):  1.830E-03 0.000E+00
 
     Adding external electric field

     Computed dipole along edir(3) : 
        Dipole                1.0441 Ry au,          2.6539 Debye
        Dipole field          0.0020 Ry au, 
 
        Potential amp.       -0.1827 Ry
        Total length         46.3494 bohr
 

     total cpu time spent up to now is      683.1 secs

     total energy              =   -2941.48843199 Ry
     estimated scf accuracy    <       0.47951116 Ry

     iteration # 45     ecut=    29.40 Ry     beta= 0.05
     Davidson diagonalization with overlap
     ethr =  1.21E-04,  avg # of iterations =  3.5

     negative rho (up, down):  2.316E-03 0.000E+00
 
     Adding external electric field

     Computed dipole along edir(3) : 
        Dipole                1.0815 Ry au,          2.7489 Debye
        Dipole field          0.0020 Ry au, 
 
        Potential amp.       -0.1892 Ry
        Total length         46.3494 bohr
 

     total cpu time spent up to now is      694.0 secs

     total energy              =   -2941.47799562 Ry
     estimated scf accuracy    <       0.35395894 Ry

     iteration # 46     ecut=    29.40 Ry     beta= 0.05
     Davidson diagonalization with overlap
     c_bands:  1 eigenvalues not converged
     ethr =  8.92E-05,  avg # of iterations = 13.1

     negative rho (up, down):  3.113E-03 0.000E+00
 
     Adding external electric field

     Computed dipole along edir(3) : 
        Dipole                1.1368 Ry au,          2.8894 Debye
        Dipole field          0.0021 Ry au, 
 
        Potential amp.       -0.1989 Ry
        Total length         46.3494 bohr
 

     total cpu time spent up to now is      708.6 secs

     total energy              =   -2941.48053057 Ry
     estimated scf accuracy    <       0.06664665 Ry

     iteration # 47     ecut=    29.40 Ry     beta= 0.05
     Davidson diagonalization with overlap
     c_bands:  2 eigenvalues not converged
     c_bands:  2 eigenvalues not converged
     c_bands:  4 eigenvalues not converged
     c_bands:  4 eigenvalues not converged
     c_bands:  2 eigenvalues not converged
     c_bands:  2 eigenvalues not converged
     c_bands:  2 eigenvalues not converged
     ethr =  1.68E-05,  avg # of iterations = 22.5

     negative rho (up, down):  2.892E-03 0.000E+00
 
     Adding external electric field

     Computed dipole along edir(3) : 
        Dipole                1.1898 Ry au,          3.0241 Debye
        Dipole field          0.0022 Ry au, 
 
        Potential amp.       -0.2081 Ry
        Total length         46.3494 bohr
 

     total cpu time spent up to now is      732.5 secs

     total energy              =   -2941.48853191 Ry
     estimated scf accuracy    <       0.21386835 Ry

     iteration # 48     ecut=    29.40 Ry     beta= 0.05
     Davidson diagonalization with overlap
     c_bands:  2 eigenvalues not converged
     ethr =  1.68E-05,  avg # of iterations =  8.1

     negative rho (up, down):  2.854E-03 0.000E+00
 
     Adding external electric field

     Computed dipole along edir(3) : 
        Dipole                1.3341 Ry au,          3.3910 Debye
        Dipole field          0.0025 Ry au, 
 
        Potential amp.       -0.2334 Ry
        Total length         46.3494 bohr
 

     total cpu time spent up to now is      744.7 secs

     total energy              =   -2941.47597366 Ry
     estimated scf accuracy    <       0.34297082 Ry

     iteration # 49     ecut=    29.40 Ry     beta= 0.05
     Davidson diagonalization with overlap
     c_bands:  1 eigenvalues not converged
     c_bands:  1 eigenvalues not converged
     c_bands:  3 eigenvalues not converged
     c_bands:  3 eigenvalues not converged
     c_bands:  1 eigenvalues not converged
     c_bands:  2 eigenvalues not converged
     ethr =  1.68E-05,  avg # of iterations = 18.6

     negative rho (up, down):  3.194E-03 0.000E+00
 
     Adding external electric field

     Computed dipole along edir(3) : 
        Dipole                1.2362 Ry au,          3.1421 Debye
        Dipole field          0.0023 Ry au, 
 
        Potential amp.       -0.2163 Ry
        Total length         46.3494 bohr
 

     total cpu time spent up to now is      762.8 secs

     total energy              =   -2941.48486049 Ry
     estimated scf accuracy    <       0.29013527 Ry

     iteration # 50     ecut=    29.40 Ry     beta= 0.05
     Davidson diagonalization with overlap
     ethr =  1.68E-05,  avg # of iterations =  8.6

     negative rho (up, down):  4.250E-03 0.000E+00
 
     Adding external electric field

     Computed dipole along edir(3) : 
        Dipole                1.1312 Ry au,          2.8751 Debye
        Dipole field          0.0021 Ry au, 
 
        Potential amp.       -0.1979 Ry
        Total length         46.3494 bohr
 

     total cpu time spent up to now is      775.0 secs

     total energy              =   -2941.48579546 Ry
     estimated scf accuracy    <       0.02132047 Ry

     iteration # 51     ecut=    29.40 Ry     beta= 0.05
     Davidson diagonalization with overlap
     c_bands:  1 eigenvalues not converged
     c_bands:  4 eigenvalues not converged
     c_bands:  4 eigenvalues not converged
     c_bands:  3 eigenvalues not converged
     c_bands:  2 eigenvalues not converged
     c_bands:  1 eigenvalues not converged
     ethr =  5.37E-06,  avg # of iterations = 20.9

     negative rho (up, down):  5.286E-03 0.000E+00
 
     Adding external electric field

     Computed dipole along edir(3) : 
        Dipole                1.1826 Ry au,          3.0060 Debye
        Dipole field          0.0022 Ry au, 
 
        Potential amp.       -0.2069 Ry
        Total length         46.3494 bohr
 

     total cpu time spent up to now is      797.8 secs

     total energy              =   -2941.49710289 Ry
     estimated scf accuracy    <       0.16514200 Ry

     iteration # 52     ecut=    29.40 Ry     beta= 0.05
     Davidson diagonalization with overlap
     c_bands:  1 eigenvalues not converged
     c_bands:  2 eigenvalues not converged
     c_bands:  3 eigenvalues not converged
     c_bands:  2 eigenvalues not converged
     c_bands:  1 eigenvalues not converged
     ethr =  5.37E-06,  avg # of iterations = 15.1

     negative rho (up, down):  5.869E-03 0.000E+00
 
     Adding external electric field

     Computed dipole along edir(3) : 
        Dipole                1.3227 Ry au,          3.3619 Debye
        Dipole field          0.0025 Ry au, 
 
        Potential amp.       -0.2314 Ry
        Total length         46.3494 bohr
 

     total cpu time spent up to now is      812.6 secs

     total energy              =   -2941.48321097 Ry
     estimated scf accuracy    <       0.56815890 Ry

     iteration # 53     ecut=    29.40 Ry     beta= 0.05
     Davidson diagonalization with overlap
     c_bands:  1 eigenvalues not converged
     c_bands:  2 eigenvalues not converged
     c_bands:  2 eigenvalues not converged
     c_bands:  2 eigenvalues not converged
     c_bands:  1 eigenvalues not converged
     c_bands:  1 eigenvalues not converged
     ethr =  5.37E-06,  avg # of iterations = 18.3

     negative rho (up, down):  6.521E-03 0.000E+00
 
     Adding external electric field

     Computed dipole along edir(3) : 
        Dipole                1.4018 Ry au,          3.5630 Debye
        Dipole field          0.0026 Ry au, 
 
        Potential amp.       -0.2452 Ry
        Total length         46.3494 bohr
 

     total cpu time spent up to now is      829.9 secs

     total energy              =   -2941.48927628 Ry
     estimated scf accuracy    <       0.01659862 Ry

     iteration # 54     ecut=    29.40 Ry     beta= 0.05
     Davidson diagonalization with overlap
     c_bands:  1 eigenvalues not converged
     c_bands:  2 eigenvalues not converged
     c_bands:  1 eigenvalues not converged
     ethr =  4.18E-06,  avg # of iterations = 14.7

     negative rho (up, down):  7.638E-03 0.000E+00
 
     Adding external electric field

     Computed dipole along edir(3) : 
        Dipole                1.3363 Ry au,          3.3966 Debye
        Dipole field          0.0025 Ry au, 
 
        Potential amp.       -0.2338 Ry
        Total length         46.3494 bohr
 

     total cpu time spent up to now is      844.5 secs

     total energy              =   -2941.48974803 Ry
     estimated scf accuracy    <       0.02252421 Ry

     iteration # 55     ecut=    29.40 Ry     beta= 0.05
     Davidson diagonalization with overlap
     ethr =  4.18E-06,  avg # of iterations =  8.0

     negative rho (up, down):  9.060E-03 0.000E+00
 
     Adding external electric field

     Computed dipole along edir(3) : 
        Dipole                1.3300 Ry au,          3.3806 Debye
        Dipole field          0.0025 Ry au, 
 
        Potential amp.       -0.2327 Ry
        Total length         46.3494 bohr
 

     total cpu time spent up to now is      856.8 secs

     total energy              =   -2941.49028241 Ry
     estimated scf accuracy    <       0.01084241 Ry

     iteration # 56     ecut=    29.40 Ry     beta= 0.05
     Davidson diagonalization with overlap
     ethr =  2.73E-06,  avg # of iterations =  7.1

     negative rho (up, down):  1.003E-02 0.000E+00
 
     Adding external electric field

     Computed dipole along edir(3) : 
        Dipole                1.3662 Ry au,          3.4725 Debye
        Dipole field          0.0026 Ry au, 
 
        Potential amp.       -0.2390 Ry
        Total length         46.3494 bohr
 

     total cpu time spent up to now is      868.6 secs

     total energy              =   -2941.49016894 Ry
     estimated scf accuracy    <       0.00454881 Ry

     iteration # 57     ecut=    29.40 Ry     beta= 0.05
     Davidson diagonalization with overlap
     c_bands:  1 eigenvalues not converged
     c_bands:  2 eigenvalues not converged
     c_bands:  3 eigenvalues not converged
     ethr =  1.15E-06,  avg # of iterations = 14.8

     negative rho (up, down):  1.023E-02 0.000E+00
 
     Adding external electric field

     Computed dipole along edir(3) : 
        Dipole                1.3676 Ry au,          3.4761 Debye
        Dipole field          0.0026 Ry au, 
 
        Potential amp.       -0.2392 Ry
        Total length         46.3494 bohr
 

     total cpu time spent up to now is      885.2 secs

     total energy              =   -2941.49059973 Ry
     estimated scf accuracy    <       0.00067939 Ry

     iteration # 58     ecut=    29.40 Ry     beta= 0.05
     Davidson diagonalization with overlap
     c_bands:  1 eigenvalues not converged
     c_bands:  1 eigenvalues not converged
     ethr =  1.71E-07,  avg # of iterations = 16.5

     negative rho (up, down):  1.030E-02 0.000E+00
 
     Adding external electric field

     Computed dipole along edir(3) : 
        Dipole                1.3556 Ry au,          3.4456 Debye
        Dipole field          0.0026 Ry au, 
 
        Potential amp.       -0.2371 Ry
        Total length         46.3494 bohr
 

     total cpu time spent up to now is      903.9 secs

     total energy              =   -2941.49059679 Ry
     estimated scf accuracy    <       0.00074225 Ry

     iteration # 59     ecut=    29.40 Ry     beta= 0.05
     Davidson diagonalization with overlap
     ethr =  1.71E-07,  avg # of iterations =  7.1

     negative rho (up, down):  1.120E-02 0.000E+00
 
     Adding external electric field

     Computed dipole along edir(3) : 
        Dipole                1.3478 Ry au,          3.4259 Debye
        Dipole field          0.0025 Ry au, 
 
        Potential amp.       -0.2358 Ry
        Total length         46.3494 bohr
 

     total cpu time spent up to now is      915.8 secs

     total energy              =   -2941.49059517 Ry
     estimated scf accuracy    <       0.00053236 Ry

     iteration # 60     ecut=    29.40 Ry     beta= 0.05
     Davidson diagonalization with overlap
     ethr =  1.34E-07,  avg # of iterations = 13.4

     negative rho (up, down):  1.196E-02 0.000E+00
 
     Adding external electric field

     Computed dipole along edir(3) : 
        Dipole                1.3650 Ry au,          3.4696 Debye
        Dipole field          0.0026 Ry au, 
 
        Potential amp.       -0.2388 Ry
        Total length         46.3494 bohr
 

     total cpu time spent up to now is      935.1 secs

     total energy              =   -2941.49064468 Ry
     estimated scf accuracy    <       0.00106560 Ry

     iteration # 61     ecut=    29.40 Ry     beta= 0.05
     Davidson diagonalization with overlap
     c_bands:  1 eigenvalues not converged
     c_bands:  1 eigenvalues not converged
     ethr =  1.34E-07,  avg # of iterations = 10.5

     negative rho (up, down):  1.221E-02 0.000E+00
 
     Adding external electric field

     Computed dipole along edir(3) : 
        Dipole                1.3652 Ry au,          3.4700 Debye
        Dipole field          0.0026 Ry au, 
 
        Potential amp.       -0.2388 Ry
        Total length         46.3494 bohr
 

     total cpu time spent up to now is      948.5 secs

     total energy              =   -2941.49067677 Ry
     estimated scf accuracy    <       0.00018586 Ry

     iteration # 62     ecut=    29.40 Ry     beta= 0.05
     Davidson diagonalization with overlap
     c_bands:  4 eigenvalues not converged
     c_bands:  1 eigenvalues not converged
     ethr =  4.68E-08,  avg # of iterations = 13.2

     negative rho (up, down):  1.210E-02 0.000E+00
 
     Adding external electric field

     Computed dipole along edir(3) : 
        Dipole                1.3662 Ry au,          3.4725 Debye
        Dipole field          0.0026 Ry au, 
 
        Potential amp.       -0.2390 Ry
        Total length         46.3494 bohr
 

     total cpu time spent up to now is      966.1 secs

     total energy              =   -2941.49070885 Ry
     estimated scf accuracy    <       0.00010409 Ry

     iteration # 63     ecut=    29.40 Ry     beta= 0.05
     Davidson diagonalization with overlap
     c_bands:  2 eigenvalues not converged
     ethr =  2.62E-08,  avg # of iterations =  9.8

     negative rho (up, down):  1.226E-02 0.000E+00
 
     Adding external electric field

     Computed dipole along edir(3) : 
        Dipole                1.3588 Ry au,          3.4537 Debye
        Dipole field          0.0026 Ry au, 
 
        Potential amp.       -0.2377 Ry
        Total length         46.3494 bohr
 

     total cpu time spent up to now is      979.0 secs

     total energy              =   -2941.49069838 Ry
     estimated scf accuracy    <       0.00010410 Ry

     iteration # 64     ecut=    29.40 Ry     beta= 0.05
     Davidson diagonalization with overlap
     c_bands:  2 eigenvalues not converged
     ethr =  2.62E-08,  avg # of iterations =  7.9

     negative rho (up, down):  1.257E-02 0.000E+00
 
     Adding external electric field

     Computed dipole along edir(3) : 
        Dipole                1.3581 Ry au,          3.4518 Debye
        Dipole field          0.0026 Ry au, 
 
        Potential amp.       -0.2376 Ry
        Total length         46.3494 bohr
 

     total cpu time spent up to now is      992.3 secs

     total energy              =   -2941.49072560 Ry
     estimated scf accuracy    <       0.00006716 Ry

     iteration # 65     ecut=    29.40 Ry     beta= 0.05
     Davidson diagonalization with overlap
     ethr =  1.69E-08,  avg # of iterations =  8.7

     negative rho (up, down):  1.272E-02 0.000E+00
 
     Adding external electric field

     Computed dipole along edir(3) : 
        Dipole                1.3623 Ry au,          3.4626 Debye
        Dipole field          0.0026 Ry au, 
 
        Potential amp.       -0.2383 Ry
        Total length         46.3494 bohr
 

     total cpu time spent up to now is     1007.1 secs

     total energy              =   -2941.49073103 Ry
     estimated scf accuracy    <       0.00009686 Ry

     iteration # 66     ecut=    29.40 Ry     beta= 0.05
     Davidson diagonalization with overlap
     ethr =  1.69E-08,  avg # of iterations =  3.1

     negative rho (up, down):  1.287E-02 0.000E+00
 
     Adding external electric field

     Computed dipole along edir(3) : 
        Dipole                1.3701 Ry au,          3.4824 Debye
        Dipole field          0.0026 Ry au, 
 
        Potential amp.       -0.2397 Ry
        Total length         46.3494 bohr
 

     total cpu time spent up to now is     1018.1 secs

     total energy              =   -2941.49072884 Ry
     estimated scf accuracy    <       0.00004214 Ry

     iteration # 67     ecut=    29.40 Ry     beta= 0.05
     Davidson diagonalization with overlap
     ethr =  1.06E-08,  avg # of iterations = 14.4

     negative rho (up, down):  1.295E-02 0.000E+00
 
     Adding external electric field

     Computed dipole along edir(3) : 
        Dipole                1.3668 Ry au,          3.4741 Debye
        Dipole field          0.0026 Ry au, 
 
        Potential amp.       -0.2391 Ry
        Total length         46.3494 bohr
 

     total cpu time spent up to now is     1040.3 secs

     total energy              =   -2941.49074064 Ry
     estimated scf accuracy    <       0.00008319 Ry

     iteration # 68     ecut=    29.40 Ry     beta= 0.05
     Davidson diagonalization with overlap
     ethr =  1.06E-08,  avg # of iterations =  4.0

     negative rho (up, down):  1.310E-02 0.000E+00
 
     Adding external electric field

     Computed dipole along edir(3) : 
        Dipole                1.3621 Ry au,          3.4621 Debye
        Dipole field          0.0026 Ry au, 
 
        Potential amp.       -0.2383 Ry
        Total length         46.3494 bohr
 

     total cpu time spent up to now is     1051.7 secs

     total energy              =   -2941.49073616 Ry
     estimated scf accuracy    <       0.00003077 Ry

     iteration # 69     ecut=    29.40 Ry     beta= 0.05
     Davidson diagonalization with overlap
     c_bands:  1 eigenvalues not converged
     ethr =  7.75E-09,  avg # of iterations = 13.7

     negative rho (up, down):  1.323E-02 0.000E+00
 
     Adding external electric field

     Computed dipole along edir(3) : 
        Dipole                1.3642 Ry au,          3.4675 Debye
        Dipole field          0.0026 Ry au, 
 
        Potential amp.       -0.2386 Ry
        Total length         46.3494 bohr
 

     total cpu time spent up to now is     1073.7 secs

     total energy              =   -2941.49075027 Ry
     estimated scf accuracy    <       0.00005388 Ry

     iteration # 70     ecut=    29.40 Ry     beta= 0.05
     Davidson diagonalization with overlap
     ethr =  7.75E-09,  avg # of iterations =  6.0

     negative rho (up, down):  1.327E-02 0.000E+00
 
     Adding external electric field

     Computed dipole along edir(3) : 
        Dipole                1.3675 Ry au,          3.4759 Debye
        Dipole field          0.0026 Ry au, 
 
        Potential amp.       -0.2392 Ry
        Total length         46.3494 bohr
 

     total cpu time spent up to now is     1085.4 secs

     total energy              =   -2941.49074859 Ry
     estimated scf accuracy    <       0.00002244 Ry

     iteration # 71     ecut=    29.40 Ry     beta= 0.05
     Davidson diagonalization with overlap
     ethr =  5.65E-09,  avg # of iterations = 13.0

     negative rho (up, down):  1.332E-02 0.000E+00
 
     Adding external electric field

     Computed dipole along edir(3) : 
        Dipole                1.3670 Ry au,          3.4745 Debye
        Dipole field          0.0026 Ry au, 
 
        Potential amp.       -0.2391 Ry
        Total length         46.3494 bohr
 

     total cpu time spent up to now is     1104.4 secs

     total energy              =   -2941.49075831 Ry
     estimated scf accuracy    <       0.00001169 Ry

     iteration # 72     ecut=    29.40 Ry     beta= 0.05
     Davidson diagonalization with overlap
     ethr =  2.94E-09,  avg # of iterations =  1.8

     negative rho (up, down):  1.338E-02 0.000E+00
 
     Adding external electric field

     Computed dipole along edir(3) : 
        Dipole                1.3656 Ry au,          3.4710 Debye
        Dipole field          0.0026 Ry au, 
 
        Potential amp.       -0.2389 Ry
        Total length         46.3494 bohr
 

     total cpu time spent up to now is     1114.8 secs

     total energy              =   -2941.49075884 Ry
     estimated scf accuracy    <       0.00000806 Ry

     iteration # 73     ecut=    29.40 Ry     beta= 0.05
     Davidson diagonalization with overlap
     ethr =  2.03E-09,  avg # of iterations =  8.2

     negative rho (up, down):  1.340E-02 0.000E+00
 
     Adding external electric field

     Computed dipole along edir(3) : 
        Dipole                1.3662 Ry au,          3.4725 Debye
        Dipole field          0.0026 Ry au, 
 
        Potential amp.       -0.2390 Ry
        Total length         46.3494 bohr
 

     total cpu time spent up to now is     1129.7 secs

     total energy              =   -2941.49076168 Ry
     estimated scf accuracy    <       0.00000168 Ry

     iteration # 74     ecut=    29.40 Ry     beta= 0.05
     Davidson diagonalization with overlap
     ethr =  4.24E-10,  avg # of iterations =  9.5

     negative rho (up, down):  1.343E-02 0.000E+00
 
     Adding external electric field

     Computed dipole along edir(3) : 
        Dipole                1.3663 Ry au,          3.4727 Debye
        Dipole field          0.0026 Ry au, 
 
        Potential amp.       -0.2390 Ry
        Total length         46.3494 bohr
 

     total cpu time spent up to now is     1144.2 secs

     total energy              =   -2941.49076346 Ry
     estimated scf accuracy    <       0.00000110 Ry

     iteration # 75     ecut=    29.40 Ry     beta= 0.05
     Davidson diagonalization with overlap
     ethr =  2.76E-10,  avg # of iterations =  7.0

     negative rho (up, down):  1.342E-02 0.000E+00
 
     Adding external electric field

     Computed dipole along edir(3) : 
        Dipole                1.3669 Ry au,          3.4743 Debye
        Dipole field          0.0026 Ry au, 
 
        Potential amp.       -0.2391 Ry
        Total length         46.3494 bohr
 

     total cpu time spent up to now is     1156.3 secs

     total energy              =   -2941.49076483 Ry
     estimated scf accuracy    <       0.00000092 Ry

     iteration # 76     ecut=    29.40 Ry     beta= 0.05
     Davidson diagonalization with overlap
     c_bands:  1 eigenvalues not converged
     ethr =  2.33E-10,  avg # of iterations = 12.0

     negative rho (up, down):  1.343E-02 0.000E+00
 
     Adding external electric field

     Computed dipole along edir(3) : 
        Dipole                1.3664 Ry au,          3.4731 Debye
        Dipole field          0.0026 Ry au, 
 
        Potential amp.       -0.2390 Ry
        Total length         46.3494 bohr
 

     total cpu time spent up to now is     1173.5 secs

     total energy              =   -2941.49076611 Ry
     estimated scf accuracy    <       0.00000159 Ry

     iteration # 77     ecut=    29.40 Ry     beta= 0.05
     Davidson diagonalization with overlap
     ethr =  2.33E-10,  avg # of iterations =  5.0

     negative rho (up, down):  1.344E-02 0.000E+00
 
     Adding external electric field

     Computed dipole along edir(3) : 
        Dipole                1.3660 Ry au,          3.4721 Debye
        Dipole field          0.0026 Ry au, 
 
        Potential amp.       -0.2390 Ry
        Total length         46.3494 bohr
 

     total cpu time spent up to now is     1185.2 secs

     total energy              =   -2941.49076716 Ry
     estimated scf accuracy    <       0.00000058 Ry

     iteration # 78     ecut=    29.40 Ry     beta= 0.05
     Davidson diagonalization with overlap
     ethr =  1.46E-10,  avg # of iterations = 11.5

     negative rho (up, down):  1.344E-02 0.000E+00
 
     Adding external electric field

     Computed dipole along edir(3) : 
        Dipole                1.3665 Ry au,          3.4733 Debye
        Dipole field          0.0026 Ry au, 
 
        Potential amp.       -0.2391 Ry
        Total length         46.3494 bohr
 

     total cpu time spent up to now is     1203.3 secs

     total energy              =   -2941.49076829 Ry
     estimated scf accuracy    <       0.00000035 Ry

     iteration # 79     ecut=    29.40 Ry     beta= 0.05
     Davidson diagonalization with overlap
     c_bands:  1 eigenvalues not converged
     c_bands:  1 eigenvalues not converged
     ethr =  8.74E-11,  avg # of iterations = 10.3

     negative rho (up, down):  1.344E-02 0.000E+00
 
     Adding external electric field

     Computed dipole along edir(3) : 
        Dipole                1.3664 Ry au,          3.4730 Debye
        Dipole field          0.0026 Ry au, 
 
        Potential amp.       -0.2390 Ry
        Total length         46.3494 bohr
 

     total cpu time spent up to now is     1218.1 secs

     total energy              =   -2941.49076927 Ry
     estimated scf accuracy    <       0.00000013 Ry

     iteration # 80     ecut=    29.40 Ry     beta= 0.05
     Davidson diagonalization with overlap
     c_bands:  2 eigenvalues not converged
     ethr =  3.20E-11,  avg # of iterations = 11.1

     negative rho (up, down):  1.343E-02 0.000E+00
 
     Adding external electric field

     Computed dipole along edir(3) : 
        Dipole                1.3652 Ry au,          3.4699 Debye
        Dipole field          0.0026 Ry au, 
 
        Potential amp.       -0.2388 Ry
        Total length         46.3494 bohr
 

     total cpu time spent up to now is     1232.0 secs

     End of self-consistent calculation

          k = 0.0000 0.0000 0.0000 ( 18029 PWs)   bands (ev):

   -55.2823 -55.2433 -55.2432 -55.2091 -55.1579 -55.1559 -55.1193 -55.0925
   -55.0753 -55.0741 -55.0578 -55.0409 -54.9551 -54.7889 -54.2614 -54.2273
   -31.8545 -31.7339 -31.6443 -31.6092 -31.5823 -31.5798 -31.5773 -31.5329
   -31.5303 -31.4902 -31.4884 -31.4878 -31.4557 -31.4527 -31.4387 -31.4171
   -31.4019 -31.3969 -31.3926 -31.3915 -31.3553 -31.3503 -31.3366 -31.3231
   -31.3001 -31.2950 -31.2887 -31.2848 -31.2724 -31.2692 -31.2594 -31.2493
   -31.2426 -31.2376 -31.2076 -31.2031 -31.1962 -31.1839 -31.1462 -31.1039
   -31.0597 -30.9305 -30.6701 -30.5774 -30.5553 -30.4866 -30.3999 -30.2889
   -19.2344 -16.1239 -15.8618 -15.7339 -15.5423 -15.4761 -15.3806 -15.2429
   -15.1915 -15.1311 -15.0809 -15.0405 -15.0275 -14.9619 -14.9048 -14.8162
   -14.8146 -14.7985 -14.7877 -14.7759 -14.7724 -14.7101 -14.7075 -14.6802
   -14.6656 -14.6554 -14.5148 -14.4307 -14.3692 -14.2850 -14.0243 -12.7640
   -12.6467  -9.1438  -7.7997  -7.0585  -6.0287  -3.7879  -3.4616  -3.2887
    -3.2424  -3.2017  -3.1769  -3.0084  -2.9265  -2.6594  -2.5930  -2.5516
    -2.5042  -2.4931  -2.4675  -2.2960  -2.2652  -2.2255  -2.1888  -2.1648
    -2.1249  -2.0970  -2.0810  -2.0518  -2.0388  -2.0367  -1.8553  -1.7879
    -1.7668  -1.7026  -1.6845  -1.6672  -1.6094  -1.5805  -1.5674  -1.5650
    -1.5423  -1.5251  -1.5036  -1.4598  -1.3750  -1.2810  -1.2376  -1.2160
    -1.1025  -1.0404  -0.9134  -0.8712  -0.8571  -0.8297  -0.7580  -0.6920
    -0.6638  -0.6281  -0.4883  -0.4837  -0.3989  -0.3896  -0.3161  -0.2997
    -0.2594  -0.2139  -0.1024  -0.0687  -0.0473   0.0037   0.0679   0.0899
     0.1717   0.2259   0.2826   0.2965   0.3760   0.4155   0.4537   0.4753
     0.5619   0.6041   0.6637   0.6700   0.7071   0.7104   0.7351   0.8220
     0.8353   0.8550   0.8959   1.0653   1.2657   1.3177   1.3384   1.6712
     1.6904   1.7613   1.9465   2.3361   2.3836   3.8189   3.8844   3.9549
     3.9694   3.9795   4.0513   4.0963   4.2863   4.3154   4.3184   4.3392

          k = 0.0000 0.0419 0.0000 ( 17933 PWs)   bands (ev):

   -55.2775 -55.2479 -55.2381 -55.2140 -55.1561 -55.1513 -55.1238 -55.0874
   -55.0770 -55.0692 -55.0628 -55.0457 -54.9543 -54.7896 -54.2563 -54.2322
   -31.7972 -31.6798 -31.5950 -31.5899 -31.5419 -31.5359 -31.5307 -31.5281
   -31.5279 -31.5122 -31.4821 -31.4789 -31.4732 -31.4539 -31.4270 -31.4249
   -31.4121 -31.3938 -31.3829 -31.3808 -31.3785 -31.3547 -31.3308 -31.3190
   -31.3162 -31.3142 -31.3042 -31.2985 -31.2957 -31.2834 -31.2648 -31.2619
   -31.2504 -31.2466 -31.2398 -31.2382 -31.2349 -31.2133 -31.1496 -31.1027
   -31.0588 -30.9649 -30.6159 -30.5740 -30.5583 -30.4740 -30.4125 -30.3460
   -19.2328 -15.9927 -15.7499 -15.6255 -15.4706 -15.3696 -15.3531 -15.2583
   -15.1829 -15.1634 -15.1326 -15.0649 -15.0490 -14.9775 -14.9250 -14.8548
   -14.8434 -14.8167 -14.7815 -14.7689 -14.7578 -14.7322 -14.7150 -14.7125
   -14.6623 -14.6378 -14.5706 -14.4863 -14.4286 -14.3158 -14.1062 -12.7676
   -12.6860  -9.1425  -7.8005  -7.0562  -6.0297  -3.7954  -3.2708  -3.1227
    -3.0910  -3.0443  -2.9995  -2.8602  -2.7092  -2.6312  -2.5171  -2.5092
    -2.4251  -2.4213  -2.3945  -2.3417  -2.3055  -2.2859  -2.2739  -2.2532
    -2.2163  -2.1983  -2.1408  -2.0721  -2.0635  -2.0387  -2.0064  -1.9965
    -1.8754  -1.8637  -1.8263  -1.8122  -1.7552  -1.7044  -1.6501  -1.5730
    -1.5632  -1.4372  -1.4206  -1.3597  -1.2830  -1.2110  -1.1822  -1.0481
    -1.0355  -0.9640  -0.9133  -0.8331  -0.7145  -0.6720  -0.5998  -0.5806
    -0.5465  -0.5234  -0.4646  -0.4499  -0.3958  -0.3254  -0.2765  -0.2499
    -0.2188  -0.2076  -0.1786  -0.1085  -0.0983  -0.0770   0.0100   0.0902
     0.1331   0.1567   0.2118   0.2183   0.3223   0.3473   0.3705   0.4310
     0.4738   0.4811   0.5321   0.5495   0.5839   0.6898   0.7062   0.7670
     0.7938   0.8412   0.9360   1.0195   1.0338   1.0942   1.2067   1.3712
     1.5617   1.9457   2.0236   2.2908   2.2942   3.8546   3.9919   4.0484
     4.0613   4.1151   4.1992   4.2013   4.2319   4.2640   4.3187   4.3526

          k = 0.0000-0.0839 0.0000 ( 17884 PWs)   bands (ev):

   -55.2702 -55.2552 -55.2262 -55.2259 -55.1542 -55.1440 -55.1310 -55.0789
   -55.0765 -55.0737 -55.0578 -55.0570 -54.9534 -54.7903 -54.2443 -54.2441
   -31.6634 -31.6505 -31.5767 -31.5475 -31.5473 -31.5450 -31.5183 -31.5181
   -31.4823 -31.4726 -31.4663 -31.4541 -31.4501 -31.4460 -31.4158 -31.4074
   -31.3997 -31.3942 -31.3930 -31.3768 -31.3721 -31.3549 -31.3545 -31.3485
   -31.3484 -31.3454 -31.3438 -31.3425 -31.3200 -31.3096 -31.3076 -31.3066
   -31.2959 -31.2419 -31.2407 -31.2393 -31.2371 -31.2346 -31.1633 -31.0905
   -31.0573 -31.0081 -30.5659 -30.5659 -30.4828 -30.4827 -30.4433 -30.4432
   -19.2313 -15.6787 -15.6632 -15.5046 -15.4532 -15.3611 -15.3321 -15.3005
   -15.2008 -15.1741 -15.1336 -15.0740 -15.0560 -15.0317 -15.0075 -14.8793
   -14.8766 -14.8472 -14.8405 -14.8104 -14.7277 -14.6894 -14.6793 -14.6785
   -14.6225 -14.6201 -14.5726 -14.5706 -14.4766 -14.4453 -14.1944 -12.7487
   -12.7487  -9.1412  -7.8012  -7.0542  -6.0306  -3.8019  -2.8647  -2.8046
    -2.7839  -2.7394  -2.7340  -2.7110  -2.6941  -2.6651  -2.5798  -2.5593
    -2.5571  -2.4630  -2.4470  -2.4328  -2.4171  -2.4001  -2.3127  -2.2812
    -2.2643  -2.2361  -2.1920  -2.1562  -2.1328  -2.1103  -2.0917  -2.0236
    -1.9878  -1.9295  -1.8972  -1.8655  -1.7727  -1.7126  -1.6593  -1.5164
    -1.4304  -1.3451  -1.2963  -1.2498  -1.1914  -1.1045  -1.0582  -1.0375
    -1.0147  -0.8633  -0.7947  -0.7803  -0.7512  -0.7202  -0.6853  -0.6701
    -0.6464  -0.6299  -0.5707  -0.5372  -0.5161  -0.3909  -0.3309  -0.2181
    -0.1982  -0.1253  -0.0986  -0.0123   0.0147   0.0684   0.0965   0.1089
     0.1279   0.1591   0.1886   0.2440   0.2483   0.2823   0.3278   0.3564
     0.3772   0.3863   0.4563   0.5015   0.5076   0.5109   0.5360   0.5633
     0.6429   0.8469   0.9298   0.9364   0.9369   1.0597   1.1564   1.2924
     1.3112   2.0882   2.0889   2.2267   2.2268   3.7341   4.0109   4.0956
     4.1172   4.1512   4.2852   4.2976   4.3209   4.3942   4.4177   4.4341

          k = 0.0380 0.0000 0.0000 ( 17913 PWs)   bands (ev):

   -55.2822 -55.2432 -55.2431 -55.2090 -55.1578 -55.1559 -55.1192 -55.0921
   -55.0752 -55.0743 -55.0577 -55.0408 -54.9550 -54.7888 -54.2612 -54.2272
   -31.8546 -31.7347 -31.6498 -31.6097 -31.5864 -31.5815 -31.5776 -31.5327
   -31.5302 -31.4883 -31.4876 -31.4728 -31.4561 -31.4526 -31.4383 -31.4106
   -31.4016 -31.3928 -31.3823 -31.3737 -31.3550 -31.3542 -31.3502 -31.3228
   -31.3002 -31.2947 -31.2881 -31.2776 -31.2725 -31.2699 -31.2667 -31.2592
   -31.2436 -31.2434 -31.2059 -31.2030 -31.1958 -31.1847 -31.1468 -31.1037
   -31.0606 -30.9304 -30.6696 -30.5809 -30.5533 -30.4864 -30.3998 -30.2886
   -19.2339 -16.0518 -15.7778 -15.6775 -15.5532 -15.3870 -15.3696 -15.2864
   -15.2142 -15.1919 -15.0848 -15.0532 -15.0274 -14.9754 -14.9634 -14.9560
   -14.9547 -14.8927 -14.8636 -14.7359 -14.6862 -14.6783 -14.6626 -14.6263
   -14.5891 -14.5249 -14.5064 -14.5016 -14.4571 -14.3032 -14.0242 -12.7606
   -12.6464  -9.1386  -7.8028  -7.0472  -6.0333  -3.8178  -3.3707  -3.1363
    -3.0538  -3.0225  -2.9173  -2.9068  -2.8826  -2.8059  -2.6582  -2.6353
    -2.5989  -2.5612  -2.4427  -2.3576  -2.3278  -2.2641  -2.2093  -2.0826
    -2.0729  -2.0395  -2.0043  -1.9720  -1.9343  -1.8931  -1.8439  -1.8224
    -1.7302  -1.7027  -1.6320  -1.6256  -1.6094  -1.5795  -1.5601  -1.5277
    -1.5071  -1.4261  -1.3940  -1.3392  -1.3021  -1.2828  -1.2383  -1.1661
    -1.0882  -1.0745  -0.9236  -0.9047  -0.8699  -0.7727  -0.7509  -0.7110
    -0.6971  -0.6617  -0.6199  -0.6034  -0.4952  -0.3968  -0.3425  -0.2981
    -0.2693  -0.2048  -0.1711  -0.1487  -0.1157   0.0231   0.0439   0.0678
     0.1241   0.1968   0.2283   0.2554   0.3348   0.3523   0.3810   0.4267
     0.4629   0.4847   0.5033   0.5440   0.5847   0.6720   0.6962   0.7370
     0.7871   0.8036   0.8649   0.9439   1.0634   1.1691   1.3866   1.5519
     1.6767   1.7731   1.9155   2.2237   2.3009   3.8368   3.9121   3.9812
     4.0933   4.1175   4.1458   4.2128   4.2553   4.2861   4.3085   4.3242

          k = 0.0380 0.0419 0.0000 ( 17878 PWs)   bands (ev):

   -55.2774 -55.2479 -55.2381 -55.2140 -55.1560 -55.1513 -55.1238 -55.0871
   -55.0770 -55.0694 -55.0627 -55.0457 -54.9542 -54.7895 -54.2562 -54.2322
   -31.7973 -31.6807 -31.5964 -31.5950 -31.5429 -31.5363 -31.5338 -31.5303
   -31.5278 -31.5125 -31.4823 -31.4735 -31.4647 -31.4539 -31.4253 -31.4171
   -31.4122 -31.3934 -31.3793 -31.3722 -31.3618 -31.3548 -31.3470 -31.3185
   -31.3139 -31.3138 -31.2987 -31.2982 -31.2920 -31.2823 -31.2755 -31.2638
   -31.2524 -31.2520 -31.2460 -31.2387 -31.2369 -31.2133 -31.1502 -31.1025
   -31.0598 -30.9648 -30.6155 -30.5767 -30.5573 -30.4738 -30.4126 -30.3459
   -19.2325 -15.9259 -15.6681 -15.5770 -15.4730 -15.3578 -15.2777 -15.2594
   -15.2071 -15.1957 -15.1342 -15.0678 -15.0401 -14.9855 -14.9730 -14.9593
   -14.9301 -14.9055 -14.8139 -14.7848 -14.7279 -14.7101 -14.6852 -14.6413
   -14.6162 -14.6015 -14.5667 -14.5495 -14.5109 -14.3226 -14.1085 -12.7653
   -12.6863  -9.1373  -7.8048  -7.0501  -6.0339  -3.8004  -3.1965  -2.9734
    -2.8866  -2.8708  -2.7608  -2.7152  -2.7020  -2.6468  -2.5546  -2.5138
    -2.4573  -2.4086  -2.3596  -2.3345  -2.3145  -2.2704  -2.2206  -2.1949
    -2.1641  -2.1124  -2.0949  -2.0699  -2.0326  -1.9795  -1.9688  -1.9522
    -1.8758  -1.8490  -1.8335  -1.7910  -1.7337  -1.6675  -1.6340  -1.5764
    -1.5209  -1.4475  -1.3647  -1.3361  -1.2849  -1.2326  -1.1004  -1.0658
    -1.0034  -0.9827  -0.8776  -0.8225  -0.7675  -0.7344  -0.6812  -0.6600
    -0.6377  -0.5598  -0.5438  -0.4997  -0.4641  -0.4205  -0.3774  -0.3259
    -0.2726  -0.2390  -0.2016  -0.1733  -0.1427  -0.0641  -0.0298   0.0131
     0.0430   0.0629   0.0921   0.1062   0.1591   0.1910   0.2774   0.3105
     0.3564   0.3880   0.4485   0.5022   0.5374   0.6406   0.6942   0.7501
     0.8301   0.8731   0.8948   0.9758   1.0325   1.1401   1.1583   1.3196
     1.5165   1.9565   2.0271   2.2131   2.2758   3.7862   3.9958   4.0348
     4.0539   4.1572   4.2081   4.2411   4.2551   4.3383   4.3858   4.4006

          k = 0.0380-0.0839 0.0000 ( 17916 PWs)   bands (ev):

   -55.2702 -55.2552 -55.2263 -55.2259 -55.1542 -55.1441 -55.1311 -55.0789
   -55.0763 -55.0735 -55.0580 -55.0572 -54.9535 -54.7903 -54.2443 -54.2442
   -31.6637 -31.6507 -31.5769 -31.5483 -31.5480 -31.5452 -31.5183 -31.5181
   -31.4830 -31.4822 -31.4734 -31.4706 -31.4249 -31.4219 -31.4178 -31.4074
   -31.4059 -31.4014 -31.3946 -31.3792 -31.3676 -31.3557 -31.3528 -31.3469
   -31.3466 -31.3461 -31.3294 -31.3237 -31.3221 -31.3158 -31.3095 -31.3066
   -31.2902 -31.2539 -31.2528 -31.2424 -31.2380 -31.2369 -31.1634 -31.0906
   -31.0590 -31.0081 -30.5670 -30.5669 -30.4827 -30.4826 -30.4433 -30.4432
   -19.2310 -15.6332 -15.6169 -15.4528 -15.3999 -15.3535 -15.3209 -15.2649
   -15.1870 -15.1696 -15.1388 -15.0851 -15.0531 -15.0081 -14.9720 -14.9154
   -14.9002 -14.8977 -14.8419 -14.8165 -14.7645 -14.7371 -14.7087 -14.7060
   -14.6424 -14.6395 -14.6226 -14.6215 -14.4690 -14.4384 -14.1989 -12.7485
   -12.7485  -9.1361  -7.8054  -7.0483  -6.0348  -3.8068  -2.8523  -2.7637
    -2.6966  -2.5767  -2.5584  -2.5467  -2.5161  -2.4979  -2.4657  -2.4467
    -2.3787  -2.3726  -2.3616  -2.3585  -2.3327  -2.3206  -2.2658  -2.2408
    -2.1944  -2.1797  -2.1619  -2.1552  -2.1375  -2.0778  -2.0377  -1.9892
    -1.9753  -1.9602  -1.8859  -1.8536  -1.8317  -1.6128  -1.5208  -1.4832
    -1.4191  -1.3373  -1.2941  -1.2518  -1.2155  -1.2010  -1.1674  -1.1337
    -1.1184  -1.0276  -1.0024  -0.9564  -0.9531  -0.8601  -0.8246  -0.7240
    -0.6834  -0.6634  -0.6269  -0.5879  -0.5113  -0.4626  -0.3733  -0.3279
    -0.2920  -0.2450  -0.1969  -0.1229  -0.0986  -0.0876  -0.0737  -0.0616
    -0.0097   0.0835   0.0909   0.1242   0.1571   0.1964   0.2088   0.2301
     0.2557   0.4119   0.4460   0.4754   0.5085   0.6400   0.6676   0.7917
     0.7941   0.8384   0.8755   0.9615   0.9732   1.0475   1.0978   1.2850
     1.3011   2.1016   2.1023   2.2169   2.2175   3.7125   3.9704   4.0838
     4.1137   4.1443   4.2446   4.2735   4.3054   4.4066   4.4244   4.4724

          k = 0.0380-0.0419 0.0000 ( 17876 PWs)   bands (ev):

   -55.2774 -55.2479 -55.2381 -55.2140 -55.1560 -55.1513 -55.1238 -55.0871
   -55.0770 -55.0694 -55.0627 -55.0457 -54.9542 -54.7895 -54.2562 -54.2322
   -31.7973 -31.6807 -31.5964 -31.5949 -31.5428 -31.5363 -31.5337 -31.5303
   -31.5278 -31.5124 -31.4823 -31.4738 -31.4644 -31.4539 -31.4255 -31.4171
   -31.4122 -31.3934 -31.3793 -31.3730 -31.3618 -31.3550 -31.3471 -31.3185
   -31.3140 -31.3138 -31.2987 -31.2981 -31.2919 -31.2771 -31.2757 -31.2636
   -31.2563 -31.2521 -31.2460 -31.2385 -31.2369 -31.2133 -31.1497 -31.1029
   -31.0600 -30.9647 -30.6155 -30.5767 -30.5573 -30.4738 -30.4126 -30.3459
   -19.2324 -15.9273 -15.6740 -15.5814 -15.4696 -15.3566 -15.2755 -15.2547
   -15.2055 -15.1945 -15.1403 -15.0673 -15.0361 -14.9853 -14.9722 -14.9580
   -14.9303 -14.8907 -14.8139 -14.7849 -14.7280 -14.7101 -14.6858 -14.6411
   -14.6277 -14.6008 -14.5667 -14.5499 -14.5113 -14.3312 -14.1064 -12.7653
   -12.6863  -9.1373  -7.8032  -7.0450  -6.0342  -3.8239  -3.1965  -2.9742
    -2.8868  -2.8681  -2.7600  -2.7151  -2.7084  -2.6486  -2.5577  -2.5069
    -2.4480  -2.4153  -2.3540  -2.3338  -2.3249  -2.2593  -2.2115  -2.1960
    -2.1591  -2.1206  -2.0952  -2.0780  -2.0327  -2.0008  -1.9698  -1.9504
    -1.8924  -1.8453  -1.7969  -1.7792  -1.7126  -1.6808  -1.6361  -1.5597
    -1.4897  -1.4284  -1.3742  -1.3238  -1.2813  -1.2698  -1.0909  -1.0667
    -1.0043  -0.9821  -0.8787  -0.8244  -0.7710  -0.7575  -0.6860  -0.6626
    -0.6377  -0.5918  -0.5255  -0.4978  -0.4578  -0.4382  -0.3537  -0.3465
    -0.2726  -0.2306  -0.2091  -0.1650  -0.1574  -0.0858  -0.0376  -0.0064
     0.0374   0.0509   0.0991   0.1087   0.1612   0.2049   0.2741   0.3008
     0.3551   0.3951   0.4518   0.5057   0.5369   0.6548   0.6992   0.7610
     0.8294   0.8660   0.8949   0.9924   1.0559   1.1398   1.1486   1.3199
     1.5164   1.9566   2.0271   2.2129   2.2765   3.8523   4.0003   4.0421
     4.0633   4.1611   4.2155   4.2300   4.2579   4.3225   4.3856   4.4034

          k =-0.0760-0.0000 0.0000 ( 17886 PWs)   bands (ev):

   -55.2821 -55.2432 -55.2430 -55.2090 -55.1578 -55.1559 -55.1192 -55.0917
   -55.0752 -55.0746 -55.0577 -55.0408 -54.9550 -54.7887 -54.2612 -54.2272
   -31.8548 -31.7357 -31.6549 -31.6103 -31.5905 -31.5830 -31.5779 -31.5325
   -31.5301 -31.4883 -31.4876 -31.4568 -31.4527 -31.4473 -31.4382 -31.4051
   -31.4011 -31.3896 -31.3802 -31.3722 -31.3550 -31.3502 -31.3350 -31.3235
   -31.3085 -31.3007 -31.2945 -31.2879 -31.2724 -31.2705 -31.2617 -31.2593
   -31.2540 -31.2455 -31.2043 -31.2029 -31.1957 -31.1861 -31.1475 -31.1037
   -31.0615 -30.9304 -30.6692 -30.5843 -30.5519 -30.4864 -30.3997 -30.2887
   -19.2335 -15.9525 -15.7074 -15.6237 -15.5113 -15.3955 -15.3524 -15.2712
   -15.2428 -15.1682 -15.1311 -15.0914 -15.0453 -15.0388 -15.0272 -15.0028
   -14.9904 -14.9296 -14.8922 -14.7299 -14.6818 -14.6812 -14.6701 -14.6450
   -14.5943 -14.5427 -14.5271 -14.4341 -14.4192 -14.3211 -14.0241 -12.7576
   -12.6461  -9.1333  -7.8059  -7.0359  -6.0380  -3.8449  -3.3436  -3.1002
    -2.9291  -2.8940  -2.7652  -2.7601  -2.7579  -2.7430  -2.6539  -2.6347
    -2.5770  -2.5305  -2.5148  -2.3646  -2.2619  -2.1632  -2.1200  -2.0545
    -1.9613  -1.9339  -1.9101  -1.9064  -1.8524  -1.8434  -1.7743  -1.7611
    -1.7260  -1.6723  -1.6582  -1.6403  -1.6031  -1.5822  -1.5789  -1.5636
    -1.5481  -1.4906  -1.4556  -1.4269  -1.3400  -1.2568  -1.1265  -1.0817
    -0.9715  -0.9704  -0.9149  -0.8988  -0.8933  -0.8501  -0.8082  -0.7817
    -0.7358  -0.6916  -0.6192  -0.6102  -0.5989  -0.5441  -0.5055  -0.4749
    -0.2891  -0.2679  -0.2408  -0.1974  -0.1612  -0.0478   0.0016   0.0279
     0.0875   0.1052   0.1204   0.2320   0.2661   0.2994   0.3064   0.3456
     0.3835   0.4270   0.4335   0.4747   0.5217   0.5761   0.5954   0.6983
     0.7039   0.8397   0.8630   1.0180   1.0465   1.2199   1.2756   1.4086
     1.6818   1.7945   1.8907   2.0938   2.2458   3.8322   3.8713   3.9223
     3.9664   4.0976   4.1595   4.1968   4.2562   4.3081   4.3356   4.3580

          k =-0.0760 0.0419 0.0000 ( 17914 PWs)   bands (ev):

   -55.2774 -55.2479 -55.2381 -55.2140 -55.1560 -55.1513 -55.1238 -55.0868
   -55.0770 -55.0697 -55.0627 -55.0458 -54.9543 -54.7895 -54.2562 -54.2322
   -31.7976 -31.6817 -31.6025 -31.5953 -31.5440 -31.5384 -31.5363 -31.5316
   -31.5278 -31.5126 -31.4825 -31.4735 -31.4541 -31.4468 -31.4260 -31.4125
   -31.4077 -31.3933 -31.3769 -31.3672 -31.3638 -31.3546 -31.3233 -31.3208
   -31.3137 -31.3132 -31.3120 -31.3012 -31.2984 -31.2751 -31.2742 -31.2639
   -31.2611 -31.2585 -31.2517 -31.2405 -31.2386 -31.2134 -31.1503 -31.1029
   -31.0613 -30.9648 -30.6152 -30.5797 -30.5566 -30.4739 -30.4126 -30.3459
   -19.2321 -15.8360 -15.6027 -15.5335 -15.4371 -15.3596 -15.2848 -15.2403
   -15.2185 -15.1715 -15.0796 -15.0655 -15.0581 -15.0189 -15.0043 -14.9940
   -14.9856 -14.9659 -14.9001 -14.7951 -14.7354 -14.7097 -14.7007 -14.6539
   -14.6391 -14.5929 -14.5698 -14.5258 -14.5225 -14.3379 -14.1086 -12.7632
   -12.6866  -9.1321  -7.8076  -7.0391  -6.0386  -3.8279  -3.1780  -2.9420
    -2.7097  -2.6770  -2.6137  -2.5754  -2.5570  -2.5371  -2.4792  -2.4297
    -2.4237  -2.4032  -2.3159  -2.3137  -2.2769  -2.2297  -2.2232  -2.1593
    -2.0963  -2.0789  -2.0161  -2.0100  -1.9730  -1.9218  -1.8809  -1.8597
    -1.8426  -1.8266  -1.7969  -1.7547  -1.7418  -1.6628  -1.6064  -1.5118
    -1.4578  -1.4464  -1.4333  -1.3483  -1.2809  -1.2446  -1.0607  -1.0530
    -1.0186  -0.9543  -0.9017  -0.8807  -0.8630  -0.8372  -0.7673  -0.7103
    -0.6828  -0.6571  -0.6164  -0.5939  -0.5251  -0.5160  -0.5039  -0.4920
    -0.4698  -0.4006  -0.3802  -0.3295  -0.2852  -0.2110  -0.1719  -0.0797
    -0.0748  -0.0462  -0.0018   0.0348   0.0827   0.1674   0.1730   0.2773
     0.3043   0.3655   0.4787   0.4836   0.5407   0.5725   0.6987   0.7492
     0.8633   0.9462   0.9946   1.0056   1.1062   1.1609   1.2178   1.2440
     1.3882   1.9717   2.0294   2.1354   2.2651   3.7862   3.9892   4.0334
     4.0422   4.0660   4.1470   4.2156   4.2221   4.2934   4.3399   4.4369

          k =-0.0760-0.0839 0.0000 ( 17948 PWs)   bands (ev):

   -55.2702 -55.2552 -55.2263 -55.2259 -55.1542 -55.1441 -55.1311 -55.0789
   -55.0762 -55.0733 -55.0582 -55.0574 -54.9535 -54.7904 -54.2443 -54.2442
   -31.6640 -31.6510 -31.5771 -31.5491 -31.5488 -31.5455 -31.5184 -31.5182
   -31.4909 -31.4825 -31.4778 -31.4741 -31.4197 -31.4108 -31.4107 -31.4073
   -31.4053 -31.4010 -31.3945 -31.3794 -31.3671 -31.3566 -31.3522 -31.3456
   -31.3453 -31.3435 -31.3422 -31.3263 -31.3096 -31.3066 -31.2903 -31.2876
   -31.2828 -31.2811 -31.2810 -31.2502 -31.2385 -31.2370 -31.1635 -31.0908
   -31.0606 -31.0081 -30.5680 -30.5679 -30.4826 -30.4826 -30.4433 -30.4432
   -19.2307 -15.5891 -15.5126 -15.4569 -15.3671 -15.2888 -15.2689 -15.2589
   -15.2258 -15.1589 -15.1357 -15.0703 -15.0353 -14.9897 -14.9868 -14.9717
   -14.8871 -14.8679 -14.8528 -14.8485 -14.7875 -14.7861 -14.7591 -14.7367
   -14.7300 -14.7263 -14.6265 -14.6255 -14.4618 -14.4337 -14.2031 -12.7483
   -12.7483  -9.1310  -7.8095  -7.0425  -6.0390  -3.8114  -2.8502  -2.7637
    -2.6748  -2.5180  -2.4808  -2.4705  -2.4186  -2.3250  -2.2986  -2.2855
    -2.2651  -2.2578  -2.1855  -2.1800  -2.1357  -2.1141  -2.1033  -2.0973
    -2.0642  -2.0508  -2.0368  -1.9999  -1.9915  -1.9767  -1.9412  -1.9214
    -1.8969  -1.8696  -1.8552  -1.8256  -1.7030  -1.6744  -1.6295  -1.5706
    -1.5423  -1.4751  -1.4699  -1.3719  -1.3557  -1.3451  -1.3038  -1.2897
    -1.2746  -1.1067  -1.0626  -1.0270  -1.0152  -1.0093  -0.8535  -0.8369
    -0.7690  -0.7533  -0.7383  -0.6621  -0.6206  -0.6059  -0.5244  -0.4846
    -0.4550  -0.4341  -0.2918  -0.2789  -0.2532  -0.2389  -0.2322  -0.1397
    -0.1193  -0.0833  -0.0492  -0.0112   0.0052   0.0644   0.2176   0.2442
     0.2808   0.4250   0.4406   0.5260   0.5732   0.7005   0.7651   0.7673
     0.8487   0.9187   1.0206   1.0331   1.0524   1.1383   1.1845   1.1895
     1.1907   2.1193   2.1201   2.2036   2.2039   3.6961   3.9583   4.0808
     4.0870   4.1294   4.2520   4.3357   4.3592   4.3971   4.3992   4.4733

     the Fermi energy is     3.8739 ev

!    total energy              =   -2941.49077771 Ry
     estimated scf accuracy    <       0.00000006 Ry
     smearing contrib. (-TS)   =      -0.04232858 Ry
     internal energy E=F+TS    =   -2941.44844913 Ry

     The total energy is F=E-TS. E is the sum of the following terms:
     one-electron contribution =  -23922.06466808 Ry
     hartree contribution      =   12054.22448255 Ry
     xc contribution           =    -486.86065191 Ry
     ewald contribution        =    9413.24887136 Ry
     electric field correction =       0.00351694 Ry

     convergence has been achieved in  80 iterations

     Forces acting on atoms (cartesian axes, Ry/au):

     atom    1 type  1   force =     0.00016939   -0.00017094    0.09406653
     atom    2 type  1   force =    -0.00005205   -0.00043365   -0.17753293
     atom    3 type  2   force =     0.00006611   -0.00004377   -0.02100927
     atom    4 type  2   force =     0.00001723   -0.00180502    0.05733225
     atom    5 type  2   force =    -0.01085887   -0.00090761    0.00781941
     atom    6 type  2   force =     0.01207144   -0.00033820    0.00621374
     atom    7 type  1   force =    -0.00065306    0.00289584   -0.01530234
     atom    8 type  1   force =     0.00059721    0.00230315    0.00235802
     atom    9 type  2   force =    -0.00010356    0.00013273    0.00092862
     atom   10 type  2   force =    -0.00165361   -0.00049485   -0.00379639
     atom   11 type  2   force =    -0.00004216   -0.00023679    0.00019928
     atom   12 type  2   force =    -0.00019795   -0.00039656    0.00026866
     atom   13 type  1   force =     0.00042478    0.00108427    0.00061592
     atom   14 type  1   force =     0.00020016   -0.00062118    0.00036561
     atom   15 type  2   force =    -0.00018425    0.00042829    0.00051292
     atom   16 type  2   force =    -0.00016280   -0.00024888   -0.00121809
     atom   17 type  2   force =     0.00016231   -0.00023474    0.00019391
     atom   18 type  2   force =    -0.00082008   -0.00032544    0.00008247
     atom   19 type  1   force =    -0.00055530    0.00110662   -0.00040481
     atom   20 type  1   force =    -0.00031863    0.00110631   -0.00120273
     atom   21 type  2   force =     0.00010874   -0.00004070    0.10378697
     atom   22 type  2   force =     0.00010439    0.00013289    0.00065526
     atom   23 type  2   force =    -0.07064064   -0.00018431   -0.02705543
     atom   24 type  2   force =     0.07058458    0.00029139   -0.02709288
     atom   25 type  1   force =     0.00014817   -0.00024576    0.09338657
     atom   26 type  1   force =    -0.00001005   -0.00037232   -0.17775885
     atom   27 type  2   force =     0.00010958   -0.00040115   -0.02001273
     atom   28 type  2   force =     0.00003408   -0.00146850    0.05681783
     atom   29 type  2   force =    -0.01076108   -0.00066128    0.00673618
     atom   30 type  2   force =     0.01187847   -0.00016760    0.00509296
     atom   31 type  1   force =    -0.00063303    0.00409905   -0.01561461
     atom   32 type  1   force =     0.00067279   -0.00276777    0.00213789
     atom   33 type  2   force =     0.00015568   -0.00022079   -0.00058288
     atom   34 type  2   force =    -0.00109241    0.00272114   -0.00203690
     atom   35 type  2   force =     0.00009613    0.00019993    0.00008846
     atom   36 type  2   force =    -0.00033652    0.00034147   -0.00007824
     atom   37 type  1   force =     0.00046570   -0.00008171    0.00031337
     atom   38 type  1   force =     0.00009662    0.00089761    0.00015492
     atom   39 type  2   force =    -0.00003757   -0.00095232    0.00042837
     atom   40 type  2   force =    -0.00023678   -0.00043401    0.00059573
     atom   41 type  2   force =    -0.00026950   -0.00006578   -0.00022156
     atom   42 type  2   force =     0.00010128    0.00000864    0.00022037
     atom   43 type  1   force =    -0.00001933   -0.00148352    0.00094519
     atom   44 type  1   force =    -0.00009279   -0.00081398   -0.00146600
     atom   45 type  2   force =     0.00009579   -0.00008069    0.10376548
     atom   46 type  2   force =    -0.07065675   -0.00009142   -0.02706384
     atom   47 type  2   force =     0.07060775    0.00029257   -0.02709984
     atom   48 type  3   force =    -0.00248044    0.00187163    0.00045522
     atom   49 type  4   force =     0.01036027   -0.01347978   -0.00514235
     atom   50 type  5   force =    -0.00032111    0.00379844    0.00374015
     atom   51 type  5   force =    -0.00579603    0.00678941    0.00188471
     atom   52 type  3   force =    -0.00164369    0.00119790   -0.00049724
     atom   53 type  5   force =     0.00029668   -0.00154035   -0.00076151
     atom   54 type  5   force =     0.00033471   -0.00013454    0.00117545
     atom   55 type  5   force =     0.00066998    0.00024660   -0.00038702

     Total force =     0.366320     Total SCF correction =     0.000645
  @ DRIVER MODE: Message from server: STATUS
  @ DRIVER MODE: Message from server: GETFORCE
  @ DRIVER MODE: Returning v,forces,stress,ensemble 

     Writing output data file ./calc.save/
  @ DRIVER MODE: Message from server: EXIT
  @ DRIVE MODE: Exiting  
 
     init_run     :     10.83s CPU     11.04s WALL (       1 calls)
     electrons    :   1202.78s CPU   1220.72s WALL (       1 calls)
     forces       :      2.30s CPU      2.40s WALL (       1 calls)

     Called by init_run:
     wfcinit      :      4.78s CPU      4.84s WALL (       1 calls)
     potinit      :      5.39s CPU      5.45s WALL (       1 calls)
     hinit0       :      0.30s CPU      0.31s WALL (       1 calls)

     Called by electrons:
     c_bands      :   1014.37s CPU   1021.77s WALL (      80 calls)
     sum_band     :    128.26s CPU    132.55s WALL (      80 calls)
     v_of_rho     :     44.48s CPU     46.62s WALL (      81 calls)
     newd         :     18.50s CPU     22.57s WALL (      81 calls)
     mix_rho      :      1.75s CPU      1.83s WALL (      80 calls)
     vdW_kernel   :      4.56s CPU      4.58s WALL (       1 calls)

     Called by c_bands:
     init_us_2    :      7.36s CPU      7.40s WALL (    1620 calls)
     cegterg      :    992.73s CPU    999.71s WALL (     815 calls)

     Called by *egterg:
     cdiaghg      :    163.16s CPU    163.86s WALL (    7830 calls)
     h_psi        :    534.22s CPU    539.10s WALL (    7840 calls)
     s_psi        :     70.69s CPU     70.92s WALL (    7840 calls)
     g_psi        :      1.89s CPU      1.90s WALL (    7015 calls)

     Called by h_psi:
     h_psi:calbec :     66.64s CPU     66.97s WALL (    7840 calls)
     vloc_psi     :    393.06s CPU    396.97s WALL (    7840 calls)
     add_vuspsi   :     71.06s CPU     71.46s WALL (    7840 calls)

     General routines
     calbec       :     88.81s CPU     89.21s WALL (    8680 calls)
     fft          :     22.86s CPU     23.04s WALL (    5103 calls)
     ffts         :      0.15s CPU      0.15s WALL (     161 calls)
     fftw         :    443.10s CPU    447.53s WALL ( 1053836 calls)
     interpolate  :      0.50s CPU      0.50s WALL (      81 calls)
     davcio       :      0.00s CPU      0.10s WALL (      10 calls)
 
     Parallel routines
 
     PWSCF        :  20m16.24s CPU  20m34.70s WALL

 
   This run was terminated on:   1:23: 1   9Sep2021            

=------------------------------------------------------------------------------=
   JOB DONE.
=------------------------------------------------------------------------------=
