
     Program PWSCF v.6.7GPU starts on  5Oct2021 at 16: 3:11 

     This program is part of the open-source Quantum ESPRESSO suite
     for quantum simulation of materials; please cite
         "P. Giannozzi et al., J. Phys.:Condens. Matter 21 395502 (2009);
         "P. Giannozzi et al., J. Phys.:Condens. Matter 29 465901 (2017);
         "P. Giannozzi et al., J. Chem. Phys. 152 154105 (2020);
          URL http://www.quantum-espresso.org", 
     in publications or presentations arising from this work. More details at
     http://www.quantum-espresso.org/quote

     Parallel version (MPI), running on     8 processors

     MPI processes distributed on     1 nodes
     R & G space division:  proc/nbgrp/npool/nimage =       8
     Reading input from /storage/home/hcoda1/3/ntian30/research/carbon/CxH_vib/pristine/ads_slab/CH2N2_a/out_0014/pw.inp
Warning: card &CELL ignored
Warning: card   CELL_DYNAMICS='IPI', ignored
Warning: card / ignored

     Current dimensions of program PWSCF are:
     Max number of different atomic species (ntypx) = 10
     Max number of k-points (npk) =  40000
     Max angular momentum in pseudopotentials (lmaxx) =  3
     Presently no symmetry can be used with electric field

     Message from routine cell_base_init:
     DEPRECATED: use true lattice parameter, not A to a.u. conversion factor

     **************************************************************************
     Initializing libbeef V0.1.2 with the BEEF-vdW functional.
     Citation: Wellendorff et al., PRB 85, 235149 (2012).
     **************************************************************************


     IMPORTANT: XC functional enforced from input :
     Exchange-correlation= BEEF-VDW
                           (   1   4  43  14   2   0   0)
     Any further DFT definition will be discarded
     Please, verify this is what you really want


     Subspace diagonalization in iterative solution of the eigenvalue problem:
     one sub-group per band group will be used
     scalapack distributed-memory algorithm (size of sub-group:  2*  2 procs)

  @ DRIVER MODE: Connecting to 
 qe_1139763_3091261.sched-torque.pace.gatech.educpkb4hma_scratch
  using UNIX socket
  @ DRIVER MODE: Message from server: STATUS
  @ DRIVER MODE: Message from server: INIT
  @ DRIVER MODE: Receiving replica           0          -1
  @ DRIVER MODE: Receiving encoded integer          25
  @ DRIVER MODE:  SCF:  T  FORCE:  T  STRESS:  F  VC:  F  ENSEMBLE:  F
  @ DRIVER MODE:  SCF:  T  FORCE:  T  STRESS:  F  VC:  F  ENSEMBLE:  F
 
     Parallelization info
     --------------------
     sticks:   dense  smooth     PW     G-vecs:    dense   smooth      PW
     Min         409     164     47                70857    17926    2743
     Max         411     165     48                70858    17931    2751
     Sum        3275    1317    379               566857   143421   21985
 
     Using Slab Decomposition
 


     bravais-lattice index     =            0
     lattice parameter (alat)  =       1.8897  a.u.
     unit-cell volume          =    6658.9804 (a.u.)^3
     number of atoms/cell      =           53
     number of atomic types    =            5
     number of electrons       =       400.00
     number of Kohn-Sham states=          210
     kinetic-energy cutoff     =      29.3995  Ry
     charge density cutoff     =     293.9946  Ry
     scf convergence threshold =      7.3E-08
     mixing beta               =       0.0500
     number of iterations used =            8  plain     mixing
     Exchange-correlation= BEEF-VDW
                           (   1   4  43  14   2   0   0)

     celldm(1)=   1.889726  celldm(2)=   0.000000  celldm(3)=   0.000000
     celldm(4)=   0.000000  celldm(5)=   0.000000  celldm(6)=   0.000000

     crystal axes: (cart. coord. in units of alat)
               a(1) = (   6.579727   0.000000   0.000000 )  
               a(2) = (  -0.000775   5.961596   0.000000 )  
               a(3) = (   0.000000   0.000000  25.155947 )  

     reciprocal axes: (cart. coord. in units 2 pi/alat)
               b(1) = (  0.151982  0.000020  0.000000 )  
               b(2) = (  0.000000  0.167740  0.000000 )  
               b(3) = (  0.000000  0.000000  0.039752 )  


     PseudoPot. # 1 for Ti read from file:
     /storage/coda1/p-amedford6/0/shared/rich_project_chbe-medford/medford-share/data/pseudos_module/espresso/nninc/pbe/van/Ti.UPF
     MD5 check sum: 8e4df49b7f0d34bbd5052bf3f5ea0213
     Pseudo is Ultrasoft, Zval = 12.0
     Generated by new atomic code, or converted to UPF format
     Using radial grid of  851 points,  6 beta functions with: 
                l(1) =   0
                l(2) =   0
                l(3) =   1
                l(4) =   1
                l(5) =   2
                l(6) =   2
     Q(r) pseudized with  8 coefficients,  rinner =    1.000   1.000   1.000
                                                       1.000   1.000

     PseudoPot. # 2 for O  read from file:
     /storage/coda1/p-amedford6/0/shared/rich_project_chbe-medford/medford-share/data/pseudos_module/espresso/nninc/pbe/van/O.UPF
     MD5 check sum: 78c19812648e8988a0fe644b0f25305e
     Pseudo is Ultrasoft, Zval =  6.0
     Generated by new atomic code, or converted to UPF format
     Using radial grid of  737 points,  4 beta functions with: 
                l(1) =   0
                l(2) =   0
                l(3) =   1
                l(4) =   1
     Q(r) pseudized with  8 coefficients,  rinner =    0.800   0.800   0.800


     PseudoPot. # 3 for N  read from file:
     /storage/coda1/p-amedford6/0/shared/rich_project_chbe-medford/medford-share/data/pseudos_module/espresso/nninc/pbe/van/N.UPF
     MD5 check sum: 90d10febe142ad51ac9d5be1deb811c4
     Pseudo is Ultrasoft, Zval =  5.0
     Generated by new atomic code, or converted to UPF format
     Using radial grid of  729 points,  4 beta functions with: 
                l(1) =   0
                l(2) =   0
                l(3) =   1
                l(4) =   1
     Q(r) pseudized with  8 coefficients,  rinner =    0.800   0.800   0.800


     PseudoPot. # 4 for C  read from file:
     /storage/coda1/p-amedford6/0/shared/rich_project_chbe-medford/medford-share/data/pseudos_module/espresso/nninc/pbe/van/C.UPF
     MD5 check sum: 1a69bf6b8db32088f5b2163dbdb77a27
     Pseudo is Ultrasoft, Zval =  4.0
     Generated by new atomic code, or converted to UPF format
     Using radial grid of  721 points,  4 beta functions with: 
                l(1) =   0
                l(2) =   0
                l(3) =   1
                l(4) =   1
     Q(r) pseudized with  8 coefficients,  rinner =    0.800   0.800   0.800


     PseudoPot. # 5 for H  read from file:
     /storage/coda1/p-amedford6/0/shared/rich_project_chbe-medford/medford-share/data/pseudos_module/espresso/nninc/pbe/van/H.UPF
     MD5 check sum: b5ee9d7bfd3a09ee7748110bda690ff7
     Pseudo is Ultrasoft, Zval =  1.0
     Generated by new atomic code, or converted to UPF format
     Using radial grid of  615 points,  1 beta functions with: 
                l(1) =   0
     Q(r) pseudized with  8 coefficients,  rinner =    0.800

     atomic species   valence    mass     pseudopotential
        Ti1           12.00    47.86700     Ti( 1.00)
        O1             6.00    15.99900     O ( 1.00)
        N1             5.00    14.00700     N ( 1.00)
        C1             4.00    12.01100     C ( 1.00)
        H1             1.00     1.00800     H ( 1.00)

     No symmetry found



   Cartesian axes

     site n.     atom                  positions (alat units)
         1           Ti1 tau(   1) = (   0.0004258   2.9801865   6.0000000  )
         2           Ti1 tau(   2) = (   3.2906075   1.4906267   6.0002472  )
         3           O1  tau(   3) = (   0.0006271   0.0005054   7.9858123  )
         4           O1  tau(   4) = (   3.2906025   0.0005020   7.3038282  )
         5           O1  tau(   5) = (   4.5942328   1.4918067   9.2879030  )
         6           O1  tau(   6) = (   1.9868534   1.4903216   9.2879459  )
         7           Ti1 tau(   7) = (   3.2967797   2.8647345   9.1688538  )
         8           Ti1 tau(   8) = (   0.0139078   1.4260134   9.3797207  )
         9           O1  tau(   9) = (   3.2818202   5.9426219  11.3413624  )
        10           O1  tau(  10) = (  -0.0006713   5.9438105  10.5613913  )
        11           O1  tau(  11) = (   1.2629550   1.4689526  12.6431422  )
        12           O1  tau(  12) = (   5.2627372   1.4724369  12.6244454  )
        13           Ti1 tau(  13) = (   0.0649248   2.9521173  12.8162972  )
        14           Ti1 tau(  14) = (   3.3900010   1.4623865  12.4921655  )
        15           O1  tau(  15) = (   6.5612248   5.9427239  14.6529025  )
        16           O1  tau(  16) = (   3.2707349   5.9499158  13.9186396  )
        17           O1  tau(  17) = (   4.5120437   1.4930778  16.0516072  )
        18           O1  tau(  18) = (   2.0188724   1.4901805  16.0528637  )
        19           Ti1 tau(  19) = (   3.2526435   2.9656207  15.7242400  )
        20           Ti1 tau(  20) = (   6.5390660   1.5270114  16.1581541  )
        21           O1  tau(  21) = (   3.2904802   0.0005063   4.7018136  )
        22           O1  tau(  22) = (   6.5517350   0.0054997  17.2382445  )
        23           O1  tau(  23) = (   1.3043587   1.4918075   6.0039043  )
        24           O1  tau(  24) = (   5.2767064   1.4903225   6.0039473  )
        25           Ti1 tau(  25) = (   0.0000382   5.9609847   6.0000000  )
        26           Ti1 tau(  26) = (   3.2902200   4.4714249   6.0002472  )
        27           O1  tau(  27) = (   0.0002396   2.9813036   7.9858123  )
        28           O1  tau(  28) = (   3.2902150   2.9813002   7.3038282  )
        29           O1  tau(  29) = (   4.5938453   4.4726049   9.2879030  )
        30           O1  tau(  30) = (   1.9864658   4.4711199   9.2879459  )
        31           Ti1 tau(  31) = (   3.2991641   5.8454459   9.1677744  )
        32           Ti1 tau(  32) = (   0.0142928   4.4069258   9.3804372  )
        33           O1  tau(  33) = (   3.2794024   2.9620648  11.3429404  )
        34           O1  tau(  34) = (   0.0008107   2.9631099  10.5617750  )
        35           O1  tau(  35) = (   1.2628400   4.4505553  12.6449227  )
        36           O1  tau(  36) = (   5.2621040   4.4508628  12.6271667  )
        37           Ti1 tau(  37) = (   0.0634051   5.9337149  12.8176510  )
        38           Ti1 tau(  38) = (   3.3888395   4.4462795  12.4902329  )
        39           O1  tau(  39) = (   6.5643088   2.9532696  14.6533357  )
        40           O1  tau(  40) = (   3.2687884   2.9653797  13.9163527  )
        41           O1  tau(  41) = (   4.5138939   4.4677068  16.0260545  )
        42           O1  tau(  42) = (   2.0159196   4.4685127  16.0260682  )
        43           Ti1 tau(  43) = (   3.2551286   5.9518885  15.7372992  )
        44           Ti1 tau(  44) = (   6.5382561   4.5045293  16.1449140  )
        45           O1  tau(  45) = (   3.2900926   2.9813045   4.7018136  )
        46           O1  tau(  46) = (   6.5520679   2.9954315  17.2342401  )
        47           O1  tau(  47) = (   1.3039711   4.4726057   6.0039043  )
        48           O1  tau(  48) = (   5.2763189   4.4711207   6.0039473  )
        49           N1  tau(  49) = (   3.2718132   4.4933032  18.6889481  )
        50           N1  tau(  50) = (   3.2619367   3.3563452  18.5802627  )
        51           C1  tau(  51) = (   3.2931389   5.7900214  18.6539038  )
        52           H1  tau(  52) = (   2.3406966   0.3270794  18.8225995  )
        53           H1  tau(  53) = (   4.2401870   0.3074325  18.8013464  )

     number of k points=    10  Fermi-Dirac smearing, width (Ry)=  0.0073
                       cart. coord. in units 2pi/alat
        k(    1) = (   0.0000000   0.0000000   0.0000000), wk =   0.1250000
        k(    2) = (   0.0000000   0.0419351   0.0000000), wk =   0.2500000
        k(    3) = (   0.0000000  -0.0838702   0.0000000), wk =   0.1250000
        k(    4) = (   0.0379955   0.0000049   0.0000000), wk =   0.2500000
        k(    5) = (   0.0379955   0.0419400   0.0000000), wk =   0.2500000
        k(    6) = (   0.0379955  -0.0838652   0.0000000), wk =   0.2500000
        k(    7) = (   0.0379955  -0.0419301   0.0000000), wk =   0.2500000
        k(    8) = (  -0.0759910  -0.0000099   0.0000000), wk =   0.1250000
        k(    9) = (  -0.0759910   0.0419252   0.0000000), wk =   0.2500000
        k(   10) = (  -0.0759910  -0.0838800   0.0000000), wk =   0.1250000

     Dense  grid:   566857 G-vectors     FFT dimensions: (  72,  64, 270)

     Smooth grid:   143421 G-vectors     FFT dimensions: (  45,  40, 180)

     Estimated max dynamical RAM per process >     457.18 MB

     Estimated total dynamical RAM >       3.57 GB
     Cannot read rho : file not found

     Initial potential from superposition of free atoms

     starting charge  383.99917, renormalised to  400.00000

     negative rho (up, down):  1.829E-02 0.000E+00


     %%%%%%%%%%%%%%%%%%%%%%%%%%%%%%%%%%%%%%%%%%%%%%%%%%%%%%%%%%%%%%%%%%%%%%%%
     %                                                                      %
     % You are using vdW-DF, which was implemented by the Thonhauser group. %
     % Please cite the following two papers that made this development      %
     % possible and the two reviews that describe the various versions:     %
     %                                                                      %
     %   T. Thonhauser et al., PRL 115, 136402 (2015).                      %
     %   T. Thonhauser et al., PRB 76, 125112 (2007).                       %
     %   K. Berland et al., Rep. Prog. Phys. 78, 066501 (2015).             %
     %   D.C. Langreth et al., J. Phys.: Condens. Matter 21, 084203 (2009). %
     %                                                                      %
     %                                                                      %
     % If you are calculating the stress with vdW-DF, please also cite:     %
     %                                                                      %
     %   R. Sabatini et al., J. Phys.: Condens. Matter 24, 424209 (2012).   %
     %                                                                      %
     %%%%%%%%%%%%%%%%%%%%%%%%%%%%%%%%%%%%%%%%%%%%%%%%%%%%%%%%%%%%%%%%%%%%%%%%


 
     Adding external electric field

     Computed dipole along edir(3) : 
        Dipole               -9.8398 Ry au,        -25.0102 Debye
        Dipole field         -0.0186 Ry au, 
 
        Potential amp.        1.7213 Ry
        Total length         46.3494 bohr
 
     Starting wfcs are  302 atomic wfcs
  @ DRIVER MODE: Message from server: STATUS
  @ DRIVER MODE: Message from server: POSDATA
  @ DRIVER MODE: Reading and sharing cell 
  @ DRIVER MODE: Reading and sharing positions 
  @ DRIVER MODE: Received positions 

     total cpu time spent up to now is       59.8 secs

     Self-consistent Calculation

     iteration #  1     ecut=    29.40 Ry     beta= 0.05
     Davidson diagonalization with overlap
     c_bands:  1 eigenvalues not converged
     c_bands:  2 eigenvalues not converged
     c_bands:  1 eigenvalues not converged
     c_bands:  2 eigenvalues not converged
     c_bands:  2 eigenvalues not converged
     c_bands:  2 eigenvalues not converged
     c_bands:  1 eigenvalues not converged
     c_bands:  3 eigenvalues not converged
     ethr =  1.00E-05,  avg # of iterations = 20.0

     negative rho (up, down):  1.282E-02 0.000E+00
 
     Adding external electric field

     Computed dipole along edir(3) : 
        Dipole               45.7083 Ry au,        116.1789 Debye
        Dipole field          0.0863 Ry au, 
 
        Potential amp.       -7.9960 Ry
        Total length         46.3494 bohr
 

     total cpu time spent up to now is      110.7 secs

     total energy              =   -2519.78105640 Ry
     estimated scf accuracy    <    5013.08448616 Ry

     iteration #  2     ecut=    29.40 Ry     beta= 0.05
     Davidson diagonalization with overlap
     ethr =  1.00E-02,  avg # of iterations = 24.9

     negative rho (up, down):  3.081E-03 0.000E+00
 
     Adding external electric field

     Computed dipole along edir(3) : 
        Dipole               -1.0892 Ry au,         -2.7685 Debye
        Dipole field         -0.0021 Ry au, 
 
        Potential amp.        0.1905 Ry
        Total length         46.3494 bohr
 

     total cpu time spent up to now is      202.8 secs

     total energy              =   -2510.53896679 Ry
     estimated scf accuracy    <   65690.38121055 Ry

     iteration #  3     ecut=    29.40 Ry     beta= 0.05
     Davidson diagonalization with overlap
     ethr =  1.00E-02,  avg # of iterations = 15.4

     negative rho (up, down):  3.145E-03 0.000E+00
 
     Adding external electric field

     Computed dipole along edir(3) : 
        Dipole               -3.5463 Ry au,         -9.0138 Debye
        Dipole field         -0.0067 Ry au, 
 
        Potential amp.        0.6204 Ry
        Total length         46.3494 bohr
 

     total cpu time spent up to now is      261.1 secs

     total energy              =   -2958.69318011 Ry
     estimated scf accuracy    <    4320.02971548 Ry

     iteration #  4     ecut=    29.40 Ry     beta= 0.05
     Davidson diagonalization with overlap
     c_bands:  2 eigenvalues not converged
     ethr =  1.00E-02,  avg # of iterations = 15.2

     negative rho (up, down):  3.196E-03 0.000E+00
 
     Adding external electric field

     Computed dipole along edir(3) : 
        Dipole               -5.1369 Ry au,        -13.0566 Debye
        Dipole field         -0.0097 Ry au, 
 
        Potential amp.        0.8986 Ry
        Total length         46.3494 bohr
 

     total cpu time spent up to now is      285.3 secs

     total energy              =   -2958.32139342 Ry
     estimated scf accuracy    <    1636.06909018 Ry

     iteration #  5     ecut=    29.40 Ry     beta= 0.05
     Davidson diagonalization with overlap
     c_bands:  3 eigenvalues not converged
     ethr =  1.00E-02,  avg # of iterations = 10.5

     negative rho (up, down):  3.237E-03 0.000E+00
 
     Adding external electric field

     Computed dipole along edir(3) : 
        Dipole               -6.1841 Ry au,        -15.7185 Debye
        Dipole field         -0.0117 Ry au, 
 
        Potential amp.        1.0818 Ry
        Total length         46.3494 bohr
 

     total cpu time spent up to now is      303.0 secs

     total energy              =   -2957.77098774 Ry
     estimated scf accuracy    <     730.50429122 Ry

     iteration #  6     ecut=    29.40 Ry     beta= 0.05
     Davidson diagonalization with overlap
     ethr =  1.00E-02,  avg # of iterations = 10.1

     negative rho (up, down):  3.262E-03 0.000E+00
 
     Adding external electric field

     Computed dipole along edir(3) : 
        Dipole               -5.5737 Ry au,        -14.1670 Debye
        Dipole field         -0.0105 Ry au, 
 
        Potential amp.        0.9750 Ry
        Total length         46.3494 bohr
 

     total cpu time spent up to now is      322.8 secs

     total energy              =   -2971.09763071 Ry
     estimated scf accuracy    <      51.68385341 Ry

     iteration #  7     ecut=    29.40 Ry     beta= 0.05
     Davidson diagonalization with overlap
     ethr =  1.00E-02,  avg # of iterations =  1.5

     negative rho (up, down):  3.268E-03 0.000E+00
 
     Adding external electric field

     Computed dipole along edir(3) : 
        Dipole               -5.2657 Ry au,        -13.3841 Debye
        Dipole field         -0.0099 Ry au, 
 
        Potential amp.        0.9212 Ry
        Total length         46.3494 bohr
 

     total cpu time spent up to now is      335.6 secs

     total energy              =   -2971.24382846 Ry
     estimated scf accuracy    <      39.56563467 Ry

     iteration #  8     ecut=    29.40 Ry     beta= 0.05
     Davidson diagonalization with overlap
     ethr =  9.89E-03,  avg # of iterations =  1.4

     negative rho (up, down):  3.693E-03 0.000E+00
 
     Adding external electric field

     Computed dipole along edir(3) : 
        Dipole               -0.7343 Ry au,         -1.8663 Debye
        Dipole field         -0.0014 Ry au, 
 
        Potential amp.        0.1284 Ry
        Total length         46.3494 bohr
 

     total cpu time spent up to now is      348.3 secs

     total energy              =   -2970.77017917 Ry
     estimated scf accuracy    <      36.40055597 Ry

     iteration #  9     ecut=    29.40 Ry     beta= 0.05
     Davidson diagonalization with overlap
     ethr =  9.10E-03,  avg # of iterations =  6.0

     negative rho (up, down):  4.009E-03 0.000E+00
 
     Adding external electric field

     Computed dipole along edir(3) : 
        Dipole               -0.1463 Ry au,         -0.3719 Debye
        Dipole field         -0.0003 Ry au, 
 
        Potential amp.        0.0256 Ry
        Total length         46.3494 bohr
 

     total cpu time spent up to now is      363.3 secs

     total energy              =   -2978.06561693 Ry
     estimated scf accuracy    <     910.94760510 Ry

     iteration # 10     ecut=    29.40 Ry     beta= 0.05
     Davidson diagonalization with overlap
     ethr =  9.10E-03,  avg # of iterations =  2.3

     negative rho (up, down):  4.636E-03 0.000E+00
 
     Adding external electric field

     Computed dipole along edir(3) : 
        Dipole               -1.2639 Ry au,         -3.2125 Debye
        Dipole field         -0.0024 Ry au, 
 
        Potential amp.        0.2211 Ry
        Total length         46.3494 bohr
 

     total cpu time spent up to now is      376.7 secs

     total energy              =   -2968.36499737 Ry
     estimated scf accuracy    <     937.93665655 Ry

     iteration # 11     ecut=    29.40 Ry     beta= 0.05
     Davidson diagonalization with overlap
     ethr =  9.10E-03,  avg # of iterations =  2.1

     negative rho (up, down):  4.507E-03 0.000E+00
 
     Adding external electric field

     Computed dipole along edir(3) : 
        Dipole               -0.6528 Ry au,         -1.6594 Debye
        Dipole field         -0.0012 Ry au, 
 
        Potential amp.        0.1142 Ry
        Total length         46.3494 bohr
 

     total cpu time spent up to now is      390.1 secs

     total energy              =   -2972.82608071 Ry
     estimated scf accuracy    <     158.16050750 Ry

     iteration # 12     ecut=    29.40 Ry     beta= 0.05
     Davidson diagonalization with overlap
     ethr =  9.10E-03,  avg # of iterations =  1.3

     negative rho (up, down):  4.501E-03 0.000E+00
 
     Adding external electric field

     Computed dipole along edir(3) : 
        Dipole               -0.7533 Ry au,         -1.9147 Debye
        Dipole field         -0.0014 Ry au, 
 
        Potential amp.        0.1318 Ry
        Total length         46.3494 bohr
 

     total cpu time spent up to now is      402.9 secs

     total energy              =   -2972.99193110 Ry
     estimated scf accuracy    <     414.84974073 Ry

     iteration # 13     ecut=    29.40 Ry     beta= 0.05
     Davidson diagonalization with overlap
     ethr =  9.10E-03,  avg # of iterations =  1.0

     negative rho (up, down):  4.391E-03 0.000E+00
 
     Adding external electric field

     Computed dipole along edir(3) : 
        Dipole               -1.0623 Ry au,         -2.7001 Debye
        Dipole field         -0.0020 Ry au, 
 
        Potential amp.        0.1858 Ry
        Total length         46.3494 bohr
 

     total cpu time spent up to now is      415.4 secs

     total energy              =   -2972.06019454 Ry
     estimated scf accuracy    <     344.88853160 Ry

     iteration # 14     ecut=    29.40 Ry     beta= 0.05
     Davidson diagonalization with overlap
     ethr =  9.10E-03,  avg # of iterations =  1.0

     negative rho (up, down):  4.215E-03 0.000E+00
 
     Adding external electric field

     Computed dipole along edir(3) : 
        Dipole               -3.8072 Ry au,         -9.6769 Debye
        Dipole field         -0.0072 Ry au, 
 
        Potential amp.        0.6660 Ry
        Total length         46.3494 bohr
 

     total cpu time spent up to now is      427.9 secs

     total energy              =   -2964.67083987 Ry
     estimated scf accuracy    <     218.83177143 Ry

     iteration # 15     ecut=    29.40 Ry     beta= 0.05
     Davidson diagonalization with overlap
     ethr =  9.10E-03,  avg # of iterations =  2.9

     negative rho (up, down):  4.508E-03 0.000E+00
 
     Adding external electric field

     Computed dipole along edir(3) : 
        Dipole               -3.5127 Ry au,         -8.9284 Debye
        Dipole field         -0.0066 Ry au, 
 
        Potential amp.        0.6145 Ry
        Total length         46.3494 bohr
 

     total cpu time spent up to now is      442.4 secs

     total energy              =   -2970.29371830 Ry
     estimated scf accuracy    <       5.61866538 Ry

     iteration # 16     ecut=    29.40 Ry     beta= 0.05
     Davidson diagonalization with overlap
     c_bands:  2 eigenvalues not converged
     ethr =  1.40E-03,  avg # of iterations = 15.1

     negative rho (up, down):  4.429E-03 0.000E+00
 
     Adding external electric field

     Computed dipole along edir(3) : 
        Dipole               -4.3875 Ry au,        -11.1519 Debye
        Dipole field         -0.0083 Ry au, 
 
        Potential amp.        0.7675 Ry
        Total length         46.3494 bohr
 

     total cpu time spent up to now is      470.4 secs

     total energy              =   -2973.58185197 Ry
     estimated scf accuracy    <     318.11566819 Ry

     iteration # 17     ecut=    29.40 Ry     beta= 0.05
     Davidson diagonalization with overlap
     c_bands:  1 eigenvalues not converged
     c_bands:  1 eigenvalues not converged
     ethr =  1.40E-03,  avg # of iterations = 15.2

     negative rho (up, down):  4.546E-03 0.000E+00
 
     Adding external electric field

     Computed dipole along edir(3) : 
        Dipole               -4.4299 Ry au,        -11.2598 Debye
        Dipole field         -0.0084 Ry au, 
 
        Potential amp.        0.7750 Ry
        Total length         46.3494 bohr
 

     total cpu time spent up to now is      491.7 secs

     total energy              =   -2976.25623920 Ry
     estimated scf accuracy    <     621.95590841 Ry

     iteration # 18     ecut=    29.40 Ry     beta= 0.05
     Davidson diagonalization with overlap
     ethr =  1.40E-03,  avg # of iterations =  1.5

     negative rho (up, down):  4.393E-03 0.000E+00
 
     Adding external electric field

     Computed dipole along edir(3) : 
        Dipole               -4.6189 Ry au,        -11.7402 Debye
        Dipole field         -0.0087 Ry au, 
 
        Potential amp.        0.8080 Ry
        Total length         46.3494 bohr
 

     total cpu time spent up to now is      504.6 secs

     total energy              =   -2975.01843593 Ry
     estimated scf accuracy    <     758.88553805 Ry

     iteration # 19     ecut=    29.40 Ry     beta= 0.05
     Davidson diagonalization with overlap
     ethr =  1.40E-03,  avg # of iterations =  1.3

     negative rho (up, down):  4.458E-03 0.000E+00
 
     Adding external electric field

     Computed dipole along edir(3) : 
        Dipole               -4.6126 Ry au,        -11.7240 Debye
        Dipole field         -0.0087 Ry au, 
 
        Potential amp.        0.8069 Ry
        Total length         46.3494 bohr
 

     total cpu time spent up to now is      517.4 secs

     total energy              =   -2975.03053164 Ry
     estimated scf accuracy    <     612.96364397 Ry

     iteration # 20     ecut=    29.40 Ry     beta= 0.05
     Davidson diagonalization with overlap
     ethr =  1.40E-03,  avg # of iterations =  1.0

     negative rho (up, down):  4.436E-03 0.000E+00
 
     Adding external electric field

     Computed dipole along edir(3) : 
        Dipole               -4.5031 Ry au,        -11.4457 Debye
        Dipole field         -0.0085 Ry au, 
 
        Potential amp.        0.7877 Ry
        Total length         46.3494 bohr
 

     total cpu time spent up to now is      529.9 secs

     total energy              =   -2972.33003289 Ry
     estimated scf accuracy    <     609.19965541 Ry

     iteration # 21     ecut=    29.40 Ry     beta= 0.05
     Davidson diagonalization with overlap
     ethr =  1.40E-03,  avg # of iterations =  1.5

     negative rho (up, down):  4.529E-03 0.000E+00
 
     Adding external electric field

     Computed dipole along edir(3) : 
        Dipole               -4.5002 Ry au,        -11.4383 Debye
        Dipole field         -0.0085 Ry au, 
 
        Potential amp.        0.7872 Ry
        Total length         46.3494 bohr
 

     total cpu time spent up to now is      542.7 secs

     total energy              =   -2972.67485646 Ry
     estimated scf accuracy    <     308.31043485 Ry

     iteration # 22     ecut=    29.40 Ry     beta= 0.05
     Davidson diagonalization with overlap
     ethr =  1.40E-03,  avg # of iterations =  1.0

     negative rho (up, down):  4.667E-03 0.000E+00
 
     Adding external electric field

     Computed dipole along edir(3) : 
        Dipole               -4.3574 Ry au,        -11.0753 Debye
        Dipole field         -0.0082 Ry au, 
 
        Potential amp.        0.7623 Ry
        Total length         46.3494 bohr
 

     total cpu time spent up to now is      555.9 secs

     total energy              =   -2972.28884644 Ry
     estimated scf accuracy    <     313.00940384 Ry

     iteration # 23     ecut=    29.40 Ry     beta= 0.05
     Davidson diagonalization with overlap
     ethr =  1.40E-03,  avg # of iterations =  1.0

     negative rho (up, down):  4.799E-03 0.000E+00
 
     Adding external electric field

     Computed dipole along edir(3) : 
        Dipole               -3.7073 Ry au,         -9.4230 Debye
        Dipole field         -0.0070 Ry au, 
 
        Potential amp.        0.6485 Ry
        Total length         46.3494 bohr
 

     total cpu time spent up to now is      568.3 secs

     total energy              =   -2970.71960858 Ry
     estimated scf accuracy    <     252.16374723 Ry

     iteration # 24     ecut=    29.40 Ry     beta= 0.05
     Davidson diagonalization with overlap
     ethr =  1.40E-03,  avg # of iterations =  3.8

     negative rho (up, down):  5.321E-03 0.000E+00
 
     Adding external electric field

     Computed dipole along edir(3) : 
        Dipole               -1.8891 Ry au,         -4.8016 Debye
        Dipole field         -0.0036 Ry au, 
 
        Potential amp.        0.3305 Ry
        Total length         46.3494 bohr
 

     total cpu time spent up to now is      582.4 secs

     total energy              =   -2969.00901320 Ry
     estimated scf accuracy    <     104.57206984 Ry

     iteration # 25     ecut=    29.40 Ry     beta= 0.05
     Davidson diagonalization with overlap
     ethr =  1.40E-03,  avg # of iterations = 10.6

     negative rho (up, down):  5.654E-03 0.000E+00
 
     Adding external electric field

     Computed dipole along edir(3) : 
        Dipole               -1.1222 Ry au,         -2.8524 Debye
        Dipole field         -0.0021 Ry au, 
 
        Potential amp.        0.1963 Ry
        Total length         46.3494 bohr
 

     total cpu time spent up to now is      601.0 secs

     total energy              =   -2970.15381350 Ry
     estimated scf accuracy    <       5.83654125 Ry

     iteration # 26     ecut=    29.40 Ry     beta= 0.05
     Davidson diagonalization with overlap
     ethr =  1.40E-03,  avg # of iterations =  2.5

     negative rho (up, down):  6.382E-03 0.000E+00
 
     Adding external electric field

     Computed dipole along edir(3) : 
        Dipole               -0.2585 Ry au,         -0.6571 Debye
        Dipole field         -0.0005 Ry au, 
 
        Potential amp.        0.0452 Ry
        Total length         46.3494 bohr
 

     total cpu time spent up to now is      614.5 secs

     total energy              =   -2970.09479733 Ry
     estimated scf accuracy    <       1.62511938 Ry

     iteration # 27     ecut=    29.40 Ry     beta= 0.05
     Davidson diagonalization with overlap
     c_bands:  2 eigenvalues not converged
     c_bands:  4 eigenvalues not converged
     c_bands:  3 eigenvalues not converged
     c_bands:  3 eigenvalues not converged
     c_bands:  3 eigenvalues not converged
     c_bands:  1 eigenvalues not converged
     ethr =  4.06E-04,  avg # of iterations = 20.4

     negative rho (up, down):  6.069E-03 0.000E+00
 
     Adding external electric field

     Computed dipole along edir(3) : 
        Dipole               -0.6367 Ry au,         -1.6184 Debye
        Dipole field         -0.0012 Ry au, 
 
        Potential amp.        0.1114 Ry
        Total length         46.3494 bohr
 

     total cpu time spent up to now is      643.3 secs

     total energy              =   -2970.41793257 Ry
     estimated scf accuracy    <       0.87429275 Ry

     iteration # 28     ecut=    29.40 Ry     beta= 0.05
     Davidson diagonalization with overlap
     ethr =  2.19E-04,  avg # of iterations =  4.4

     negative rho (up, down):  5.985E-03 0.000E+00
 
     Adding external electric field

     Computed dipole along edir(3) : 
        Dipole               -0.7185 Ry au,         -1.8263 Debye
        Dipole field         -0.0014 Ry au, 
 
        Potential amp.        0.1257 Ry
        Total length         46.3494 bohr
 

     total cpu time spent up to now is      658.0 secs

     total energy              =   -2970.42305906 Ry
     estimated scf accuracy    <       0.67754831 Ry

     iteration # 29     ecut=    29.40 Ry     beta= 0.05
     Davidson diagonalization with overlap
     ethr =  1.69E-04,  avg # of iterations =  1.3

     negative rho (up, down):  6.382E-03 0.000E+00
 
     Adding external electric field

     Computed dipole along edir(3) : 
        Dipole               -0.4537 Ry au,         -1.1531 Debye
        Dipole field         -0.0009 Ry au, 
 
        Potential amp.        0.0794 Ry
        Total length         46.3494 bohr
 

     total cpu time spent up to now is      670.8 secs

     total energy              =   -2970.37276623 Ry
     estimated scf accuracy    <       0.62140580 Ry

     iteration # 30     ecut=    29.40 Ry     beta= 0.05
     Davidson diagonalization with overlap
     c_bands:  2 eigenvalues not converged
     ethr =  1.55E-04,  avg # of iterations =  3.6

     negative rho (up, down):  7.169E-03 0.000E+00
 
     Adding external electric field

     Computed dipole along edir(3) : 
        Dipole               -0.0799 Ry au,         -0.2032 Debye
        Dipole field         -0.0002 Ry au, 
 
        Potential amp.        0.0140 Ry
        Total length         46.3494 bohr
 

     total cpu time spent up to now is      684.6 secs

     total energy              =   -2970.32138089 Ry
     estimated scf accuracy    <       0.45931046 Ry

     iteration # 31     ecut=    29.40 Ry     beta= 0.05
     Davidson diagonalization with overlap
     c_bands:  2 eigenvalues not converged
     c_bands:  3 eigenvalues not converged
     ethr =  1.15E-04,  avg # of iterations = 16.1

     negative rho (up, down):  6.968E-03 0.000E+00
 
     Adding external electric field

     Computed dipole along edir(3) : 
        Dipole               -0.2921 Ry au,         -0.7425 Debye
        Dipole field         -0.0006 Ry au, 
 
        Potential amp.        0.0511 Ry
        Total length         46.3494 bohr
 

     total cpu time spent up to now is      709.2 secs

     total energy              =   -2970.36144639 Ry
     estimated scf accuracy    <       0.33219091 Ry

     iteration # 32     ecut=    29.40 Ry     beta= 0.05
     Davidson diagonalization with overlap
     c_bands:  2 eigenvalues not converged
     ethr =  8.30E-05,  avg # of iterations =  4.4

     negative rho (up, down):  7.255E-03 0.000E+00
 
     Adding external electric field

     Computed dipole along edir(3) : 
        Dipole               -0.3931 Ry au,         -0.9992 Debye
        Dipole field         -0.0007 Ry au, 
 
        Potential amp.        0.0688 Ry
        Total length         46.3494 bohr
 

     total cpu time spent up to now is      723.6 secs

     total energy              =   -2970.34222029 Ry
     estimated scf accuracy    <       0.27163623 Ry

     iteration # 33     ecut=    29.40 Ry     beta= 0.05
     Davidson diagonalization with overlap
     c_bands:  2 eigenvalues not converged
     c_bands:  2 eigenvalues not converged
     ethr =  6.79E-05,  avg # of iterations = 10.6

     negative rho (up, down):  7.079E-03 0.000E+00
 
     Adding external electric field

     Computed dipole along edir(3) : 
        Dipole               -0.4821 Ry au,         -1.2253 Debye
        Dipole field         -0.0009 Ry au, 
 
        Potential amp.        0.0843 Ry
        Total length         46.3494 bohr
 

     total cpu time spent up to now is      740.9 secs

     total energy              =   -2970.32340313 Ry
     estimated scf accuracy    <       0.18566934 Ry

     iteration # 34     ecut=    29.40 Ry     beta= 0.05
     Davidson diagonalization with overlap
     c_bands:  1 eigenvalues not converged
     c_bands:  1 eigenvalues not converged
     ethr =  4.64E-05,  avg # of iterations = 13.6

     negative rho (up, down):  8.329E-03 0.000E+00
 
     Adding external electric field

     Computed dipole along edir(3) : 
        Dipole                0.2398 Ry au,          0.6094 Debye
        Dipole field          0.0005 Ry au, 
 
        Potential amp.       -0.0419 Ry
        Total length         46.3494 bohr
 

     total cpu time spent up to now is      761.4 secs

     total energy              =   -2970.32336085 Ry
     estimated scf accuracy    <       0.12054698 Ry

     iteration # 35     ecut=    29.40 Ry     beta= 0.05
     Davidson diagonalization with overlap
     c_bands:  1 eigenvalues not converged
     c_bands:  1 eigenvalues not converged
     c_bands:  1 eigenvalues not converged
     c_bands:  1 eigenvalues not converged
     ethr =  3.01E-05,  avg # of iterations = 16.0

     negative rho (up, down):  8.567E-03 0.000E+00
 
     Adding external electric field

     Computed dipole along edir(3) : 
        Dipole                0.1426 Ry au,          0.3625 Debye
        Dipole field          0.0003 Ry au, 
 
        Potential amp.       -0.0250 Ry
        Total length         46.3494 bohr
 

     total cpu time spent up to now is      787.1 secs

     total energy              =   -2970.34533829 Ry
     estimated scf accuracy    <       0.10518907 Ry

     iteration # 36     ecut=    29.40 Ry     beta= 0.05
     Davidson diagonalization with overlap
     ethr =  2.63E-05,  avg # of iterations =  4.1

     negative rho (up, down):  8.689E-03 0.000E+00
 
     Adding external electric field

     Computed dipole along edir(3) : 
        Dipole                0.1046 Ry au,          0.2658 Debye
        Dipole field          0.0002 Ry au, 
 
        Potential amp.       -0.0183 Ry
        Total length         46.3494 bohr
 

     total cpu time spent up to now is      801.4 secs

     total energy              =   -2970.33831846 Ry
     estimated scf accuracy    <       0.07266779 Ry

     iteration # 37     ecut=    29.40 Ry     beta= 0.05
     Davidson diagonalization with overlap
     c_bands:  1 eigenvalues not converged
     c_bands:  2 eigenvalues not converged
     ethr =  1.82E-05,  avg # of iterations = 13.7

     negative rho (up, down):  1.067E-02 0.000E+00
 
     Adding external electric field

     Computed dipole along edir(3) : 
        Dipole                0.5401 Ry au,          1.3729 Debye
        Dipole field          0.0010 Ry au, 
 
        Potential amp.       -0.0945 Ry
        Total length         46.3494 bohr
 

     total cpu time spent up to now is      823.1 secs

     total energy              =   -2970.34303425 Ry
     estimated scf accuracy    <       0.03072312 Ry

     iteration # 38     ecut=    29.40 Ry     beta= 0.05
     Davidson diagonalization with overlap
     c_bands:  2 eigenvalues not converged
     c_bands:  1 eigenvalues not converged
     c_bands:  2 eigenvalues not converged
     ethr =  7.68E-06,  avg # of iterations = 15.9

     negative rho (up, down):  1.092E-02 0.000E+00
 
     Adding external electric field

     Computed dipole along edir(3) : 
        Dipole                0.4111 Ry au,          1.0448 Debye
        Dipole field          0.0008 Ry au, 
 
        Potential amp.       -0.0719 Ry
        Total length         46.3494 bohr
 

     total cpu time spent up to now is      849.2 secs

     total energy              =   -2970.34474028 Ry
     estimated scf accuracy    <       0.03724892 Ry

     iteration # 39     ecut=    29.40 Ry     beta= 0.05
     Davidson diagonalization with overlap
     c_bands:  1 eigenvalues not converged
     ethr =  7.68E-06,  avg # of iterations =  8.3

     negative rho (up, down):  1.333E-02 0.000E+00
 
     Adding external electric field

     Computed dipole along edir(3) : 
        Dipole                0.4585 Ry au,          1.1654 Debye
        Dipole field          0.0009 Ry au, 
 
        Potential amp.       -0.0802 Ry
        Total length         46.3494 bohr
 

     total cpu time spent up to now is      867.2 secs

     total energy              =   -2970.34812034 Ry
     estimated scf accuracy    <       0.01804372 Ry

     iteration # 40     ecut=    29.40 Ry     beta= 0.05
     Davidson diagonalization with overlap
     ethr =  4.51E-06,  avg # of iterations = 11.5

     negative rho (up, down):  1.627E-02 0.000E+00
 
     Adding external electric field

     Computed dipole along edir(3) : 
        Dipole                0.5944 Ry au,          1.5108 Debye
        Dipole field          0.0011 Ry au, 
 
        Potential amp.       -0.1040 Ry
        Total length         46.3494 bohr
 

     total cpu time spent up to now is      885.0 secs

     total energy              =   -2970.34785601 Ry
     estimated scf accuracy    <       0.00682475 Ry

     iteration # 41     ecut=    29.40 Ry     beta= 0.05
     Davidson diagonalization with overlap
     c_bands:  2 eigenvalues not converged
     c_bands:  1 eigenvalues not converged
     c_bands:  1 eigenvalues not converged
     c_bands:  1 eigenvalues not converged
     c_bands:  1 eigenvalues not converged
     ethr =  1.71E-06,  avg # of iterations = 16.6

     negative rho (up, down):  1.602E-02 0.000E+00
 
     Adding external electric field

     Computed dipole along edir(3) : 
        Dipole                0.5909 Ry au,          1.5020 Debye
        Dipole field          0.0011 Ry au, 
 
        Potential amp.       -0.1034 Ry
        Total length         46.3494 bohr
 

     total cpu time spent up to now is      913.1 secs

     total energy              =   -2970.35091886 Ry
     estimated scf accuracy    <       0.01023257 Ry

     iteration # 42     ecut=    29.40 Ry     beta= 0.05
     Davidson diagonalization with overlap
     ethr =  1.71E-06,  avg # of iterations =  2.9

     negative rho (up, down):  1.552E-02 0.000E+00
 
     Adding external electric field

     Computed dipole along edir(3) : 
        Dipole                0.5237 Ry au,          1.3311 Debye
        Dipole field          0.0010 Ry au, 
 
        Potential amp.       -0.0916 Ry
        Total length         46.3494 bohr
 

     total cpu time spent up to now is      926.5 secs

     total energy              =   -2970.34905396 Ry
     estimated scf accuracy    <       0.00847037 Ry

     iteration # 43     ecut=    29.40 Ry     beta= 0.05
     Davidson diagonalization with overlap
     c_bands:  1 eigenvalues not converged
     c_bands:  1 eigenvalues not converged
     ethr =  1.71E-06,  avg # of iterations = 12.6

     negative rho (up, down):  1.644E-02 0.000E+00
 
     Adding external electric field

     Computed dipole along edir(3) : 
        Dipole                0.5413 Ry au,          1.3759 Debye
        Dipole field          0.0010 Ry au, 
 
        Potential amp.       -0.0947 Ry
        Total length         46.3494 bohr
 

     total cpu time spent up to now is      946.7 secs

     total energy              =   -2970.34989327 Ry
     estimated scf accuracy    <       0.00142781 Ry

     iteration # 44     ecut=    29.40 Ry     beta= 0.05
     Davidson diagonalization with overlap
     ethr =  3.57E-07,  avg # of iterations =  5.7

     negative rho (up, down):  1.722E-02 0.000E+00
 
     Adding external electric field

     Computed dipole along edir(3) : 
        Dipole                0.5517 Ry au,          1.4024 Debye
        Dipole field          0.0010 Ry au, 
 
        Potential amp.       -0.0965 Ry
        Total length         46.3494 bohr
 

     total cpu time spent up to now is      964.3 secs

     total energy              =   -2970.35017336 Ry
     estimated scf accuracy    <       0.00067618 Ry

     iteration # 45     ecut=    29.40 Ry     beta= 0.05
     Davidson diagonalization with overlap
     ethr =  1.69E-07,  avg # of iterations =  5.0

     negative rho (up, down):  1.764E-02 0.000E+00
 
     Adding external electric field

     Computed dipole along edir(3) : 
        Dipole                0.5459 Ry au,          1.3875 Debye
        Dipole field          0.0010 Ry au, 
 
        Potential amp.       -0.0955 Ry
        Total length         46.3494 bohr
 

     total cpu time spent up to now is      979.8 secs

     total energy              =   -2970.35021355 Ry
     estimated scf accuracy    <       0.00048908 Ry

     iteration # 46     ecut=    29.40 Ry     beta= 0.05
     Davidson diagonalization with overlap
     ethr =  1.22E-07,  avg # of iterations =  4.2

     negative rho (up, down):  1.737E-02 0.000E+00
 
     Adding external electric field

     Computed dipole along edir(3) : 
        Dipole                0.5404 Ry au,          1.3736 Debye
        Dipole field          0.0010 Ry au, 
 
        Potential amp.       -0.0945 Ry
        Total length         46.3494 bohr
 

     total cpu time spent up to now is      995.9 secs

     total energy              =   -2970.35028626 Ry
     estimated scf accuracy    <       0.00026181 Ry

     iteration # 47     ecut=    29.40 Ry     beta= 0.05
     Davidson diagonalization with overlap
     ethr =  6.55E-08,  avg # of iterations =  2.8

     negative rho (up, down):  1.790E-02 0.000E+00
 
     Adding external electric field

     Computed dipole along edir(3) : 
        Dipole                0.5424 Ry au,          1.3786 Debye
        Dipole field          0.0010 Ry au, 
 
        Potential amp.       -0.0949 Ry
        Total length         46.3494 bohr
 

     total cpu time spent up to now is     1009.9 secs

     total energy              =   -2970.35037238 Ry
     estimated scf accuracy    <       0.00028319 Ry

     iteration # 48     ecut=    29.40 Ry     beta= 0.05
     Davidson diagonalization with overlap
     ethr =  6.55E-08,  avg # of iterations =  7.5

     negative rho (up, down):  1.819E-02 0.000E+00
 
     Adding external electric field

     Computed dipole along edir(3) : 
        Dipole                0.5518 Ry au,          1.4026 Debye
        Dipole field          0.0010 Ry au, 
 
        Potential amp.       -0.0965 Ry
        Total length         46.3494 bohr
 

     total cpu time spent up to now is     1029.4 secs

     total energy              =   -2970.35042181 Ry
     estimated scf accuracy    <       0.00057758 Ry

     iteration # 49     ecut=    29.40 Ry     beta= 0.05
     Davidson diagonalization with overlap
     ethr =  6.55E-08,  avg # of iterations =  2.2

     negative rho (up, down):  1.768E-02 0.000E+00
 
     Adding external electric field

     Computed dipole along edir(3) : 
        Dipole                0.5200 Ry au,          1.3218 Debye
        Dipole field          0.0010 Ry au, 
 
        Potential amp.       -0.0910 Ry
        Total length         46.3494 bohr
 

     total cpu time spent up to now is     1043.0 secs

     total energy              =   -2970.35051581 Ry
     estimated scf accuracy    <       0.00045382 Ry

     iteration # 50     ecut=    29.40 Ry     beta= 0.05
     Davidson diagonalization with overlap
     ethr =  6.55E-08,  avg # of iterations =  6.0

     negative rho (up, down):  1.754E-02 0.000E+00
 
     Adding external electric field

     Computed dipole along edir(3) : 
        Dipole                0.5206 Ry au,          1.3232 Debye
        Dipole field          0.0010 Ry au, 
 
        Potential amp.       -0.0911 Ry
        Total length         46.3494 bohr
 

     total cpu time spent up to now is     1061.9 secs

     total energy              =   -2970.35061372 Ry
     estimated scf accuracy    <       0.00139837 Ry

     iteration # 51     ecut=    29.40 Ry     beta= 0.05
     Davidson diagonalization with overlap
     ethr =  6.55E-08,  avg # of iterations =  1.3

     negative rho (up, down):  1.754E-02 0.000E+00
 
     Adding external electric field

     Computed dipole along edir(3) : 
        Dipole                0.5274 Ry au,          1.3404 Debye
        Dipole field          0.0010 Ry au, 
 
        Potential amp.       -0.0923 Ry
        Total length         46.3494 bohr
 

     total cpu time spent up to now is     1074.7 secs

     total energy              =   -2970.35058964 Ry
     estimated scf accuracy    <       0.00144119 Ry

     iteration # 52     ecut=    29.40 Ry     beta= 0.05
     Davidson diagonalization with overlap
     ethr =  6.55E-08,  avg # of iterations =  6.0

     negative rho (up, down):  1.750E-02 0.000E+00
 
     Adding external electric field

     Computed dipole along edir(3) : 
        Dipole                0.5342 Ry au,          1.3577 Debye
        Dipole field          0.0010 Ry au, 
 
        Potential amp.       -0.0934 Ry
        Total length         46.3494 bohr
 

     total cpu time spent up to now is     1089.7 secs

     total energy              =   -2970.35047721 Ry
     estimated scf accuracy    <       0.00115131 Ry

     iteration # 53     ecut=    29.40 Ry     beta= 0.05
     Davidson diagonalization with overlap
     ethr =  6.55E-08,  avg # of iterations =  5.0

     negative rho (up, down):  1.746E-02 0.000E+00
 
     Adding external electric field

     Computed dipole along edir(3) : 
        Dipole                0.5305 Ry au,          1.3484 Debye
        Dipole field          0.0010 Ry au, 
 
        Potential amp.       -0.0928 Ry
        Total length         46.3494 bohr
 

     total cpu time spent up to now is     1105.5 secs

     total energy              =   -2970.35042125 Ry
     estimated scf accuracy    <       0.00059040 Ry

     iteration # 54     ecut=    29.40 Ry     beta= 0.05
     Davidson diagonalization with overlap
     ethr =  6.55E-08,  avg # of iterations =  4.7

     negative rho (up, down):  1.748E-02 0.000E+00
 
     Adding external electric field

     Computed dipole along edir(3) : 
        Dipole                0.5453 Ry au,          1.3860 Debye
        Dipole field          0.0010 Ry au, 
 
        Potential amp.       -0.0954 Ry
        Total length         46.3494 bohr
 

     total cpu time spent up to now is     1122.9 secs

     total energy              =   -2970.35043737 Ry
     estimated scf accuracy    <       0.00021232 Ry

     iteration # 55     ecut=    29.40 Ry     beta= 0.05
     Davidson diagonalization with overlap
     ethr =  5.31E-08,  avg # of iterations =  6.6

     negative rho (up, down):  1.758E-02 0.000E+00
 
     Adding external electric field

     Computed dipole along edir(3) : 
        Dipole                0.5408 Ry au,          1.3746 Debye
        Dipole field          0.0010 Ry au, 
 
        Potential amp.       -0.0946 Ry
        Total length         46.3494 bohr
 

     total cpu time spent up to now is     1144.1 secs

     total energy              =   -2970.35048162 Ry
     estimated scf accuracy    <       0.00021192 Ry

     iteration # 56     ecut=    29.40 Ry     beta= 0.05
     Davidson diagonalization with overlap
     ethr =  5.30E-08,  avg # of iterations =  3.1

     negative rho (up, down):  1.781E-02 0.000E+00
 
     Adding external electric field

     Computed dipole along edir(3) : 
        Dipole                0.5391 Ry au,          1.3703 Debye
        Dipole field          0.0010 Ry au, 
 
        Potential amp.       -0.0943 Ry
        Total length         46.3494 bohr
 

     total cpu time spent up to now is     1159.1 secs

     total energy              =   -2970.35051692 Ry
     estimated scf accuracy    <       0.00006178 Ry

     iteration # 57     ecut=    29.40 Ry     beta= 0.05
     Davidson diagonalization with overlap
     ethr =  1.54E-08,  avg # of iterations =  5.0

     negative rho (up, down):  1.777E-02 0.000E+00
 
     Adding external electric field

     Computed dipole along edir(3) : 
        Dipole                0.5363 Ry au,          1.3632 Debye
        Dipole field          0.0010 Ry au, 
 
        Potential amp.       -0.0938 Ry
        Total length         46.3494 bohr
 

     total cpu time spent up to now is     1180.2 secs

     total energy              =   -2970.35054150 Ry
     estimated scf accuracy    <       0.00006916 Ry

     iteration # 58     ecut=    29.40 Ry     beta= 0.05
     Davidson diagonalization with overlap
     ethr =  1.54E-08,  avg # of iterations =  2.0

     negative rho (up, down):  1.769E-02 0.000E+00
 
     Adding external electric field

     Computed dipole along edir(3) : 
        Dipole                0.5317 Ry au,          1.3515 Debye
        Dipole field          0.0010 Ry au, 
 
        Potential amp.       -0.0930 Ry
        Total length         46.3494 bohr
 

     total cpu time spent up to now is     1193.9 secs

     total energy              =   -2970.35055121 Ry
     estimated scf accuracy    <       0.00003541 Ry

     iteration # 59     ecut=    29.40 Ry     beta= 0.05
     Davidson diagonalization with overlap
     ethr =  8.85E-09,  avg # of iterations =  4.9

     negative rho (up, down):  1.776E-02 0.000E+00
 
     Adding external electric field

     Computed dipole along edir(3) : 
        Dipole                0.5369 Ry au,          1.3645 Debye
        Dipole field          0.0010 Ry au, 
 
        Potential amp.       -0.0939 Ry
        Total length         46.3494 bohr
 

     total cpu time spent up to now is     1212.8 secs

     total energy              =   -2970.35056804 Ry
     estimated scf accuracy    <       0.00002856 Ry

     iteration # 60     ecut=    29.40 Ry     beta= 0.05
     Davidson diagonalization with overlap
     ethr =  7.14E-09,  avg # of iterations =  5.4

     negative rho (up, down):  1.789E-02 0.000E+00
 
     Adding external electric field

     Computed dipole along edir(3) : 
        Dipole                0.5393 Ry au,          1.3706 Debye
        Dipole field          0.0010 Ry au, 
 
        Potential amp.       -0.0943 Ry
        Total length         46.3494 bohr
 

     total cpu time spent up to now is     1228.1 secs

     total energy              =   -2970.35058101 Ry
     estimated scf accuracy    <       0.00001737 Ry

     iteration # 61     ecut=    29.40 Ry     beta= 0.05
     Davidson diagonalization with overlap
     ethr =  4.34E-09,  avg # of iterations =  4.9

     negative rho (up, down):  1.792E-02 0.000E+00
 
     Adding external electric field

     Computed dipole along edir(3) : 
        Dipole                0.5370 Ry au,          1.3648 Debye
        Dipole field          0.0010 Ry au, 
 
        Potential amp.       -0.0939 Ry
        Total length         46.3494 bohr
 

     total cpu time spent up to now is     1244.1 secs

     total energy              =   -2970.35058889 Ry
     estimated scf accuracy    <       0.00001177 Ry

     iteration # 62     ecut=    29.40 Ry     beta= 0.05
     Davidson diagonalization with overlap
     ethr =  2.94E-09,  avg # of iterations =  6.0

     negative rho (up, down):  1.785E-02 0.000E+00
 
     Adding external electric field

     Computed dipole along edir(3) : 
        Dipole                0.5360 Ry au,          1.3624 Debye
        Dipole field          0.0010 Ry au, 
 
        Potential amp.       -0.0938 Ry
        Total length         46.3494 bohr
 

     total cpu time spent up to now is     1262.0 secs

     total energy              =   -2970.35059729 Ry
     estimated scf accuracy    <       0.00000613 Ry

     iteration # 63     ecut=    29.40 Ry     beta= 0.05
     Davidson diagonalization with overlap
     ethr =  1.53E-09,  avg # of iterations =  5.0

     negative rho (up, down):  1.781E-02 0.000E+00
 
     Adding external electric field

     Computed dipole along edir(3) : 
        Dipole                0.5350 Ry au,          1.3598 Debye
        Dipole field          0.0010 Ry au, 
 
        Potential amp.       -0.0936 Ry
        Total length         46.3494 bohr
 

     total cpu time spent up to now is     1277.2 secs

     total energy              =   -2970.35060413 Ry
     estimated scf accuracy    <       0.00000266 Ry

     iteration # 64     ecut=    29.40 Ry     beta= 0.05
     Davidson diagonalization with overlap
     ethr =  6.65E-10,  avg # of iterations =  5.3

     negative rho (up, down):  1.787E-02 0.000E+00
 
     Adding external electric field

     Computed dipole along edir(3) : 
        Dipole                0.5370 Ry au,          1.3650 Debye
        Dipole field          0.0010 Ry au, 
 
        Potential amp.       -0.0939 Ry
        Total length         46.3494 bohr
 

     total cpu time spent up to now is     1297.0 secs

     total energy              =   -2970.35061013 Ry
     estimated scf accuracy    <       0.00000315 Ry

     iteration # 65     ecut=    29.40 Ry     beta= 0.05
     Davidson diagonalization with overlap
     ethr =  6.65E-10,  avg # of iterations =  5.0

     negative rho (up, down):  1.786E-02 0.000E+00
 
     Adding external electric field

     Computed dipole along edir(3) : 
        Dipole                0.5373 Ry au,          1.3657 Debye
        Dipole field          0.0010 Ry au, 
 
        Potential amp.       -0.0940 Ry
        Total length         46.3494 bohr
 

     total cpu time spent up to now is     1317.1 secs

     total energy              =   -2970.35061633 Ry
     estimated scf accuracy    <       0.00000252 Ry

     iteration # 66     ecut=    29.40 Ry     beta= 0.05
     Davidson diagonalization with overlap
     ethr =  6.30E-10,  avg # of iterations =  2.0

     negative rho (up, down):  1.784E-02 0.000E+00
 
     Adding external electric field

     Computed dipole along edir(3) : 
        Dipole                0.5374 Ry au,          1.3659 Debye
        Dipole field          0.0010 Ry au, 
 
        Potential amp.       -0.0940 Ry
        Total length         46.3494 bohr
 

     total cpu time spent up to now is     1330.7 secs

     total energy              =   -2970.35062109 Ry
     estimated scf accuracy    <       0.00000150 Ry

     iteration # 67     ecut=    29.40 Ry     beta= 0.05
     Davidson diagonalization with overlap
     ethr =  3.74E-10,  avg # of iterations =  3.9

     negative rho (up, down):  1.785E-02 0.000E+00
 
     Adding external electric field

     Computed dipole along edir(3) : 
        Dipole                0.5374 Ry au,          1.3659 Debye
        Dipole field          0.0010 Ry au, 
 
        Potential amp.       -0.0940 Ry
        Total length         46.3494 bohr
 

     total cpu time spent up to now is     1346.8 secs

     total energy              =   -2970.35062562 Ry
     estimated scf accuracy    <       0.00000080 Ry

     iteration # 68     ecut=    29.40 Ry     beta= 0.05
     Davidson diagonalization with overlap
     ethr =  2.00E-10,  avg # of iterations =  3.6

     negative rho (up, down):  1.784E-02 0.000E+00
 
     Adding external electric field

     Computed dipole along edir(3) : 
        Dipole                0.5373 Ry au,          1.3658 Debye
        Dipole field          0.0010 Ry au, 
 
        Potential amp.       -0.0940 Ry
        Total length         46.3494 bohr
 

     total cpu time spent up to now is     1361.4 secs

     total energy              =   -2970.35062980 Ry
     estimated scf accuracy    <       0.00000068 Ry

     iteration # 69     ecut=    29.40 Ry     beta= 0.05
     Davidson diagonalization with overlap
     ethr =  1.71E-10,  avg # of iterations =  4.1

     negative rho (up, down):  1.783E-02 0.000E+00
 
     Adding external electric field

     Computed dipole along edir(3) : 
        Dipole                0.5372 Ry au,          1.3655 Debye
        Dipole field          0.0010 Ry au, 
 
        Potential amp.       -0.0940 Ry
        Total length         46.3494 bohr
 

     total cpu time spent up to now is     1376.7 secs

     total energy              =   -2970.35063339 Ry
     estimated scf accuracy    <       0.00000026 Ry

     iteration # 70     ecut=    29.40 Ry     beta= 0.05
     Davidson diagonalization with overlap
     ethr =  6.51E-11,  avg # of iterations =  5.4

     negative rho (up, down):  1.783E-02 0.000E+00
 
     Adding external electric field

     Computed dipole along edir(3) : 
        Dipole                0.5371 Ry au,          1.3652 Debye
        Dipole field          0.0010 Ry au, 
 
        Potential amp.       -0.0940 Ry
        Total length         46.3494 bohr
 

     total cpu time spent up to now is     1396.8 secs

     total energy              =   -2970.35063665 Ry
     estimated scf accuracy    <       0.00000020 Ry

     iteration # 71     ecut=    29.40 Ry     beta= 0.05
     Davidson diagonalization with overlap
     ethr =  4.94E-11,  avg # of iterations =  1.0

     negative rho (up, down):  1.783E-02 0.000E+00
 
     Adding external electric field

     Computed dipole along edir(3) : 
        Dipole                0.5372 Ry au,          1.3653 Debye
        Dipole field          0.0010 Ry au, 
 
        Potential amp.       -0.0940 Ry
        Total length         46.3494 bohr
 

     total cpu time spent up to now is     1409.3 secs

     total energy              =   -2970.35063953 Ry
     estimated scf accuracy    <       0.00000019 Ry

     iteration # 72     ecut=    29.40 Ry     beta= 0.05
     Davidson diagonalization with overlap
     ethr =  4.87E-11,  avg # of iterations =  1.0

     negative rho (up, down):  1.783E-02 0.000E+00
 
     Adding external electric field

     Computed dipole along edir(3) : 
        Dipole                0.5372 Ry au,          1.3654 Debye
        Dipole field          0.0010 Ry au, 
 
        Potential amp.       -0.0940 Ry
        Total length         46.3494 bohr
 

     total cpu time spent up to now is     1421.9 secs

     total energy              =   -2970.35064212 Ry
     estimated scf accuracy    <       0.00000023 Ry

     iteration # 73     ecut=    29.40 Ry     beta= 0.05
     Davidson diagonalization with overlap
     ethr =  4.87E-11,  avg # of iterations =  1.0

     negative rho (up, down):  1.784E-02 0.000E+00
 
     Adding external electric field

     Computed dipole along edir(3) : 
        Dipole                0.5371 Ry au,          1.3652 Debye
        Dipole field          0.0010 Ry au, 
 
        Potential amp.       -0.0940 Ry
        Total length         46.3494 bohr
 

     total cpu time spent up to now is     1434.4 secs

     total energy              =   -2970.35064447 Ry
     estimated scf accuracy    <       0.00000024 Ry

     iteration # 74     ecut=    29.40 Ry     beta= 0.05
     Davidson diagonalization with overlap
     ethr =  4.87E-11,  avg # of iterations =  1.1

     negative rho (up, down):  1.784E-02 0.000E+00
 
     Adding external electric field

     Computed dipole along edir(3) : 
        Dipole                0.5370 Ry au,          1.3650 Debye
        Dipole field          0.0010 Ry au, 
 
        Potential amp.       -0.0939 Ry
        Total length         46.3494 bohr
 

     total cpu time spent up to now is     1447.0 secs

     total energy              =   -2970.35064659 Ry
     estimated scf accuracy    <       0.00000022 Ry

     iteration # 75     ecut=    29.40 Ry     beta= 0.05
     Davidson diagonalization with overlap
     ethr =  4.87E-11,  avg # of iterations =  2.6

     negative rho (up, down):  1.785E-02 0.000E+00
 
     Adding external electric field

     Computed dipole along edir(3) : 
        Dipole                0.5373 Ry au,          1.3656 Debye
        Dipole field          0.0010 Ry au, 
 
        Potential amp.       -0.0940 Ry
        Total length         46.3494 bohr
 

     total cpu time spent up to now is     1461.0 secs

     total energy              =   -2970.35064849 Ry
     estimated scf accuracy    <       0.00000013 Ry

     iteration # 76     ecut=    29.40 Ry     beta= 0.05
     Davidson diagonalization with overlap
     ethr =  3.29E-11,  avg # of iterations =  4.9

     negative rho (up, down):  1.789E-02 0.000E+00
 
     Adding external electric field

     Computed dipole along edir(3) : 
        Dipole                0.5371 Ry au,          1.3652 Debye
        Dipole field          0.0010 Ry au, 
 
        Potential amp.       -0.0940 Ry
        Total length         46.3494 bohr
 

     total cpu time spent up to now is     1477.4 secs

     End of self-consistent calculation

          k = 0.0000 0.0000 0.0000 ( 18029 PWs)   bands (ev):

   -56.2393 -56.2057 -55.8894 -55.8536 -55.7649 -55.7299 -55.6315 -55.6080
   -55.5969 -55.5740 -55.5271 -55.4920 -55.4810 -55.4442 -55.0123 -54.9783
   -32.6662 -32.4868 -32.4589 -32.4306 -32.4244 -32.3395 -32.2931 -32.2390
   -32.1856 -32.1345 -32.1034 -32.0999 -32.0685 -32.0672 -32.0510 -32.0456
   -32.0323 -32.0123 -32.0069 -31.9911 -31.9057 -31.8829 -31.8720 -31.8608
   -31.8517 -31.8464 -31.8231 -31.8142 -31.8008 -31.7725 -31.7659 -31.7439
   -31.7373 -31.7243 -31.7061 -31.7043 -31.7040 -31.6873 -31.6849 -31.6568
   -31.6311 -31.5518 -31.4116 -31.3394 -31.3156 -31.2300 -31.1450 -31.0332
   -21.0531 -16.5568 -16.3932 -16.1720 -16.0186 -15.9295 -15.7983 -15.6032
   -15.5778 -15.4847 -15.4824 -15.4586 -15.3880 -15.3874 -15.3539 -15.3487
   -15.3202 -15.2991 -15.2594 -15.2427 -15.2403 -15.1979 -15.1378 -15.1123
   -15.0195 -14.9725 -14.8672 -14.8620 -14.8316 -14.7470 -14.7159 -14.2794
   -13.5063 -13.3930  -6.8122  -5.8703  -5.1007  -3.9843  -3.9291  -3.8937
    -3.7785  -3.7593  -3.6331  -3.3549  -3.2998  -3.0488  -2.9937  -2.9771
    -2.9315  -2.9097  -2.8424  -2.8301  -2.7377  -2.7331  -2.6871  -2.6800
    -2.6468  -2.6444  -2.6280  -2.5676  -2.5463  -2.4617  -2.4531  -2.4216
    -2.3929  -2.2800  -2.2353  -2.1905  -2.1887  -2.1600  -2.0607  -2.0532
    -2.0393  -2.0100  -1.9277  -1.8767  -1.7497  -1.6493  -1.6331  -1.5881
    -1.5269  -1.4944  -1.2953  -1.2480  -1.2444  -1.2232  -1.2009  -1.1884
    -1.1196  -1.0532  -0.9305  -0.8561  -0.8296  -0.7749  -0.7543  -0.7483
    -0.7291  -0.6509  -0.6214  -0.6149  -0.5919  -0.4509  -0.3053  -0.2663
    -0.2441  -0.2295  -0.2077  -0.1287  -0.1121  -0.0760  -0.0349  -0.0173
     0.0027   0.0510   0.0797   0.0884   0.1928   0.2130   0.2744   0.2958
     0.3055   0.3411   0.3850   0.5307   0.6176   0.7310   0.7402   0.8197
     0.9675   0.9745   1.0151   1.2202   1.2295   1.2771   1.6006   1.6738
     3.0327   3.2163   3.4481   3.5186   3.5390   3.6314   3.7372   3.7672
     3.8342   3.9124

          k = 0.0000 0.0419 0.0000 ( 17933 PWs)   bands (ev):

   -56.2343 -56.2106 -55.8841 -55.8588 -55.7598 -55.7349 -55.6264 -55.6029
   -55.6019 -55.5789 -55.5219 -55.4971 -55.4755 -55.4495 -55.0072 -54.9832
   -32.6129 -32.4826 -32.4626 -32.4173 -32.3672 -32.3528 -32.3489 -32.1838
   -32.1720 -32.0985 -32.0947 -32.0845 -32.0789 -32.0574 -32.0508 -32.0442
   -32.0377 -31.9927 -31.9763 -31.9322 -31.9208 -31.9045 -31.8679 -31.8651
   -31.8534 -31.8470 -31.8265 -31.8196 -31.8102 -31.8002 -31.7870 -31.7803
   -31.7616 -31.7321 -31.7027 -31.7012 -31.7009 -31.6970 -31.6890 -31.6886
   -31.6662 -31.6111 -31.3580 -31.3358 -31.3189 -31.2176 -31.1574 -31.0901
   -21.0526 -16.4204 -16.2708 -16.0551 -15.9076 -15.8268 -15.7658 -15.6866
   -15.6236 -15.5439 -15.5133 -15.4120 -15.4052 -15.3795 -15.3504 -15.3320
   -15.3162 -15.3004 -15.2939 -15.2572 -15.2357 -15.1875 -15.1800 -15.0721
   -15.0685 -15.0282 -14.9267 -14.9220 -14.8853 -14.8138 -14.7902 -14.2851
   -13.5118 -13.4331  -6.7360  -5.8573  -5.0949  -4.0322  -3.7991  -3.7175
    -3.6012  -3.5961  -3.4762  -3.1386  -3.1083  -3.0379  -2.9989  -2.9049
    -2.8967  -2.8815  -2.8730  -2.8181  -2.7925  -2.7850  -2.7612  -2.6983
    -2.6914  -2.6705  -2.6367  -2.6109  -2.5979  -2.5919  -2.5305  -2.5232
    -2.4151  -2.3906  -2.3863  -2.3774  -2.2718  -2.2513  -2.1701  -2.1337
    -1.9739  -1.9562  -1.9459  -1.8560  -1.6834  -1.6009  -1.5548  -1.5079
    -1.4684  -1.4381  -1.2402  -1.2134  -1.1078  -1.0147  -0.9987  -0.9907
    -0.9775  -0.9558  -0.9113  -0.8504  -0.8299  -0.7762  -0.7679  -0.7508
    -0.6765  -0.6539  -0.6162  -0.5919  -0.5135  -0.4822  -0.4424  -0.4205
    -0.4149  -0.3507  -0.3089  -0.1917  -0.1820  -0.1502  -0.1420  -0.0913
    -0.0317  -0.0283   0.0390   0.0677   0.0692   0.1298   0.1397   0.2153
     0.2931   0.3544   0.4415   0.4447   0.5470   0.5712   0.5779   0.6034
     0.6671   0.9060   1.1555   1.2190   1.2290   1.3063   1.5360   1.5882
     3.3003   3.3340   3.4847   3.5245   3.5713   3.7437   3.7659   3.7678
     3.7926   3.8337

          k = 0.0000-0.0839 0.0000 ( 17884 PWs)   bands (ev):

   -56.2225 -56.2223 -55.8717 -55.8711 -55.7496 -55.7450 -55.6148 -55.6134
   -55.5913 -55.5905 -55.5101 -55.5088 -55.4628 -55.4621 -54.9952 -54.9952
   -32.4825 -32.4824 -32.4725 -32.4723 -32.3851 -32.3849 -32.2302 -32.2259
   -32.1352 -32.1305 -32.0769 -32.0760 -32.0652 -32.0542 -32.0358 -32.0276
   -31.9607 -31.9535 -31.9453 -31.9436 -31.9141 -31.9133 -31.8527 -31.8522
   -31.8365 -31.8362 -31.8344 -31.8332 -31.8299 -31.8291 -31.8257 -31.8253
   -31.7903 -31.7841 -31.7264 -31.7253 -31.7000 -31.6990 -31.6950 -31.6939
   -31.6829 -31.6820 -31.3271 -31.3271 -31.2259 -31.2259 -31.1876 -31.1876
   -21.0521 -16.0781 -16.0713 -15.9699 -15.9662 -15.7955 -15.7908 -15.6568
   -15.6521 -15.5864 -15.5777 -15.4945 -15.4923 -15.4006 -15.4005 -15.3401
   -15.3361 -15.2029 -15.1996 -15.1643 -15.1612 -15.1570 -15.1562 -15.1018
   -15.1006 -15.0547 -15.0544 -15.0080 -15.0067 -14.8997 -14.8852 -14.2906
   -13.4958 -13.4957  -6.6540  -5.8441  -5.0894  -4.1483  -3.3366  -3.3365
    -3.2758  -3.2659  -3.2211  -3.2171  -3.1517  -3.1468  -3.1368  -3.1349
    -2.9477  -2.9296  -2.9271  -2.8908  -2.8838  -2.8736  -2.8721  -2.7972
    -2.7939  -2.6644  -2.6616  -2.6581  -2.6032  -2.5458  -2.5280  -2.5243
    -2.5005  -2.4163  -2.4030  -2.2503  -2.2402  -2.1917  -2.1786  -1.8839
    -1.8828  -1.8150  -1.8105  -1.6757  -1.6729  -1.6075  -1.6055  -1.4402
    -1.4377  -1.3672  -1.3642  -1.3478  -1.3397  -1.2353  -1.2310  -1.1554
    -1.1452  -1.0309  -1.0236  -0.9126  -0.8764  -0.5859  -0.5809  -0.5547
    -0.5316  -0.4946  -0.4586  -0.4305  -0.4255  -0.3968  -0.3838  -0.3574
    -0.3511  -0.3259  -0.3186  -0.2714  -0.2586  -0.1822  -0.1757  -0.1241
    -0.1188  -0.0923  -0.0872  -0.0631  -0.0553   0.0058   0.0100   0.0629
     0.0891   0.1804   0.1841   0.3527   0.3551   0.3821   0.3857   0.8207
     0.8251   0.8925   0.8943   1.2351   1.3610   1.3615   1.4931   1.4934
     3.5193   3.5194   3.6138   3.6287   3.6713   3.6714   3.7012   3.7037
     3.7302   3.7303

          k = 0.0380 0.0000 0.0000 ( 17913 PWs)   bands (ev):

   -56.2392 -56.2056 -55.8892 -55.8535 -55.7648 -55.7298 -55.6314 -55.6078
   -55.5968 -55.5739 -55.5270 -55.4919 -55.4809 -55.4441 -55.0122 -54.9782
   -32.6669 -32.4866 -32.4588 -32.4284 -32.4244 -32.3392 -32.2928 -32.2407
   -32.1855 -32.1468 -32.1028 -32.0943 -32.0686 -32.0669 -32.0455 -32.0376
   -32.0327 -32.0120 -32.0007 -31.9925 -31.9036 -31.8803 -31.8684 -31.8617
   -31.8514 -31.8461 -31.8230 -31.8140 -31.8002 -31.7723 -31.7630 -31.7437
   -31.7371 -31.7277 -31.7155 -31.7103 -31.7035 -31.6848 -31.6846 -31.6567
   -31.6311 -31.5516 -31.4112 -31.3420 -31.3137 -31.2298 -31.1449 -31.0329
   -21.0530 -16.4815 -16.2891 -16.0797 -15.9672 -15.9191 -15.7977 -15.7612
   -15.6614 -15.5316 -15.5156 -15.4931 -15.4824 -15.4368 -15.4122 -15.3438
   -15.3110 -15.3090 -15.2513 -15.2419 -15.1668 -15.1142 -15.1116 -15.0844
   -15.0177 -14.9761 -14.9387 -14.8634 -14.8236 -14.7465 -14.7156 -14.2802
   -13.5033 -13.3927  -6.8128  -5.8685  -5.1004  -3.9303  -3.8339  -3.6919
    -3.5548  -3.5339  -3.4127  -3.3361  -3.2898  -3.2782  -3.1693  -3.0302
    -3.0142  -2.9873  -2.8962  -2.8193  -2.7557  -2.7205  -2.6941  -2.6765
    -2.6623  -2.5865  -2.5463  -2.4809  -2.4497  -2.4350  -2.3826  -2.3608
    -2.3501  -2.3077  -2.1478  -2.1275  -2.1251  -2.0431  -2.0299  -2.0092
    -1.9264  -1.8734  -1.8033  -1.7690  -1.6986  -1.6843  -1.6410  -1.5943
    -1.5664  -1.5045  -1.3929  -1.3399  -1.3364  -1.2675  -1.2644  -1.2251
    -1.1756  -1.1288  -1.0910  -1.0809  -0.9447  -0.8540  -0.8115  -0.7524
    -0.6394  -0.6080  -0.5952  -0.5857  -0.5469  -0.4327  -0.3981  -0.3008
    -0.2998  -0.2644  -0.2205  -0.1707  -0.1517  -0.0886  -0.0832  -0.0546
    -0.0456  -0.0285   0.0126   0.0484   0.0777   0.2040   0.2451   0.2593
     0.3053   0.3514   0.4082   0.4496   0.4920   0.5017   0.5894   0.7606
     0.8829   0.9787   1.0270   1.1395   1.2013   1.2307   1.4830   1.5730
     3.2173   3.2368   3.5477   3.6230   3.6776   3.6964   3.7283   3.7423
     3.7763   3.8285

          k = 0.0380 0.0419 0.0000 ( 17878 PWs)   bands (ev):

   -56.2342 -56.2105 -55.8840 -55.8588 -55.7597 -55.7348 -55.6263 -55.6028
   -55.6019 -55.5789 -55.5219 -55.4971 -55.4754 -55.4495 -55.0072 -54.9832
   -32.6136 -32.4824 -32.4627 -32.4154 -32.3673 -32.3525 -32.3489 -32.1855
   -32.1718 -32.1034 -32.0958 -32.0906 -32.0821 -32.0514 -32.0465 -32.0386
   -32.0326 -31.9872 -31.9770 -31.9382 -31.9133 -31.9051 -31.8716 -31.8552
   -31.8546 -31.8466 -31.8266 -31.8198 -31.8110 -31.7996 -31.7825 -31.7803
   -31.7615 -31.7319 -31.7136 -31.7058 -31.7034 -31.6971 -31.6882 -31.6880
   -31.6663 -31.6110 -31.3577 -31.3378 -31.3179 -31.2174 -31.1574 -31.0899
   -21.0525 -16.3516 -16.1731 -15.9693 -15.8583 -15.8159 -15.7697 -15.7387
   -15.6716 -15.5917 -15.4800 -15.4639 -15.4585 -15.4242 -15.4050 -15.3791
   -15.3295 -15.3099 -15.2764 -15.2681 -15.2525 -15.1383 -15.1320 -15.0715
   -15.0627 -15.0528 -14.9850 -14.9285 -14.8771 -14.8151 -14.7896 -14.2856
   -13.5097 -13.4334  -6.7367  -5.8554  -5.0947  -4.0355  -3.6603  -3.5133
    -3.3860  -3.3568  -3.2579  -3.1295  -3.1265  -3.0999  -2.9974  -2.9762
    -2.9062  -2.8493  -2.8251  -2.8135  -2.7597  -2.7349  -2.7149  -2.6908
    -2.6730  -2.6673  -2.6263  -2.6085  -2.5560  -2.5458  -2.5111  -2.4506
    -2.4075  -2.3806  -2.3636  -2.3273  -2.2087  -2.1843  -2.0957  -2.0859
    -1.9785  -1.9408  -1.8600  -1.7688  -1.7173  -1.6915  -1.5900  -1.5580
    -1.3887  -1.3278  -1.2928  -1.2569  -1.1925  -1.1857  -1.1115  -1.0961
    -1.0729  -1.0244  -0.9952  -0.9565  -0.9503  -0.8128  -0.7991  -0.7720
    -0.7655  -0.7315  -0.7180  -0.6688  -0.6350  -0.5912  -0.5645  -0.4751
    -0.4616  -0.4291  -0.3150  -0.3113  -0.2738  -0.2560  -0.1883  -0.1351
    -0.1116  -0.0995  -0.0129   0.0367   0.0701   0.0911   0.1129   0.3441
     0.3531   0.4108   0.4161   0.4715   0.4980   0.5401   0.5419   0.6270
     0.6379   0.8805   1.0869   1.2272   1.2364   1.3135   1.4583   1.5510
     3.3229   3.4794   3.5525   3.5955   3.6551   3.7076   3.7290   3.7668
     3.8226   3.8474

          k = 0.0380-0.0839 0.0000 ( 17916 PWs)   bands (ev):

   -56.2225 -56.2223 -55.8717 -55.8711 -55.7496 -55.7450 -55.6148 -55.6134
   -55.5913 -55.5905 -55.5102 -55.5089 -55.4629 -55.4621 -54.9952 -54.9952
   -32.4831 -32.4830 -32.4725 -32.4723 -32.3843 -32.3841 -32.2304 -32.2260
   -32.1353 -32.1306 -32.0773 -32.0764 -32.0664 -32.0555 -32.0364 -32.0281
   -31.9577 -31.9504 -31.9409 -31.9392 -31.9180 -31.9172 -31.8537 -31.8533
   -31.8387 -31.8375 -31.8363 -31.8359 -31.8294 -31.8289 -31.8144 -31.8138
   -31.7902 -31.7839 -31.7263 -31.7253 -31.7075 -31.7064 -31.6971 -31.6959
   -31.6827 -31.6818 -31.3278 -31.3278 -31.2259 -31.2258 -31.1876 -31.1876
   -21.0521 -16.0327 -16.0242 -15.9045 -15.9009 -15.7456 -15.7416 -15.6187
   -15.6088 -15.5873 -15.5846 -15.5093 -15.5076 -15.4738 -15.4727 -15.3295
   -15.3262 -15.2972 -15.2920 -15.2413 -15.2406 -15.1458 -15.1453 -15.1044
   -15.1033 -15.0584 -15.0578 -15.0000 -14.9991 -14.8974 -14.8833 -14.2911
   -13.4956 -13.4955  -6.6548  -5.8421  -5.0892  -4.1505  -3.2637  -3.2507
    -3.1243  -3.1231  -3.0313  -3.0274  -3.0097  -3.0046  -2.9537  -2.9463
    -2.8951  -2.8575  -2.8507  -2.8225  -2.8178  -2.7732  -2.7703  -2.7553
    -2.7516  -2.6396  -2.6353  -2.6086  -2.5942  -2.5629  -2.5465  -2.5285
    -2.5139  -2.4337  -2.4279  -2.3263  -2.3019  -1.9808  -1.9638  -1.9124
    -1.9014  -1.8175  -1.8155  -1.7381  -1.7320  -1.6847  -1.6800  -1.6190
    -1.6067  -1.5181  -1.5051  -1.4067  -1.3910  -1.3555  -1.3294  -1.2629
    -1.2557  -1.0344  -0.9905  -0.9478  -0.9432  -0.7725  -0.7669  -0.7443
    -0.7337  -0.6539  -0.6437  -0.5964  -0.5909  -0.5587  -0.5484  -0.4963
    -0.4815  -0.4535  -0.4468  -0.4209  -0.4042  -0.3224  -0.3181  -0.2114
    -0.1947  -0.0528  -0.0350   0.0675   0.0707   0.1317   0.1627   0.2154
     0.2228   0.3510   0.3604   0.3728   0.3842   0.4575   0.4638   0.7829
     0.7848   0.8722   0.8772   1.2267   1.3768   1.3773   1.4785   1.4795
     3.5145   3.5154   3.5889   3.5967   3.6786   3.6847   3.7152   3.7232
     3.8984   3.8990

          k = 0.0380-0.0419 0.0000 ( 17876 PWs)   bands (ev):

   -56.2342 -56.2105 -55.8840 -55.8588 -55.7597 -55.7348 -55.6263 -55.6028
   -55.6019 -55.5789 -55.5219 -55.4971 -55.4754 -55.4495 -55.0072 -54.9832
   -32.6136 -32.4824 -32.4627 -32.4154 -32.3673 -32.3525 -32.3489 -32.1855
   -32.1718 -32.1034 -32.0959 -32.0906 -32.0819 -32.0514 -32.0465 -32.0386
   -32.0325 -31.9872 -31.9770 -31.9382 -31.9133 -31.9051 -31.8716 -31.8553
   -31.8544 -31.8466 -31.8266 -31.8198 -31.8110 -31.7995 -31.7826 -31.7803
   -31.7615 -31.7319 -31.7135 -31.7058 -31.7034 -31.6971 -31.6882 -31.6880
   -31.6663 -31.6110 -31.3577 -31.3378 -31.3179 -31.2174 -31.1574 -31.0899
   -21.0525 -16.3517 -16.1728 -15.9692 -15.8579 -15.8163 -15.7700 -15.7392
   -15.6713 -15.5916 -15.4804 -15.4633 -15.4585 -15.4237 -15.4052 -15.3806
   -15.3296 -15.3096 -15.2765 -15.2684 -15.2520 -15.1384 -15.1317 -15.0710
   -15.0628 -15.0518 -14.9854 -14.9288 -14.8771 -14.8151 -14.7896 -14.2856
   -13.5097 -13.4334  -6.7367  -5.8554  -5.0947  -4.0356  -3.6604  -3.5126
    -3.3880  -3.3562  -3.2584  -3.1382  -3.1275  -3.0931  -2.9960  -2.9738
    -2.9064  -2.8485  -2.8199  -2.8066  -2.7604  -2.7380  -2.7132  -2.6979
    -2.6794  -2.6603  -2.6312  -2.6117  -2.5539  -2.5448  -2.5149  -2.4531
    -2.4088  -2.3842  -2.3628  -2.3268  -2.2147  -2.1850  -2.0923  -2.0881
    -1.9766  -1.9418  -1.8551  -1.7897  -1.7239  -1.6704  -1.5855  -1.5484
    -1.3885  -1.3242  -1.2901  -1.2606  -1.1903  -1.1835  -1.1092  -1.0955
    -1.0721  -1.0186  -0.9919  -0.9554  -0.9479  -0.8045  -0.7953  -0.7707
    -0.7681  -0.7310  -0.7139  -0.6680  -0.6422  -0.5696  -0.5648  -0.4793
    -0.4640  -0.4537  -0.3173  -0.3035  -0.2767  -0.2525  -0.1825  -0.1416
    -0.1180  -0.0988  -0.0100   0.0309   0.0690   0.0862   0.1127   0.3505
     0.3683   0.3889   0.4000   0.4708   0.4894   0.5423   0.5503   0.6235
     0.6345   0.8800   1.0881   1.2277   1.2369   1.3134   1.4583   1.5513
     3.3211   3.4801   3.5515   3.5951   3.6553   3.6976   3.7383   3.7622
     3.8295   3.8640

          k =-0.0760-0.0000 0.0000 ( 17886 PWs)   bands (ev):

   -56.2391 -56.2056 -55.8892 -55.8535 -55.7647 -55.7298 -55.6314 -55.6077
   -55.5968 -55.5739 -55.5271 -55.4919 -55.4808 -55.4441 -55.0121 -54.9782
   -32.6677 -32.4865 -32.4587 -32.4262 -32.4245 -32.3395 -32.2928 -32.2424
   -32.1853 -32.1567 -32.1056 -32.0846 -32.0687 -32.0665 -32.0453 -32.0333
   -32.0274 -32.0119 -31.9948 -31.9933 -31.9021 -31.8903 -31.8620 -31.8519
   -31.8494 -31.8461 -31.8229 -31.8140 -31.8000 -31.7721 -31.7609 -31.7438
   -31.7422 -31.7371 -31.7196 -31.7169 -31.7017 -31.6847 -31.6826 -31.6566
   -31.6314 -31.5517 -31.4109 -31.3446 -31.3126 -31.2297 -31.1448 -31.0330
   -21.0530 -16.3822 -16.1231 -15.9986 -15.9654 -15.8486 -15.8444 -15.7968
   -15.7167 -15.6299 -15.5950 -15.5909 -15.5562 -15.4899 -15.4791 -15.3378
   -15.2907 -15.2704 -15.2643 -15.2246 -15.1669 -15.1160 -15.1024 -15.0484
   -15.0314 -15.0039 -14.8887 -14.8654 -14.8202 -14.7465 -14.7153 -14.2810
   -13.5005 -13.3924  -6.8135  -5.8669  -5.1006  -3.9370  -3.8162  -3.4010
    -3.3767  -3.3261  -3.3166  -3.3104  -3.2176  -3.1960  -3.1723  -3.1560
    -3.0151  -2.9593  -2.8813  -2.7865  -2.7203  -2.7148  -2.6679  -2.6494
    -2.5725  -2.5471  -2.4650  -2.4329  -2.3908  -2.3810  -2.3414  -2.2900
    -2.1749  -2.1725  -2.1406  -2.1056  -2.0999  -2.0969  -2.0383  -2.0352
    -1.9927  -1.9628  -1.9575  -1.9463  -1.6703  -1.6464  -1.5934  -1.5670
    -1.5585  -1.5219  -1.4146  -1.3625  -1.3333  -1.3215  -1.2663  -1.2396
    -1.2341  -1.1871  -1.1340  -1.1032  -1.0968  -1.0336  -0.9992  -0.7713
    -0.6551  -0.6263  -0.6023  -0.5644  -0.5407  -0.5347  -0.4727  -0.4277
    -0.3806  -0.3163  -0.2937  -0.2698  -0.2504  -0.1300  -0.1068  -0.0833
    -0.0693  -0.0364   0.0211   0.0506   0.0618   0.0976   0.1997   0.2172
     0.3161   0.3352   0.3719   0.4408   0.5042   0.5945   0.6919   0.6953
     0.7720   0.8979   1.0160   1.0493   1.1802   1.2337   1.3416   1.4869
     3.2302   3.3648   3.3692   3.4830   3.5495   3.6082   3.7068   3.7147
     3.8213   3.8934

          k =-0.0760 0.0419 0.0000 ( 17914 PWs)   bands (ev):

   -56.2342 -56.2106 -55.8840 -55.8588 -55.7597 -55.7348 -55.6264 -55.6028
   -55.6019 -55.5789 -55.5219 -55.4971 -55.4755 -55.4495 -55.0072 -54.9832
   -32.6145 -32.4824 -32.4627 -32.4139 -32.3676 -32.3525 -32.3492 -32.1874
   -32.1719 -32.1153 -32.0960 -32.0883 -32.0776 -32.0525 -32.0485 -32.0387
   -32.0190 -31.9819 -31.9778 -31.9421 -31.9085 -31.9061 -31.8795 -31.8552
   -31.8472 -31.8376 -31.8266 -31.8199 -31.8121 -31.7991 -31.7885 -31.7737
   -31.7617 -31.7320 -31.7251 -31.7109 -31.7060 -31.6971 -31.6884 -31.6872
   -31.6663 -31.6110 -31.3576 -31.3400 -31.3172 -31.2174 -31.1574 -31.0900
   -21.0525 -16.2627 -16.0016 -15.8857 -15.8783 -15.8076 -15.7627 -15.7523
   -15.6765 -15.6210 -15.5629 -15.5398 -15.5217 -15.4774 -15.4623 -15.3637
   -15.3583 -15.3121 -15.2772 -15.2694 -15.2156 -15.2140 -15.1098 -15.0810
   -15.0542 -15.0388 -14.9856 -14.9367 -14.8735 -14.8166 -14.7895 -14.2863
   -13.5077 -13.4337  -6.7375  -5.8538  -5.0949  -4.0392  -3.6467  -3.2073
    -3.1607  -3.1049  -3.0939  -3.0237  -3.0224  -3.0029  -2.9525  -2.9232
    -2.8925  -2.8778  -2.8161  -2.7873  -2.7716  -2.7386  -2.7284  -2.7208
    -2.6739  -2.5775  -2.5648  -2.5466  -2.5377  -2.5187  -2.4989  -2.4863
    -2.4261  -2.3179  -2.2972  -2.2588  -2.1525  -2.0249  -1.9876  -1.9677
    -1.9279  -1.9136  -1.8721  -1.8442  -1.8271  -1.8170  -1.5165  -1.4975
    -1.4478  -1.4283  -1.3457  -1.3076  -1.2890  -1.2497  -1.2401  -1.1502
    -1.1458  -1.1435  -1.1230  -1.0767  -1.0672  -1.0288  -0.9845  -0.9581
    -0.8511  -0.8280  -0.8122  -0.7083  -0.6959  -0.6690  -0.6256  -0.5814
    -0.5640  -0.5538  -0.5026  -0.4729  -0.3247  -0.3124  -0.2518  -0.2200
    -0.1289  -0.0873  -0.0313   0.0627   0.0773   0.1030   0.2949   0.3146
     0.3274   0.4491   0.4866   0.5098   0.5752   0.5807   0.6398   0.6576
     0.7301   0.7951   0.9264   1.2263   1.2530   1.3188   1.3897   1.5236
     3.3128   3.4392   3.5173   3.5345   3.5780   3.6152   3.6354   3.8249
     3.8577   3.9351

          k =-0.0760-0.0839 0.0000 ( 17948 PWs)   bands (ev):

   -56.2225 -56.2224 -55.8717 -55.8711 -55.7496 -55.7451 -55.6149 -55.6134
   -55.5913 -55.5904 -55.5102 -55.5089 -55.4629 -55.4621 -54.9953 -54.9952
   -32.4838 -32.4837 -32.4725 -32.4723 -32.3834 -32.3833 -32.2306 -32.2263
   -32.1355 -32.1307 -32.0777 -32.0768 -32.0675 -32.0568 -32.0370 -32.0286
   -31.9548 -31.9473 -31.9361 -31.9344 -31.9213 -31.9205 -31.8547 -31.8542
   -31.8431 -31.8418 -31.8365 -31.8360 -31.8298 -31.8294 -31.8015 -31.8007
   -31.7900 -31.7838 -31.7262 -31.7251 -31.7167 -31.7156 -31.6992 -31.6980
   -31.6826 -31.6818 -31.3285 -31.3285 -31.2259 -31.2258 -31.1876 -31.1876
   -21.0520 -15.9776 -15.9659 -15.7725 -15.7676 -15.7045 -15.7044 -15.6640
   -15.6616 -15.6116 -15.6102 -15.4721 -15.4690 -15.4679 -15.4640 -15.3880
   -15.3867 -15.3727 -15.3716 -15.3206 -15.3190 -15.1847 -15.1835 -15.0973
   -15.0964 -15.0526 -15.0518 -14.9956 -14.9949 -14.8955 -14.8818 -14.2916
   -13.4954 -13.4953  -6.6557  -5.8403  -5.0892  -4.1527  -3.2633  -3.2501
    -2.9840  -2.9781  -2.8842  -2.8631  -2.8489  -2.8261  -2.8245  -2.7392
    -2.7309  -2.7076  -2.7022  -2.6747  -2.6705  -2.6134  -2.6120  -2.5893
    -2.5835  -2.5739  -2.5728  -2.5674  -2.5653  -2.4758  -2.4723  -2.4591
    -2.4571  -2.3846  -2.3786  -2.3439  -2.3319  -2.1237  -2.1233  -2.0536
    -2.0525  -1.9346  -1.9334  -1.9170  -1.9130  -1.8769  -1.8372  -1.5985
    -1.5963  -1.5389  -1.5362  -1.4870  -1.4727  -1.3672  -1.3380  -1.2106
    -1.1914  -1.1752  -1.1677  -1.0175  -1.0140  -1.0121  -1.0085  -0.9847
    -0.9814  -0.8655  -0.8519  -0.7657  -0.7586  -0.7418  -0.7383  -0.7000
    -0.6826  -0.5323  -0.5319  -0.5088  -0.5031  -0.3616  -0.3605  -0.3014
    -0.2947  -0.0528  -0.0445   0.0674   0.0677   0.2974   0.3315   0.3527
     0.3636   0.5061   0.5146   0.5283   0.5372   0.6625   0.6671   0.6838
     0.6898   0.7770   0.7770   1.2169   1.4028   1.4033   1.4551   1.4552
     3.5738   3.5782   3.5827   3.5872   3.6276   3.6292   3.6747   3.6765
     3.9322   3.9546

     the Fermi energy is     2.4055 ev

!    total energy              =   -2970.35066625 Ry
     estimated scf accuracy    <       0.00000005 Ry
     smearing contrib. (-TS)   =      -0.00009810 Ry
     internal energy E=F+TS    =   -2970.35056815 Ry

     The total energy is F=E-TS. E is the sum of the following terms:
     one-electron contribution =  -24066.89531397 Ry
     hartree contribution      =   12123.75899032 Ry
     xc contribution           =    -491.48442839 Ry
     ewald contribution        =    9464.26963950 Ry
     electric field correction =       0.00054439 Ry

     convergence has been achieved in  76 iterations

     Forces acting on atoms (cartesian axes, Ry/au):

     atom    1 type  1   force =     0.00011413   -0.00011211    0.14849420
     atom    2 type  1   force =    -0.00010831   -0.00049639   -0.16834652
     atom    3 type  2   force =     0.00014165    0.00223461   -0.05994113
     atom    4 type  2   force =     0.00015625   -0.00146616    0.03992278
     atom    5 type  2   force =    -0.02119642   -0.00097585    0.00398556
     atom    6 type  2   force =     0.02099419    0.00032656    0.00311837
     atom    7 type  1   force =    -0.00011888   -0.00020136    0.00001071
     atom    8 type  1   force =    -0.00022225    0.00002704    0.00004811
     atom    9 type  2   force =    -0.00023641   -0.00005651    0.00013242
     atom   10 type  2   force =     0.00001700   -0.00000448    0.00006256
     atom   11 type  2   force =     0.00000793   -0.00006520   -0.00012532
     atom   12 type  2   force =    -0.00010193   -0.00013558   -0.00006644
     atom   13 type  1   force =    -0.00008164   -0.00000846   -0.00009959
     atom   14 type  1   force =     0.00005871   -0.00002844    0.00001999
     atom   15 type  2   force =     0.00010550    0.00001191   -0.00002069
     atom   16 type  2   force =     0.00008157   -0.00004363    0.00011813
     atom   17 type  2   force =     0.00005971   -0.00011347    0.00020326
     atom   18 type  2   force =     0.00020525   -0.00009522   -0.00007139
     atom   19 type  1   force =     0.00022652    0.00007952   -0.00003431
     atom   20 type  1   force =    -0.00012074   -0.00003758   -0.00013729
     atom   21 type  2   force =     0.00004344   -0.00004703    0.10203358
     atom   22 type  2   force =     0.00009811   -0.00005681   -0.00007267
     atom   23 type  2   force =    -0.07525891    0.00015837   -0.03467184
     atom   24 type  2   force =     0.07519156    0.00058411   -0.03474574
     atom   25 type  1   force =     0.00011918   -0.00013206    0.14840185
     atom   26 type  1   force =    -0.00014333   -0.00085267   -0.16858559
     atom   27 type  2   force =     0.00012435    0.00218470   -0.05989246
     atom   28 type  2   force =     0.00009123   -0.00145866    0.04020259
     atom   29 type  2   force =    -0.02099284   -0.00108089    0.00396445
     atom   30 type  2   force =     0.02118716    0.00040703    0.00311353
     atom   31 type  1   force =    -0.00019741   -0.00011010   -0.00000260
     atom   32 type  1   force =    -0.00011896   -0.00005871   -0.00008198
     atom   33 type  2   force =     0.00013168    0.00008094    0.00004938
     atom   34 type  2   force =    -0.00008552    0.00002477   -0.00001438
     atom   35 type  2   force =    -0.00002514    0.00002856    0.00003631
     atom   36 type  2   force =    -0.00014912    0.00022482   -0.00014642
     atom   37 type  1   force =    -0.00006648   -0.00014054   -0.00006294
     atom   38 type  1   force =     0.00005022    0.00005130    0.00017917
     atom   39 type  2   force =    -0.00007455   -0.00000868   -0.00016476
     atom   40 type  2   force =     0.00011652    0.00001767    0.00005395
     atom   41 type  2   force =     0.00025712   -0.00017472    0.00002597
     atom   42 type  2   force =     0.00022999    0.00001280    0.00028272
     atom   43 type  1   force =    -0.00005608    0.00030633    0.00019840
     atom   44 type  1   force =    -0.00006987    0.00006133    0.00003713
     atom   45 type  2   force =     0.00003788   -0.00004968    0.10203770
     atom   46 type  2   force =     0.00001897    0.00002875   -0.00014499
     atom   47 type  2   force =    -0.07525932    0.00019905   -0.03467165
     atom   48 type  2   force =     0.07519678    0.00062976   -0.03474090
     atom   49 type  3   force =     0.00384997   -0.00011332   -0.00121307
     atom   50 type  3   force =    -0.00084669    0.00058275    0.00107774
     atom   51 type  4   force =    -0.02494637   -0.00054051   -0.00047594
     atom   52 type  5   force =     0.01015731   -0.00409001   -0.00153332
     atom   53 type  5   force =     0.01140729    0.00449214    0.00225335

     Total force =     0.402830     Total SCF correction =     0.000484
  @ DRIVER MODE: Message from server: STATUS
  @ DRIVER MODE: Message from server: GETFORCE
  @ DRIVER MODE: Returning v,forces,stress,ensemble 

     Writing output data file ./calc.save/
  @ DRIVER MODE: Message from server: EXIT
  @ DRIVE MODE: Exiting  
 
     init_run     :     13.68s CPU     14.08s WALL (       1 calls)
     electrons    :   1381.52s CPU   1417.77s WALL (       1 calls)
     forces       :      2.83s CPU      3.21s WALL (       1 calls)

     Called by init_run:
     wfcinit      :      5.86s CPU      6.03s WALL (       1 calls)
     potinit      :      6.81s CPU      6.91s WALL (       1 calls)
     hinit0       :      0.60s CPU      0.62s WALL (       1 calls)

     Called by electrons:
     c_bands      :   1157.42s CPU   1177.26s WALL (      76 calls)
     sum_band     :    152.66s CPU    160.56s WALL (      76 calls)
     v_of_rho     :     53.81s CPU     56.03s WALL (      77 calls)
     newd         :     21.36s CPU     27.42s WALL (      77 calls)
     mix_rho      :      1.97s CPU      2.09s WALL (      76 calls)
     vdW_kernel   :      5.85s CPU      5.87s WALL (       1 calls)

     Called by c_bands:
     init_us_2    :      7.76s CPU      7.83s WALL (    1540 calls)
     cegterg      :   1132.86s CPU   1152.09s WALL (     771 calls)

     Called by *egterg:
     cdiaghg      :    164.55s CPU    165.69s WALL (    5574 calls)
     h_psi        :    644.55s CPU    657.61s WALL (    5584 calls)
     s_psi        :     78.23s CPU     78.53s WALL (    5584 calls)
     g_psi        :      2.28s CPU      2.29s WALL (    4803 calls)

     Called by h_psi:
     h_psi:calbec :     75.43s CPU     76.62s WALL (    5584 calls)
     vloc_psi     :    487.46s CPU    494.15s WALL (    5584 calls)
     add_vuspsi   :     78.41s CPU     81.04s WALL (    5584 calls)

     General routines
     calbec       :    101.71s CPU    102.99s WALL (    6384 calls)
     fft          :     27.91s CPU     28.08s WALL (    4851 calls)
     ffts         :      0.18s CPU      0.18s WALL (     153 calls)
     fftw         :    546.27s CPU    553.80s WALL ( 1021716 calls)
     interpolate  :      0.56s CPU      0.56s WALL (      77 calls)
     davcio       :      0.00s CPU      0.08s WALL (      10 calls)
 
     Parallel routines
 
     PWSCF        :  23m18.36s CPU  24m57.22s WALL

 
   This run was terminated on:  16:28: 8   5Oct2021            

=------------------------------------------------------------------------------=
   JOB DONE.
=------------------------------------------------------------------------------=
