
     Program PWSCF v.6.7GPU starts on 24Aug2021 at 11:47:47 

     This program is part of the open-source Quantum ESPRESSO suite
     for quantum simulation of materials; please cite
         "P. Giannozzi et al., J. Phys.:Condens. Matter 21 395502 (2009);
         "P. Giannozzi et al., J. Phys.:Condens. Matter 29 465901 (2017);
         "P. Giannozzi et al., J. Chem. Phys. 152 154105 (2020);
          URL http://www.quantum-espresso.org", 
     in publications or presentations arising from this work. More details at
     http://www.quantum-espresso.org/quote

     Parallel version (MPI), running on    72 processors

     MPI processes distributed on     4 nodes
     R & G space division:  proc/nbgrp/npool/nimage =      72
     Reading input from /storage/home/hcoda1/3/ntian30/research/carbon/CH2_vib/ads_slab/CH2NNH3_a/out_0006/pw.inp
Warning: card &CELL ignored
Warning: card   CELL_DYNAMICS='IPI', ignored
Warning: card / ignored

     Current dimensions of program PWSCF are:
     Max number of different atomic species (ntypx) = 10
     Max number of k-points (npk) =  40000
     Max angular momentum in pseudopotentials (lmaxx) =  3
     Presently no symmetry can be used with electric field

     Message from routine cell_base_init:
     DEPRECATED: use true lattice parameter, not A to a.u. conversion factor

     **************************************************************************
     Initializing libbeef V0.1.2 with the BEEF-vdW functional.
     Citation: Wellendorff et al., PRB 85, 235149 (2012).
     **************************************************************************


     IMPORTANT: XC functional enforced from input :
     Exchange-correlation= BEEF-VDW
                           (   1   4  43  14   2   0   0)
     Any further DFT definition will be discarded
     Please, verify this is what you really want


     Subspace diagonalization in iterative solution of the eigenvalue problem:
     one sub-group per band group will be used
     scalapack distributed-memory algorithm (size of sub-group:  8*  8 procs)

  @ DRIVER MODE: Connecting to 
 qe_1139763_2641442.sched-torque.pace.gatech.edu_dlasjfn_scratch
  using UNIX socket
  @ DRIVER MODE: Message from server: STATUS
  @ DRIVER MODE: Message from server: INIT
  @ DRIVER MODE: Receiving replica           0          -1
  @ DRIVER MODE: Receiving encoded integer          25
  @ DRIVER MODE:  SCF:  T  FORCE:  T  STRESS:  F  VC:  F  ENSEMBLE:  F
  @ DRIVER MODE:  SCF:  T  FORCE:  T  STRESS:  F  VC:  F  ENSEMBLE:  F
 
     Parallelization info
     --------------------
     sticks:   dense  smooth     PW     G-vecs:    dense   smooth      PW
     Min          45      18      5                 7865     1988     295
     Max          46      19      6                 7884     2001     312
     Sum        3275    1317    379               566857   143421   21985
 
     Using Slab Decomposition
 


     bravais-lattice index     =            0
     lattice parameter (alat)  =       1.8897  a.u.
     unit-cell volume          =    6658.9804 (a.u.)^3
     number of atoms/cell      =           55
     number of atomic types    =            5
     number of electrons       =       397.00
     number of Kohn-Sham states=          208
     kinetic-energy cutoff     =      29.3995  Ry
     charge density cutoff     =     293.9946  Ry
     scf convergence threshold =      7.3E-08
     mixing beta               =       0.0500
     number of iterations used =            8  plain     mixing
     Exchange-correlation= BEEF-VDW
                           (   1   4  43  14   2   0   0)

     celldm(1)=   1.889726  celldm(2)=   0.000000  celldm(3)=   0.000000
     celldm(4)=   0.000000  celldm(5)=   0.000000  celldm(6)=   0.000000

     crystal axes: (cart. coord. in units of alat)
               a(1) = (   6.579727   0.000000   0.000000 )  
               a(2) = (  -0.000775   5.961596   0.000000 )  
               a(3) = (   0.000000   0.000000  25.155947 )  

     reciprocal axes: (cart. coord. in units 2 pi/alat)
               b(1) = (  0.151982  0.000020  0.000000 )  
               b(2) = (  0.000000  0.167740  0.000000 )  
               b(3) = (  0.000000  0.000000  0.039752 )  


     PseudoPot. # 1 for Ti read from file:
     /storage/coda1/p-amedford6/0/shared/rich_project_chbe-medford/medford-share/data/pseudos_module/espresso/nninc/pbe/van/Ti.UPF
     MD5 check sum: 8e4df49b7f0d34bbd5052bf3f5ea0213
     Pseudo is Ultrasoft, Zval = 12.0
     Generated by new atomic code, or converted to UPF format
     Using radial grid of  851 points,  6 beta functions with: 
                l(1) =   0
                l(2) =   0
                l(3) =   1
                l(4) =   1
                l(5) =   2
                l(6) =   2
     Q(r) pseudized with  8 coefficients,  rinner =    1.000   1.000   1.000
                                                       1.000   1.000

     PseudoPot. # 2 for O  read from file:
     /storage/coda1/p-amedford6/0/shared/rich_project_chbe-medford/medford-share/data/pseudos_module/espresso/nninc/pbe/van/O.UPF
     MD5 check sum: 78c19812648e8988a0fe644b0f25305e
     Pseudo is Ultrasoft, Zval =  6.0
     Generated by new atomic code, or converted to UPF format
     Using radial grid of  737 points,  4 beta functions with: 
                l(1) =   0
                l(2) =   0
                l(3) =   1
                l(4) =   1
     Q(r) pseudized with  8 coefficients,  rinner =    0.800   0.800   0.800


     PseudoPot. # 3 for N  read from file:
     /storage/coda1/p-amedford6/0/shared/rich_project_chbe-medford/medford-share/data/pseudos_module/espresso/nninc/pbe/van/N.UPF
     MD5 check sum: 90d10febe142ad51ac9d5be1deb811c4
     Pseudo is Ultrasoft, Zval =  5.0
     Generated by new atomic code, or converted to UPF format
     Using radial grid of  729 points,  4 beta functions with: 
                l(1) =   0
                l(2) =   0
                l(3) =   1
                l(4) =   1
     Q(r) pseudized with  8 coefficients,  rinner =    0.800   0.800   0.800


     PseudoPot. # 4 for C  read from file:
     /storage/coda1/p-amedford6/0/shared/rich_project_chbe-medford/medford-share/data/pseudos_module/espresso/nninc/pbe/van/C.UPF
     MD5 check sum: 1a69bf6b8db32088f5b2163dbdb77a27
     Pseudo is Ultrasoft, Zval =  4.0
     Generated by new atomic code, or converted to UPF format
     Using radial grid of  721 points,  4 beta functions with: 
                l(1) =   0
                l(2) =   0
                l(3) =   1
                l(4) =   1
     Q(r) pseudized with  8 coefficients,  rinner =    0.800   0.800   0.800


     PseudoPot. # 5 for H  read from file:
     /storage/coda1/p-amedford6/0/shared/rich_project_chbe-medford/medford-share/data/pseudos_module/espresso/nninc/pbe/van/H.UPF
     MD5 check sum: b5ee9d7bfd3a09ee7748110bda690ff7
     Pseudo is Ultrasoft, Zval =  1.0
     Generated by new atomic code, or converted to UPF format
     Using radial grid of  615 points,  1 beta functions with: 
                l(1) =   0
     Q(r) pseudized with  8 coefficients,  rinner =    0.800

     atomic species   valence    mass     pseudopotential
        Ti1           12.00    47.86700     Ti( 1.00)
        O1             6.00    15.99900     O ( 1.00)
        N1             5.00    14.00700     N ( 1.00)
        C1             4.00    12.01100     C ( 1.00)
        H1             1.00     1.00800     H ( 1.00)

     No symmetry found



   Cartesian axes

     site n.     atom                  positions (alat units)
         1           Ti1 tau(   1) = (   0.0004258   2.9801865   6.0000000  )
         2           Ti1 tau(   2) = (   3.2906075   1.4906267   6.0002472  )
         3           O1  tau(   3) = (   0.0006271   0.0005054   7.9858123  )
         4           O1  tau(   4) = (   3.2906025   0.0005020   7.3038282  )
         5           O1  tau(   5) = (   4.5942328   1.4918067   9.2879030  )
         6           O1  tau(   6) = (   1.9868534   1.4903216   9.2879459  )
         7           Ti1 tau(   7) = (   3.2907910   2.8959150   9.1758416  )
         8           Ti1 tau(   8) = (   0.0015273   1.4827037   9.2680791  )
         9           O1  tau(   9) = (   3.2870044   0.0008392  11.3329265  )
        10           O1  tau(  10) = (   0.0116148   5.9584955  10.6183126  )
        11           O1  tau(  11) = (   1.3103063   1.4923116  12.6208530  )
        12           O1  tau(  12) = (   5.2933663   1.4849185  12.6124200  )
        13           Ti1 tau(  13) = (   6.5212574   2.9536302  12.6166858  )
        14           Ti1 tau(  14) = (   3.2058376   1.4897313  12.4816367  )
        15           O1  tau(  15) = (   6.5713238   0.0136578  14.6546308  )
        16           O1  tau(  16) = (   3.3039920   0.0133407  13.9274802  )
        17           O1  tau(  17) = (   4.5398155   1.5323753  16.0810081  )
        18           O1  tau(  18) = (   2.0543055   1.5218724  16.0470058  )
        19           Ti1 tau(  19) = (   3.2774803   3.0107093  15.7022328  )
        20           Ti1 tau(  20) = (   6.5342633   1.5374647  15.8423947  )
        21           O1  tau(  21) = (   3.2904802   0.0005063   4.7018136  )
        22           O1  tau(  22) = (   0.0034288   0.0322173  17.2228558  )
        23           O1  tau(  23) = (   1.3043587   1.4918075   6.0039043  )
        24           O1  tau(  24) = (   5.2767064   1.4903225   6.0039473  )
        25           Ti1 tau(  25) = (   0.0000382   5.9609847   6.0000000  )
        26           Ti1 tau(  26) = (   3.2902200   4.4714249   6.0002472  )
        27           O1  tau(  27) = (   0.0002396   2.9813036   7.9858123  )
        28           O1  tau(  28) = (   3.2902150   2.9813002   7.3038282  )
        29           O1  tau(  29) = (   4.5938453   4.4726049   9.2879030  )
        30           O1  tau(  30) = (   1.9864658   4.4711199   9.2879459  )
        31           Ti1 tau(  31) = (   3.2891106   5.8743827   9.1763621  )
        32           Ti1 tau(  32) = (   0.0006254   4.4649316   9.2693709  )
        33           O1  tau(  33) = (   3.2848367   2.9872869  11.3311783  )
        34           O1  tau(  34) = (   0.0092240   2.9805883  10.6323155  )
        35           O1  tau(  35) = (   1.3050274   4.4824158  12.6313026  )
        36           O1  tau(  36) = (   5.2955027   4.4751037  12.6224712  )
        37           Ti1 tau(  37) = (   6.5218534   5.9301143  12.5590122  )
        38           Ti1 tau(  38) = (   3.2037265   4.4702053  12.4865905  )
        39           O1  tau(  39) = (   6.5652647   2.9430126  14.6458727  )
        40           O1  tau(  40) = (   3.3006234   2.9978660  13.9063397  )
        41           O1  tau(  41) = (   4.5289998   4.4870283  16.1192093  )
        42           O1  tau(  42) = (   2.0463452   4.4937679  16.0531255  )
        43           Ti1 tau(  43) = (   3.2679282   0.0255942  15.7259849  )
        44           Ti1 tau(  44) = (   6.5624932   4.6695214  16.1100661  )
        45           O1  tau(  45) = (   3.2900926   2.9813045   4.7018136  )
        46           O1  tau(  46) = (   1.3039711   4.4726057   6.0039043  )
        47           O1  tau(  47) = (   5.2763189   4.4711207   6.0039473  )
        48           N1  tau(  48) = (   0.0665130   2.9625449  17.4037163  )
        49           C1  tau(  49) = (   0.2662726   2.8715582  18.6342609  )
        50           H1  tau(  50) = (   0.3859136   3.7587535  19.2661104  )
        51           H1  tau(  51) = (   0.3502417   1.8926937  19.1273272  )
        52           N1  tau(  52) = (   3.5829462   4.8819607  19.5834040  )
        53           H1  tau(  53) = (   4.1394342   5.6873527  19.8504637  )
        54           H1  tau(  54) = (   4.0752263   4.4438539  18.8113048  )
        55           H1  tau(  55) = (   3.6086599   4.2347498  20.3655469  )

     number of k points=    10  Fermi-Dirac smearing, width (Ry)=  0.0073
                       cart. coord. in units 2pi/alat
        k(    1) = (   0.0000000   0.0000000   0.0000000), wk =   0.1250000
        k(    2) = (   0.0000000   0.0419351   0.0000000), wk =   0.2500000
        k(    3) = (   0.0000000  -0.0838702   0.0000000), wk =   0.1250000
        k(    4) = (   0.0379955   0.0000049   0.0000000), wk =   0.2500000
        k(    5) = (   0.0379955   0.0419400   0.0000000), wk =   0.2500000
        k(    6) = (   0.0379955  -0.0838652   0.0000000), wk =   0.2500000
        k(    7) = (   0.0379955  -0.0419301   0.0000000), wk =   0.2500000
        k(    8) = (  -0.0759910  -0.0000099   0.0000000), wk =   0.1250000
        k(    9) = (  -0.0759910   0.0419252   0.0000000), wk =   0.2500000
        k(   10) = (  -0.0759910  -0.0838800   0.0000000), wk =   0.1250000

     Dense  grid:   566857 G-vectors     FFT dimensions: (  72,  64, 270)

     Smooth grid:   143421 G-vectors     FFT dimensions: (  45,  40, 180)

     Estimated max dynamical RAM per process >      56.57 MB

     Estimated total dynamical RAM >       3.98 GB
     Cannot read rho : file not found

     Initial potential from superposition of free atoms

     starting charge  380.99914, renormalised to  397.00000

     negative rho (up, down):  1.455E-02 0.000E+00


     %%%%%%%%%%%%%%%%%%%%%%%%%%%%%%%%%%%%%%%%%%%%%%%%%%%%%%%%%%%%%%%%%%%%%%%%
     %                                                                      %
     % You are using vdW-DF, which was implemented by the Thonhauser group. %
     % Please cite the following two papers that made this development      %
     % possible and the two reviews that describe the various versions:     %
     %                                                                      %
     %   T. Thonhauser et al., PRL 115, 136402 (2015).                      %
     %   T. Thonhauser et al., PRB 76, 125112 (2007).                       %
     %   K. Berland et al., Rep. Prog. Phys. 78, 066501 (2015).             %
     %   D.C. Langreth et al., J. Phys.: Condens. Matter 21, 084203 (2009). %
     %                                                                      %
     %                                                                      %
     % If you are calculating the stress with vdW-DF, please also cite:     %
     %                                                                      %
     %   R. Sabatini et al., J. Phys.: Condens. Matter 24, 424209 (2012).   %
     %                                                                      %
     %%%%%%%%%%%%%%%%%%%%%%%%%%%%%%%%%%%%%%%%%%%%%%%%%%%%%%%%%%%%%%%%%%%%%%%%


 
     Adding external electric field

     Computed dipole along edir(3) : 
        Dipole              -10.1142 Ry au,        -25.7077 Debye
        Dipole field         -0.0191 Ry au, 
 
        Potential amp.        1.7693 Ry
        Total length         46.3494 bohr
 
     Starting wfcs are  301 atomic wfcs
  @ DRIVER MODE: Message from server: STATUS
  @ DRIVER MODE: Message from server: POSDATA
  @ DRIVER MODE: Reading and sharing cell 
  @ DRIVER MODE: Reading and sharing positions 
  @ DRIVER MODE: Received positions 

     total cpu time spent up to now is       27.5 secs

     Self-consistent Calculation

     iteration #  1     ecut=    29.40 Ry     beta= 0.05
     Davidson diagonalization with overlap
     c_bands:  2 eigenvalues not converged
     c_bands:  1 eigenvalues not converged
     c_bands:  1 eigenvalues not converged
     c_bands:  1 eigenvalues not converged
     c_bands:  1 eigenvalues not converged
     c_bands:  1 eigenvalues not converged
     c_bands:  1 eigenvalues not converged
     c_bands:  2 eigenvalues not converged
     ethr =  1.00E-05,  avg # of iterations = 19.0

     negative rho (up, down):  1.143E-02 0.000E+00
 
     Adding external electric field

     Computed dipole along edir(3) : 
        Dipole               42.6456 Ry au,        108.3944 Debye
        Dipole field          0.0805 Ry au, 
 
        Potential amp.       -7.4602 Ry
        Total length         46.3494 bohr
 

     total cpu time spent up to now is       99.4 secs

     total energy              =   -2537.35795075 Ry
     estimated scf accuracy    <    4509.88932212 Ry

     iteration #  2     ecut=    29.40 Ry     beta= 0.05
     Davidson diagonalization with overlap
     ethr =  1.00E-02,  avg # of iterations = 25.2

     negative rho (up, down):  2.974E-03 0.000E+00
 
     Adding external electric field

     Computed dipole along edir(3) : 
        Dipole               -2.8976 Ry au,         -7.3651 Debye
        Dipole field         -0.0055 Ry au, 
 
        Potential amp.        0.5069 Ry
        Total length         46.3494 bohr
 

     total cpu time spent up to now is      149.4 secs

     total energy              =   -2457.14489019 Ry
     estimated scf accuracy    <   66613.09037897 Ry

     iteration #  3     ecut=    29.40 Ry     beta= 0.05
     Davidson diagonalization with overlap
     ethr =  1.00E-02,  avg # of iterations = 14.3

     negative rho (up, down):  3.043E-03 0.000E+00
 
     Adding external electric field

     Computed dipole along edir(3) : 
        Dipole               -4.8391 Ry au,        -12.2998 Debye
        Dipole field         -0.0091 Ry au, 
 
        Potential amp.        0.8465 Ry
        Total length         46.3494 bohr
 

     total cpu time spent up to now is      189.6 secs

     total energy              =   -2924.88484041 Ry
     estimated scf accuracy    <    4310.46948363 Ry

     iteration #  4     ecut=    29.40 Ry     beta= 0.05
     Davidson diagonalization with overlap
     c_bands:  2 eigenvalues not converged
     ethr =  1.00E-02,  avg # of iterations = 15.5

     negative rho (up, down):  3.078E-03 0.000E+00
 
     Adding external electric field

     Computed dipole along edir(3) : 
        Dipole               -6.1481 Ry au,        -15.6270 Debye
        Dipole field         -0.0116 Ry au, 
 
        Potential amp.        1.0755 Ry
        Total length         46.3494 bohr
 

     total cpu time spent up to now is      270.8 secs

     total energy              =   -2931.47124120 Ry
     estimated scf accuracy    <    1271.85492962 Ry

     iteration #  5     ecut=    29.40 Ry     beta= 0.05
     Davidson diagonalization with overlap
     ethr =  1.00E-02,  avg # of iterations = 16.3

     negative rho (up, down):  3.106E-03 0.000E+00
 
     Adding external electric field

     Computed dipole along edir(3) : 
        Dipole               -6.1485 Ry au,        -15.6278 Debye
        Dipole field         -0.0116 Ry au, 
 
        Potential amp.        1.0756 Ry
        Total length         46.3494 bohr
 

     total cpu time spent up to now is      324.7 secs

     total energy              =   -2938.91090472 Ry
     estimated scf accuracy    <     242.18604877 Ry

     iteration #  6     ecut=    29.40 Ry     beta= 0.05
     Davidson diagonalization with overlap
     ethr =  1.00E-02,  avg # of iterations =  2.1

     negative rho (up, down):  3.146E-03 0.000E+00
 
     Adding external electric field

     Computed dipole along edir(3) : 
        Dipole               -6.0538 Ry au,        -15.3873 Debye
        Dipole field         -0.0114 Ry au, 
 
        Potential amp.        1.0590 Ry
        Total length         46.3494 bohr
 

     total cpu time spent up to now is      334.2 secs

     total energy              =   -2937.85731429 Ry
     estimated scf accuracy    <     200.10609726 Ry

     iteration #  7     ecut=    29.40 Ry     beta= 0.05
     Davidson diagonalization with overlap
     ethr =  1.00E-02,  avg # of iterations =  2.2

     negative rho (up, down):  3.332E-03 0.000E+00
 
     Adding external electric field

     Computed dipole along edir(3) : 
        Dipole               -5.6852 Ry au,        -14.4503 Debye
        Dipole field         -0.0107 Ry au, 
 
        Potential amp.        0.9945 Ry
        Total length         46.3494 bohr
 

     total cpu time spent up to now is      338.0 secs

     total energy              =   -2933.93280701 Ry
     estimated scf accuracy    <     175.64460809 Ry

     iteration #  8     ecut=    29.40 Ry     beta= 0.05
     Davidson diagonalization with overlap
     ethr =  1.00E-02,  avg # of iterations =  6.4

     negative rho (up, down):  3.111E-03 0.000E+00
 
     Adding external electric field

     Computed dipole along edir(3) : 
        Dipole               -5.0445 Ry au,        -12.8218 Debye
        Dipole field         -0.0095 Ry au, 
 
        Potential amp.        0.8825 Ry
        Total length         46.3494 bohr
 

     total cpu time spent up to now is      348.4 secs

     total energy              =   -2942.12971829 Ry
     estimated scf accuracy    <      13.50810570 Ry

     iteration #  9     ecut=    29.40 Ry     beta= 0.05
     Davidson diagonalization with overlap
     ethr =  3.40E-03,  avg # of iterations =  6.6

     negative rho (up, down):  3.153E-03 0.000E+00
 
     Adding external electric field

     Computed dipole along edir(3) : 
        Dipole               -4.5704 Ry au,        -11.6168 Debye
        Dipole field         -0.0086 Ry au, 
 
        Potential amp.        0.7995 Ry
        Total length         46.3494 bohr
 

     total cpu time spent up to now is      353.7 secs

     total energy              =   -2942.54285570 Ry
     estimated scf accuracy    <      12.62949249 Ry

     iteration # 10     ecut=    29.40 Ry     beta= 0.05
     Davidson diagonalization with overlap
     ethr =  3.18E-03,  avg # of iterations =  1.1

     negative rho (up, down):  3.725E-03 0.000E+00
 
     Adding external electric field

     Computed dipole along edir(3) : 
        Dipole               -2.0053 Ry au,         -5.0970 Debye
        Dipole field         -0.0038 Ry au, 
 
        Potential amp.        0.3508 Ry
        Total length         46.3494 bohr
 

     total cpu time spent up to now is      359.3 secs

     total energy              =   -2940.77279296 Ry
     estimated scf accuracy    <       8.16625806 Ry

     iteration # 11     ecut=    29.40 Ry     beta= 0.05
     Davidson diagonalization with overlap
     c_bands:  1 eigenvalues not converged
     c_bands:  1 eigenvalues not converged
     ethr =  2.06E-03,  avg # of iterations =  8.8

     negative rho (up, down):  4.090E-03 0.000E+00
 
     Adding external electric field

     Computed dipole along edir(3) : 
        Dipole               -1.0926 Ry au,         -2.7771 Debye
        Dipole field         -0.0021 Ry au, 
 
        Potential amp.        0.1911 Ry
        Total length         46.3494 bohr
 

     total cpu time spent up to now is      369.5 secs

     total energy              =   -2940.64618143 Ry
     estimated scf accuracy    <       4.30808658 Ry

     iteration # 12     ecut=    29.40 Ry     beta= 0.05
     Davidson diagonalization with overlap
     c_bands:  2 eigenvalues not converged
     c_bands:  1 eigenvalues not converged
     c_bands:  2 eigenvalues not converged
     c_bands:  4 eigenvalues not converged
     c_bands:  1 eigenvalues not converged
     ethr =  1.09E-03,  avg # of iterations = 18.5

     negative rho (up, down):  3.902E-03 0.000E+00
 
     Adding external electric field

     Computed dipole along edir(3) : 
        Dipole               -2.1373 Ry au,         -5.4326 Debye
        Dipole field         -0.0040 Ry au, 
 
        Potential amp.        0.3739 Ry
        Total length         46.3494 bohr
 

     total cpu time spent up to now is      416.1 secs

     total energy              =   -2942.07215023 Ry
     estimated scf accuracy    <       2.67541720 Ry

     iteration # 13     ecut=    29.40 Ry     beta= 0.05
     Davidson diagonalization with overlap
     c_bands:  5 eigenvalues not converged
     c_bands:  1 eigenvalues not converged
     c_bands:  1 eigenvalues not converged
     ethr =  6.74E-04,  avg # of iterations = 11.2

     negative rho (up, down):  3.799E-03 0.000E+00
 
     Adding external electric field

     Computed dipole along edir(3) : 
        Dipole               -1.7121 Ry au,         -4.3518 Debye
        Dipole field         -0.0032 Ry au, 
 
        Potential amp.        0.2995 Ry
        Total length         46.3494 bohr
 

     total cpu time spent up to now is      442.4 secs

     total energy              =   -2942.05288736 Ry
     estimated scf accuracy    <       6.07016629 Ry

     iteration # 14     ecut=    29.40 Ry     beta= 0.05
     Davidson diagonalization with overlap
     ethr =  6.74E-04,  avg # of iterations =  1.8

     negative rho (up, down):  3.603E-03 0.000E+00
 
     Adding external electric field

     Computed dipole along edir(3) : 
        Dipole               -1.9434 Ry au,         -4.9397 Debye
        Dipole field         -0.0037 Ry au, 
 
        Potential amp.        0.3400 Ry
        Total length         46.3494 bohr
 

     total cpu time spent up to now is      448.1 secs

     total energy              =   -2941.99059259 Ry
     estimated scf accuracy    <       2.61567899 Ry

     iteration # 15     ecut=    29.40 Ry     beta= 0.05
     Davidson diagonalization with overlap
     ethr =  6.59E-04,  avg # of iterations =  1.4

     negative rho (up, down):  3.458E-03 0.000E+00
 
     Adding external electric field

     Computed dipole along edir(3) : 
        Dipole               -2.0150 Ry au,         -5.1217 Debye
        Dipole field         -0.0038 Ry au, 
 
        Potential amp.        0.3525 Ry
        Total length         46.3494 bohr
 

     total cpu time spent up to now is      470.9 secs

     total energy              =   -2942.00913286 Ry
     estimated scf accuracy    <       2.30246306 Ry

     iteration # 16     ecut=    29.40 Ry     beta= 0.05
     Davidson diagonalization with overlap
     c_bands:  3 eigenvalues not converged
     c_bands:  5 eigenvalues not converged
     ethr =  5.80E-04,  avg # of iterations = 16.4

     negative rho (up, down):  3.501E-03 0.000E+00
 
     Adding external electric field

     Computed dipole along edir(3) : 
        Dipole               -1.6381 Ry au,         -4.1636 Debye
        Dipole field         -0.0031 Ry au, 
 
        Potential amp.        0.2866 Ry
        Total length         46.3494 bohr
 

     total cpu time spent up to now is      495.9 secs

     total energy              =   -2942.81611326 Ry
     estimated scf accuracy    <     359.98535691 Ry

     iteration # 17     ecut=    29.40 Ry     beta= 0.05
     Davidson diagonalization with overlap
     ethr =  5.80E-04,  avg # of iterations =  3.5

     negative rho (up, down):  3.634E-03 0.000E+00
 
     Adding external electric field

     Computed dipole along edir(3) : 
        Dipole               -1.0997 Ry au,         -2.7951 Debye
        Dipole field         -0.0021 Ry au, 
 
        Potential amp.        0.1924 Ry
        Total length         46.3494 bohr
 

     total cpu time spent up to now is      538.1 secs

     total energy              =   -2940.34026011 Ry
     estimated scf accuracy    <     200.84209397 Ry

     iteration # 18     ecut=    29.40 Ry     beta= 0.05
     Davidson diagonalization with overlap
     c_bands:  2 eigenvalues not converged
     c_bands:  1 eigenvalues not converged
     ethr =  5.80E-04,  avg # of iterations = 14.0

     negative rho (up, down):  3.713E-03 0.000E+00
 
     Adding external electric field

     Computed dipole along edir(3) : 
        Dipole               -0.7402 Ry au,         -1.8815 Debye
        Dipole field         -0.0014 Ry au, 
 
        Potential amp.        0.1295 Ry
        Total length         46.3494 bohr
 

     total cpu time spent up to now is      584.7 secs

     total energy              =   -2941.63284678 Ry
     estimated scf accuracy    <       9.65858841 Ry

     iteration # 19     ecut=    29.40 Ry     beta= 0.05
     Davidson diagonalization with overlap
     c_bands:  1 eigenvalues not converged
     c_bands:  1 eigenvalues not converged
     ethr =  5.80E-04,  avg # of iterations = 13.2

     negative rho (up, down):  3.581E-03 0.000E+00
 
     Adding external electric field

     Computed dipole along edir(3) : 
        Dipole               -0.8490 Ry au,         -2.1581 Debye
        Dipole field         -0.0016 Ry au, 
 
        Potential amp.        0.1485 Ry
        Total length         46.3494 bohr
 

     total cpu time spent up to now is      598.5 secs

     total energy              =   -2941.82111022 Ry
     estimated scf accuracy    <       1.98127183 Ry

     iteration # 20     ecut=    29.40 Ry     beta= 0.05
     Davidson diagonalization with overlap
     ethr =  4.99E-04,  avg # of iterations =  4.0

     negative rho (up, down):  5.556E-03 0.000E+00
 
     Adding external electric field

     Computed dipole along edir(3) : 
        Dipole               -0.1689 Ry au,         -0.4292 Debye
        Dipole field         -0.0003 Ry au, 
 
        Potential amp.        0.0295 Ry
        Total length         46.3494 bohr
 

     total cpu time spent up to now is      604.9 secs

     total energy              =   -2941.65656319 Ry
     estimated scf accuracy    <       1.96030300 Ry

     iteration # 21     ecut=    29.40 Ry     beta= 0.05
     Davidson diagonalization with overlap
     ethr =  4.94E-04,  avg # of iterations = 10.3

     negative rho (up, down):  6.174E-03 0.000E+00
 
     Adding external electric field

     Computed dipole along edir(3) : 
        Dipole               -0.6051 Ry au,         -1.5381 Debye
        Dipole field         -0.0011 Ry au, 
 
        Potential amp.        0.1059 Ry
        Total length         46.3494 bohr
 

     total cpu time spent up to now is      614.0 secs

     total energy              =   -2941.91230236 Ry
     estimated scf accuracy    <       2.40888357 Ry

     iteration # 22     ecut=    29.40 Ry     beta= 0.05
     Davidson diagonalization with overlap
     ethr =  4.94E-04,  avg # of iterations =  5.1

     negative rho (up, down):  6.420E-03 0.000E+00
 
     Adding external electric field

     Computed dipole along edir(3) : 
        Dipole               -0.1554 Ry au,         -0.3950 Debye
        Dipole field         -0.0003 Ry au, 
 
        Potential amp.        0.0272 Ry
        Total length         46.3494 bohr
 

     total cpu time spent up to now is      620.8 secs

     total energy              =   -2941.68217823 Ry
     estimated scf accuracy    <       3.65779854 Ry

     iteration # 23     ecut=    29.40 Ry     beta= 0.05
     Davidson diagonalization with overlap
     ethr =  4.94E-04,  avg # of iterations =  4.9

     negative rho (up, down):  6.788E-03 0.000E+00
 
     Adding external electric field

     Computed dipole along edir(3) : 
        Dipole               -0.0253 Ry au,         -0.0643 Debye
        Dipole field         -0.0000 Ry au, 
 
        Potential amp.        0.0044 Ry
        Total length         46.3494 bohr
 

     total cpu time spent up to now is      626.3 secs

     total energy              =   -2941.70548655 Ry
     estimated scf accuracy    <       1.03066958 Ry

     iteration # 24     ecut=    29.40 Ry     beta= 0.05
     Davidson diagonalization with overlap
     c_bands:  2 eigenvalues not converged
     c_bands:  1 eigenvalues not converged
     c_bands:  1 eigenvalues not converged
     c_bands:  2 eigenvalues not converged
     c_bands:  3 eigenvalues not converged
     c_bands:  3 eigenvalues not converged
     c_bands:  2 eigenvalues not converged
     ethr =  2.60E-04,  avg # of iterations = 19.7

     negative rho (up, down):  6.167E-03 0.000E+00
 
     Adding external electric field

     Computed dipole along edir(3) : 
        Dipole               -0.2784 Ry au,         -0.7077 Debye
        Dipole field         -0.0005 Ry au, 
 
        Potential amp.        0.0487 Ry
        Total length         46.3494 bohr
 

     total cpu time spent up to now is      658.4 secs

     total energy              =   -2941.72813929 Ry
     estimated scf accuracy    <       0.35990920 Ry

     iteration # 25     ecut=    29.40 Ry     beta= 0.05
     Davidson diagonalization with overlap
     c_bands:  1 eigenvalues not converged
     c_bands:  1 eigenvalues not converged
     ethr =  9.07E-05,  avg # of iterations = 15.2

     negative rho (up, down):  5.887E-03 0.000E+00
 
     Adding external electric field

     Computed dipole along edir(3) : 
        Dipole               -0.2831 Ry au,         -0.7195 Debye
        Dipole field         -0.0005 Ry au, 
 
        Potential amp.        0.0495 Ry
        Total length         46.3494 bohr
 

     total cpu time spent up to now is      687.2 secs

     total energy              =   -2941.72224535 Ry
     estimated scf accuracy    <       0.63398002 Ry

     iteration # 26     ecut=    29.40 Ry     beta= 0.05
     Davidson diagonalization with overlap
     ethr =  9.07E-05,  avg # of iterations =  7.0

     negative rho (up, down):  8.215E-03 0.000E+00
 
     Adding external electric field

     Computed dipole along edir(3) : 
        Dipole                0.4493 Ry au,          1.1421 Debye
        Dipole field          0.0008 Ry au, 
 
        Potential amp.       -0.0786 Ry
        Total length         46.3494 bohr
 

     total cpu time spent up to now is      698.4 secs

     total energy              =   -2941.68644507 Ry
     estimated scf accuracy    <       0.34122008 Ry

     iteration # 27     ecut=    29.40 Ry     beta= 0.05
     Davidson diagonalization with overlap
     c_bands:  3 eigenvalues not converged
     c_bands:  1 eigenvalues not converged
     c_bands:  1 eigenvalues not converged
     c_bands:  2 eigenvalues not converged
     c_bands:  1 eigenvalues not converged
     c_bands:  1 eigenvalues not converged
     c_bands:  2 eigenvalues not converged
     ethr =  8.59E-05,  avg # of iterations = 19.2

     negative rho (up, down):  8.094E-03 0.000E+00
 
     Adding external electric field

     Computed dipole along edir(3) : 
        Dipole                0.4153 Ry au,          1.0555 Debye
        Dipole field          0.0008 Ry au, 
 
        Potential amp.       -0.0726 Ry
        Total length         46.3494 bohr
 

     total cpu time spent up to now is      712.6 secs

     total energy              =   -2941.71592314 Ry
     estimated scf accuracy    <       0.23262947 Ry

     iteration # 28     ecut=    29.40 Ry     beta= 0.05
     Davidson diagonalization with overlap
     c_bands:  2 eigenvalues not converged
     c_bands:  1 eigenvalues not converged
     c_bands:  1 eigenvalues not converged
     c_bands:  2 eigenvalues not converged
     c_bands:  2 eigenvalues not converged
     ethr =  5.86E-05,  avg # of iterations = 12.9

     negative rho (up, down):  7.695E-03 0.000E+00
 
     Adding external electric field

     Computed dipole along edir(3) : 
        Dipole                0.4399 Ry au,          1.1181 Debye
        Dipole field          0.0008 Ry au, 
 
        Potential amp.       -0.0770 Ry
        Total length         46.3494 bohr
 

     total cpu time spent up to now is      719.3 secs

     total energy              =   -2941.70779413 Ry
     estimated scf accuracy    <       0.29033320 Ry

     iteration # 29     ecut=    29.40 Ry     beta= 0.05
     Davidson diagonalization with overlap
     ethr =  5.86E-05,  avg # of iterations =  4.4

     negative rho (up, down):  8.127E-03 0.000E+00
 
     Adding external electric field

     Computed dipole along edir(3) : 
        Dipole                0.5648 Ry au,          1.4356 Debye
        Dipole field          0.0011 Ry au, 
 
        Potential amp.       -0.0988 Ry
        Total length         46.3494 bohr
 

     total cpu time spent up to now is      725.4 secs

     total energy              =   -2941.69240004 Ry
     estimated scf accuracy    <       0.20616048 Ry

     iteration # 30     ecut=    29.40 Ry     beta= 0.05
     Davidson diagonalization with overlap
     c_bands:  5 eigenvalues not converged
     ethr =  5.19E-05,  avg # of iterations = 13.5

     negative rho (up, down):  8.652E-03 0.000E+00
 
     Adding external electric field

     Computed dipole along edir(3) : 
        Dipole                0.6231 Ry au,          1.5838 Debye
        Dipole field          0.0012 Ry au, 
 
        Potential amp.       -0.1090 Ry
        Total length         46.3494 bohr
 

     total cpu time spent up to now is      756.4 secs

     total energy              =   -2941.70660830 Ry
     estimated scf accuracy    <       0.07467620 Ry

     iteration # 31     ecut=    29.40 Ry     beta= 0.05
     Davidson diagonalization with overlap
     c_bands:  1 eigenvalues not converged
     c_bands:  4 eigenvalues not converged
     ethr =  1.88E-05,  avg # of iterations = 15.2

     negative rho (up, down):  9.353E-03 0.000E+00
 
     Adding external electric field

     Computed dipole along edir(3) : 
        Dipole                0.6356 Ry au,          1.6156 Debye
        Dipole field          0.0012 Ry au, 
 
        Potential amp.       -0.1112 Ry
        Total length         46.3494 bohr
 

     total cpu time spent up to now is      782.2 secs

     total energy              =   -2941.71219783 Ry
     estimated scf accuracy    <       0.05382719 Ry

     iteration # 32     ecut=    29.40 Ry     beta= 0.05
     Davidson diagonalization with overlap
     c_bands:  3 eigenvalues not converged
     c_bands:  1 eigenvalues not converged
     c_bands:  2 eigenvalues not converged
     c_bands:  4 eigenvalues not converged
     ethr =  1.36E-05,  avg # of iterations = 14.4

     negative rho (up, down):  9.077E-03 0.000E+00
 
     Adding external electric field

     Computed dipole along edir(3) : 
        Dipole                0.6551 Ry au,          1.6650 Debye
        Dipole field          0.0012 Ry au, 
 
        Potential amp.       -0.1146 Ry
        Total length         46.3494 bohr
 

     total cpu time spent up to now is      834.4 secs

     total energy              =   -2941.71225989 Ry
     estimated scf accuracy    <       0.06449780 Ry

     iteration # 33     ecut=    29.40 Ry     beta= 0.05
     Davidson diagonalization with overlap
     ethr =  1.36E-05,  avg # of iterations =  4.9

     negative rho (up, down):  9.669E-03 0.000E+00
 
     Adding external electric field

     Computed dipole along edir(3) : 
        Dipole                0.7053 Ry au,          1.7927 Debye
        Dipole field          0.0013 Ry au, 
 
        Potential amp.       -0.1234 Ry
        Total length         46.3494 bohr
 

     total cpu time spent up to now is      849.4 secs

     total energy              =   -2941.71394524 Ry
     estimated scf accuracy    <       0.06244243 Ry

     iteration # 34     ecut=    29.40 Ry     beta= 0.05
     Davidson diagonalization with overlap
     ethr =  1.36E-05,  avg # of iterations =  1.4

     negative rho (up, down):  8.568E-03 0.000E+00
 
     Adding external electric field

     Computed dipole along edir(3) : 
        Dipole                0.5648 Ry au,          1.4356 Debye
        Dipole field          0.0011 Ry au, 
 
        Potential amp.       -0.0988 Ry
        Total length         46.3494 bohr
 

     total cpu time spent up to now is      853.5 secs

     total energy              =   -2941.70719353 Ry
     estimated scf accuracy    <       0.07634526 Ry

     iteration # 35     ecut=    29.40 Ry     beta= 0.05
     Davidson diagonalization with overlap
     ethr =  1.36E-05,  avg # of iterations = 10.2

     negative rho (up, down):  8.780E-03 0.000E+00
 
     Adding external electric field

     Computed dipole along edir(3) : 
        Dipole                0.5941 Ry au,          1.5099 Debye
        Dipole field          0.0011 Ry au, 
 
        Potential amp.       -0.1039 Ry
        Total length         46.3494 bohr
 

     total cpu time spent up to now is      865.6 secs

     total energy              =   -2941.69913809 Ry
     estimated scf accuracy    <       0.03675334 Ry

     iteration # 36     ecut=    29.40 Ry     beta= 0.05
     Davidson diagonalization with overlap
     c_bands:  4 eigenvalues not converged
     c_bands:  5 eigenvalues not converged
     c_bands:  1 eigenvalues not converged
     c_bands:  1 eigenvalues not converged
     c_bands:  2 eigenvalues not converged
     c_bands:  2 eigenvalues not converged
     c_bands:  4 eigenvalues not converged
     ethr =  9.26E-06,  avg # of iterations = 19.6

     negative rho (up, down):  1.124E-02 0.000E+00
 
     Adding external electric field

     Computed dipole along edir(3) : 
        Dipole                0.7544 Ry au,          1.9174 Debye
        Dipole field          0.0014 Ry au, 
 
        Potential amp.       -0.1320 Ry
        Total length         46.3494 bohr
 

     total cpu time spent up to now is      914.5 secs

     total energy              =   -2941.69780820 Ry
     estimated scf accuracy    <       0.06527030 Ry

     iteration # 37     ecut=    29.40 Ry     beta= 0.05
     Davidson diagonalization with overlap
     c_bands:  2 eigenvalues not converged
     c_bands:  1 eigenvalues not converged
     ethr =  9.26E-06,  avg # of iterations = 17.4

     negative rho (up, down):  1.085E-02 0.000E+00
 
     Adding external electric field

     Computed dipole along edir(3) : 
        Dipole                0.7580 Ry au,          1.9266 Debye
        Dipole field          0.0014 Ry au, 
 
        Potential amp.       -0.1326 Ry
        Total length         46.3494 bohr
 

     total cpu time spent up to now is      982.6 secs

     total energy              =   -2941.70811662 Ry
     estimated scf accuracy    <       0.04610214 Ry

     iteration # 38     ecut=    29.40 Ry     beta= 0.05
     Davidson diagonalization with overlap
     ethr =  9.26E-06,  avg # of iterations =  8.0

     negative rho (up, down):  1.087E-02 0.000E+00
 
     Adding external electric field

     Computed dipole along edir(3) : 
        Dipole                0.7887 Ry au,          2.0048 Debye
        Dipole field          0.0015 Ry au, 
 
        Potential amp.       -0.1380 Ry
        Total length         46.3494 bohr
 

     total cpu time spent up to now is     1002.7 secs

     total energy              =   -2941.70742485 Ry
     estimated scf accuracy    <       0.02268088 Ry

     iteration # 39     ecut=    29.40 Ry     beta= 0.05
     Davidson diagonalization with overlap
     ethr =  5.71E-06,  avg # of iterations =  7.4

     negative rho (up, down):  1.336E-02 0.000E+00
 
     Adding external electric field

     Computed dipole along edir(3) : 
        Dipole                0.8761 Ry au,          2.2267 Debye
        Dipole field          0.0017 Ry au, 
 
        Potential amp.       -0.1533 Ry
        Total length         46.3494 bohr
 

     total cpu time spent up to now is     1033.8 secs

     total energy              =   -2941.70500227 Ry
     estimated scf accuracy    <       0.01227974 Ry

     iteration # 40     ecut=    29.40 Ry     beta= 0.05
     Davidson diagonalization with overlap
     ethr =  3.09E-06,  avg # of iterations = 13.9

     negative rho (up, down):  1.216E-02 0.000E+00
 
     Adding external electric field

     Computed dipole along edir(3) : 
        Dipole                0.8096 Ry au,          2.0577 Debye
        Dipole field          0.0015 Ry au, 
 
        Potential amp.       -0.1416 Ry
        Total length         46.3494 bohr
 

     total cpu time spent up to now is     1056.7 secs

     total energy              =   -2941.70655782 Ry
     estimated scf accuracy    <       0.00817455 Ry

     iteration # 41     ecut=    29.40 Ry     beta= 0.05
     Davidson diagonalization with overlap
     ethr =  2.06E-06,  avg # of iterations = 11.3

     negative rho (up, down):  1.282E-02 0.000E+00
 
     Adding external electric field

     Computed dipole along edir(3) : 
        Dipole                0.8246 Ry au,          2.0960 Debye
        Dipole field          0.0016 Ry au, 
 
        Potential amp.       -0.1443 Ry
        Total length         46.3494 bohr
 

     total cpu time spent up to now is     1077.1 secs

     total energy              =   -2941.70728034 Ry
     estimated scf accuracy    <       0.00120662 Ry

     iteration # 42     ecut=    29.40 Ry     beta= 0.05
     Davidson diagonalization with overlap
     c_bands:  1 eigenvalues not converged
     c_bands:  2 eigenvalues not converged
     c_bands:  1 eigenvalues not converged
     ethr =  3.04E-07,  avg # of iterations = 15.9

     negative rho (up, down):  1.402E-02 0.000E+00
 
     Adding external electric field

     Computed dipole along edir(3) : 
        Dipole                0.8718 Ry au,          2.2158 Debye
        Dipole field          0.0016 Ry au, 
 
        Potential amp.       -0.1525 Ry
        Total length         46.3494 bohr
 

     total cpu time spent up to now is     1107.9 secs

     total energy              =   -2941.70743902 Ry
     estimated scf accuracy    <       0.00129719 Ry

     iteration # 43     ecut=    29.40 Ry     beta= 0.05
     Davidson diagonalization with overlap
     ethr =  3.04E-07,  avg # of iterations = 11.2

     negative rho (up, down):  1.378E-02 0.000E+00
 
     Adding external electric field

     Computed dipole along edir(3) : 
        Dipole                0.8663 Ry au,          2.2020 Debye
        Dipole field          0.0016 Ry au, 
 
        Potential amp.       -0.1516 Ry
        Total length         46.3494 bohr
 

     total cpu time spent up to now is     1157.2 secs

     total energy              =   -2941.70753473 Ry
     estimated scf accuracy    <       0.00169363 Ry

     iteration # 44     ecut=    29.40 Ry     beta= 0.05
     Davidson diagonalization with overlap
     ethr =  3.04E-07,  avg # of iterations =  2.9

     negative rho (up, down):  1.380E-02 0.000E+00
 
     Adding external electric field

     Computed dipole along edir(3) : 
        Dipole                0.8508 Ry au,          2.1626 Debye
        Dipole field          0.0016 Ry au, 
 
        Potential amp.       -0.1488 Ry
        Total length         46.3494 bohr
 

     total cpu time spent up to now is     1180.6 secs

     total energy              =   -2941.70713395 Ry
     estimated scf accuracy    <       0.00136590 Ry

     iteration # 45     ecut=    29.40 Ry     beta= 0.05
     Davidson diagonalization with overlap
     ethr =  3.04E-07,  avg # of iterations = 11.6

     negative rho (up, down):  1.462E-02 0.000E+00
 
     Adding external electric field

     Computed dipole along edir(3) : 
        Dipole                0.8644 Ry au,          2.1971 Debye
        Dipole field          0.0016 Ry au, 
 
        Potential amp.       -0.1512 Ry
        Total length         46.3494 bohr
 

     total cpu time spent up to now is     1193.3 secs

     total energy              =   -2941.70745901 Ry
     estimated scf accuracy    <       0.00046616 Ry

     iteration # 46     ecut=    29.40 Ry     beta= 0.05
     Davidson diagonalization with overlap
     ethr =  1.17E-07,  avg # of iterations =  5.3

     negative rho (up, down):  1.484E-02 0.000E+00
 
     Adding external electric field

     Computed dipole along edir(3) : 
        Dipole                0.8722 Ry au,          2.2169 Debye
        Dipole field          0.0016 Ry au, 
 
        Potential amp.       -0.1526 Ry
        Total length         46.3494 bohr
 

     total cpu time spent up to now is     1198.1 secs

     total energy              =   -2941.70744871 Ry
     estimated scf accuracy    <       0.00030168 Ry

     iteration # 47     ecut=    29.40 Ry     beta= 0.05
     Davidson diagonalization with overlap
     c_bands:  3 eigenvalues not converged
     ethr =  7.60E-08,  avg # of iterations = 11.7

     negative rho (up, down):  1.484E-02 0.000E+00
 
     Adding external electric field

     Computed dipole along edir(3) : 
        Dipole                0.8734 Ry au,          2.2200 Debye
        Dipole field          0.0016 Ry au, 
 
        Potential amp.       -0.1528 Ry
        Total length         46.3494 bohr
 

     total cpu time spent up to now is     1205.5 secs

     total energy              =   -2941.70750142 Ry
     estimated scf accuracy    <       0.00007505 Ry

     iteration # 48     ecut=    29.40 Ry     beta= 0.05
     Davidson diagonalization with overlap
     c_bands:  3 eigenvalues not converged
     ethr =  1.89E-08,  avg # of iterations = 12.3

     negative rho (up, down):  1.478E-02 0.000E+00
 
     Adding external electric field

     Computed dipole along edir(3) : 
        Dipole                0.8735 Ry au,          2.2201 Debye
        Dipole field          0.0016 Ry au, 
 
        Potential amp.       -0.1528 Ry
        Total length         46.3494 bohr
 

     total cpu time spent up to now is     1213.1 secs

     total energy              =   -2941.70752464 Ry
     estimated scf accuracy    <       0.00005354 Ry

     iteration # 49     ecut=    29.40 Ry     beta= 0.05
     Davidson diagonalization with overlap
     ethr =  1.35E-08,  avg # of iterations =  5.9

     negative rho (up, down):  1.490E-02 0.000E+00
 
     Adding external electric field

     Computed dipole along edir(3) : 
        Dipole                0.8754 Ry au,          2.2251 Debye
        Dipole field          0.0017 Ry au, 
 
        Potential amp.       -0.1531 Ry
        Total length         46.3494 bohr
 

     total cpu time spent up to now is     1225.9 secs

     total energy              =   -2941.70753915 Ry
     estimated scf accuracy    <       0.00003625 Ry

     iteration # 50     ecut=    29.40 Ry     beta= 0.05
     Davidson diagonalization with overlap
     c_bands:  1 eigenvalues not converged
     ethr =  9.13E-09,  avg # of iterations = 14.7

     negative rho (up, down):  1.491E-02 0.000E+00
 
     Adding external electric field

     Computed dipole along edir(3) : 
        Dipole                0.8761 Ry au,          2.2267 Debye
        Dipole field          0.0017 Ry au, 
 
        Potential amp.       -0.1533 Ry
        Total length         46.3494 bohr
 

     total cpu time spent up to now is     1242.4 secs

     total energy              =   -2941.70755439 Ry
     estimated scf accuracy    <       0.00002427 Ry

     iteration # 51     ecut=    29.40 Ry     beta= 0.05
     Davidson diagonalization with overlap
     ethr =  6.11E-09,  avg # of iterations = 13.8

     negative rho (up, down):  1.497E-02 0.000E+00
 
     Adding external electric field

     Computed dipole along edir(3) : 
        Dipole                0.8763 Ry au,          2.2273 Debye
        Dipole field          0.0017 Ry au, 
 
        Potential amp.       -0.1533 Ry
        Total length         46.3494 bohr
 

     total cpu time spent up to now is     1258.0 secs

     total energy              =   -2941.70756735 Ry
     estimated scf accuracy    <       0.00001014 Ry

     iteration # 52     ecut=    29.40 Ry     beta= 0.05
     Davidson diagonalization with overlap
     ethr =  2.55E-09,  avg # of iterations =  8.9

     negative rho (up, down):  1.491E-02 0.000E+00
 
     Adding external electric field

     Computed dipole along edir(3) : 
        Dipole                0.8752 Ry au,          2.2245 Debye
        Dipole field          0.0017 Ry au, 
 
        Potential amp.       -0.1531 Ry
        Total length         46.3494 bohr
 

     total cpu time spent up to now is     1266.0 secs

     total energy              =   -2941.70757726 Ry
     estimated scf accuracy    <       0.00000740 Ry

     iteration # 53     ecut=    29.40 Ry     beta= 0.05
     Davidson diagonalization with overlap
     ethr =  1.86E-09,  avg # of iterations = 11.0

     negative rho (up, down):  1.492E-02 0.000E+00
 
     Adding external electric field

     Computed dipole along edir(3) : 
        Dipole                0.8756 Ry au,          2.2256 Debye
        Dipole field          0.0017 Ry au, 
 
        Potential amp.       -0.1532 Ry
        Total length         46.3494 bohr
 

     total cpu time spent up to now is     1276.4 secs

     total energy              =   -2941.70758721 Ry
     estimated scf accuracy    <       0.00000342 Ry

     iteration # 54     ecut=    29.40 Ry     beta= 0.05
     Davidson diagonalization with overlap
     ethr =  8.60E-10,  avg # of iterations =  4.4

     negative rho (up, down):  1.496E-02 0.000E+00
 
     Adding external electric field

     Computed dipole along edir(3) : 
        Dipole                0.8763 Ry au,          2.2273 Debye
        Dipole field          0.0017 Ry au, 
 
        Potential amp.       -0.1533 Ry
        Total length         46.3494 bohr
 

     total cpu time spent up to now is     1282.3 secs

     total energy              =   -2941.70759515 Ry
     estimated scf accuracy    <       0.00000282 Ry

     iteration # 55     ecut=    29.40 Ry     beta= 0.05
     Davidson diagonalization with overlap
     ethr =  7.11E-10,  avg # of iterations =  4.5

     negative rho (up, down):  1.496E-02 0.000E+00
 
     Adding external electric field

     Computed dipole along edir(3) : 
        Dipole                0.8762 Ry au,          2.2270 Debye
        Dipole field          0.0017 Ry au, 
 
        Potential amp.       -0.1533 Ry
        Total length         46.3494 bohr
 

     total cpu time spent up to now is     1286.8 secs

     total energy              =   -2941.70760242 Ry
     estimated scf accuracy    <       0.00000204 Ry

     iteration # 56     ecut=    29.40 Ry     beta= 0.05
     Davidson diagonalization with overlap
     ethr =  5.13E-10,  avg # of iterations =  6.7

     negative rho (up, down):  1.493E-02 0.000E+00
 
     Adding external electric field

     Computed dipole along edir(3) : 
        Dipole                0.8753 Ry au,          2.2249 Debye
        Dipole field          0.0017 Ry au, 
 
        Potential amp.       -0.1531 Ry
        Total length         46.3494 bohr
 

     total cpu time spent up to now is     1294.4 secs

     total energy              =   -2941.70760883 Ry
     estimated scf accuracy    <       0.00000126 Ry

     iteration # 57     ecut=    29.40 Ry     beta= 0.05
     Davidson diagonalization with overlap
     ethr =  3.17E-10,  avg # of iterations = 11.2

     negative rho (up, down):  1.495E-02 0.000E+00
 
     Adding external electric field

     Computed dipole along edir(3) : 
        Dipole                0.8760 Ry au,          2.2265 Debye
        Dipole field          0.0017 Ry au, 
 
        Potential amp.       -0.1532 Ry
        Total length         46.3494 bohr
 

     total cpu time spent up to now is     1306.2 secs

     total energy              =   -2941.70761456 Ry
     estimated scf accuracy    <       0.00000123 Ry

     iteration # 58     ecut=    29.40 Ry     beta= 0.05
     Davidson diagonalization with overlap
     ethr =  3.11E-10,  avg # of iterations = 12.4

     negative rho (up, down):  1.492E-02 0.000E+00
 
     Adding external electric field

     Computed dipole along edir(3) : 
        Dipole                0.8754 Ry au,          2.2251 Debye
        Dipole field          0.0017 Ry au, 
 
        Potential amp.       -0.1531 Ry
        Total length         46.3494 bohr
 

     total cpu time spent up to now is     1359.4 secs

     total energy              =   -2941.70762004 Ry
     estimated scf accuracy    <       0.00000042 Ry

     iteration # 59     ecut=    29.40 Ry     beta= 0.05
     Davidson diagonalization with overlap
     ethr =  1.07E-10,  avg # of iterations =  5.4

     negative rho (up, down):  1.491E-02 0.000E+00
 
     Adding external electric field

     Computed dipole along edir(3) : 
        Dipole                0.8752 Ry au,          2.2245 Debye
        Dipole field          0.0017 Ry au, 
 
        Potential amp.       -0.1531 Ry
        Total length         46.3494 bohr
 

     total cpu time spent up to now is     1365.6 secs

     total energy              =   -2941.70762471 Ry
     estimated scf accuracy    <       0.00000032 Ry

     iteration # 60     ecut=    29.40 Ry     beta= 0.05
     Davidson diagonalization with overlap
     ethr =  8.06E-11,  avg # of iterations = 13.2

     negative rho (up, down):  1.493E-02 0.000E+00
 
     Adding external electric field

     Computed dipole along edir(3) : 
        Dipole                0.8756 Ry au,          2.2256 Debye
        Dipole field          0.0017 Ry au, 
 
        Potential amp.       -0.1532 Ry
        Total length         46.3494 bohr
 

     total cpu time spent up to now is     1405.2 secs

     total energy              =   -2941.70762901 Ry
     estimated scf accuracy    <       0.00000013 Ry

     iteration # 61     ecut=    29.40 Ry     beta= 0.05
     Davidson diagonalization with overlap
     ethr =  3.21E-11,  avg # of iterations = 11.6

     negative rho (up, down):  1.494E-02 0.000E+00
 
     Adding external electric field

     Computed dipole along edir(3) : 
        Dipole                0.8757 Ry au,          2.2257 Debye
        Dipole field          0.0017 Ry au, 
 
        Potential amp.       -0.1532 Ry
        Total length         46.3494 bohr
 

     total cpu time spent up to now is     1418.4 secs

     total energy              =   -2941.70763287 Ry
     estimated scf accuracy    <       0.00000014 Ry

     iteration # 62     ecut=    29.40 Ry     beta= 0.05
     Davidson diagonalization with overlap
     ethr =  3.21E-11,  avg # of iterations = 12.1

     negative rho (up, down):  1.502E-02 0.000E+00
 
     Adding external electric field

     Computed dipole along edir(3) : 
        Dipole                0.8751 Ry au,          2.2243 Debye
        Dipole field          0.0017 Ry au, 
 
        Potential amp.       -0.1531 Ry
        Total length         46.3494 bohr
 

     total cpu time spent up to now is     1427.6 secs

     End of self-consistent calculation

          k = 0.0000 0.0000 0.0000 ( 18029 PWs)   bands (ev):

   -55.7664 -55.7577 -55.7324 -55.7218 -55.6526 -55.6120 -55.5958 -55.5775
   -55.5750 -55.5410 -55.5389 -55.5053 -55.2885 -55.0373 -54.7434 -54.7093
   -32.3107 -32.2489 -32.1132 -32.1024 -32.0738 -32.0706 -32.0594 -32.0294
   -32.0089 -31.9852 -31.9785 -31.9582 -31.9375 -31.9184 -31.9099 -31.8969
   -31.8837 -31.8708 -31.8558 -31.8234 -31.8212 -31.8185 -31.7772 -31.7706
   -31.7694 -31.7685 -31.7628 -31.7540 -31.7409 -31.7269 -31.7202 -31.7142
   -31.7099 -31.7053 -31.6919 -31.6822 -31.6511 -31.5433 -31.4678 -31.3178
   -31.2910 -31.2441 -31.1503 -31.0622 -31.0398 -30.9672 -30.8807 -30.7695
   -16.5070 -16.2414 -16.0254 -15.9203 -15.8855 -15.7696 -15.6053 -15.4859
   -15.4337 -15.3357 -15.3222 -15.3022 -15.2686 -15.2537 -15.2358 -15.2137
   -15.2078 -15.1906 -15.1773 -15.1253 -15.1026 -15.0668 -14.9702 -14.9391
   -14.9010 -14.8856 -14.8275 -14.8213 -14.7526 -14.3402 -14.0315 -13.2459
   -13.1295  -7.2474  -4.1638  -4.1283  -4.0165  -3.8824  -3.7717  -3.7202
    -3.6716  -3.6115  -3.4038  -3.3147  -3.2864  -2.9939  -2.9481  -2.9329
    -2.9110  -2.8856  -2.6659  -2.6117  -2.5794  -2.5625  -2.5477  -2.5344
    -2.5267  -2.5081  -2.4731  -2.3764  -2.3213  -2.3070  -2.1841  -2.1558
    -2.0973  -2.0783  -2.0318  -2.0168  -2.0037  -1.9995  -1.9714  -1.9548
    -1.9308  -1.8514  -1.7353  -1.5834  -1.5643  -1.5314  -1.4200  -1.3730
    -1.3098  -1.2266  -1.2082  -1.1915  -1.1574  -1.1469  -1.0665  -0.9533
    -0.9136  -0.9062  -0.8028  -0.7623  -0.7417  -0.6378  -0.6138  -0.5450
    -0.5290  -0.5188  -0.4859  -0.3238  -0.2711  -0.2348  -0.1686  -0.1458
    -0.0948  -0.0687  -0.0388   0.0448   0.0909   0.1194   0.1223   0.1698
     0.2086   0.2248   0.2284   0.2440   0.2631   0.4309   0.5072   0.5198
     0.5900   0.6015   0.7642   0.8089   0.8913   0.9932   1.0523   1.2044
     1.2787   1.3676   1.4709   1.7150   1.8498   1.8954   3.3705   3.4541
     3.5024   3.5145   3.6130   3.6535   3.8234   3.8328   3.8421   3.9165

          k = 0.0000 0.0419 0.0000 ( 17933 PWs)   bands (ev):

   -55.7614 -55.7524 -55.7373 -55.7270 -55.6498 -55.6070 -55.5984 -55.5824
   -55.5699 -55.5459 -55.5340 -55.5101 -55.2879 -55.0377 -54.7383 -54.7142
   -32.2534 -32.1949 -32.0585 -32.0575 -32.0547 -32.0481 -32.0468 -31.9941
   -31.9878 -31.9824 -31.9738 -31.9683 -31.9404 -31.9350 -31.9274 -31.9191
   -31.9046 -31.8719 -31.8425 -31.8373 -31.8159 -31.8100 -31.7898 -31.7834
   -31.7778 -31.7765 -31.7675 -31.7664 -31.7641 -31.7522 -31.7444 -31.7347
   -31.7124 -31.7105 -31.7070 -31.6945 -31.6930 -31.5426 -31.4649 -31.3460
   -31.2909 -31.2562 -31.0962 -31.0587 -31.0428 -30.9546 -30.8932 -30.8266
   -16.3710 -16.1212 -15.9149 -15.8112 -15.7849 -15.7345 -15.6283 -15.5441
   -15.5214 -15.3604 -15.3246 -15.2996 -15.2856 -15.2655 -15.2431 -15.2270
   -15.2225 -15.1987 -15.1758 -15.1513 -15.1096 -15.0474 -14.9945 -14.9767
   -14.9590 -14.9387 -14.8780 -14.8408 -14.7632 -14.4165 -14.0312 -13.2500
   -13.1690  -7.2457  -4.1678  -4.1132  -4.0259  -3.6901  -3.6386  -3.5553
    -3.4955  -3.4536  -3.2648  -3.1755  -3.0780  -2.9873  -2.9308  -2.8381
    -2.8148  -2.8007  -2.7376  -2.7179  -2.7085  -2.6522  -2.6355  -2.5842
    -2.5467  -2.5169  -2.4989  -2.4563  -2.4527  -2.4280  -2.3924  -2.3034
    -2.2675  -2.2552  -2.2284  -2.1843  -2.0551  -2.0103  -2.0054  -1.9012
    -1.7961  -1.7101  -1.6586  -1.5271  -1.4676  -1.4462  -1.4236  -1.3586
    -1.1593  -1.1343  -1.0988  -1.0653  -1.0347  -1.0020  -0.9721  -0.8487
    -0.7836  -0.7628  -0.7172  -0.6845  -0.6624  -0.6488  -0.6163  -0.5830
    -0.5747  -0.5151  -0.4551  -0.3913  -0.3440  -0.2901  -0.2614  -0.2560
    -0.2283  -0.1581  -0.0706  -0.0282   0.0055   0.0362   0.0468   0.0739
     0.1139   0.1197   0.2044   0.2617   0.2889   0.3667   0.4282   0.4476
     0.5091   0.5654   0.5766   0.6236   0.7590   0.8973   0.9245   1.0472
     1.2427   1.4677   1.5513   1.6103   1.8038   1.8073   3.5624   3.6055
     3.6209   3.6775   3.7236   3.7688   3.8143   3.8576   3.8911   3.9276

          k = 0.0000-0.0839 0.0000 ( 17884 PWs)   bands (ev):

   -55.7497 -55.7489 -55.7405 -55.7388 -55.6466 -55.6015 -55.5964 -55.5929
   -55.5588 -55.5569 -55.5227 -55.5214 -55.2874 -55.0382 -54.7263 -54.7261
   -32.1152 -32.1124 -32.0629 -32.0623 -32.0451 -32.0442 -32.0292 -32.0169
   -31.9570 -31.9518 -31.9446 -31.9417 -31.9271 -31.9210 -31.9162 -31.8870
   -31.8760 -31.8713 -31.8705 -31.8699 -31.8541 -31.8439 -31.8410 -31.8101
   -31.8100 -31.8066 -31.7980 -31.7925 -31.7892 -31.7773 -31.7546 -31.7536
   -31.7317 -31.7291 -31.7021 -31.7018 -31.6526 -31.5419 -31.4643 -31.3848
   -31.2909 -31.2656 -31.0506 -31.0505 -30.9633 -30.9631 -30.9240 -30.9239
   -16.0294 -16.0219 -15.8387 -15.8341 -15.6774 -15.6690 -15.5619 -15.5569
   -15.5476 -15.5206 -15.4830 -15.4803 -15.3264 -15.3217 -15.1720 -15.1447
   -15.1404 -15.1369 -15.1199 -15.1013 -15.1000 -15.0771 -15.0578 -15.0534
   -15.0205 -15.0090 -14.9836 -14.8300 -14.7701 -14.5190 -14.0309 -13.2318
   -13.2317  -7.2441  -4.1708  -4.0983  -4.0402  -3.4664  -3.2387  -3.2161
    -3.1612  -3.1525  -3.1350  -3.1267  -3.0570  -3.0567  -2.9944  -2.8921
    -2.8867  -2.8732  -2.8717  -2.8416  -2.8142  -2.7559  -2.7155  -2.7102
    -2.6152  -2.5726  -2.5459  -2.5362  -2.5137  -2.4739  -2.4428  -2.3591
    -2.3518  -2.3259  -2.2139  -2.1327  -2.1286  -2.0943  -1.8321  -1.7596
    -1.6624  -1.6367  -1.5562  -1.4613  -1.4480  -1.3882  -1.2696  -1.2187
    -1.1949  -1.1864  -1.1490  -1.1320  -1.1009  -1.0467  -0.9877  -0.9474
    -0.8876  -0.8469  -0.8374  -0.7538  -0.6449  -0.5373  -0.4747  -0.4056
    -0.4026  -0.3842  -0.3691  -0.3439  -0.3023  -0.2917  -0.2430  -0.2122
    -0.1940  -0.1737  -0.1185  -0.0949  -0.0696  -0.0515  -0.0341  -0.0035
     0.0147   0.0371   0.0484   0.0980   0.1351   0.1368   0.2179   0.3362
     0.4753   0.4793   0.4885   0.5151   0.8458   0.8660   0.9406   0.9675
     1.0457   1.5510   1.6110   1.6115   1.7408   1.7414   3.6795   3.6927
     3.7071   3.7344   3.8022   3.8119   3.8620   3.9186   3.9553   3.9661

          k = 0.0380 0.0000 0.0000 ( 17913 PWs)   bands (ev):

   -55.7663 -55.7576 -55.7323 -55.7217 -55.6525 -55.6120 -55.5957 -55.5774
   -55.5747 -55.5409 -55.5390 -55.5052 -55.2884 -55.0372 -54.7433 -54.7092
   -32.3108 -32.2497 -32.1192 -32.1038 -32.0739 -32.0704 -32.0591 -32.0341
   -32.0089 -31.9834 -31.9646 -31.9572 -31.9374 -31.9155 -31.9028 -31.8965
   -31.8792 -31.8705 -31.8370 -31.8351 -31.8232 -31.8193 -31.7816 -31.7696
   -31.7689 -31.7653 -31.7559 -31.7540 -31.7407 -31.7352 -31.7266 -31.7185
   -31.7097 -31.7051 -31.6921 -31.6812 -31.6513 -31.5454 -31.4676 -31.3177
   -31.2914 -31.2439 -31.1498 -31.0655 -31.0378 -30.9670 -30.8806 -30.7692
   -16.4345 -16.1563 -15.9438 -15.9020 -15.8168 -15.7691 -15.6498 -15.4837
   -15.4688 -15.4578 -15.4306 -15.3837 -15.3723 -15.3335 -15.3148 -15.2937
   -15.1273 -15.0940 -15.0833 -15.0305 -15.0187 -15.0111 -14.9787 -14.9557
   -14.9441 -14.9233 -14.9081 -14.8087 -14.7474 -14.3386 -14.0316 -13.2427
   -13.1292  -7.2459  -4.1718  -4.1090  -4.0294  -3.7977  -3.6515  -3.4853
    -3.4492  -3.3933  -3.3098  -3.2971  -3.2462  -3.2263  -3.0081  -2.9928
    -2.8751  -2.8596  -2.8409  -2.7571  -2.6330  -2.5574  -2.5286  -2.4777
    -2.4740  -2.3805  -2.3704  -2.3349  -2.2823  -2.2289  -2.1995  -2.1538
    -2.1132  -2.0920  -2.0384  -1.9814  -1.9644  -1.9446  -1.8015  -1.7579
    -1.7435  -1.7198  -1.6553  -1.6221  -1.6113  -1.5335  -1.4262  -1.3730
    -1.3461  -1.3098  -1.2778  -1.2002  -1.1865  -1.1181  -1.0528  -1.0453
    -1.0358  -1.0197  -0.9002  -0.8263  -0.7239  -0.6210  -0.6049  -0.5846
    -0.5600  -0.5253  -0.4840  -0.3568  -0.3133  -0.2737  -0.2140  -0.1810
    -0.1564  -0.1106  -0.0469  -0.0349  -0.0054   0.0303   0.0590   0.0829
     0.0929   0.1124   0.1243   0.1788   0.3111   0.3526   0.4127   0.4283
     0.5304   0.6101   0.6361   0.6521   0.8720   0.9252   1.0416   1.2074
     1.2330   1.2905   1.4404   1.7196   1.7383   1.8125   3.4051   3.4272
     3.7110   3.7358   3.7501   3.7813   3.7975   3.8223   3.8485   3.8794

          k = 0.0380 0.0419 0.0000 ( 17878 PWs)   bands (ev):

   -55.7613 -55.7523 -55.7373 -55.7270 -55.6497 -55.6069 -55.5984 -55.5824
   -55.5697 -55.5458 -55.5340 -55.5101 -55.2879 -55.0377 -54.7382 -54.7142
   -32.2536 -32.1957 -32.0658 -32.0573 -32.0545 -32.0494 -32.0469 -31.9941
   -31.9881 -31.9840 -31.9770 -31.9557 -31.9404 -31.9350 -31.9275 -31.9087
   -31.9021 -31.8682 -31.8369 -31.8305 -31.8250 -31.8099 -31.7900 -31.7823
   -31.7793 -31.7678 -31.7660 -31.7655 -31.7639 -31.7523 -31.7444 -31.7360
   -31.7314 -31.7120 -31.7025 -31.6992 -31.6920 -31.5445 -31.4649 -31.3459
   -31.2916 -31.2561 -31.0958 -31.0614 -31.0418 -30.9544 -30.8933 -30.8265
   -16.3054 -16.0430 -15.8411 -15.7953 -15.7344 -15.7125 -15.6295 -15.5810
   -15.5229 -15.4219 -15.3809 -15.3634 -15.3548 -15.3495 -15.2636 -15.2511
   -15.1790 -15.1656 -15.1504 -15.0919 -15.0784 -15.0543 -15.0147 -15.0070
   -14.9947 -14.9611 -14.9328 -14.8237 -14.7609 -14.4149 -14.0313 -13.2477
   -13.1693  -7.2449  -4.1711  -4.0977  -4.0391  -3.6206  -3.5524  -3.3239
    -3.2854  -3.2203  -3.1523  -3.1174  -3.0804  -3.0560  -2.9126  -2.8589
    -2.7939  -2.7558  -2.7454  -2.6687  -2.6512  -2.6338  -2.5949  -2.5617
    -2.5313  -2.4953  -2.4764  -2.4567  -2.4167  -2.3901  -2.3650  -2.3004
    -2.2504  -2.2221  -2.2051  -2.1055  -2.0387  -1.9737  -1.9091  -1.8036
    -1.7592  -1.7326  -1.6927  -1.5293  -1.4848  -1.4811  -1.3451  -1.2488
    -1.2296  -1.2039  -1.1781  -1.1403  -1.0840  -1.0344  -1.0171  -0.9784
    -0.9122  -0.8726  -0.8322  -0.8000  -0.7341  -0.6959  -0.6597  -0.6166
    -0.5727  -0.5403  -0.4889  -0.4652  -0.4372  -0.4023  -0.3762  -0.3456
    -0.3001  -0.2350  -0.2114  -0.1706  -0.1063  -0.0738  -0.0502  -0.0138
     0.0262   0.1161   0.1784   0.2054   0.3197   0.3600   0.4333   0.4597
     0.5392   0.5801   0.6260   0.6613   0.6781   0.8259   0.8917   1.0383
     1.1776   1.4786   1.5559   1.6352   1.7263   1.7881   3.5506   3.6162
     3.6680   3.7256   3.7961   3.8174   3.8702   3.9081   3.9410   3.9556

          k = 0.0380-0.0839 0.0000 ( 17916 PWs)   bands (ev):

   -55.7497 -55.7489 -55.7405 -55.7388 -55.6467 -55.6015 -55.5965 -55.5929
   -55.5588 -55.5569 -55.5228 -55.5215 -55.2874 -55.0382 -54.7263 -54.7262
   -32.1155 -32.1127 -32.0637 -32.0631 -32.0451 -32.0443 -32.0293 -32.0170
   -31.9589 -31.9572 -31.9527 -31.9512 -31.9170 -31.9067 -31.9019 -31.8884
   -31.8766 -31.8707 -31.8702 -31.8693 -31.8546 -31.8521 -31.8519 -31.8059
   -31.8045 -31.7999 -31.7901 -31.7869 -31.7868 -31.7773 -31.7545 -31.7534
   -31.7318 -31.7292 -31.7139 -31.7137 -31.6523 -31.5438 -31.4643 -31.3847
   -31.2918 -31.2656 -31.0516 -31.0514 -30.9632 -30.9630 -30.9240 -30.9239
   -15.9906 -15.9755 -15.7876 -15.7830 -15.6459 -15.6390 -15.5613 -15.5258
   -15.5087 -15.4956 -15.4634 -15.4556 -15.3397 -15.3347 -15.2254 -15.2082
   -15.1836 -15.1791 -15.1624 -15.1484 -15.1331 -15.1212 -15.0933 -15.0687
   -15.0607 -15.0277 -14.9579 -14.8173 -14.7692 -14.5150 -14.0310 -13.2316
   -13.2314  -7.2439  -4.1774  -4.0899  -4.0420  -3.4487  -3.2345  -3.1993
    -3.0077  -2.9901  -2.9498  -2.9363  -2.9012  -2.8685  -2.8467  -2.8320
    -2.7897  -2.7676  -2.7532  -2.7373  -2.7157  -2.6971  -2.6081  -2.6021
    -2.5936  -2.5693  -2.5334  -2.4837  -2.4706  -2.4504  -2.4215  -2.4000
    -2.3502  -2.3185  -2.2824  -2.2220  -1.8850  -1.8737  -1.8515  -1.7303
    -1.6713  -1.6520  -1.6084  -1.5893  -1.5453  -1.5167  -1.4707  -1.4446
    -1.4025  -1.3908  -1.3037  -1.2392  -1.2223  -1.1440  -1.0277  -0.9634
    -0.9002  -0.8784  -0.8172  -0.7982  -0.7519  -0.6684  -0.5806  -0.5631
    -0.5526  -0.5231  -0.5150  -0.4761  -0.4514  -0.3949  -0.3767  -0.3650
    -0.3321  -0.3143  -0.3070  -0.2394  -0.1845  -0.1478  -0.1310  -0.0099
     0.0390   0.0890   0.1496   0.2500   0.3149   0.3315   0.3598   0.3885
     0.4134   0.4712   0.5838   0.6118   0.7838   0.7927   0.9112   0.9672
     1.0328   1.5967   1.6243   1.6249   1.7299   1.7306   3.6466   3.6574
     3.7314   3.7501   3.7850   3.7983   3.8971   3.9693   3.9923   3.9991

          k = 0.0380-0.0419 0.0000 ( 17876 PWs)   bands (ev):

   -55.7613 -55.7523 -55.7373 -55.7270 -55.6497 -55.6069 -55.5984 -55.5824
   -55.5697 -55.5458 -55.5340 -55.5101 -55.2879 -55.0377 -54.7382 -54.7142
   -32.2536 -32.1957 -32.0658 -32.0573 -32.0545 -32.0494 -32.0469 -31.9941
   -31.9881 -31.9840 -31.9769 -31.9561 -31.9402 -31.9350 -31.9275 -31.9089
   -31.9021 -31.8682 -31.8369 -31.8301 -31.8250 -31.8099 -31.7898 -31.7824
   -31.7794 -31.7678 -31.7662 -31.7653 -31.7641 -31.7523 -31.7444 -31.7357
   -31.7316 -31.7120 -31.7026 -31.6992 -31.6920 -31.5445 -31.4649 -31.3459
   -31.2916 -31.2561 -31.0958 -31.0614 -31.0418 -30.9544 -30.8933 -30.8265
   -16.3052 -16.0429 -15.8405 -15.7952 -15.7345 -15.7119 -15.6309 -15.5808
   -15.5235 -15.4224 -15.3821 -15.3683 -15.3553 -15.3493 -15.2619 -15.2451
   -15.1832 -15.1604 -15.1493 -15.0917 -15.0801 -15.0534 -15.0150 -15.0081
   -14.9962 -14.9615 -14.9327 -14.8239 -14.7597 -14.4152 -14.0313 -13.2477
   -13.1693  -7.2448  -4.1776  -4.1000  -4.0299  -3.6212  -3.5537  -3.3204
    -3.2845  -3.2195  -3.1515  -3.1142  -3.0780  -3.0602  -2.9112  -2.8636
    -2.7965  -2.7565  -2.7456  -2.6709  -2.6494  -2.6339  -2.5967  -2.5616
    -2.5321  -2.4920  -2.4740  -2.4603  -2.4158  -2.3884  -2.3713  -2.3029
    -2.2530  -2.2195  -2.2059  -2.0998  -2.0344  -1.9718  -1.9096  -1.7949
    -1.7608  -1.7292  -1.6796  -1.5265  -1.5036  -1.4736  -1.3491  -1.2568
    -1.2282  -1.1999  -1.1751  -1.1546  -1.0829  -1.0391  -1.0129  -0.9706
    -0.9148  -0.8753  -0.8320  -0.8001  -0.7525  -0.6931  -0.6605  -0.6253
    -0.5755  -0.5485  -0.4950  -0.4776  -0.4176  -0.4049  -0.3820  -0.3428
    -0.2807  -0.2297  -0.1978  -0.1780  -0.0946  -0.0837  -0.0630  -0.0065
     0.0241   0.1196   0.1810   0.1973   0.3230   0.3618   0.4282   0.4736
     0.5435   0.5756   0.6257   0.6620   0.6785   0.8274   0.8927   1.0380
     1.1788   1.4786   1.5558   1.6364   1.7260   1.7887   3.5513   3.6154
     3.6689   3.7478   3.7659   3.8061   3.8633   3.9058   3.9378   3.9553

          k =-0.0760-0.0000 0.0000 ( 17886 PWs)   bands (ev):

   -55.7663 -55.7575 -55.7323 -55.7217 -55.6524 -55.6120 -55.5956 -55.5774
   -55.5745 -55.5409 -55.5391 -55.5052 -55.2884 -55.0372 -54.7432 -54.7092
   -32.3110 -32.2506 -32.1249 -32.1052 -32.0741 -32.0702 -32.0590 -32.0386
   -32.0090 -31.9832 -31.9588 -31.9408 -31.9373 -31.9126 -31.8970 -31.8961
   -31.8748 -31.8704 -31.8594 -31.8235 -31.8192 -31.7898 -31.7848 -31.7820
   -31.7694 -31.7679 -31.7635 -31.7540 -31.7497 -31.7406 -31.7267 -31.7170
   -31.7098 -31.7050 -31.6930 -31.6804 -31.6520 -31.5479 -31.4676 -31.3176
   -31.2920 -31.2438 -31.1494 -31.0688 -31.0365 -30.9669 -30.8805 -30.7693
   -16.3396 -16.0709 -15.8735 -15.8582 -15.7700 -15.7350 -15.6235 -15.5493
   -15.5409 -15.4805 -15.4664 -15.4465 -15.4367 -15.4268 -15.4133 -15.3066
   -15.1297 -15.1040 -15.1009 -15.0461 -15.0309 -15.0135 -14.9500 -14.9445
   -14.9267 -14.9216 -14.8558 -14.8045 -14.7442 -14.3373 -14.0317 -13.2397
   -13.1289  -7.2446  -4.1774  -4.0840  -4.0511  -3.7760  -3.5688  -3.3762
    -3.3548  -3.2808  -3.1674  -3.1496  -3.1177  -3.0269  -3.0135  -2.9982
    -2.9965  -2.9874  -2.7887  -2.6261  -2.5655  -2.5416  -2.4844  -2.4210
    -2.3972  -2.3356  -2.3161  -2.2663  -2.2407  -2.1719  -2.1428  -2.0882
    -2.0700  -2.0488  -2.0018  -1.9961  -1.9892  -1.9804  -1.9421  -1.8741
    -1.8527  -1.7600  -1.5710  -1.5444  -1.4880  -1.4073  -1.3816  -1.3696
    -1.3627  -1.3500  -1.3313  -1.2611  -1.2307  -1.2232  -1.1252  -1.0540
    -1.0312  -0.9746  -0.9503  -0.9312  -0.9205  -0.7972  -0.7226  -0.6117
    -0.5937  -0.5434  -0.4791  -0.4370  -0.3939  -0.3809  -0.2932  -0.2862
    -0.2450  -0.2006  -0.1673  -0.0924  -0.0519  -0.0315  -0.0208   0.0426
     0.0497   0.0894   0.1361   0.2292   0.2530   0.2948   0.3601   0.4717
     0.4901   0.5612   0.7111   0.7166   0.8379   0.9265   0.9619   1.0386
     1.2188   1.3117   1.4160   1.6089   1.7212   1.7569   3.4080   3.4107
     3.5438   3.6513   3.7050   3.7728   3.8218   3.8369   3.8972   3.9047

          k =-0.0760 0.0419 0.0000 ( 17914 PWs)   bands (ev):

   -55.7613 -55.7523 -55.7373 -55.7270 -55.6497 -55.6070 -55.5984 -55.5824
   -55.5696 -55.5458 -55.5342 -55.5102 -55.2879 -55.0377 -54.7382 -54.7142
   -32.2539 -32.1967 -32.0727 -32.0575 -32.0545 -32.0509 -32.0471 -31.9943
   -31.9881 -31.9875 -31.9784 -31.9412 -31.9391 -31.9350 -31.9278 -31.9000
   -31.8991 -31.8648 -31.8479 -31.8368 -31.8100 -31.7915 -31.7903 -31.7829
   -31.7809 -31.7716 -31.7683 -31.7653 -31.7635 -31.7531 -31.7511 -31.7443
   -31.7326 -31.7118 -31.7060 -31.7026 -31.6911 -31.5468 -31.4649 -31.3459
   -31.2925 -31.2561 -31.0956 -31.0642 -31.0411 -30.9544 -30.8933 -30.8265
   -16.2207 -15.9574 -15.7873 -15.7514 -15.7307 -15.6405 -15.6323 -15.5258
   -15.5178 -15.5025 -15.4197 -15.4126 -15.4089 -15.3915 -15.3594 -15.3144
   -15.1880 -15.1553 -15.1499 -15.1366 -15.0987 -15.0511 -15.0329 -15.0183
   -14.9848 -14.9469 -14.9241 -14.8179 -14.7583 -14.4139 -14.0315 -13.2456
   -13.1696  -7.2442  -4.1797  -4.0817  -4.0478  -3.6059  -3.5011  -3.2395
    -3.0975  -3.0689  -2.9687  -2.9250  -2.8852  -2.8791  -2.8449  -2.8122
    -2.7858  -2.7728  -2.7133  -2.7120  -2.6561  -2.6317  -2.5581  -2.5464
    -2.4868  -2.4774  -2.4556  -2.4237  -2.3657  -2.3421  -2.2605  -2.2450
    -2.2430  -2.1970  -2.1292  -2.0234  -1.9838  -1.8887  -1.8705  -1.8353
    -1.7539  -1.7448  -1.6903  -1.5522  -1.4545  -1.3916  -1.3753  -1.3279
    -1.3122  -1.2692  -1.2090  -1.1898  -1.1553  -1.1026  -1.0690  -1.0309
    -1.0149  -0.9891  -0.9719  -0.9551  -0.9239  -0.8630  -0.8240  -0.7738
    -0.7544  -0.7041  -0.6798  -0.5718  -0.5281  -0.5040  -0.4913  -0.4048
    -0.3826  -0.3640  -0.3010  -0.2423  -0.1696  -0.1510  -0.0813  -0.0522
     0.0648   0.1178   0.2094   0.2574   0.3211   0.4467   0.4892   0.5276
     0.5871   0.6184   0.6803   0.6888   0.7526   0.8032   0.8291   1.0175
     1.0319   1.4935   1.5591   1.6495   1.6593   1.7774   3.5373   3.5969
     3.6132   3.6946   3.7135   3.7326   3.8516   3.8696   3.9492   3.9925

          k =-0.0760-0.0839 0.0000 ( 17948 PWs)   bands (ev):

   -55.7497 -55.7489 -55.7405 -55.7388 -55.6467 -55.6015 -55.5965 -55.5930
   -55.5587 -55.5568 -55.5229 -55.5216 -55.2874 -55.0382 -54.7264 -54.7262
   -32.1158 -32.1130 -32.0644 -32.0638 -32.0451 -32.0443 -32.0294 -32.0172
   -31.9648 -31.9608 -31.9561 -31.9521 -31.9177 -31.8907 -31.8895 -31.8860
   -31.8765 -31.8705 -31.8690 -31.8682 -31.8618 -31.8593 -31.8499 -31.8157
   -31.8095 -31.8025 -31.7900 -31.7774 -31.7575 -31.7571 -31.7541 -31.7530
   -31.7374 -31.7367 -31.7319 -31.7291 -31.6520 -31.5458 -31.4643 -31.3846
   -31.2927 -31.2656 -31.0526 -31.0524 -30.9631 -30.9629 -30.9240 -30.9239
   -15.9464 -15.9150 -15.7096 -15.6825 -15.6790 -15.6630 -15.5390 -15.4757
   -15.4616 -15.4593 -15.3959 -15.3756 -15.3391 -15.3120 -15.2972 -15.2870
   -15.2818 -15.2757 -15.2258 -15.2200 -15.2022 -15.1950 -15.0930 -15.0823
   -15.0785 -15.0259 -14.9438 -14.8086 -14.7685 -14.5114 -14.0312 -13.2314
   -13.2312  -7.2438  -4.1830  -4.0823  -4.0444  -3.4407  -3.2361  -3.1988
    -2.9396  -2.9212  -2.9076  -2.8525  -2.6800  -2.6625  -2.6412  -2.6230
    -2.5892  -2.5882  -2.5690  -2.5681  -2.5561  -2.5215  -2.5102  -2.4805
    -2.4436  -2.4324  -2.4207  -2.4196  -2.3892  -2.3794  -2.3409  -2.3117
    -2.3023  -2.2838  -2.2695  -2.0986  -1.9916  -1.9664  -1.9026  -1.8948
    -1.8664  -1.8299  -1.8226  -1.8024  -1.7515  -1.6662  -1.4983  -1.4656
    -1.4476  -1.3917  -1.3685  -1.3180  -1.2383  -1.1640  -1.1413  -1.1361
    -1.0862  -0.9768  -0.9549  -0.9461  -0.8759  -0.8338  -0.8219  -0.7897
    -0.7589  -0.7258  -0.7215  -0.6302  -0.5812  -0.5372  -0.5322  -0.4837
    -0.4173  -0.4055  -0.3764  -0.2680  -0.2451  -0.2021  -0.1508  -0.0427
     0.0211   0.2183   0.2728   0.3087   0.3656   0.4406   0.5237   0.5382
     0.5430   0.5536   0.6083   0.6629   0.7674   0.7763   0.8308   0.9379
     1.0208   1.6375   1.6426   1.6431   1.7152   1.7153   3.6535   3.6647
     3.7036   3.7243   3.8645   3.8781   3.9017   3.9026   3.9612   4.0399

     the Fermi energy is     3.3681 ev

!    total energy              =   -2941.70766811 Ry
     estimated scf accuracy    <       0.00000007 Ry
     smearing contrib. (-TS)   =      -0.02184457 Ry
     internal energy E=F+TS    =   -2941.68582354 Ry

     The total energy is F=E-TS. E is the sum of the following terms:
     one-electron contribution =  -23922.65853840 Ry
     hartree contribution      =   12050.88952559 Ry
     xc contribution           =    -486.77492041 Ry
     ewald contribution        =    9416.85666443 Ry
     electric field correction =       0.00144525 Ry

     convergence has been achieved in  62 iterations

     Forces acting on atoms (cartesian axes, Ry/au):

     atom    1 type  1   force =     0.00003774   -0.00024843    0.09663993
     atom    2 type  1   force =     0.00004094   -0.00059144   -0.17536568
     atom    3 type  2   force =     0.00011439   -0.00004132   -0.02488996
     atom    4 type  2   force =    -0.00000188   -0.00142020    0.05291091
     atom    5 type  2   force =    -0.01225837   -0.00026755    0.00348264
     atom    6 type  2   force =     0.01361464    0.00026092    0.00255604
     atom    7 type  1   force =     0.00031227    0.00057853   -0.01136908
     atom    8 type  1   force =     0.00052626    0.00784080    0.02841971
     atom    9 type  2   force =     0.00020730    0.00041249    0.00050722
     atom   10 type  2   force =    -0.00292458    0.00139156   -0.01550793
     atom   11 type  2   force =     0.00063788   -0.00000343    0.00000447
     atom   12 type  2   force =    -0.00008416   -0.00012961   -0.00011521
     atom   13 type  1   force =    -0.00018225   -0.00032520    0.00077674
     atom   14 type  1   force =     0.00020696   -0.00007375   -0.00021163
     atom   15 type  2   force =     0.00014178    0.00076011    0.00068583
     atom   16 type  2   force =    -0.00033393   -0.00035924   -0.00028128
     atom   17 type  2   force =    -0.00047629    0.00007323   -0.00048675
     atom   18 type  2   force =     0.00014573    0.00055251   -0.00002795
     atom   19 type  1   force =    -0.00048823   -0.00078375   -0.00008508
     atom   20 type  1   force =     0.00055978    0.00158271    0.00036074
     atom   21 type  2   force =     0.00005568   -0.00006453    0.10319114
     atom   22 type  2   force =    -0.00078605   -0.00009677    0.00037366
     atom   23 type  2   force =    -0.07151361   -0.00013796   -0.02772110
     atom   24 type  2   force =     0.07143837    0.00032020   -0.02779505
     atom   25 type  1   force =     0.00016536   -0.00024529    0.09628029
     atom   26 type  1   force =     0.00008634   -0.00022236   -0.17560088
     atom   27 type  2   force =     0.00016952   -0.00019222   -0.02394540
     atom   28 type  2   force =    -0.00000195   -0.00117382    0.05282440
     atom   29 type  2   force =    -0.01239287    0.00039233    0.00317612
     atom   30 type  2   force =     0.01364581    0.00085518    0.00221991
     atom   31 type  1   force =     0.00027920    0.00324523   -0.01197901
     atom   32 type  1   force =     0.00065807   -0.01008656    0.02882494
     atom   33 type  2   force =     0.00024578   -0.00024529    0.00064004
     atom   34 type  2   force =    -0.00238350    0.00102461   -0.02363430
     atom   35 type  2   force =     0.00055947   -0.00070570   -0.00006265
     atom   36 type  2   force =    -0.00016256   -0.00079773    0.00019839
     atom   37 type  1   force =    -0.00015894   -0.00013099    0.00025407
     atom   38 type  1   force =     0.00032258    0.00035533   -0.00067033
     atom   39 type  2   force =    -0.00006071   -0.00068262    0.00193838
     atom   40 type  2   force =     0.00026728   -0.00062716   -0.00010909
     atom   41 type  2   force =    -0.00010356   -0.00067131   -0.00007464
     atom   42 type  2   force =    -0.00055909   -0.00034606   -0.00001131
     atom   43 type  1   force =    -0.00046814    0.00069019    0.00019978
     atom   44 type  1   force =    -0.00015355   -0.00042851    0.00068390
     atom   45 type  2   force =     0.00007547   -0.00006625    0.10321633
     atom   46 type  2   force =    -0.07154344   -0.00008956   -0.02774560
     atom   47 type  2   force =     0.07145023    0.00033312   -0.02780866
     atom   48 type  3   force =    -0.00431092    0.00091355   -0.03072088
     atom   49 type  4   force =     0.00411719   -0.00250253    0.02419810
     atom   50 type  5   force =    -0.00012461    0.00093902    0.00253728
     atom   51 type  5   force =    -0.00000242    0.00012010    0.00073145
     atom   52 type  3   force =    -0.00160224    0.00032444   -0.00069679
     atom   53 type  5   force =     0.00139599    0.00073850   -0.00010785
     atom   54 type  5   force =     0.00142139   -0.00041269    0.00107428
     atom   55 type  5   force =     0.00017845    0.00046514   -0.00188260

     Total force =     0.370184     Total SCF correction =     0.000543
  @ DRIVER MODE: Message from server: STATUS
  @ DRIVER MODE: Message from server: GETFORCE
  @ DRIVER MODE: Returning v,forces,stress,ensemble 

     Writing output data file ./calc.save/
  @ DRIVER MODE: Message from server: EXIT
  @ DRIVE MODE: Exiting  
 
     init_run     :     17.17s CPU     18.42s WALL (       1 calls)
     electrons    :   1363.93s CPU   1400.12s WALL (       1 calls)
     forces       :      7.11s CPU      7.14s WALL (       1 calls)

     Called by init_run:
     wfcinit      :     12.87s CPU     13.50s WALL (       1 calls)
     potinit      :      3.06s CPU      3.25s WALL (       1 calls)
     hinit0       :      0.49s CPU      0.85s WALL (       1 calls)

     Called by electrons:
     c_bands      :   1084.23s CPU   1114.57s WALL (      62 calls)
     sum_band     :    193.42s CPU    196.07s WALL (      62 calls)
     v_of_rho     :     47.88s CPU     48.68s WALL (      63 calls)
     newd         :      5.02s CPU      5.16s WALL (      63 calls)
     mix_rho      :     31.66s CPU     33.65s WALL (      62 calls)
     vdW_kernel   :      2.30s CPU      2.32s WALL (       1 calls)

     Called by c_bands:
     init_us_2    :      0.94s CPU      1.02s WALL (    1260 calls)
     cegterg      :   1078.67s CPU   1108.48s WALL (     635 calls)

     Called by *egterg:
     cdiaghg      :    372.81s CPU    384.00s WALL (    7076 calls)
     h_psi        :    516.13s CPU    529.12s WALL (    7086 calls)
     s_psi        :     11.43s CPU     11.52s WALL (    7086 calls)
     g_psi        :      0.24s CPU      0.24s WALL (    6441 calls)

     Called by h_psi:
     h_psi:calbec :     20.10s CPU     20.55s WALL (    7086 calls)
     vloc_psi     :    483.06s CPU    495.41s WALL (    7086 calls)
     add_vuspsi   :     12.50s CPU     12.65s WALL (    7086 calls)

     General routines
     calbec       :     34.04s CPU     34.58s WALL (    7746 calls)
     fft          :     42.87s CPU     43.64s WALL (    3969 calls)
     ffts         :      0.91s CPU      0.95s WALL (     125 calls)
     fftw         :    659.50s CPU    673.92s WALL (  851358 calls)
     interpolate  :      1.60s CPU      1.67s WALL (      63 calls)
     davcio       :      0.00s CPU      0.04s WALL (      10 calls)
 
     Parallel routines
 
     PWSCF        :  23m19.85s CPU  23m57.92s WALL

 
   This run was terminated on:  12:11:45  24Aug2021            

=------------------------------------------------------------------------------=
   JOB DONE.
=------------------------------------------------------------------------------=
