
     Program PWSCF v.6.7GPU starts on 16Sep2021 at  2:59:36 

     This program is part of the open-source Quantum ESPRESSO suite
     for quantum simulation of materials; please cite
         "P. Giannozzi et al., J. Phys.:Condens. Matter 21 395502 (2009);
         "P. Giannozzi et al., J. Phys.:Condens. Matter 29 465901 (2017);
         "P. Giannozzi et al., J. Chem. Phys. 152 154105 (2020);
          URL http://www.quantum-espresso.org", 
     in publications or presentations arising from this work. More details at
     http://www.quantum-espresso.org/quote

     Parallel version (MPI), running on    10 processors

     MPI processes distributed on     1 nodes
     R & G space division:  proc/nbgrp/npool/nimage =      10
     Reading input from /storage/home/hcoda1/3/ntian30/research/carbon/CxH_vib/H2O_calc/ads_slab/CH3NNH3H2O_a/out_0032/pw.inp
Warning: card &CELL ignored
Warning: card   CELL_DYNAMICS='IPI', ignored
Warning: card / ignored

     Current dimensions of program PWSCF are:
     Max number of different atomic species (ntypx) = 10
     Max number of k-points (npk) =  40000
     Max angular momentum in pseudopotentials (lmaxx) =  3
     Presently no symmetry can be used with electric field

     Message from routine cell_base_init:
     DEPRECATED: use true lattice parameter, not A to a.u. conversion factor

     **************************************************************************
     Initializing libbeef V0.1.2 with the BEEF-vdW functional.
     Citation: Wellendorff et al., PRB 85, 235149 (2012).
     **************************************************************************


     IMPORTANT: XC functional enforced from input :
     Exchange-correlation= BEEF-VDW
                           (   1   4  43  14   2   0   0)
     Any further DFT definition will be discarded
     Please, verify this is what you really want


     Subspace diagonalization in iterative solution of the eigenvalue problem:
     one sub-group per band group will be used
     scalapack distributed-memory algorithm (size of sub-group:  3*  3 procs)

  @ DRIVER MODE: Connecting to 
 qe_1139763_2852621.sched-torque.pace.gatech.eduq3bobift_scratch
  using UNIX socket
  @ DRIVER MODE: Message from server: STATUS
  @ DRIVER MODE: Message from server: INIT
  @ DRIVER MODE: Receiving replica           0          -1
  @ DRIVER MODE: Receiving encoded integer          25
  @ DRIVER MODE:  SCF:  T  FORCE:  T  STRESS:  F  VC:  F  ENSEMBLE:  F
  @ DRIVER MODE:  SCF:  T  FORCE:  T  STRESS:  F  VC:  F  ENSEMBLE:  F
 
     Parallelization info
     --------------------
     sticks:   dense  smooth     PW     G-vecs:    dense   smooth      PW
     Min         327     131     37                56683    14340    2191
     Max         328     133     38                56694    14346    2206
     Sum        3275    1317    379               566857   143421   21985
 
     Using Slab Decomposition
 


     bravais-lattice index     =            0
     lattice parameter (alat)  =       1.8897  a.u.
     unit-cell volume          =    6658.9804 (a.u.)^3
     number of atoms/cell      =           59
     number of atomic types    =            5
     number of electrons       =       406.00
     number of Kohn-Sham states=          213
     kinetic-energy cutoff     =      29.3995  Ry
     charge density cutoff     =     293.9946  Ry
     scf convergence threshold =      7.3E-08
     mixing beta               =       0.0500
     number of iterations used =            8  plain     mixing
     Exchange-correlation= BEEF-VDW
                           (   1   4  43  14   2   0   0)

     celldm(1)=   1.889726  celldm(2)=   0.000000  celldm(3)=   0.000000
     celldm(4)=   0.000000  celldm(5)=   0.000000  celldm(6)=   0.000000

     crystal axes: (cart. coord. in units of alat)
               a(1) = (   6.579727   0.000000   0.000000 )  
               a(2) = (  -0.000775   5.961596   0.000000 )  
               a(3) = (   0.000000   0.000000  25.155947 )  

     reciprocal axes: (cart. coord. in units 2 pi/alat)
               b(1) = (  0.151982  0.000020  0.000000 )  
               b(2) = (  0.000000  0.167740  0.000000 )  
               b(3) = (  0.000000  0.000000  0.039752 )  


     PseudoPot. # 1 for Ti read from file:
     /storage/coda1/p-amedford6/0/shared/rich_project_chbe-medford/medford-share/data/pseudos_module/espresso/nninc/pbe/van/Ti.UPF
     MD5 check sum: 8e4df49b7f0d34bbd5052bf3f5ea0213
     Pseudo is Ultrasoft, Zval = 12.0
     Generated by new atomic code, or converted to UPF format
     Using radial grid of  851 points,  6 beta functions with: 
                l(1) =   0
                l(2) =   0
                l(3) =   1
                l(4) =   1
                l(5) =   2
                l(6) =   2
     Q(r) pseudized with  8 coefficients,  rinner =    1.000   1.000   1.000
                                                       1.000   1.000

     PseudoPot. # 2 for O  read from file:
     /storage/coda1/p-amedford6/0/shared/rich_project_chbe-medford/medford-share/data/pseudos_module/espresso/nninc/pbe/van/O.UPF
     MD5 check sum: 78c19812648e8988a0fe644b0f25305e
     Pseudo is Ultrasoft, Zval =  6.0
     Generated by new atomic code, or converted to UPF format
     Using radial grid of  737 points,  4 beta functions with: 
                l(1) =   0
                l(2) =   0
                l(3) =   1
                l(4) =   1
     Q(r) pseudized with  8 coefficients,  rinner =    0.800   0.800   0.800


     PseudoPot. # 3 for N  read from file:
     /storage/coda1/p-amedford6/0/shared/rich_project_chbe-medford/medford-share/data/pseudos_module/espresso/nninc/pbe/van/N.UPF
     MD5 check sum: 90d10febe142ad51ac9d5be1deb811c4
     Pseudo is Ultrasoft, Zval =  5.0
     Generated by new atomic code, or converted to UPF format
     Using radial grid of  729 points,  4 beta functions with: 
                l(1) =   0
                l(2) =   0
                l(3) =   1
                l(4) =   1
     Q(r) pseudized with  8 coefficients,  rinner =    0.800   0.800   0.800


     PseudoPot. # 4 for C  read from file:
     /storage/coda1/p-amedford6/0/shared/rich_project_chbe-medford/medford-share/data/pseudos_module/espresso/nninc/pbe/van/C.UPF
     MD5 check sum: 1a69bf6b8db32088f5b2163dbdb77a27
     Pseudo is Ultrasoft, Zval =  4.0
     Generated by new atomic code, or converted to UPF format
     Using radial grid of  721 points,  4 beta functions with: 
                l(1) =   0
                l(2) =   0
                l(3) =   1
                l(4) =   1
     Q(r) pseudized with  8 coefficients,  rinner =    0.800   0.800   0.800


     PseudoPot. # 5 for H  read from file:
     /storage/coda1/p-amedford6/0/shared/rich_project_chbe-medford/medford-share/data/pseudos_module/espresso/nninc/pbe/van/H.UPF
     MD5 check sum: b5ee9d7bfd3a09ee7748110bda690ff7
     Pseudo is Ultrasoft, Zval =  1.0
     Generated by new atomic code, or converted to UPF format
     Using radial grid of  615 points,  1 beta functions with: 
                l(1) =   0
     Q(r) pseudized with  8 coefficients,  rinner =    0.800

     atomic species   valence    mass     pseudopotential
        Ti1           12.00    47.86700     Ti( 1.00)
        O1             6.00    15.99900     O ( 1.00)
        N1             5.00    14.00700     N ( 1.00)
        C1             4.00    12.01100     C ( 1.00)
        H1             1.00     1.00800     H ( 1.00)

     No symmetry found



   Cartesian axes

     site n.     atom                  positions (alat units)
         1           Ti1 tau(   1) = (   0.0004258   2.9801865   6.0000000  )
         2           Ti1 tau(   2) = (   3.2906075   1.4906267   6.0002472  )
         3           O1  tau(   3) = (   0.0006271   0.0005054   7.9858123  )
         4           O1  tau(   4) = (   3.2906025   0.0005020   7.3038282  )
         5           O1  tau(   5) = (   4.5942328   1.4918067   9.2879030  )
         6           O1  tau(   6) = (   1.9868534   1.4903216   9.2879459  )
         7           Ti1 tau(   7) = (   3.2907910   2.8959150   9.1758416  )
         8           Ti1 tau(   8) = (   0.0015273   1.4827037   9.2680791  )
         9           O1  tau(   9) = (   3.2954490   0.0159868  11.2922163  )
        10           O1  tau(  10) = (   0.0116148   5.9584955  10.6183126  )
        11           O1  tau(  11) = (   1.3242731   1.5050266  12.6143764  )
        12           O1  tau(  12) = (   5.3073597   1.5103589  12.6267567  )
        13           Ti1 tau(  13) = (   6.4831477   3.0011104  12.7364612  )
        14           Ti1 tau(  14) = (   3.1751638   1.4975352  12.4748964  )
        15           O1  tau(  15) = (   0.0212859   5.9607631  14.5987152  )
        16           O1  tau(  16) = (   3.3058086   0.0238703  13.8910224  )
        17           O1  tau(  17) = (   4.5539421   1.5574750  15.9960573  )
        18           O1  tau(  18) = (   2.0731809   1.5597727  15.9888445  )
        19           Ti1 tau(  19) = (   3.3176354   3.0289328  15.6523405  )
        20           Ti1 tau(  20) = (   0.0198791   1.6227889  16.0606591  )
        21           O1  tau(  21) = (   3.2904802   0.0005063   4.7018136  )
        22           O1  tau(  22) = (   0.0290054   0.0533443  17.2129705  )
        23           O1  tau(  23) = (   1.3043587   1.4918075   6.0039043  )
        24           O1  tau(  24) = (   5.2767064   1.4903225   6.0039473  )
        25           Ti1 tau(  25) = (   0.0000382   5.9609847   6.0000000  )
        26           Ti1 tau(  26) = (   3.2902200   4.4714249   6.0002472  )
        27           O1  tau(  27) = (   0.0002396   2.9813036   7.9858123  )
        28           O1  tau(  28) = (   3.2902150   2.9813002   7.3038282  )
        29           O1  tau(  29) = (   4.5938453   4.4726049   9.2879030  )
        30           O1  tau(  30) = (   1.9864658   4.4711199   9.2879459  )
        31           Ti1 tau(  31) = (   3.2891106   5.8743827   9.1763621  )
        32           Ti1 tau(  32) = (   0.0006254   4.4649316   9.2693709  )
        33           O1  tau(  33) = (   3.2918316   2.9938763  11.2915017  )
        34           O1  tau(  34) = (   0.0092240   2.9805883  10.6323155  )
        35           O1  tau(  35) = (   1.3226278   4.4784642  12.6110361  )
        36           O1  tau(  36) = (   5.3078083   4.4770455  12.6250823  )
        37           Ti1 tau(  37) = (   6.5141033   0.0190828  12.7620745  )
        38           Ti1 tau(  38) = (   3.1722404   4.4939287  12.4712879  )
        39           O1  tau(  39) = (   0.0035410   2.9850241  14.6487316  )
        40           O1  tau(  40) = (   3.3118331   3.0109266  13.8519036  )
        41           O1  tau(  41) = (   4.5522870   4.5059159  16.0259181  )
        42           O1  tau(  42) = (   2.0778134   4.5048723  16.0185459  )
        43           Ti1 tau(  43) = (   3.3116469   0.0596163  15.7453941  )
        44           Ti1 tau(  44) = (   0.0183239   4.5967015  16.1059876  )
        45           O1  tau(  45) = (   3.2900926   2.9813045   4.7018136  )
        46           O1  tau(  46) = (   1.3039711   4.4726057   6.0039043  )
        47           O1  tau(  47) = (   5.2763189   4.4711207   6.0039473  )
        48           N1  tau(  48) = (   0.0600715   3.0265251  17.3188267  )
        49           N1  tau(  49) = (   6.2826239   2.5295367  22.6224490  )
        50           C1  tau(  50) = (   0.2859397   3.0149959  18.7399364  )
        51           H1  tau(  51) = (   0.1411154   4.0060466  19.1894648  )
        52           H1  tau(  52) = (   6.1913215   2.3105648  19.2421896  )
        53           H1  tau(  53) = (   1.3225146   2.6868920  18.9691123  )
        54           H1  tau(  54) = (   6.1000088   3.2491606  23.3142794  )
        55           H1  tau(  55) = (   0.1456284   1.7586669  23.1118534  )
        56           H1  tau(  56) = (   0.3974265   2.9048463  21.9856970  )
        57           O1  tau(  57) = (   3.2908421   0.1144680  18.1630233  )
        58           H1  tau(  58) = (   4.0679411   5.5688996  18.4486002  )
        59           H1  tau(  59) = (   2.5060966   5.5711546  18.4327789  )

     number of k points=    10  Fermi-Dirac smearing, width (Ry)=  0.0073
                       cart. coord. in units 2pi/alat
        k(    1) = (   0.0000000   0.0000000   0.0000000), wk =   0.1250000
        k(    2) = (   0.0000000   0.0419351   0.0000000), wk =   0.2500000
        k(    3) = (   0.0000000  -0.0838702   0.0000000), wk =   0.1250000
        k(    4) = (   0.0379955   0.0000049   0.0000000), wk =   0.2500000
        k(    5) = (   0.0379955   0.0419400   0.0000000), wk =   0.2500000
        k(    6) = (   0.0379955  -0.0838652   0.0000000), wk =   0.2500000
        k(    7) = (   0.0379955  -0.0419301   0.0000000), wk =   0.2500000
        k(    8) = (  -0.0759910  -0.0000099   0.0000000), wk =   0.1250000
        k(    9) = (  -0.0759910   0.0419252   0.0000000), wk =   0.2500000
        k(   10) = (  -0.0759910  -0.0838800   0.0000000), wk =   0.1250000

     Dense  grid:   566857 G-vectors     FFT dimensions: (  72,  64, 270)

     Smooth grid:   143421 G-vectors     FFT dimensions: (  45,  40, 180)

     Estimated max dynamical RAM per process >     368.16 MB

     Estimated total dynamical RAM >       3.60 GB
     Cannot read rho : file not found

     Initial potential from superposition of free atoms

     starting charge  389.99912, renormalised to  406.00000

     negative rho (up, down):  6.916E-03 0.000E+00


     %%%%%%%%%%%%%%%%%%%%%%%%%%%%%%%%%%%%%%%%%%%%%%%%%%%%%%%%%%%%%%%%%%%%%%%%
     %                                                                      %
     % You are using vdW-DF, which was implemented by the Thonhauser group. %
     % Please cite the following two papers that made this development      %
     % possible and the two reviews that describe the various versions:     %
     %                                                                      %
     %   T. Thonhauser et al., PRL 115, 136402 (2015).                      %
     %   T. Thonhauser et al., PRB 76, 125112 (2007).                       %
     %   K. Berland et al., Rep. Prog. Phys. 78, 066501 (2015).             %
     %   D.C. Langreth et al., J. Phys.: Condens. Matter 21, 084203 (2009). %
     %                                                                      %
     %                                                                      %
     % If you are calculating the stress with vdW-DF, please also cite:     %
     %                                                                      %
     %   R. Sabatini et al., J. Phys.: Condens. Matter 24, 424209 (2012).   %
     %                                                                      %
     %%%%%%%%%%%%%%%%%%%%%%%%%%%%%%%%%%%%%%%%%%%%%%%%%%%%%%%%%%%%%%%%%%%%%%%%


 
     Adding external electric field

     Computed dipole along edir(3) : 
        Dipole              -16.2336 Ry au,        -41.2616 Debye
        Dipole field         -0.0306 Ry au, 
 
        Potential amp.        2.8398 Ry
        Total length         46.3494 bohr
 
     Starting wfcs are  308 atomic wfcs
  @ DRIVER MODE: Message from server: STATUS
  @ DRIVER MODE: Message from server: POSDATA
  @ DRIVER MODE: Reading and sharing cell 
  @ DRIVER MODE: Reading and sharing positions 
  @ DRIVER MODE: Received positions 

     total cpu time spent up to now is       11.4 secs

     Self-consistent Calculation

     iteration #  1     ecut=    29.40 Ry     beta= 0.05
     Davidson diagonalization with overlap
     c_bands:  2 eigenvalues not converged
     c_bands:  3 eigenvalues not converged
     c_bands:  5 eigenvalues not converged
     c_bands:  3 eigenvalues not converged
     c_bands:  3 eigenvalues not converged
     c_bands:  3 eigenvalues not converged
     c_bands:  1 eigenvalues not converged
     c_bands:  5 eigenvalues not converged
     c_bands:  3 eigenvalues not converged
     ethr =  1.00E-05,  avg # of iterations = 20.6

     negative rho (up, down):  5.168E-03 0.000E+00
 
     Adding external electric field

     Computed dipole along edir(3) : 
        Dipole               58.5873 Ry au,        148.9141 Debye
        Dipole field          0.1106 Ry au, 
 
        Potential amp.      -10.2490 Ry
        Total length         46.3494 bohr
 

     total cpu time spent up to now is       57.6 secs

     total energy              =   -2253.48645041 Ry
     estimated scf accuracy    <    8262.99357083 Ry

     iteration #  2     ecut=    29.40 Ry     beta= 0.05
     Davidson diagonalization with overlap
     ethr =  1.00E-02,  avg # of iterations = 26.9

     negative rho (up, down):  1.485E-04 0.000E+00
 
     Adding external electric field

     Computed dipole along edir(3) : 
        Dipole               -2.9309 Ry au,         -7.4496 Debye
        Dipole field         -0.0055 Ry au, 
 
        Potential amp.        0.5127 Ry
        Total length         46.3494 bohr
 

     total cpu time spent up to now is      149.1 secs

     total energy              =   -2397.15421009 Ry
     estimated scf accuracy    <   84192.06035426 Ry

     iteration #  3     ecut=    29.40 Ry     beta= 0.05
     Davidson diagonalization with overlap
     c_bands:  1 eigenvalues not converged
     ethr =  1.00E-02,  avg # of iterations = 16.4

     negative rho (up, down):  1.863E-04 0.000E+00
 
     Adding external electric field

     Computed dipole along edir(3) : 
        Dipole               -5.6525 Ry au,        -14.3673 Debye
        Dipole field         -0.0107 Ry au, 
 
        Potential amp.        0.9888 Ry
        Total length         46.3494 bohr
 

     total cpu time spent up to now is      199.3 secs

     total energy              =   -2959.91254075 Ry
     estimated scf accuracy    <    8543.13796583 Ry

     iteration #  4     ecut=    29.40 Ry     beta= 0.05
     Davidson diagonalization with overlap
     ethr =  1.00E-02,  avg # of iterations = 13.7

     negative rho (up, down):  1.921E-04 0.000E+00
 
     Adding external electric field

     Computed dipole along edir(3) : 
        Dipole               -6.5509 Ry au,        -16.6507 Debye
        Dipole field         -0.0124 Ry au, 
 
        Potential amp.        1.1460 Ry
        Total length         46.3494 bohr
 

     total cpu time spent up to now is      225.4 secs

     total energy              =   -2979.58892971 Ry
     estimated scf accuracy    <    1912.05869619 Ry

     iteration #  5     ecut=    29.40 Ry     beta= 0.05
     Davidson diagonalization with overlap
     ethr =  1.00E-02,  avg # of iterations =  2.3

     negative rho (up, down):  2.147E-04 0.000E+00
 
     Adding external electric field

     Computed dipole along edir(3) : 
        Dipole               -7.9458 Ry au,        -20.1962 Debye
        Dipole field         -0.0150 Ry au, 
 
        Potential amp.        1.3900 Ry
        Total length         46.3494 bohr
 

     total cpu time spent up to now is      236.1 secs

     total energy              =   -2952.56000837 Ry
     estimated scf accuracy    <    1868.74710781 Ry

     iteration #  6     ecut=    29.40 Ry     beta= 0.05
     Davidson diagonalization with overlap
     ethr =  1.00E-02,  avg # of iterations = 11.4

     negative rho (up, down):  2.042E-04 0.000E+00
 
     Adding external electric field

     Computed dipole along edir(3) : 
        Dipole               -5.9855 Ry au,        -15.2137 Debye
        Dipole field         -0.0113 Ry au, 
 
        Potential amp.        1.0471 Ry
        Total length         46.3494 bohr
 

     total cpu time spent up to now is      260.2 secs

     total energy              =   -2982.53956712 Ry
     estimated scf accuracy    <      85.50875598 Ry

     iteration #  7     ecut=    29.40 Ry     beta= 0.05
     Davidson diagonalization with overlap
     ethr =  1.00E-02,  avg # of iterations =  1.4

     negative rho (up, down):  1.971E-04 0.000E+00
 
     Adding external electric field

     Computed dipole along edir(3) : 
        Dipole               -4.5308 Ry au,        -11.5161 Debye
        Dipole field         -0.0086 Ry au, 
 
        Potential amp.        0.7926 Ry
        Total length         46.3494 bohr
 

     total cpu time spent up to now is      270.6 secs

     total energy              =   -2982.21308004 Ry
     estimated scf accuracy    <      74.62899812 Ry

     iteration #  8     ecut=    29.40 Ry     beta= 0.05
     Davidson diagonalization with overlap
     ethr =  1.00E-02,  avg # of iterations =  1.6

     negative rho (up, down):  1.800E-04 0.000E+00
 
     Adding external electric field

     Computed dipole along edir(3) : 
        Dipole                1.0344 Ry au,          2.6292 Debye
        Dipole field          0.0020 Ry au, 
 
        Potential amp.       -0.1810 Ry
        Total length         46.3494 bohr
 

     total cpu time spent up to now is      281.0 secs

     total energy              =   -2981.80070937 Ry
     estimated scf accuracy    <      70.88324422 Ry

     iteration #  9     ecut=    29.40 Ry     beta= 0.05
     Davidson diagonalization with overlap
     ethr =  1.00E-02,  avg # of iterations = 18.1

     negative rho (up, down):  1.949E-04 0.000E+00
 
     Adding external electric field

     Computed dipole along edir(3) : 
        Dipole                0.8053 Ry au,          2.0468 Debye
        Dipole field          0.0015 Ry au, 
 
        Potential amp.       -0.1409 Ry
        Total length         46.3494 bohr
 

     total cpu time spent up to now is      303.3 secs

     total energy              =   -3001.62752713 Ry
     estimated scf accuracy    <    3585.40269735 Ry

     iteration # 10     ecut=    29.40 Ry     beta= 0.05
     Davidson diagonalization with overlap
     ethr =  1.00E-02,  avg # of iterations =  1.7

     negative rho (up, down):  2.081E-04 0.000E+00
 
     Adding external electric field

     Computed dipole along edir(3) : 
        Dipole                7.5953 Ry au,         19.3054 Debye
        Dipole field          0.0143 Ry au, 
 
        Potential amp.       -1.3287 Ry
        Total length         46.3494 bohr
 

     total cpu time spent up to now is      313.9 secs

     total energy              =   -3041.51771867 Ry
     estimated scf accuracy    <    2691.76218997 Ry

     iteration # 11     ecut=    29.40 Ry     beta= 0.05
     Davidson diagonalization with overlap
     ethr =  1.00E-02,  avg # of iterations =  5.6

     negative rho (up, down):  2.869E-04 0.000E+00
 
     Adding external electric field

     Computed dipole along edir(3) : 
        Dipole                9.1624 Ry au,         23.2886 Debye
        Dipole field          0.0173 Ry au, 
 
        Potential amp.       -1.6028 Ry
        Total length         46.3494 bohr
 

     total cpu time spent up to now is      326.3 secs

     total energy              =   -3002.18031612 Ry
     estimated scf accuracy    <    5041.86080112 Ry

     iteration # 12     ecut=    29.40 Ry     beta= 0.05
     Davidson diagonalization with overlap
     c_bands:  4 eigenvalues not converged
     ethr =  1.00E-02,  avg # of iterations =  7.0

     negative rho (up, down):  2.994E-04 0.000E+00
 
     Adding external electric field

     Computed dipole along edir(3) : 
        Dipole                7.4885 Ry au,         19.0340 Debye
        Dipole field          0.0141 Ry au, 
 
        Potential amp.       -1.3100 Ry
        Total length         46.3494 bohr
 

     total cpu time spent up to now is      339.6 secs

     total energy              =   -3003.37058036 Ry
     estimated scf accuracy    <    3980.74709864 Ry

     iteration # 13     ecut=    29.40 Ry     beta= 0.05
     Davidson diagonalization with overlap
     ethr =  1.00E-02,  avg # of iterations =  2.5

     negative rho (up, down):  3.327E-04 0.000E+00
 
     Adding external electric field

     Computed dipole along edir(3) : 
        Dipole                2.7041 Ry au,          6.8732 Debye
        Dipole field          0.0051 Ry au, 
 
        Potential amp.       -0.4730 Ry
        Total length         46.3494 bohr
 

     total cpu time spent up to now is      350.6 secs

     total energy              =   -2963.19130630 Ry
     estimated scf accuracy    <    3413.46684651 Ry

     iteration # 14     ecut=    29.40 Ry     beta= 0.05
     Davidson diagonalization with overlap
     ethr =  1.00E-02,  avg # of iterations = 13.3

     negative rho (up, down):  3.285E-04 0.000E+00
 
     Adding external electric field

     Computed dipole along edir(3) : 
        Dipole               -1.7045 Ry au,         -4.3324 Debye
        Dipole field         -0.0032 Ry au, 
 
        Potential amp.        0.2982 Ry
        Total length         46.3494 bohr
 

     total cpu time spent up to now is      370.5 secs

     total energy              =   -2966.16697890 Ry
     estimated scf accuracy    <     590.07514515 Ry

     iteration # 15     ecut=    29.40 Ry     beta= 0.05
     Davidson diagonalization with overlap
     ethr =  1.00E-02,  avg # of iterations = 10.4

     negative rho (up, down):  3.380E-04 0.000E+00
 
     Adding external electric field

     Computed dipole along edir(3) : 
        Dipole               -0.0235 Ry au,         -0.0598 Debye
        Dipole field         -0.0000 Ry au, 
 
        Potential amp.        0.0041 Ry
        Total length         46.3494 bohr
 

     total cpu time spent up to now is      389.1 secs

     total energy              =   -2978.61760483 Ry
     estimated scf accuracy    <      72.63565577 Ry

     iteration # 16     ecut=    29.40 Ry     beta= 0.05
     Davidson diagonalization with overlap
     ethr =  1.00E-02,  avg # of iterations =  1.3

     negative rho (up, down):  3.547E-04 0.000E+00
 
     Adding external electric field

     Computed dipole along edir(3) : 
        Dipole                1.3428 Ry au,          3.4130 Debye
        Dipole field          0.0025 Ry au, 
 
        Potential amp.       -0.2349 Ry
        Total length         46.3494 bohr
 

     total cpu time spent up to now is      399.5 secs

     total energy              =   -2979.32925494 Ry
     estimated scf accuracy    <       9.82431630 Ry

     iteration # 17     ecut=    29.40 Ry     beta= 0.05
     Davidson diagonalization with overlap
     ethr =  2.42E-03,  avg # of iterations =  4.0

     negative rho (up, down):  3.547E-04 0.000E+00
 
     Adding external electric field

     Computed dipole along edir(3) : 
        Dipole                0.1687 Ry au,          0.4289 Debye
        Dipole field          0.0003 Ry au, 
 
        Potential amp.       -0.0295 Ry
        Total length         46.3494 bohr
 

     total cpu time spent up to now is      410.9 secs

     total energy              =   -2978.94451749 Ry
     estimated scf accuracy    <      17.10434039 Ry

     iteration # 18     ecut=    29.40 Ry     beta= 0.05
     Davidson diagonalization with overlap
     ethr =  2.42E-03,  avg # of iterations =  1.2

     negative rho (up, down):  4.543E-04 0.000E+00
 
     Adding external electric field

     Computed dipole along edir(3) : 
        Dipole               -0.7726 Ry au,         -1.9637 Debye
        Dipole field         -0.0015 Ry au, 
 
        Potential amp.        0.1352 Ry
        Total length         46.3494 bohr
 

     total cpu time spent up to now is      421.2 secs

     total energy              =   -2978.00161289 Ry
     estimated scf accuracy    <       9.82803079 Ry

     iteration # 19     ecut=    29.40 Ry     beta= 0.05
     Davidson diagonalization with overlap
     ethr =  2.42E-03,  avg # of iterations =  4.2

     negative rho (up, down):  4.736E-04 0.000E+00
 
     Adding external electric field

     Computed dipole along edir(3) : 
        Dipole               -0.1799 Ry au,         -0.4573 Debye
        Dipole field         -0.0003 Ry au, 
 
        Potential amp.        0.0315 Ry
        Total length         46.3494 bohr
 

     total cpu time spent up to now is      433.2 secs

     total energy              =   -2979.59306624 Ry
     estimated scf accuracy    <      98.40759230 Ry

     iteration # 20     ecut=    29.40 Ry     beta= 0.05
     Davidson diagonalization with overlap
     ethr =  2.42E-03,  avg # of iterations =  1.5

     negative rho (up, down):  4.746E-04 0.000E+00
 
     Adding external electric field

     Computed dipole along edir(3) : 
        Dipole               -0.4719 Ry au,         -1.1993 Debye
        Dipole field         -0.0009 Ry au, 
 
        Potential amp.        0.0825 Ry
        Total length         46.3494 bohr
 

     total cpu time spent up to now is      443.8 secs

     total energy              =   -2978.07439188 Ry
     estimated scf accuracy    <     264.01926427 Ry

     iteration # 21     ecut=    29.40 Ry     beta= 0.05
     Davidson diagonalization with overlap
     ethr =  2.42E-03,  avg # of iterations =  1.2

     negative rho (up, down):  4.683E-04 0.000E+00
 
     Adding external electric field

     Computed dipole along edir(3) : 
        Dipole                0.1211 Ry au,          0.3077 Debye
        Dipole field          0.0002 Ry au, 
 
        Potential amp.       -0.0212 Ry
        Total length         46.3494 bohr
 

     total cpu time spent up to now is      454.0 secs

     total energy              =   -2978.28244476 Ry
     estimated scf accuracy    <      17.26741408 Ry

     iteration # 22     ecut=    29.40 Ry     beta= 0.05
     Davidson diagonalization with overlap
     ethr =  2.42E-03,  avg # of iterations =  1.0

     negative rho (up, down):  4.822E-04 0.000E+00
 
     Adding external electric field

     Computed dipole along edir(3) : 
        Dipole                0.1466 Ry au,          0.3727 Debye
        Dipole field          0.0003 Ry au, 
 
        Potential amp.       -0.0257 Ry
        Total length         46.3494 bohr
 

     total cpu time spent up to now is      464.1 secs

     total energy              =   -2978.21693920 Ry
     estimated scf accuracy    <       3.19528719 Ry

     iteration # 23     ecut=    29.40 Ry     beta= 0.05
     Davidson diagonalization with overlap
     ethr =  7.87E-04,  avg # of iterations =  2.0

     negative rho (up, down):  6.613E-04 0.000E+00
 
     Adding external electric field

     Computed dipole along edir(3) : 
        Dipole                0.7669 Ry au,          1.9493 Debye
        Dipole field          0.0014 Ry au, 
 
        Potential amp.       -0.1342 Ry
        Total length         46.3494 bohr
 

     total cpu time spent up to now is      474.7 secs

     total energy              =   -2977.87181341 Ry
     estimated scf accuracy    <       3.09022787 Ry

     iteration # 24     ecut=    29.40 Ry     beta= 0.05
     Davidson diagonalization with overlap
     ethr =  7.61E-04,  avg # of iterations =  2.7

     negative rho (up, down):  6.300E-04 0.000E+00
 
     Adding external electric field

     Computed dipole along edir(3) : 
        Dipole                0.8148 Ry au,          2.0711 Debye
        Dipole field          0.0015 Ry au, 
 
        Potential amp.       -0.1425 Ry
        Total length         46.3494 bohr
 

     total cpu time spent up to now is      486.2 secs

     total energy              =   -2977.73019531 Ry
     estimated scf accuracy    <      34.08007179 Ry

     iteration # 25     ecut=    29.40 Ry     beta= 0.05
     Davidson diagonalization with overlap
     ethr =  7.61E-04,  avg # of iterations =  3.5

     negative rho (up, down):  7.343E-04 0.000E+00
 
     Adding external electric field

     Computed dipole along edir(3) : 
        Dipole                0.2375 Ry au,          0.6037 Debye
        Dipole field          0.0004 Ry au, 
 
        Potential amp.       -0.0415 Ry
        Total length         46.3494 bohr
 

     total cpu time spent up to now is      497.3 secs

     total energy              =   -2977.90772299 Ry
     estimated scf accuracy    <       2.88514398 Ry

     iteration # 26     ecut=    29.40 Ry     beta= 0.05
     Davidson diagonalization with overlap
     ethr =  7.11E-04,  avg # of iterations =  2.8

     negative rho (up, down):  8.112E-04 0.000E+00
 
     Adding external electric field

     Computed dipole along edir(3) : 
        Dipole               -0.1663 Ry au,         -0.4228 Debye
        Dipole field         -0.0003 Ry au, 
 
        Potential amp.        0.0291 Ry
        Total length         46.3494 bohr
 

     total cpu time spent up to now is      508.6 secs

     total energy              =   -2977.74621029 Ry
     estimated scf accuracy    <      24.32776762 Ry

     iteration # 27     ecut=    29.40 Ry     beta= 0.05
     Davidson diagonalization with overlap
     ethr =  7.11E-04,  avg # of iterations =  2.0

     negative rho (up, down):  9.346E-04 0.000E+00
 
     Adding external electric field

     Computed dipole along edir(3) : 
        Dipole               -0.3806 Ry au,         -0.9673 Debye
        Dipole field         -0.0007 Ry au, 
 
        Potential amp.        0.0666 Ry
        Total length         46.3494 bohr
 

     total cpu time spent up to now is      519.1 secs

     total energy              =   -2977.76043117 Ry
     estimated scf accuracy    <       3.66198270 Ry

     iteration # 28     ecut=    29.40 Ry     beta= 0.05
     Davidson diagonalization with overlap
     ethr =  7.11E-04,  avg # of iterations =  2.7

     negative rho (up, down):  9.876E-04 0.000E+00
 
     Adding external electric field

     Computed dipole along edir(3) : 
        Dipole               -0.5168 Ry au,         -1.3136 Debye
        Dipole field         -0.0010 Ry au, 
 
        Potential amp.        0.0904 Ry
        Total length         46.3494 bohr
 

     total cpu time spent up to now is      529.9 secs

     total energy              =   -2977.77942653 Ry
     estimated scf accuracy    <       0.95162634 Ry

     iteration # 29     ecut=    29.40 Ry     beta= 0.05
     Davidson diagonalization with overlap
     c_bands:  1 eigenvalues not converged
     c_bands:  1 eigenvalues not converged
     ethr =  2.34E-04,  avg # of iterations =  8.7

     negative rho (up, down):  1.069E-03 0.000E+00
 
     Adding external electric field

     Computed dipole along edir(3) : 
        Dipole               -0.1829 Ry au,         -0.4648 Debye
        Dipole field         -0.0003 Ry au, 
 
        Potential amp.        0.0320 Ry
        Total length         46.3494 bohr
 

     total cpu time spent up to now is      542.6 secs

     total energy              =   -2977.74307816 Ry
     estimated scf accuracy    <       0.64513569 Ry

     iteration # 30     ecut=    29.40 Ry     beta= 0.05
     Davidson diagonalization with overlap
     c_bands:  1 eigenvalues not converged
     c_bands:  1 eigenvalues not converged
     ethr =  1.59E-04,  avg # of iterations = 14.7

     negative rho (up, down):  1.187E-03 0.000E+00
 
     Adding external electric field

     Computed dipole along edir(3) : 
        Dipole               -0.0729 Ry au,         -0.1853 Debye
        Dipole field         -0.0001 Ry au, 
 
        Potential amp.        0.0128 Ry
        Total length         46.3494 bohr
 

     total cpu time spent up to now is      558.3 secs

     total energy              =   -2977.74284984 Ry
     estimated scf accuracy    <       0.20110719 Ry

     iteration # 31     ecut=    29.40 Ry     beta= 0.05
     Davidson diagonalization with overlap
     c_bands:  4 eigenvalues not converged
     c_bands:  1 eigenvalues not converged
     c_bands:  3 eigenvalues not converged
     c_bands:  1 eigenvalues not converged
     c_bands:  2 eigenvalues not converged
     c_bands:  4 eigenvalues not converged
     c_bands:  1 eigenvalues not converged
     ethr =  4.95E-05,  avg # of iterations = 16.6

     negative rho (up, down):  1.463E-03 0.000E+00
 
     Adding external electric field

     Computed dipole along edir(3) : 
        Dipole               -0.1475 Ry au,         -0.3749 Debye
        Dipole field         -0.0003 Ry au, 
 
        Potential amp.        0.0258 Ry
        Total length         46.3494 bohr
 

     total cpu time spent up to now is      575.1 secs

     total energy              =   -2977.73554065 Ry
     estimated scf accuracy    <       0.12092796 Ry

     iteration # 32     ecut=    29.40 Ry     beta= 0.05
     Davidson diagonalization with overlap
     c_bands:  3 eigenvalues not converged
     c_bands:  2 eigenvalues not converged
     c_bands:  1 eigenvalues not converged
     ethr =  2.98E-05,  avg # of iterations = 14.0

     negative rho (up, down):  1.688E-03 0.000E+00
 
     Adding external electric field

     Computed dipole along edir(3) : 
        Dipole                0.2165 Ry au,          0.5502 Debye
        Dipole field          0.0004 Ry au, 
 
        Potential amp.       -0.0379 Ry
        Total length         46.3494 bohr
 

     total cpu time spent up to now is      591.1 secs

     total energy              =   -2977.73536374 Ry
     estimated scf accuracy    <       0.12535231 Ry

     iteration # 33     ecut=    29.40 Ry     beta= 0.05
     Davidson diagonalization with overlap
     ethr =  2.98E-05,  avg # of iterations =  5.3

     negative rho (up, down):  2.122E-03 0.000E+00
 
     Adding external electric field

     Computed dipole along edir(3) : 
        Dipole                0.4063 Ry au,          1.0328 Debye
        Dipole field          0.0008 Ry au, 
 
        Potential amp.       -0.0711 Ry
        Total length         46.3494 bohr
 

     total cpu time spent up to now is      603.2 secs

     total energy              =   -2977.74105104 Ry
     estimated scf accuracy    <       0.02551755 Ry

     iteration # 34     ecut=    29.40 Ry     beta= 0.05
     Davidson diagonalization with overlap
     c_bands:  4 eigenvalues not converged
     c_bands:  4 eigenvalues not converged
     c_bands:  4 eigenvalues not converged
     c_bands:  2 eigenvalues not converged
     c_bands:  2 eigenvalues not converged
     c_bands:  3 eigenvalues not converged
     c_bands:  3 eigenvalues not converged
     ethr =  6.29E-06,  avg # of iterations = 18.6

     negative rho (up, down):  2.037E-03 0.000E+00
 
     Adding external electric field

     Computed dipole along edir(3) : 
        Dipole                0.3973 Ry au,          1.0099 Debye
        Dipole field          0.0007 Ry au, 
 
        Potential amp.       -0.0695 Ry
        Total length         46.3494 bohr
 

     total cpu time spent up to now is      626.0 secs

     total energy              =   -2977.74727286 Ry
     estimated scf accuracy    <       0.04350609 Ry

     iteration # 35     ecut=    29.40 Ry     beta= 0.05
     Davidson diagonalization with overlap
     c_bands:  1 eigenvalues not converged
     c_bands:  1 eigenvalues not converged
     ethr =  6.29E-06,  avg # of iterations =  9.3

     negative rho (up, down):  2.035E-03 0.000E+00
 
     Adding external electric field

     Computed dipole along edir(3) : 
        Dipole                0.3691 Ry au,          0.9382 Debye
        Dipole field          0.0007 Ry au, 
 
        Potential amp.       -0.0646 Ry
        Total length         46.3494 bohr
 

     total cpu time spent up to now is      638.6 secs

     total energy              =   -2977.74912158 Ry
     estimated scf accuracy    <       0.04179210 Ry

     iteration # 36     ecut=    29.40 Ry     beta= 0.05
     Davidson diagonalization with overlap
     ethr =  6.29E-06,  avg # of iterations =  1.1

     negative rho (up, down):  2.962E-03 0.000E+00
 
     Adding external electric field

     Computed dipole along edir(3) : 
        Dipole                0.7334 Ry au,          1.8641 Debye
        Dipole field          0.0014 Ry au, 
 
        Potential amp.       -0.1283 Ry
        Total length         46.3494 bohr
 

     total cpu time spent up to now is      648.8 secs

     total energy              =   -2977.74416394 Ry
     estimated scf accuracy    <       0.04584557 Ry

     iteration # 37     ecut=    29.40 Ry     beta= 0.05
     Davidson diagonalization with overlap
     c_bands:  3 eigenvalues not converged
     c_bands:  1 eigenvalues not converged
     c_bands:  1 eigenvalues not converged
     c_bands:  1 eigenvalues not converged
     c_bands:  1 eigenvalues not converged
     c_bands:  2 eigenvalues not converged
     ethr =  6.29E-06,  avg # of iterations = 17.0

     negative rho (up, down):  3.401E-03 0.000E+00
 
     Adding external electric field

     Computed dipole along edir(3) : 
        Dipole                0.7650 Ry au,          1.9444 Debye
        Dipole field          0.0014 Ry au, 
 
        Potential amp.       -0.1338 Ry
        Total length         46.3494 bohr
 

     total cpu time spent up to now is      666.2 secs

     total energy              =   -2977.74433017 Ry
     estimated scf accuracy    <       0.03950910 Ry

     iteration # 38     ecut=    29.40 Ry     beta= 0.05
     Davidson diagonalization with overlap
     ethr =  6.29E-06,  avg # of iterations =  6.6

     negative rho (up, down):  3.393E-03 0.000E+00
 
     Adding external electric field

     Computed dipole along edir(3) : 
        Dipole                0.7584 Ry au,          1.9278 Debye
        Dipole field          0.0014 Ry au, 
 
        Potential amp.       -0.1327 Ry
        Total length         46.3494 bohr
 

     total cpu time spent up to now is      678.5 secs

     total energy              =   -2977.74662475 Ry
     estimated scf accuracy    <       0.03162646 Ry

     iteration # 39     ecut=    29.40 Ry     beta= 0.05
     Davidson diagonalization with overlap
     ethr =  6.29E-06,  avg # of iterations =  1.0

     negative rho (up, down):  4.267E-03 0.000E+00
 
     Adding external electric field

     Computed dipole along edir(3) : 
        Dipole                0.8675 Ry au,          2.2049 Debye
        Dipole field          0.0016 Ry au, 
 
        Potential amp.       -0.1518 Ry
        Total length         46.3494 bohr
 

     total cpu time spent up to now is      688.6 secs

     total energy              =   -2977.74666582 Ry
     estimated scf accuracy    <       0.03523847 Ry

     iteration # 40     ecut=    29.40 Ry     beta= 0.05
     Davidson diagonalization with overlap
     c_bands:  3 eigenvalues not converged
     ethr =  6.29E-06,  avg # of iterations =  4.5

     negative rho (up, down):  4.185E-03 0.000E+00
 
     Adding external electric field

     Computed dipole along edir(3) : 
        Dipole                0.8608 Ry au,          2.1880 Debye
        Dipole field          0.0016 Ry au, 
 
        Potential amp.       -0.1506 Ry
        Total length         46.3494 bohr
 

     total cpu time spent up to now is      700.7 secs

     total energy              =   -2977.74762796 Ry
     estimated scf accuracy    <       0.03909721 Ry

     iteration # 41     ecut=    29.40 Ry     beta= 0.05
     Davidson diagonalization with overlap
     ethr =  6.29E-06,  avg # of iterations =  1.8

     negative rho (up, down):  3.039E-03 0.000E+00
 
     Adding external electric field

     Computed dipole along edir(3) : 
        Dipole                0.7694 Ry au,          1.9557 Debye
        Dipole field          0.0015 Ry au, 
 
        Potential amp.       -0.1346 Ry
        Total length         46.3494 bohr
 

     total cpu time spent up to now is      711.1 secs

     total energy              =   -2977.74606504 Ry
     estimated scf accuracy    <       0.03897984 Ry

     iteration # 42     ecut=    29.40 Ry     beta= 0.05
     Davidson diagonalization with overlap
     ethr =  6.29E-06,  avg # of iterations =  3.4

     negative rho (up, down):  2.381E-03 0.000E+00
 
     Adding external electric field

     Computed dipole along edir(3) : 
        Dipole                0.4122 Ry au,          1.0476 Debye
        Dipole field          0.0008 Ry au, 
 
        Potential amp.       -0.0721 Ry
        Total length         46.3494 bohr
 

     total cpu time spent up to now is      723.0 secs

     total energy              =   -2977.73907542 Ry
     estimated scf accuracy    <       0.03449896 Ry

     iteration # 43     ecut=    29.40 Ry     beta= 0.05
     Davidson diagonalization with overlap
     c_bands:  2 eigenvalues not converged
     c_bands:  1 eigenvalues not converged
     c_bands:  2 eigenvalues not converged
     c_bands:  2 eigenvalues not converged
     ethr =  6.29E-06,  avg # of iterations = 19.1

     negative rho (up, down):  4.520E-03 0.000E+00
 
     Adding external electric field

     Computed dipole along edir(3) : 
        Dipole                0.7616 Ry au,          1.9358 Debye
        Dipole field          0.0014 Ry au, 
 
        Potential amp.       -0.1332 Ry
        Total length         46.3494 bohr
 

     total cpu time spent up to now is      744.7 secs

     total energy              =   -2977.74381476 Ry
     estimated scf accuracy    <       0.01126305 Ry

     iteration # 44     ecut=    29.40 Ry     beta= 0.05
     Davidson diagonalization with overlap
     c_bands:  3 eigenvalues not converged
     c_bands:  1 eigenvalues not converged
     c_bands:  2 eigenvalues not converged
     c_bands:  1 eigenvalues not converged
     c_bands:  2 eigenvalues not converged
     c_bands:  2 eigenvalues not converged
     c_bands:  2 eigenvalues not converged
     c_bands:  1 eigenvalues not converged
     c_bands:  3 eigenvalues not converged
     c_bands:  2 eigenvalues not converged
     ethr =  2.77E-06,  avg # of iterations = 20.0

     negative rho (up, down):  4.337E-03 0.000E+00
 
     Adding external electric field

     Computed dipole along edir(3) : 
        Dipole                0.7532 Ry au,          1.9144 Debye
        Dipole field          0.0014 Ry au, 
 
        Potential amp.       -0.1318 Ry
        Total length         46.3494 bohr
 

     total cpu time spent up to now is      769.7 secs

     total energy              =   -2977.74862394 Ry
     estimated scf accuracy    <       0.04716094 Ry

     iteration # 45     ecut=    29.40 Ry     beta= 0.05
     Davidson diagonalization with overlap
     c_bands:  2 eigenvalues not converged
     ethr =  2.77E-06,  avg # of iterations =  7.0

     negative rho (up, down):  4.140E-03 0.000E+00
 
     Adding external electric field

     Computed dipole along edir(3) : 
        Dipole                0.7014 Ry au,          1.7827 Debye
        Dipole field          0.0013 Ry au, 
 
        Potential amp.       -0.1227 Ry
        Total length         46.3494 bohr
 

     total cpu time spent up to now is      782.1 secs

     total energy              =   -2977.74825613 Ry
     estimated scf accuracy    <       0.04252089 Ry

     iteration # 46     ecut=    29.40 Ry     beta= 0.05
     Davidson diagonalization with overlap
     c_bands:  1 eigenvalues not converged
     ethr =  2.77E-06,  avg # of iterations = 14.8

     negative rho (up, down):  4.095E-03 0.000E+00
 
     Adding external electric field

     Computed dipole along edir(3) : 
        Dipole                0.6937 Ry au,          1.7633 Debye
        Dipole field          0.0013 Ry au, 
 
        Potential amp.       -0.1214 Ry
        Total length         46.3494 bohr
 

     total cpu time spent up to now is      796.6 secs

     total energy              =   -2977.74800255 Ry
     estimated scf accuracy    <       0.03790638 Ry

     iteration # 47     ecut=    29.40 Ry     beta= 0.05
     Davidson diagonalization with overlap
     ethr =  2.77E-06,  avg # of iterations =  1.1

     negative rho (up, down):  3.859E-03 0.000E+00
 
     Adding external electric field

     Computed dipole along edir(3) : 
        Dipole                0.6918 Ry au,          1.7583 Debye
        Dipole field          0.0013 Ry au, 
 
        Potential amp.       -0.1210 Ry
        Total length         46.3494 bohr
 

     total cpu time spent up to now is      806.7 secs

     total energy              =   -2977.74858551 Ry
     estimated scf accuracy    <       0.03511201 Ry

     iteration # 48     ecut=    29.40 Ry     beta= 0.05
     Davidson diagonalization with overlap
     ethr =  2.77E-06,  avg # of iterations =  1.8

     negative rho (up, down):  4.096E-03 0.000E+00
 
     Adding external electric field

     Computed dipole along edir(3) : 
        Dipole                0.6059 Ry au,          1.5402 Debye
        Dipole field          0.0011 Ry au, 
 
        Potential amp.       -0.1060 Ry
        Total length         46.3494 bohr
 

     total cpu time spent up to now is      817.5 secs

     total energy              =   -2977.74283355 Ry
     estimated scf accuracy    <       0.03629336 Ry

     iteration # 49     ecut=    29.40 Ry     beta= 0.05
     Davidson diagonalization with overlap
     c_bands:  2 eigenvalues not converged
     c_bands:  1 eigenvalues not converged
     c_bands:  1 eigenvalues not converged
     c_bands:  1 eigenvalues not converged
     c_bands:  2 eigenvalues not converged
     c_bands:  2 eigenvalues not converged
     c_bands:  1 eigenvalues not converged
     ethr =  2.77E-06,  avg # of iterations = 18.2

     negative rho (up, down):  4.595E-03 0.000E+00
 
     Adding external electric field

     Computed dipole along edir(3) : 
        Dipole                0.6561 Ry au,          1.6676 Debye
        Dipole field          0.0012 Ry au, 
 
        Potential amp.       -0.1148 Ry
        Total length         46.3494 bohr
 

     total cpu time spent up to now is      838.0 secs

     total energy              =   -2977.74168816 Ry
     estimated scf accuracy    <       0.01103478 Ry

     iteration # 50     ecut=    29.40 Ry     beta= 0.05
     Davidson diagonalization with overlap
     c_bands:  1 eigenvalues not converged
     ethr =  2.72E-06,  avg # of iterations = 13.8

     negative rho (up, down):  4.514E-03 0.000E+00
 
     Adding external electric field

     Computed dipole along edir(3) : 
        Dipole                0.6317 Ry au,          1.6057 Debye
        Dipole field          0.0012 Ry au, 
 
        Potential amp.       -0.1105 Ry
        Total length         46.3494 bohr
 

     total cpu time spent up to now is      857.6 secs

     total energy              =   -2977.74418050 Ry
     estimated scf accuracy    <       0.00279220 Ry

     iteration # 51     ecut=    29.40 Ry     beta= 0.05
     Davidson diagonalization with overlap
     ethr =  6.88E-07,  avg # of iterations =  4.9

     negative rho (up, down):  4.595E-03 0.000E+00
 
     Adding external electric field

     Computed dipole along edir(3) : 
        Dipole                0.6319 Ry au,          1.6061 Debye
        Dipole field          0.0012 Ry au, 
 
        Potential amp.       -0.1105 Ry
        Total length         46.3494 bohr
 

     total cpu time spent up to now is      871.2 secs

     total energy              =   -2977.74417837 Ry
     estimated scf accuracy    <       0.00355500 Ry

     iteration # 52     ecut=    29.40 Ry     beta= 0.05
     Davidson diagonalization with overlap
     ethr =  6.88E-07,  avg # of iterations =  1.0

     negative rho (up, down):  4.739E-03 0.000E+00
 
     Adding external electric field

     Computed dipole along edir(3) : 
        Dipole                0.6256 Ry au,          1.5901 Debye
        Dipole field          0.0012 Ry au, 
 
        Potential amp.       -0.1094 Ry
        Total length         46.3494 bohr
 

     total cpu time spent up to now is      881.3 secs

     total energy              =   -2977.74421868 Ry
     estimated scf accuracy    <       0.00259952 Ry

     iteration # 53     ecut=    29.40 Ry     beta= 0.05
     Davidson diagonalization with overlap
     ethr =  6.40E-07,  avg # of iterations =  1.4

     negative rho (up, down):  5.754E-03 0.000E+00
 
     Adding external electric field

     Computed dipole along edir(3) : 
        Dipole                0.6814 Ry au,          1.7320 Debye
        Dipole field          0.0013 Ry au, 
 
        Potential amp.       -0.1192 Ry
        Total length         46.3494 bohr
 

     total cpu time spent up to now is      891.8 secs

     total energy              =   -2977.74374162 Ry
     estimated scf accuracy    <       0.00251367 Ry

     iteration # 54     ecut=    29.40 Ry     beta= 0.05
     Davidson diagonalization with overlap
     ethr =  6.19E-07,  avg # of iterations =  6.5

     negative rho (up, down):  6.109E-03 0.000E+00
 
     Adding external electric field

     Computed dipole along edir(3) : 
        Dipole                0.7027 Ry au,          1.7861 Debye
        Dipole field          0.0013 Ry au, 
 
        Potential amp.       -0.1229 Ry
        Total length         46.3494 bohr
 

     total cpu time spent up to now is      906.9 secs

     total energy              =   -2977.74411069 Ry
     estimated scf accuracy    <       0.00158668 Ry

     iteration # 55     ecut=    29.40 Ry     beta= 0.05
     Davidson diagonalization with overlap
     ethr =  3.91E-07,  avg # of iterations =  5.0

     negative rho (up, down):  6.746E-03 0.000E+00
 
     Adding external electric field

     Computed dipole along edir(3) : 
        Dipole                0.7134 Ry au,          1.8133 Debye
        Dipole field          0.0013 Ry au, 
 
        Potential amp.       -0.1248 Ry
        Total length         46.3494 bohr
 

     total cpu time spent up to now is      919.3 secs

     total energy              =   -2977.74422912 Ry
     estimated scf accuracy    <       0.00053113 Ry

     iteration # 56     ecut=    29.40 Ry     beta= 0.05
     Davidson diagonalization with overlap
     ethr =  1.31E-07,  avg # of iterations =  5.6

     negative rho (up, down):  6.951E-03 0.000E+00
 
     Adding external electric field

     Computed dipole along edir(3) : 
        Dipole                0.7180 Ry au,          1.8250 Debye
        Dipole field          0.0014 Ry au, 
 
        Potential amp.       -0.1256 Ry
        Total length         46.3494 bohr
 

     total cpu time spent up to now is      932.6 secs

     total energy              =   -2977.74416691 Ry
     estimated scf accuracy    <       0.00038807 Ry

     iteration # 57     ecut=    29.40 Ry     beta= 0.05
     Davidson diagonalization with overlap
     ethr =  9.56E-08,  avg # of iterations =  5.4

     negative rho (up, down):  7.411E-03 0.000E+00
 
     Adding external electric field

     Computed dipole along edir(3) : 
        Dipole                0.7254 Ry au,          1.8437 Debye
        Dipole field          0.0014 Ry au, 
 
        Potential amp.       -0.1269 Ry
        Total length         46.3494 bohr
 

     total cpu time spent up to now is      950.6 secs

     total energy              =   -2977.74420784 Ry
     estimated scf accuracy    <       0.00081471 Ry

     iteration # 58     ecut=    29.40 Ry     beta= 0.05
     Davidson diagonalization with overlap
     ethr =  9.56E-08,  avg # of iterations =  4.0

     negative rho (up, down):  7.373E-03 0.000E+00
 
     Adding external electric field

     Computed dipole along edir(3) : 
        Dipole                0.7249 Ry au,          1.8424 Debye
        Dipole field          0.0014 Ry au, 
 
        Potential amp.       -0.1268 Ry
        Total length         46.3494 bohr
 

     total cpu time spent up to now is      963.3 secs

     total energy              =   -2977.74418026 Ry
     estimated scf accuracy    <       0.00027421 Ry

     iteration # 59     ecut=    29.40 Ry     beta= 0.05
     Davidson diagonalization with overlap
     ethr =  6.75E-08,  avg # of iterations =  5.0

     negative rho (up, down):  7.422E-03 0.000E+00
 
     Adding external electric field

     Computed dipole along edir(3) : 
        Dipole                0.7308 Ry au,          1.8574 Debye
        Dipole field          0.0014 Ry au, 
 
        Potential amp.       -0.1278 Ry
        Total length         46.3494 bohr
 

     total cpu time spent up to now is      980.2 secs

     total energy              =   -2977.74422311 Ry
     estimated scf accuracy    <       0.00021091 Ry

     iteration # 60     ecut=    29.40 Ry     beta= 0.05
     Davidson diagonalization with overlap
     ethr =  5.19E-08,  avg # of iterations =  5.0

     negative rho (up, down):  8.039E-03 0.000E+00
 
     Adding external electric field

     Computed dipole along edir(3) : 
        Dipole                0.7485 Ry au,          1.9026 Debye
        Dipole field          0.0014 Ry au, 
 
        Potential amp.       -0.1309 Ry
        Total length         46.3494 bohr
 

     total cpu time spent up to now is      994.2 secs

     total energy              =   -2977.74427942 Ry
     estimated scf accuracy    <       0.00007290 Ry

     iteration # 61     ecut=    29.40 Ry     beta= 0.05
     Davidson diagonalization with overlap
     ethr =  1.80E-08,  avg # of iterations =  5.0

     negative rho (up, down):  8.210E-03 0.000E+00
 
     Adding external electric field

     Computed dipole along edir(3) : 
        Dipole                0.7540 Ry au,          1.9164 Debye
        Dipole field          0.0014 Ry au, 
 
        Potential amp.       -0.1319 Ry
        Total length         46.3494 bohr
 

     total cpu time spent up to now is     1011.4 secs

     total energy              =   -2977.74425359 Ry
     estimated scf accuracy    <       0.00022574 Ry

     iteration # 62     ecut=    29.40 Ry     beta= 0.05
     Davidson diagonalization with overlap
     ethr =  1.80E-08,  avg # of iterations =  5.1

     negative rho (up, down):  8.295E-03 0.000E+00
 
     Adding external electric field

     Computed dipole along edir(3) : 
        Dipole                0.7552 Ry au,          1.9194 Debye
        Dipole field          0.0014 Ry au, 
 
        Potential amp.       -0.1321 Ry
        Total length         46.3494 bohr
 

     total cpu time spent up to now is     1026.8 secs

     total energy              =   -2977.74427574 Ry
     estimated scf accuracy    <       0.00001872 Ry

     iteration # 63     ecut=    29.40 Ry     beta= 0.05
     Davidson diagonalization with overlap
     ethr =  4.61E-09,  avg # of iterations =  6.2

     negative rho (up, down):  8.374E-03 0.000E+00
 
     Adding external electric field

     Computed dipole along edir(3) : 
        Dipole                0.7567 Ry au,          1.9233 Debye
        Dipole field          0.0014 Ry au, 
 
        Potential amp.       -0.1324 Ry
        Total length         46.3494 bohr
 

     total cpu time spent up to now is     1045.0 secs

     total energy              =   -2977.74428834 Ry
     estimated scf accuracy    <       0.00001591 Ry

     iteration # 64     ecut=    29.40 Ry     beta= 0.05
     Davidson diagonalization with overlap
     ethr =  3.92E-09,  avg # of iterations =  1.0

     negative rho (up, down):  8.591E-03 0.000E+00
 
     Adding external electric field

     Computed dipole along edir(3) : 
        Dipole                0.7618 Ry au,          1.9363 Debye
        Dipole field          0.0014 Ry au, 
 
        Potential amp.       -0.1333 Ry
        Total length         46.3494 bohr
 

     total cpu time spent up to now is     1055.1 secs

     total energy              =   -2977.74429262 Ry
     estimated scf accuracy    <       0.00001329 Ry

     iteration # 65     ecut=    29.40 Ry     beta= 0.05
     Davidson diagonalization with overlap
     ethr =  3.27E-09,  avg # of iterations =  5.0

     negative rho (up, down):  8.664E-03 0.000E+00
 
     Adding external electric field

     Computed dipole along edir(3) : 
        Dipole                0.7641 Ry au,          1.9422 Debye
        Dipole field          0.0014 Ry au, 
 
        Potential amp.       -0.1337 Ry
        Total length         46.3494 bohr
 

     total cpu time spent up to now is     1066.9 secs

     total energy              =   -2977.74429644 Ry
     estimated scf accuracy    <       0.00000909 Ry

     iteration # 66     ecut=    29.40 Ry     beta= 0.05
     Davidson diagonalization with overlap
     ethr =  2.24E-09,  avg # of iterations =  2.0

     negative rho (up, down):  8.687E-03 0.000E+00
 
     Adding external electric field

     Computed dipole along edir(3) : 
        Dipole                0.7646 Ry au,          1.9433 Debye
        Dipole field          0.0014 Ry au, 
 
        Potential amp.       -0.1337 Ry
        Total length         46.3494 bohr
 

     total cpu time spent up to now is     1077.9 secs

     total energy              =   -2977.74429933 Ry
     estimated scf accuracy    <       0.00000621 Ry

     iteration # 67     ecut=    29.40 Ry     beta= 0.05
     Davidson diagonalization with overlap
     ethr =  1.53E-09,  avg # of iterations =  5.3

     negative rho (up, down):  8.661E-03 0.000E+00
 
     Adding external electric field

     Computed dipole along edir(3) : 
        Dipole                0.7640 Ry au,          1.9419 Debye
        Dipole field          0.0014 Ry au, 
 
        Potential amp.       -0.1337 Ry
        Total length         46.3494 bohr
 

     total cpu time spent up to now is     1091.2 secs

     total energy              =   -2977.74430305 Ry
     estimated scf accuracy    <       0.00000205 Ry

     iteration # 68     ecut=    29.40 Ry     beta= 0.05
     Davidson diagonalization with overlap
     ethr =  5.05E-10,  avg # of iterations =  5.3

     negative rho (up, down):  8.650E-03 0.000E+00
 
     Adding external electric field

     Computed dipole along edir(3) : 
        Dipole                0.7635 Ry au,          1.9406 Debye
        Dipole field          0.0014 Ry au, 
 
        Potential amp.       -0.1336 Ry
        Total length         46.3494 bohr
 

     total cpu time spent up to now is     1107.4 secs

     total energy              =   -2977.74430646 Ry
     estimated scf accuracy    <       0.00000159 Ry

     iteration # 69     ecut=    29.40 Ry     beta= 0.05
     Davidson diagonalization with overlap
     ethr =  3.91E-10,  avg # of iterations =  1.3

     negative rho (up, down):  8.668E-03 0.000E+00
 
     Adding external electric field

     Computed dipole along edir(3) : 
        Dipole                0.7632 Ry au,          1.9398 Debye
        Dipole field          0.0014 Ry au, 
 
        Potential amp.       -0.1335 Ry
        Total length         46.3494 bohr
 

     total cpu time spent up to now is     1117.8 secs

     total energy              =   -2977.74430913 Ry
     estimated scf accuracy    <       0.00000095 Ry

     iteration # 70     ecut=    29.40 Ry     beta= 0.05
     Davidson diagonalization with overlap
     ethr =  2.34E-10,  avg # of iterations =  6.7

     negative rho (up, down):  8.682E-03 0.000E+00
 
     Adding external electric field

     Computed dipole along edir(3) : 
        Dipole                0.7634 Ry au,          1.9404 Debye
        Dipole field          0.0014 Ry au, 
 
        Potential amp.       -0.1335 Ry
        Total length         46.3494 bohr
 

     total cpu time spent up to now is     1134.8 secs

     total energy              =   -2977.74431173 Ry
     estimated scf accuracy    <       0.00000093 Ry

     iteration # 71     ecut=    29.40 Ry     beta= 0.05
     Davidson diagonalization with overlap
     ethr =  2.30E-10,  avg # of iterations =  2.0

     negative rho (up, down):  8.698E-03 0.000E+00
 
     Adding external electric field

     Computed dipole along edir(3) : 
        Dipole                0.7636 Ry au,          1.9408 Debye
        Dipole field          0.0014 Ry au, 
 
        Potential amp.       -0.1336 Ry
        Total length         46.3494 bohr
 

     total cpu time spent up to now is     1145.9 secs

     total energy              =   -2977.74431393 Ry
     estimated scf accuracy    <       0.00000038 Ry

     iteration # 72     ecut=    29.40 Ry     beta= 0.05
     Davidson diagonalization with overlap
     ethr =  9.39E-11,  avg # of iterations =  6.4

     negative rho (up, down):  8.716E-03 0.000E+00
 
     Adding external electric field

     Computed dipole along edir(3) : 
        Dipole                0.7637 Ry au,          1.9411 Debye
        Dipole field          0.0014 Ry au, 
 
        Potential amp.       -0.1336 Ry
        Total length         46.3494 bohr
 

     total cpu time spent up to now is     1163.0 secs

     total energy              =   -2977.74431604 Ry
     estimated scf accuracy    <       0.00000036 Ry

     iteration # 73     ecut=    29.40 Ry     beta= 0.05
     Davidson diagonalization with overlap
     ethr =  8.79E-11,  avg # of iterations =  2.0

     negative rho (up, down):  8.743E-03 0.000E+00
 
     Adding external electric field

     Computed dipole along edir(3) : 
        Dipole                0.7638 Ry au,          1.9414 Debye
        Dipole field          0.0014 Ry au, 
 
        Potential amp.       -0.1336 Ry
        Total length         46.3494 bohr
 

     total cpu time spent up to now is     1174.1 secs

     total energy              =   -2977.74431782 Ry
     estimated scf accuracy    <       0.00000019 Ry

     iteration # 74     ecut=    29.40 Ry     beta= 0.05
     Davidson diagonalization with overlap
     ethr =  4.71E-11,  avg # of iterations =  6.0

     negative rho (up, down):  8.744E-03 0.000E+00
 
     Adding external electric field

     Computed dipole along edir(3) : 
        Dipole                0.7638 Ry au,          1.9413 Debye
        Dipole field          0.0014 Ry au, 
 
        Potential amp.       -0.1336 Ry
        Total length         46.3494 bohr
 

     total cpu time spent up to now is     1190.2 secs

     total energy              =   -2977.74431949 Ry
     estimated scf accuracy    <       0.00000011 Ry

     iteration # 75     ecut=    29.40 Ry     beta= 0.05
     Davidson diagonalization with overlap
     ethr =  2.61E-11,  avg # of iterations =  2.0

     negative rho (up, down):  8.779E-03 0.000E+00
 
     Adding external electric field

     Computed dipole along edir(3) : 
        Dipole                0.7625 Ry au,          1.9380 Debye
        Dipole field          0.0014 Ry au, 
 
        Potential amp.       -0.1334 Ry
        Total length         46.3494 bohr
 

     total cpu time spent up to now is     1201.3 secs

     End of self-consistent calculation

          k = 0.0000 0.0000 0.0000 ( 18029 PWs)   bands (ev):

   -56.2629 -56.2293 -55.3799 -55.3459 -55.3376 -55.3027 -55.1550 -55.1198
   -55.0330 -54.9124 -54.8944 -54.8928 -54.8785 -54.8079 -54.3919 -54.3425
   -32.6897 -32.5371 -32.5090 -32.4392 -32.3483 -32.3158 -31.8477 -31.8199
   -31.6904 -31.6457 -31.5969 -31.5790 -31.5488 -31.5397 -31.5106 -31.5056
   -31.4871 -31.4807 -31.4586 -31.4441 -31.4310 -31.3817 -31.3715 -31.3328
   -31.3203 -31.3033 -31.2947 -31.2813 -31.2572 -31.2563 -31.2520 -31.2278
   -31.1332 -31.1224 -31.0826 -31.0723 -31.0447 -31.0392 -31.0307 -31.0121
   -30.9814 -30.9283 -30.9066 -30.6355 -30.6132 -30.5823 -30.5615 -30.4527
   -18.4453 -16.4187 -15.9524 -15.7091 -15.6196 -15.5362 -15.4976 -15.4533
   -15.3013 -15.2338 -15.2114 -15.2108 -15.1402 -14.9920 -14.9448 -14.8468
   -14.7532 -14.6184 -14.6013 -14.5680 -14.5502 -14.5174 -14.5102 -14.4584
   -14.2953 -14.2596 -14.2114 -14.1483 -14.0630 -14.0382 -13.8379 -13.4108
   -13.3011 -12.6399  -7.4314  -6.2357  -4.1043  -4.0838  -3.9861  -3.4520
    -3.1828  -3.1550  -3.0266  -3.0219  -2.9762  -2.8358  -2.8253  -2.7542
    -2.7314  -2.6920  -2.6179  -2.5671  -2.5356  -2.4463  -2.4339  -2.4138
    -2.4002  -2.3847  -2.2631  -2.2215  -2.1694  -2.0653  -1.9575  -1.9145
    -1.8875  -1.8435  -1.8056  -1.7584  -1.7462  -1.7313  -1.7247  -1.6135
    -1.4995  -1.4662  -1.4515  -1.4053  -1.3872  -1.3781  -1.3565  -1.2713
    -1.1613  -1.0681  -1.0010  -0.9886  -0.9212  -0.9132  -0.8542  -0.7380
    -0.6774  -0.6729  -0.6569  -0.5536  -0.5268  -0.4555  -0.3925  -0.3345
    -0.2800  -0.2169  -0.1670  -0.1445  -0.1312  -0.0324   0.0391   0.0624
     0.1139   0.1231   0.1322   0.1528   0.2495   0.2851   0.3589   0.4034
     0.4396   0.4839   0.5670   0.6171   0.6848   0.7347   0.7575   0.8192
     0.8726   0.9282   1.0232   1.0741   1.0779   1.0865   1.1092   1.1694
     1.1832   1.2593   1.3425   1.3577   1.4302   1.4985   1.6592   1.6983
     1.9487   2.0196   2.6460   3.0142   3.1756   3.4708   3.6607   3.7982
     3.9935   4.0039   4.0110   4.2375   4.2609

          k = 0.0000 0.0419 0.0000 ( 17933 PWs)   bands (ev):

   -56.2579 -56.2341 -55.3749 -55.3507 -55.3329 -55.3073 -55.1498 -55.1248
   -55.0319 -54.9074 -54.8938 -54.8926 -54.8834 -54.8096 -54.3886 -54.3456
   -32.6363 -32.5329 -32.5128 -32.4260 -32.3717 -32.3616 -31.7954 -31.7663
   -31.6365 -31.6321 -31.5855 -31.5731 -31.5640 -31.5412 -31.5353 -31.5222
   -31.5024 -31.5001 -31.4883 -31.4181 -31.4069 -31.3653 -31.3580 -31.3375
   -31.3310 -31.3218 -31.2879 -31.2545 -31.2508 -31.2497 -31.2483 -31.2311
   -31.1287 -31.1103 -31.0997 -31.0893 -31.0695 -31.0513 -31.0424 -31.0312
   -31.0126 -30.9850 -30.8581 -30.6438 -30.6114 -30.5905 -30.5649 -30.4867
   -18.4450 -16.2976 -15.8338 -15.6720 -15.6065 -15.5599 -15.4559 -15.4356
   -15.2712 -15.2328 -15.1945 -15.1732 -15.0751 -14.9645 -14.9552 -14.8891
   -14.8457 -14.6931 -14.6226 -14.5857 -14.5825 -14.5602 -14.4899 -14.4368
   -14.3112 -14.2857 -14.2160 -14.2062 -14.0836 -14.0378 -13.9054 -13.4182
   -13.3423 -12.6500  -7.4286  -6.2357  -4.1087  -4.0849  -3.8042  -3.2753
    -3.0281  -3.0030  -2.9603  -2.8757  -2.8370  -2.8179  -2.7633  -2.7610
    -2.7514  -2.6886  -2.5708  -2.5680  -2.4898  -2.4208  -2.4142  -2.3969
    -2.3528  -2.3148  -2.2757  -2.2435  -2.1842  -2.1269  -2.0750  -2.0562
    -2.0268  -1.9479  -1.9398  -1.8898  -1.8602  -1.7832  -1.6918  -1.6528
    -1.6421  -1.5245  -1.4700  -1.4371  -1.4121  -1.3387  -1.2378  -1.1434
    -1.0681  -1.0400  -1.0100  -1.0019  -0.8463  -0.8059  -0.7495  -0.7276
    -0.6841  -0.6675  -0.6030  -0.5302  -0.5078  -0.4473  -0.4053  -0.3499
    -0.2556  -0.1910  -0.0882  -0.0744  -0.0539  -0.0319  -0.0166   0.0588
     0.0790   0.1107   0.1285   0.1350   0.2424   0.2483   0.3293   0.3593
     0.4383   0.4869   0.5188   0.5955   0.6204   0.6570   0.6847   0.7352
     0.7652   0.7875   0.8071   0.8190   0.9677   1.0168   1.0760   1.0953
     1.1688   1.2637   1.3439   1.4011   1.4252   1.4556   1.6059   1.6131
     1.8954   1.9018   2.5332   3.2812   3.2868   3.4801   3.8274   3.8475
     3.8822   3.9639   4.0075   4.1584   4.2338

          k = 0.0000-0.0839 0.0000 ( 17884 PWs)   bands (ev):

   -56.2462 -56.2457 -55.3650 -55.3606 -55.3249 -55.3152 -55.1384 -55.1362
   -55.0308 -54.8954 -54.8952 -54.8948 -54.8907 -54.8114 -54.3847 -54.3494
   -32.5230 -32.5226 -32.5055 -32.5052 -32.3939 -32.3935 -31.6704 -31.6647
   -31.6394 -31.6307 -31.6003 -31.5972 -31.5722 -31.5585 -31.5532 -31.5496
   -31.4970 -31.4962 -31.4918 -31.4795 -31.3839 -31.3817 -31.3458 -31.3445
   -31.3215 -31.2869 -31.2487 -31.2424 -31.2396 -31.2394 -31.2262 -31.1917
   -31.1528 -31.1202 -31.1200 -31.1115 -31.0967 -31.0810 -31.0809 -31.0667
   -31.0424 -31.0142 -30.7672 -30.7050 -30.6094 -30.5868 -30.5676 -30.5233
   -18.4448 -15.9971 -15.9960 -15.5738 -15.5681 -15.4157 -15.4156 -15.3994
   -15.3922 -15.2790 -15.1848 -15.0789 -15.0686 -14.9334 -14.9176 -14.8520
   -14.8226 -14.7739 -14.7631 -14.7479 -14.7274 -14.4408 -14.4340 -14.3605
   -14.3360 -14.3199 -14.3108 -14.1682 -14.1503 -14.0375 -13.9940 -13.4050
   -13.4050 -12.6599  -7.4258  -6.2357  -4.1139  -4.0853  -3.3500  -3.3499
    -2.8612  -2.8574  -2.8569  -2.8558  -2.8074  -2.7602  -2.7557  -2.7452
    -2.6678  -2.6003  -2.5737  -2.5036  -2.4814  -2.4114  -2.3904  -2.3690
    -2.3637  -2.3530  -2.3127  -2.3089  -2.2281  -2.1573  -2.1343  -2.1182
    -2.0618  -2.0134  -1.8766  -1.8506  -1.7608  -1.7518  -1.6659  -1.6416
    -1.6010  -1.5636  -1.5465  -1.4944  -1.4583  -1.3856  -1.3159  -1.3121
    -1.2006  -1.1841  -0.9802  -0.9165  -0.8390  -0.7412  -0.7150  -0.6924
    -0.6502  -0.6097  -0.5954  -0.5293  -0.4839  -0.3905  -0.3887  -0.3629
    -0.2824  -0.1912  -0.1456  -0.1396  -0.1037  -0.0464  -0.0321  -0.0141
    -0.0059   0.0947   0.1926   0.1989   0.2172   0.2712   0.3465   0.4121
     0.4822   0.4877   0.5144   0.5354   0.5608   0.5849   0.6228   0.6662
     0.6760   0.7096   0.7225   0.7491   0.7641   0.8486   0.9896   1.0705
     1.0790   1.3198   1.3662   1.4761   1.4769   1.5009   1.5770   1.5851
     1.6524   1.8597   2.4175   3.5259   3.5264   3.6591   3.6594   3.7209
     3.7212   4.0854   4.1054   4.2387   4.2529

          k = 0.0380 0.0000 0.0000 ( 17913 PWs)   bands (ev):

   -56.2628 -56.2292 -55.3797 -55.3458 -55.3377 -55.3026 -55.1549 -55.1197
   -55.0329 -54.9123 -54.8943 -54.8927 -54.8784 -54.8078 -54.3918 -54.3424
   -32.6903 -32.5369 -32.5089 -32.4372 -32.3480 -32.3155 -31.8479 -31.8244
   -31.6904 -31.6254 -31.5961 -31.5793 -31.5420 -31.5396 -31.5263 -31.5105
   -31.4876 -31.4797 -31.4595 -31.4442 -31.4308 -31.3973 -31.3625 -31.3327
   -31.3036 -31.3029 -31.2946 -31.2810 -31.2570 -31.2544 -31.2541 -31.2260
   -31.1414 -31.1222 -31.0823 -31.0717 -31.0445 -31.0391 -31.0311 -31.0119
   -30.9812 -30.9280 -30.9058 -30.6353 -30.6151 -30.5822 -30.5608 -30.4525
   -18.4450 -16.3152 -15.8701 -15.7772 -15.6926 -15.5713 -15.4501 -15.3451
   -15.3354 -15.2170 -15.2042 -15.1618 -15.1472 -15.1072 -14.9990 -14.7734
   -14.7523 -14.6777 -14.6709 -14.6672 -14.6143 -14.5638 -14.3548 -14.3461
   -14.3386 -14.2989 -14.2195 -14.1602 -14.0618 -14.0381 -13.8368 -13.4081
   -13.3008 -12.6383  -7.4305  -6.2296  -4.1045  -4.0835  -3.7022  -3.2649
    -3.1732  -3.1535  -3.0448  -2.9802  -2.8394  -2.7941  -2.7825  -2.7615
    -2.7527  -2.6999  -2.5708  -2.5508  -2.5201  -2.5011  -2.4351  -2.4121
    -2.3957  -2.3952  -2.2463  -2.1606  -2.1287  -2.0723  -1.9230  -1.8870
    -1.8617  -1.8394  -1.7752  -1.7582  -1.7156  -1.6646  -1.5610  -1.5265
    -1.5083  -1.4429  -1.4137  -1.3998  -1.3804  -1.3583  -1.3066  -1.2798
    -1.2012  -1.1116  -1.0658  -1.0130  -0.9639  -0.8804  -0.8063  -0.7458
    -0.7049  -0.6851  -0.6426  -0.6231  -0.5686  -0.5545  -0.4918  -0.4754
    -0.3273  -0.2384  -0.2360  -0.2132  -0.1390  -0.0990  -0.0661  -0.0199
     0.0233   0.0769   0.0975   0.2676   0.2969   0.3359   0.3719   0.3859
     0.4448   0.5346   0.5419   0.5965   0.6111   0.6200   0.7040   0.7658
     0.7871   0.8628   0.9461   0.9764   1.0134   1.0683   1.1191   1.1231
     1.1467   1.2356   1.2754   1.2937   1.3262   1.3906   1.5561   1.6098
     1.8905   1.9573   2.5077   3.1579   3.1896   3.4700   3.6368   3.7372
     4.0187   4.0212   4.0872   4.1029   4.2856

          k = 0.0380 0.0419 0.0000 ( 17878 PWs)   bands (ev):

   -56.2578 -56.2341 -55.3748 -55.3507 -55.3329 -55.3073 -55.1497 -55.1248
   -55.0318 -54.9073 -54.8937 -54.8925 -54.8834 -54.8096 -54.3885 -54.3456
   -32.6369 -32.5326 -32.5128 -32.4243 -32.3717 -32.3613 -31.7957 -31.7715
   -31.6366 -31.6147 -31.5846 -31.5735 -31.5526 -31.5412 -31.5353 -31.5250
   -31.5222 -31.4952 -31.4933 -31.4179 -31.4078 -31.3629 -31.3588 -31.3546
   -31.3351 -31.2936 -31.2877 -31.2545 -31.2506 -31.2502 -31.2479 -31.2302
   -31.1355 -31.1101 -31.0999 -31.0884 -31.0693 -31.0514 -31.0430 -31.0317
   -31.0125 -30.9848 -30.8576 -30.6438 -30.6128 -30.5903 -30.5650 -30.4866
   -18.4448 -16.2001 -15.7594 -15.7577 -15.6178 -15.5304 -15.4920 -15.3724
   -15.3334 -15.2318 -15.1409 -15.1001 -15.0718 -15.0679 -14.9679 -14.9038
   -14.7398 -14.7301 -14.7053 -14.6593 -14.6253 -14.5175 -14.4835 -14.4351
   -14.3832 -14.2692 -14.2477 -14.1811 -14.0838 -14.0378 -13.9051 -13.4162
   -13.3425 -12.6489  -7.4279  -6.2307  -4.1088  -4.0847  -3.5245  -3.0985
    -3.0303  -2.9860  -2.8972  -2.8833  -2.7999  -2.7178  -2.6716  -2.6648
    -2.6434  -2.6217  -2.5893  -2.5323  -2.4932  -2.4646  -2.4172  -2.3467
    -2.3123  -2.2737  -2.2613  -2.2335  -2.1643  -2.1114  -2.0675  -2.0394
    -1.9641  -1.9162  -1.8852  -1.8398  -1.7847  -1.7664  -1.7107  -1.6301
    -1.6051  -1.5243  -1.5006  -1.4491  -1.3676  -1.2651  -1.1956  -1.1701
    -1.1093  -1.0834  -1.0522  -0.9757  -0.9523  -0.8597  -0.8094  -0.7635
    -0.7292  -0.7019  -0.6656  -0.5983  -0.5240  -0.4677  -0.4109  -0.3827
    -0.3488  -0.3143  -0.2443  -0.1910  -0.1578  -0.1324  -0.0842  -0.0452
    -0.0277   0.0256   0.0316   0.1059   0.1718   0.2250   0.2628   0.3167
     0.3603   0.4462   0.4653   0.5240   0.5642   0.5999   0.6285   0.6955
     0.7343   0.7525   0.7948   0.8396   0.9885   1.0556   1.0725   1.1004
     1.2340   1.2596   1.3085   1.3592   1.3908   1.4833   1.5303   1.5887
     1.8199   1.9261   2.4957   3.2738   3.4307   3.5239   3.6846   3.8639
     3.9497   4.0032   4.1081   4.1781   4.3149

          k = 0.0380-0.0839 0.0000 ( 17916 PWs)   bands (ev):

   -56.2462 -56.2457 -55.3649 -55.3606 -55.3250 -55.3153 -55.1384 -55.1362
   -55.0308 -54.8954 -54.8953 -54.8948 -54.8907 -54.8115 -54.3847 -54.3495
   -32.5230 -32.5226 -32.5060 -32.5058 -32.3932 -32.3928 -31.6711 -31.6654
   -31.6487 -31.6413 -31.5778 -31.5755 -31.5719 -31.5579 -31.5537 -31.5500
   -31.5089 -31.5038 -31.4963 -31.4797 -31.3839 -31.3818 -31.3466 -31.3440
   -31.3224 -31.2869 -31.2487 -31.2414 -31.2402 -31.2401 -31.2211 -31.1926
   -31.1520 -31.1201 -31.1199 -31.1141 -31.0953 -31.0811 -31.0809 -31.0666
   -31.0459 -31.0142 -30.7672 -30.7048 -30.6102 -30.5868 -30.5685 -30.5233
   -18.4447 -15.9277 -15.9264 -15.5742 -15.5713 -15.4916 -15.4878 -15.3700
   -15.3638 -15.2526 -15.1500 -15.0588 -15.0435 -14.9119 -14.8861 -14.8448
   -14.8203 -14.8095 -14.7709 -14.7395 -14.7326 -14.5163 -14.5104 -14.4478
   -14.4293 -14.2888 -14.2768 -14.1614 -14.1398 -14.0375 -13.9923 -13.4049
   -13.4048 -12.6592  -7.4254  -6.2319  -4.1141  -4.0854  -3.1387  -3.1375
    -2.8195  -2.7829  -2.7825  -2.7603  -2.7581  -2.7431  -2.6888  -2.6561
    -2.6035  -2.5813  -2.5314  -2.4117  -2.3972  -2.3423  -2.3163  -2.3120
    -2.2954  -2.2706  -2.2620  -2.2277  -2.1785  -2.1526  -2.0858  -2.0233
    -1.9799  -1.9618  -1.8237  -1.7957  -1.7612  -1.7581  -1.7142  -1.6823
    -1.6403  -1.5744  -1.5493  -1.5320  -1.4829  -1.4652  -1.2859  -1.2712
    -1.2086  -1.1954  -1.0091  -0.9870  -0.9436  -0.9292  -0.8719  -0.7978
    -0.7772  -0.7323  -0.6749  -0.6395  -0.6214  -0.5229  -0.5083  -0.4108
    -0.3368  -0.3010  -0.2531  -0.2431  -0.2339  -0.1731  -0.1518  -0.0096
     0.0062   0.0641   0.1048   0.1782   0.1962   0.2233   0.2346   0.2567
     0.2922   0.3430   0.3682   0.3844   0.4082   0.4953   0.5454   0.5992
     0.6115   0.7740   0.8571   0.8658   0.8866   1.0473   1.0706   1.1520
     1.1888   1.3293   1.3703   1.4842   1.4861   1.5235   1.5437   1.5820
     1.6120   1.8986   2.4669   3.5303   3.5317   3.6906   3.6924   3.8894
     3.8901   4.0567   4.0743   4.2511   4.2725

          k = 0.0380-0.0419 0.0000 ( 17876 PWs)   bands (ev):

   -56.2578 -56.2341 -55.3748 -55.3507 -55.3329 -55.3073 -55.1497 -55.1248
   -55.0318 -54.9073 -54.8937 -54.8925 -54.8834 -54.8096 -54.3885 -54.3456
   -32.6369 -32.5326 -32.5128 -32.4243 -32.3717 -32.3612 -31.7957 -31.7715
   -31.6366 -31.6147 -31.5846 -31.5735 -31.5526 -31.5412 -31.5352 -31.5250
   -31.5222 -31.4952 -31.4933 -31.4179 -31.4078 -31.3626 -31.3592 -31.3544
   -31.3352 -31.2937 -31.2877 -31.2545 -31.2506 -31.2502 -31.2479 -31.2302
   -31.1355 -31.1101 -31.0999 -31.0884 -31.0693 -31.0514 -31.0428 -31.0318
   -31.0125 -30.9848 -30.8576 -30.6437 -30.6128 -30.5906 -30.5648 -30.4866
   -18.4448 -16.1999 -15.7601 -15.7578 -15.6178 -15.5299 -15.4921 -15.3720
   -15.3336 -15.2319 -15.1409 -15.1002 -15.0720 -15.0684 -14.9673 -14.9037
   -14.7395 -14.7301 -14.7049 -14.6587 -14.6254 -14.5169 -14.4847 -14.4362
   -14.3826 -14.2695 -14.2474 -14.1810 -14.0838 -14.0378 -13.9052 -13.4162
   -13.3425 -12.6489  -7.4279  -6.2308  -4.1088  -4.0848  -3.5239  -3.0973
    -3.0316  -2.9870  -2.8962  -2.8834  -2.7939  -2.7257  -2.6714  -2.6654
    -2.6387  -2.6245  -2.5869  -2.5318  -2.4963  -2.4635  -2.4262  -2.3463
    -2.3112  -2.2801  -2.2560  -2.2333  -2.1612  -2.1080  -2.0663  -2.0407
    -1.9617  -1.9155  -1.8872  -1.8353  -1.7931  -1.7617  -1.7135  -1.6255
    -1.6058  -1.5214  -1.4929  -1.4485  -1.3672  -1.2683  -1.1990  -1.1850
    -1.1103  -1.0833  -1.0665  -0.9803  -0.9265  -0.8584  -0.8135  -0.7639
    -0.7303  -0.6997  -0.6665  -0.5939  -0.5186  -0.4716  -0.4073  -0.3793
    -0.3520  -0.3146  -0.2496  -0.2057  -0.1466  -0.1342  -0.0920  -0.0434
    -0.0257   0.0280   0.0448   0.1220   0.1547   0.2234   0.2668   0.3234
     0.3677   0.4204   0.4647   0.5441   0.5619   0.6020   0.6398   0.6783
     0.7332   0.7517   0.7917   0.8594   0.9793   1.0461   1.0692   1.0975
     1.2280   1.2587   1.3115   1.3588   1.3923   1.4839   1.5299   1.5892
     1.8187   1.9277   2.4973   3.2744   3.4310   3.5240   3.6836   3.8637
     3.9505   4.0026   4.1029   4.1766   4.3134

          k =-0.0760-0.0000 0.0000 ( 17886 PWs)   bands (ev):

   -56.2627 -56.2292 -55.3795 -55.3458 -55.3377 -55.3026 -55.1548 -55.1197
   -55.0329 -54.9122 -54.8943 -54.8926 -54.8784 -54.8078 -54.3917 -54.3423
   -32.6910 -32.5368 -32.5088 -32.4353 -32.3482 -32.3155 -31.8483 -31.8288
   -31.6905 -31.5957 -31.5818 -31.5774 -31.5726 -31.5394 -31.5356 -31.5104
   -31.4888 -31.4791 -31.4605 -31.4447 -31.4307 -31.4088 -31.3528 -31.3327
   -31.3026 -31.2945 -31.2919 -31.2809 -31.2570 -31.2568 -31.2520 -31.2249
   -31.1505 -31.1221 -31.0824 -31.0712 -31.0445 -31.0390 -31.0319 -31.0118
   -30.9812 -30.9281 -30.9051 -30.6352 -30.6174 -30.5822 -30.5605 -30.4525
   -18.4448 -16.1548 -15.8602 -15.8246 -15.6986 -15.6226 -15.4468 -15.3807
   -15.2533 -15.2059 -15.1833 -15.1759 -15.1267 -15.0849 -15.0057 -14.8492
   -14.7997 -14.7447 -14.7342 -14.7018 -14.5885 -14.5812 -14.4243 -14.3108
   -14.2861 -14.2669 -14.2270 -14.1621 -14.0614 -14.0380 -13.8363 -13.4055
   -13.3005 -12.6368  -7.4296  -6.2236  -4.1047  -4.0834  -3.3132  -3.3108
    -3.2042  -3.1785  -2.9022  -2.8983  -2.8364  -2.7731  -2.7459  -2.7243
    -2.6844  -2.6651  -2.5740  -2.4915  -2.4604  -2.4229  -2.3852  -2.3541
    -2.3440  -2.1887  -2.1565  -2.1394  -2.0958  -2.0323  -1.9958  -1.9603
    -1.8354  -1.7925  -1.7676  -1.7614  -1.6747  -1.6413  -1.6304  -1.5626
    -1.5439  -1.4931  -1.3990  -1.3604  -1.3444  -1.3442  -1.3071  -1.2770
    -1.2388  -1.1312  -1.0946  -1.0754  -0.9849  -0.9279  -0.8588  -0.8372
    -0.7991  -0.7334  -0.6253  -0.5998  -0.5792  -0.5388  -0.4365  -0.4232
    -0.4025  -0.3777  -0.3705  -0.3345  -0.2593  -0.1725  -0.1111  -0.0925
    -0.0214   0.0523   0.1057   0.1063   0.2098   0.3042   0.3532   0.3960
     0.4465   0.5035   0.5403   0.5461   0.5719   0.6613   0.7095   0.7643
     0.8089   0.8511   0.8817   0.9139   1.0095   1.0461   1.0605   1.0837
     1.1374   1.1915   1.2245   1.2869   1.3382   1.4270   1.4767   1.5439
     1.6692   1.9570   2.3879   3.1465   3.2820   3.3807   3.4691   3.8250
     3.8699   4.0304   4.1784   4.2015   4.2088

          k =-0.0760 0.0419 0.0000 ( 17914 PWs)   bands (ev):

   -56.2578 -56.2341 -55.3747 -55.3507 -55.3331 -55.3073 -55.1497 -55.1248
   -55.0318 -54.9073 -54.8937 -54.8925 -54.8834 -54.8096 -54.3885 -54.3456
   -32.6377 -32.5327 -32.5129 -32.4229 -32.3720 -32.3612 -31.7961 -31.7766
   -31.6369 -31.5843 -31.5798 -31.5712 -31.5667 -31.5413 -31.5389 -31.5324
   -31.5223 -31.5016 -31.4947 -31.4180 -31.4089 -31.3733 -31.3598 -31.3492
   -31.3350 -31.2881 -31.2792 -31.2545 -31.2523 -31.2504 -31.2465 -31.2295
   -31.1430 -31.1101 -31.1003 -31.0877 -31.0691 -31.0514 -31.0439 -31.0322
   -31.0125 -30.9849 -30.8572 -30.6437 -30.6145 -30.5906 -30.5651 -30.4867
   -18.4446 -16.0413 -15.8151 -15.7557 -15.6227 -15.5552 -15.5205 -15.3293
   -15.3202 -15.2281 -15.1336 -15.0911 -15.0714 -14.9920 -14.9741 -14.9116
   -14.8490 -14.7329 -14.6952 -14.6777 -14.6428 -14.6242 -14.4734 -14.4644
   -14.3999 -14.2618 -14.2385 -14.1737 -14.0844 -14.0377 -13.9053 -13.4144
   -13.3428 -12.6479  -7.4273  -6.2259  -4.1091  -4.0849  -3.1043  -3.0507
    -3.0406  -3.0064  -2.7915  -2.7889  -2.7669  -2.7400  -2.6557  -2.6447
    -2.6072  -2.5798  -2.5602  -2.4288  -2.3870  -2.3715  -2.3270  -2.2694
    -2.2589  -2.2222  -2.1817  -2.1428  -2.1279  -2.0895  -2.0687  -1.9981
    -1.9018  -1.8995  -1.8415  -1.8387  -1.7358  -1.7087  -1.6908  -1.6464
    -1.5811  -1.5541  -1.4685  -1.4038  -1.3857  -1.2960  -1.2645  -1.2574
    -1.2349  -1.1376  -1.0197  -1.0084  -0.9484  -0.9119  -0.8862  -0.8499
    -0.7811  -0.7491  -0.6992  -0.6544  -0.6130  -0.5792  -0.5422  -0.4920
    -0.4443  -0.4234  -0.3363  -0.2914  -0.2726  -0.2179  -0.1565  -0.1235
    -0.0769  -0.0602  -0.0361   0.0031   0.0980   0.1499   0.1614   0.2009
     0.2731   0.3387   0.3686   0.4699   0.5143   0.5565   0.6682   0.6772
     0.7271   0.7558   0.8817   0.9476   1.0583   1.0639   1.1277   1.1773
     1.1996   1.2595   1.3022   1.3977   1.4484   1.4661   1.4764   1.5760
     1.6837   1.9488   2.4729   3.2866   3.4642   3.4703   3.5709   3.9684
     4.0298   4.0358   4.0728   4.2360   4.3187

          k =-0.0760-0.0839 0.0000 ( 17948 PWs)   bands (ev):

   -56.2462 -56.2458 -55.3649 -55.3605 -55.3251 -55.3154 -55.1385 -55.1362
   -55.0308 -54.8955 -54.8953 -54.8949 -54.8907 -54.8115 -54.3847 -54.3495
   -32.5230 -32.5226 -32.5067 -32.5064 -32.3924 -32.3920 -31.6713 -31.6655
   -31.6557 -31.6482 -31.5719 -31.5568 -31.5549 -31.5506 -31.5443 -31.5428
   -31.5370 -31.5283 -31.4965 -31.4800 -31.3840 -31.3819 -31.3483 -31.3425
   -31.3233 -31.2870 -31.2487 -31.2409 -31.2407 -31.2402 -31.2158 -31.1937
   -31.1509 -31.1202 -31.1199 -31.1169 -31.0939 -31.0811 -31.0810 -31.0666
   -31.0496 -31.0142 -30.7672 -30.7047 -30.6111 -30.5868 -30.5694 -30.5233
   -18.4445 -15.7692 -15.7673 -15.7322 -15.7314 -15.4644 -15.4610 -15.3676
   -15.3623 -15.2279 -15.1109 -15.0093 -14.9965 -14.9610 -14.9339 -14.8219
   -14.8011 -14.7920 -14.7819 -14.6702 -14.6501 -14.6048 -14.5937 -14.5773
   -14.5672 -14.2734 -14.2602 -14.1572 -14.1334 -14.0375 -13.9910 -13.4047
   -13.4047 -12.6585  -7.4250  -6.2282  -4.1143  -4.0855  -2.8653  -2.8587
    -2.8192  -2.8040  -2.8031  -2.7385  -2.6386  -2.5981  -2.5971  -2.5891
    -2.5084  -2.4474  -2.4395  -2.3681  -2.3353  -2.3159  -2.2576  -2.2467
    -2.1818  -2.1555  -2.1472  -2.1306  -2.1073  -2.1060  -2.0099  -1.9473
    -1.8954  -1.8920  -1.8244  -1.8064  -1.7423  -1.7215  -1.7099  -1.6781
    -1.6368  -1.6130  -1.5821  -1.5484  -1.5071  -1.4478  -1.2810  -1.2720
    -1.2627  -1.2412  -1.1159  -1.1089  -1.0780  -1.0479  -1.0421  -0.9681
    -0.9182  -0.8833  -0.8256  -0.7423  -0.7198  -0.6181  -0.5670  -0.5206
    -0.4645  -0.3582  -0.3410  -0.3302  -0.3210  -0.2907  -0.2245  -0.1951
    -0.1796  -0.0591  -0.0395   0.0136   0.0347   0.0911   0.1172   0.1821
     0.2087   0.2804   0.2922   0.3312   0.4054   0.4864   0.5209   0.5688
     0.5735   0.8497   0.9235   1.0540   1.0651   1.1214   1.1800   1.2514
     1.3111   1.3435   1.3703   1.4935   1.4978   1.5070   1.5075   1.5789
     1.5840   1.9264   2.5234   3.5902   3.5905   3.6570   3.6577   3.9784
     3.9847   4.0916   4.1019   4.2629   4.2779

     the Fermi energy is     2.8422 ev

!    total energy              =   -2977.74433448 Ry
     estimated scf accuracy    <       0.00000006 Ry
     smearing contrib. (-TS)   =      -0.00445563 Ry
     internal energy E=F+TS    =   -2977.73987886 Ry

     The total energy is F=E-TS. E is the sum of the following terms:
     one-electron contribution =  -22875.85279209 Ry
     hartree contribution      =   11535.62384299 Ry
     xc contribution           =    -496.32041583 Ry
     ewald contribution        =    8858.80838896 Ry
     electric field correction =       0.00109711 Ry

     convergence has been achieved in  75 iterations

     Forces acting on atoms (cartesian axes, Ry/au):

     atom    1 type  1   force =    -0.00003419   -0.00046554    0.12452059
     atom    2 type  1   force =    -0.00008402   -0.00048377   -0.15979232
     atom    3 type  2   force =     0.00019148   -0.00024371   -0.06792360
     atom    4 type  2   force =    -0.00000649   -0.00011711    0.02620911
     atom    5 type  2   force =    -0.01448801    0.00182031   -0.00990882
     atom    6 type  2   force =     0.01626775    0.00224439   -0.01025420
     atom    7 type  1   force =     0.00071532   -0.00387734    0.02889544
     atom    8 type  1   force =    -0.00034829   -0.00440120    0.10954170
     atom    9 type  2   force =     0.00023657   -0.00029235   -0.00051996
     atom   10 type  2   force =    -0.00231398    0.00256557   -0.07336049
     atom   11 type  2   force =    -0.00002761   -0.00033489   -0.00000342
     atom   12 type  2   force =    -0.00015215   -0.00082478    0.00001904
     atom   13 type  1   force =     0.00106637   -0.00040817    0.00011190
     atom   14 type  1   force =    -0.00064660    0.00064705   -0.00010724
     atom   15 type  2   force =    -0.00029324   -0.00039151   -0.00074266
     atom   16 type  2   force =    -0.00001546   -0.00011179    0.00067713
     atom   17 type  2   force =     0.00017447   -0.00090720   -0.00022405
     atom   18 type  2   force =     0.00045518   -0.00050505    0.00011835
     atom   19 type  1   force =    -0.00114269   -0.00009384   -0.00095318
     atom   20 type  1   force =     0.00081172   -0.00024217   -0.00049839
     atom   21 type  2   force =     0.00004641   -0.00003755    0.09945930
     atom   22 type  2   force =     0.00001860   -0.00023792   -0.00044316
     atom   23 type  2   force =    -0.07966957   -0.00005803   -0.03248085
     atom   24 type  2   force =     0.07951383    0.00038124   -0.03253140
     atom   25 type  1   force =    -0.00000535   -0.00057147    0.12417058
     atom   26 type  1   force =    -0.00008638   -0.00062597   -0.15994200
     atom   27 type  2   force =     0.00030005   -0.00036238   -0.06697601
     atom   28 type  2   force =    -0.00002034    0.00015110    0.02512618
     atom   29 type  2   force =    -0.01511037    0.00192866   -0.00984710
     atom   30 type  2   force =     0.01678789    0.00242851   -0.01016169
     atom   31 type  1   force =     0.00074397   -0.00075765    0.02407167
     atom   32 type  1   force =    -0.00027718    0.00204828    0.11016707
     atom   33 type  2   force =     0.00007538    0.00029264    0.00057703
     atom   34 type  2   force =    -0.00193674    0.00199966   -0.07167422
     atom   35 type  2   force =    -0.00002077    0.00034311   -0.00001620
     atom   36 type  2   force =    -0.00053243    0.00060985   -0.00005710
     atom   37 type  1   force =     0.00119994    0.00043060    0.00029626
     atom   38 type  1   force =    -0.00054356   -0.00088447   -0.00022175
     atom   39 type  2   force =    -0.00027523   -0.00014664    0.00090913
     atom   40 type  2   force =     0.00017902   -0.00012913    0.00024337
     atom   41 type  2   force =     0.00104902    0.00014857    0.00014823
     atom   42 type  2   force =    -0.00052075   -0.00024264    0.00052070
     atom   43 type  1   force =    -0.00159894    0.00000393   -0.00027373
     atom   44 type  1   force =     0.00093676   -0.00004308   -0.00041707
     atom   45 type  2   force =     0.00002106   -0.00004699    0.09942123
     atom   46 type  2   force =    -0.07968502    0.00000379   -0.03249292
     atom   47 type  2   force =     0.07953764    0.00043875   -0.03252063
     atom   48 type  3   force =    -0.00082524   -0.00077366    0.00013351
     atom   49 type  3   force =    -0.00035796   -0.00048144    0.00129598
     atom   50 type  4   force =     0.00859266   -0.00239550    0.00110087
     atom   51 type  5   force =    -0.00005625    0.00033917    0.00025987
     atom   52 type  5   force =     0.00070029   -0.00078791    0.00081734
     atom   53 type  5   force =    -0.00927543    0.00247415   -0.00138261
     atom   54 type  5   force =     0.00006118   -0.00022664   -0.00058545
     atom   55 type  5   force =     0.00003687    0.00030790   -0.00029354
     atom   56 type  5   force =     0.00030444    0.00035875   -0.00183346
     atom   57 type  2   force =     0.00161301   -0.00048976   -0.00040081
     atom   58 type  5   force =    -0.00048132    0.00089929    0.00003602
     atom   59 type  5   force =    -0.00080532    0.00013399   -0.00000755

     Total force =     0.423736     Total SCF correction =     0.000834
  @ DRIVER MODE: Message from server: STATUS
  @ DRIVER MODE: Message from server: GETFORCE
  @ DRIVER MODE: Returning v,forces,stress,ensemble 

     Writing output data file ./calc.save/
  @ DRIVER MODE: Message from server: EXIT
  @ DRIVE MODE: Exiting  
 
     init_run     :     11.00s CPU     11.22s WALL (       1 calls)
     electrons    :   1172.70s CPU   1189.87s WALL (       1 calls)
     forces       :      2.49s CPU      2.58s WALL (       1 calls)

     Called by init_run:
     wfcinit      :      4.95s CPU      5.01s WALL (       1 calls)
     potinit      :      5.39s CPU      5.46s WALL (       1 calls)
     hinit0       :      0.30s CPU      0.31s WALL (       1 calls)

     Called by electrons:
     c_bands      :    990.58s CPU    997.57s WALL (      75 calls)
     sum_band     :    123.19s CPU    127.36s WALL (      75 calls)
     v_of_rho     :     43.74s CPU     45.85s WALL (      76 calls)
     newd         :     18.16s CPU     22.08s WALL (      76 calls)
     mix_rho      :      1.62s CPU      1.65s WALL (      75 calls)
     vdW_kernel   :      4.54s CPU      4.56s WALL (       1 calls)

     Called by c_bands:
     init_us_2    :      8.43s CPU      8.47s WALL (    1520 calls)
     cegterg      :    968.80s CPU    975.51s WALL (     761 calls)

     Called by *egterg:
     cdiaghg      :    130.83s CPU    131.34s WALL (    5825 calls)
     h_psi        :    532.74s CPU    537.63s WALL (    5836 calls)
     s_psi        :     69.08s CPU     69.27s WALL (    5836 calls)
     g_psi        :      2.15s CPU      2.17s WALL (    5065 calls)

     Called by h_psi:
     h_psi:calbec :     66.44s CPU     66.74s WALL (    5836 calls)
     vloc_psi     :    392.43s CPU    396.37s WALL (    5836 calls)
     add_vuspsi   :     69.56s CPU     69.97s WALL (    5836 calls)

     General routines
     calbec       :     88.35s CPU     88.71s WALL (    6626 calls)
     fft          :     22.76s CPU     22.91s WALL (    4788 calls)
     ffts         :      0.15s CPU      0.15s WALL (     151 calls)
     fftw         :    439.34s CPU    443.76s WALL ( 1058162 calls)
     interpolate  :      0.46s CPU      0.47s WALL (      76 calls)
     davcio       :      0.00s CPU      0.31s WALL (      10 calls)
 
     Parallel routines
 
     PWSCF        :  19m46.44s CPU  20m 4.53s WALL

 
   This run was terminated on:   3:19:41  16Sep2021            

=------------------------------------------------------------------------------=
   JOB DONE.
=------------------------------------------------------------------------------=
