
     Program PWSCF v.6.7GPU starts on 23Sep2021 at 14:56:14 

     This program is part of the open-source Quantum ESPRESSO suite
     for quantum simulation of materials; please cite
         "P. Giannozzi et al., J. Phys.:Condens. Matter 21 395502 (2009);
         "P. Giannozzi et al., J. Phys.:Condens. Matter 29 465901 (2017);
         "P. Giannozzi et al., J. Chem. Phys. 152 154105 (2020);
          URL http://www.quantum-espresso.org", 
     in publications or presentations arising from this work. More details at
     http://www.quantum-espresso.org/quote

     Parallel version (MPI), running on     8 processors

     MPI processes distributed on     1 nodes
     R & G space division:  proc/nbgrp/npool/nimage =       8
     Reading input from /storage/home/hcoda1/3/ntian30/research/carbon/CxH_vib/H2O_calc/ads_slab/CH3N2HO_c/out_0041/pw.inp
Warning: card &CELL ignored
Warning: card   CELL_DYNAMICS='IPI', ignored
Warning: card / ignored

     Current dimensions of program PWSCF are:
     Max number of different atomic species (ntypx) = 10
     Max number of k-points (npk) =  40000
     Max angular momentum in pseudopotentials (lmaxx) =  3
     Presently no symmetry can be used with electric field

     Message from routine cell_base_init:
     DEPRECATED: use true lattice parameter, not A to a.u. conversion factor

     **************************************************************************
     Initializing libbeef V0.1.2 with the BEEF-vdW functional.
     Citation: Wellendorff et al., PRB 85, 235149 (2012).
     **************************************************************************


     IMPORTANT: XC functional enforced from input :
     Exchange-correlation= BEEF-VDW
                           (   1   4  43  14   2   0   0)
     Any further DFT definition will be discarded
     Please, verify this is what you really want


     Subspace diagonalization in iterative solution of the eigenvalue problem:
     one sub-group per band group will be used
     scalapack distributed-memory algorithm (size of sub-group:  2*  2 procs)

  @ DRIVER MODE: Connecting to 
 qe_1139763_2941007.sched-torque.pace.gatech.eduuok64uqn_scratch
  using UNIX socket
  @ DRIVER MODE: Message from server: STATUS
  @ DRIVER MODE: Message from server: INIT
  @ DRIVER MODE: Receiving replica           0          -1
  @ DRIVER MODE: Receiving encoded integer          25
  @ DRIVER MODE:  SCF:  T  FORCE:  T  STRESS:  F  VC:  F  ENSEMBLE:  F
  @ DRIVER MODE:  SCF:  T  FORCE:  T  STRESS:  F  VC:  F  ENSEMBLE:  F
 
     Parallelization info
     --------------------
     sticks:   dense  smooth     PW     G-vecs:    dense   smooth      PW
     Min         409     164     47                70857    17926    2743
     Max         411     165     48                70858    17931    2751
     Sum        3275    1317    379               566857   143421   21985
 
     Using Slab Decomposition
 


     bravais-lattice index     =            0
     lattice parameter (alat)  =       1.8897  a.u.
     unit-cell volume          =    6658.9804 (a.u.)^3
     number of atoms/cell      =           55
     number of atomic types    =            5
     number of electrons       =       402.00
     number of Kohn-Sham states=          211
     kinetic-energy cutoff     =      29.3995  Ry
     charge density cutoff     =     293.9946  Ry
     scf convergence threshold =      7.3E-08
     mixing beta               =       0.0500
     number of iterations used =            8  plain     mixing
     Exchange-correlation= BEEF-VDW
                           (   1   4  43  14   2   0   0)

     celldm(1)=   1.889726  celldm(2)=   0.000000  celldm(3)=   0.000000
     celldm(4)=   0.000000  celldm(5)=   0.000000  celldm(6)=   0.000000

     crystal axes: (cart. coord. in units of alat)
               a(1) = (   6.579727   0.000000   0.000000 )  
               a(2) = (  -0.000775   5.961596   0.000000 )  
               a(3) = (   0.000000   0.000000  25.155947 )  

     reciprocal axes: (cart. coord. in units 2 pi/alat)
               b(1) = (  0.151982  0.000020  0.000000 )  
               b(2) = (  0.000000  0.167740  0.000000 )  
               b(3) = (  0.000000  0.000000  0.039752 )  


     PseudoPot. # 1 for Ti read from file:
     /storage/coda1/p-amedford6/0/shared/rich_project_chbe-medford/medford-share/data/pseudos_module/espresso/nninc/pbe/van/Ti.UPF
     MD5 check sum: 8e4df49b7f0d34bbd5052bf3f5ea0213
     Pseudo is Ultrasoft, Zval = 12.0
     Generated by new atomic code, or converted to UPF format
     Using radial grid of  851 points,  6 beta functions with: 
                l(1) =   0
                l(2) =   0
                l(3) =   1
                l(4) =   1
                l(5) =   2
                l(6) =   2
     Q(r) pseudized with  8 coefficients,  rinner =    1.000   1.000   1.000
                                                       1.000   1.000

     PseudoPot. # 2 for O  read from file:
     /storage/coda1/p-amedford6/0/shared/rich_project_chbe-medford/medford-share/data/pseudos_module/espresso/nninc/pbe/van/O.UPF
     MD5 check sum: 78c19812648e8988a0fe644b0f25305e
     Pseudo is Ultrasoft, Zval =  6.0
     Generated by new atomic code, or converted to UPF format
     Using radial grid of  737 points,  4 beta functions with: 
                l(1) =   0
                l(2) =   0
                l(3) =   1
                l(4) =   1
     Q(r) pseudized with  8 coefficients,  rinner =    0.800   0.800   0.800


     PseudoPot. # 3 for N  read from file:
     /storage/coda1/p-amedford6/0/shared/rich_project_chbe-medford/medford-share/data/pseudos_module/espresso/nninc/pbe/van/N.UPF
     MD5 check sum: 90d10febe142ad51ac9d5be1deb811c4
     Pseudo is Ultrasoft, Zval =  5.0
     Generated by new atomic code, or converted to UPF format
     Using radial grid of  729 points,  4 beta functions with: 
                l(1) =   0
                l(2) =   0
                l(3) =   1
                l(4) =   1
     Q(r) pseudized with  8 coefficients,  rinner =    0.800   0.800   0.800


     PseudoPot. # 4 for C  read from file:
     /storage/coda1/p-amedford6/0/shared/rich_project_chbe-medford/medford-share/data/pseudos_module/espresso/nninc/pbe/van/C.UPF
     MD5 check sum: 1a69bf6b8db32088f5b2163dbdb77a27
     Pseudo is Ultrasoft, Zval =  4.0
     Generated by new atomic code, or converted to UPF format
     Using radial grid of  721 points,  4 beta functions with: 
                l(1) =   0
                l(2) =   0
                l(3) =   1
                l(4) =   1
     Q(r) pseudized with  8 coefficients,  rinner =    0.800   0.800   0.800


     PseudoPot. # 5 for H  read from file:
     /storage/coda1/p-amedford6/0/shared/rich_project_chbe-medford/medford-share/data/pseudos_module/espresso/nninc/pbe/van/H.UPF
     MD5 check sum: b5ee9d7bfd3a09ee7748110bda690ff7
     Pseudo is Ultrasoft, Zval =  1.0
     Generated by new atomic code, or converted to UPF format
     Using radial grid of  615 points,  1 beta functions with: 
                l(1) =   0
     Q(r) pseudized with  8 coefficients,  rinner =    0.800

     atomic species   valence    mass     pseudopotential
        Ti1           12.00    47.86700     Ti( 1.00)
        O1             6.00    15.99900     O ( 1.00)
        N1             5.00    14.00700     N ( 1.00)
        C1             4.00    12.01100     C ( 1.00)
        H1             1.00     1.00800     H ( 1.00)

     No symmetry found



   Cartesian axes

     site n.     atom                  positions (alat units)
         1           Ti1 tau(   1) = (   0.0004258   2.9801865   6.0000000  )
         2           Ti1 tau(   2) = (   3.2906075   1.4906267   6.0002472  )
         3           O1  tau(   3) = (   0.0006271   0.0005054   7.9858123  )
         4           O1  tau(   4) = (   3.2906025   0.0005020   7.3038282  )
         5           O1  tau(   5) = (   4.5942328   1.4918067   9.2879030  )
         6           O1  tau(   6) = (   1.9868534   1.4903216   9.2879459  )
         7           Ti1 tau(   7) = (   3.2907910   2.8959150   9.1758416  )
         8           Ti1 tau(   8) = (   0.0015273   1.4827037   9.2680791  )
         9           O1  tau(   9) = (   3.2989311   0.0219330  11.3020621  )
        10           O1  tau(  10) = (   0.0116148   5.9584955  10.6183126  )
        11           O1  tau(  11) = (   1.3029919   1.4976758  12.6257209  )
        12           O1  tau(  12) = (   5.3026591   1.4951023  12.6306759  )
        13           Ti1 tau(  13) = (   0.0286689   2.8598525  12.6759356  )
        14           Ti1 tau(  14) = (   3.3054201   1.5706400  12.4108957  )
        15           O1  tau(  15) = (   0.0066217   5.9386728  14.6456674  )
        16           O1  tau(  16) = (   3.2936494   5.9217248  13.9190535  )
        17           O1  tau(  17) = (   4.5783085   1.5227378  16.0725395  )
        18           O1  tau(  18) = (   2.0661487   1.5008106  16.0935948  )
        19           Ti1 tau(  19) = (   3.3004316   2.9577776  15.6622982  )
        20           Ti1 tau(  20) = (   6.5114840   1.4532315  15.8500040  )
        21           O1  tau(  21) = (   3.2904802   0.0005063   4.7018136  )
        22           O1  tau(  22) = (   0.0101108   5.9483577  17.1703567  )
        23           O1  tau(  23) = (   1.3043587   1.4918075   6.0039043  )
        24           O1  tau(  24) = (   5.2767064   1.4903225   6.0039473  )
        25           Ti1 tau(  25) = (   0.0000382   5.9609847   6.0000000  )
        26           Ti1 tau(  26) = (   3.2902200   4.4714249   6.0002472  )
        27           O1  tau(  27) = (   0.0002396   2.9813036   7.9858123  )
        28           O1  tau(  28) = (   3.2902150   2.9813002   7.3038282  )
        29           O1  tau(  29) = (   4.5938453   4.4726049   9.2879030  )
        30           O1  tau(  30) = (   1.9864658   4.4711199   9.2879459  )
        31           Ti1 tau(  31) = (   3.2891106   5.8743827   9.1763621  )
        32           Ti1 tau(  32) = (   0.0006254   4.4649316   9.2693709  )
        33           O1  tau(  33) = (   3.2985377   2.9527140  11.2683515  )
        34           O1  tau(  34) = (   0.0092240   2.9805883  10.6323155  )
        35           O1  tau(  35) = (   1.2869011   4.4751273  12.6337776  )
        36           O1  tau(  36) = (   5.3033013   4.4751711  12.6363117  )
        37           Ti1 tau(  37) = (   6.5677423   5.8343599  12.5653580  )
        38           Ti1 tau(  38) = (   3.2861748   4.6640272  12.6826305  )
        39           O1  tau(  39) = (   0.0268303   2.9326313  14.6927244  )
        40           O1  tau(  40) = (   3.2973518   2.9805258  13.8830516  )
        41           O1  tau(  41) = (   4.5656241   4.3944478  16.1024780  )
        42           O1  tau(  42) = (   2.0389263   4.3990843  16.1000718  )
        43           Ti1 tau(  43) = (   3.2183859   5.9292641  16.3327267  )
        44           Ti1 tau(  44) = (   6.5399727   4.6159235  16.0325440  )
        45           O1  tau(  45) = (   3.2900926   2.9813045   4.7018136  )
        46           O1  tau(  46) = (   1.3039711   4.4726057   6.0039043  )
        47           O1  tau(  47) = (   5.2763189   4.4711207   6.0039473  )
        48           N1  tau(  48) = (   0.1383159   2.7169024  18.7005470  )
        49           N1  tau(  49) = (   0.0454196   2.8879789  17.5111406  )
        50           C1  tau(  50) = (   0.1807782   3.8735959  19.6428767  )
        51           H1  tau(  51) = (   6.4938760   4.8136915  19.1652781  )
        52           H1  tau(  52) = (   6.0945921   3.6282151  20.4682347  )
        53           H1  tau(  53) = (   1.2016282   3.9139503  20.0277151  )
        54           O1  tau(  54) = (   3.2907091   5.9158944  18.1502194  )
        55           H1  tau(  55) = (   3.1351319   0.7410148  18.7017648  )

     number of k points=    10  Fermi-Dirac smearing, width (Ry)=  0.0073
                       cart. coord. in units 2pi/alat
        k(    1) = (   0.0000000   0.0000000   0.0000000), wk =   0.1250000
        k(    2) = (   0.0000000   0.0419351   0.0000000), wk =   0.2500000
        k(    3) = (   0.0000000  -0.0838702   0.0000000), wk =   0.1250000
        k(    4) = (   0.0379955   0.0000049   0.0000000), wk =   0.2500000
        k(    5) = (   0.0379955   0.0419400   0.0000000), wk =   0.2500000
        k(    6) = (   0.0379955  -0.0838652   0.0000000), wk =   0.2500000
        k(    7) = (   0.0379955  -0.0419301   0.0000000), wk =   0.2500000
        k(    8) = (  -0.0759910  -0.0000099   0.0000000), wk =   0.1250000
        k(    9) = (  -0.0759910   0.0419252   0.0000000), wk =   0.2500000
        k(   10) = (  -0.0759910  -0.0838800   0.0000000), wk =   0.1250000

     Dense  grid:   566857 G-vectors     FFT dimensions: (  72,  64, 270)

     Smooth grid:   143421 G-vectors     FFT dimensions: (  45,  40, 180)

     Estimated max dynamical RAM per process >     457.63 MB

     Estimated total dynamical RAM >       3.58 GB
     Cannot read rho : file not found

     Initial potential from superposition of free atoms

     starting charge  385.99915, renormalised to  402.00000

     negative rho (up, down):  1.430E-02 0.000E+00


     %%%%%%%%%%%%%%%%%%%%%%%%%%%%%%%%%%%%%%%%%%%%%%%%%%%%%%%%%%%%%%%%%%%%%%%%
     %                                                                      %
     % You are using vdW-DF, which was implemented by the Thonhauser group. %
     % Please cite the following two papers that made this development      %
     % possible and the two reviews that describe the various versions:     %
     %                                                                      %
     %   T. Thonhauser et al., PRL 115, 136402 (2015).                      %
     %   T. Thonhauser et al., PRB 76, 125112 (2007).                       %
     %   K. Berland et al., Rep. Prog. Phys. 78, 066501 (2015).             %
     %   D.C. Langreth et al., J. Phys.: Condens. Matter 21, 084203 (2009). %
     %                                                                      %
     %                                                                      %
     % If you are calculating the stress with vdW-DF, please also cite:     %
     %                                                                      %
     %   R. Sabatini et al., J. Phys.: Condens. Matter 24, 424209 (2012).   %
     %                                                                      %
     %%%%%%%%%%%%%%%%%%%%%%%%%%%%%%%%%%%%%%%%%%%%%%%%%%%%%%%%%%%%%%%%%%%%%%%%


 
     Adding external electric field

     Computed dipole along edir(3) : 
        Dipole              -12.0415 Ry au,        -30.6064 Debye
        Dipole field         -0.0227 Ry au, 
 
        Potential amp.        2.1065 Ry
        Total length         46.3494 bohr
 
     Starting wfcs are  304 atomic wfcs
  @ DRIVER MODE: Message from server: STATUS
  @ DRIVER MODE: Message from server: POSDATA
  @ DRIVER MODE: Reading and sharing cell 
  @ DRIVER MODE: Reading and sharing positions 
  @ DRIVER MODE: Received positions 

     total cpu time spent up to now is       14.0 secs

     Self-consistent Calculation

     iteration #  1     ecut=    29.40 Ry     beta= 0.05
     Davidson diagonalization with overlap
     c_bands:  5 eigenvalues not converged
     c_bands:  3 eigenvalues not converged
     c_bands:  5 eigenvalues not converged
     c_bands:  5 eigenvalues not converged
     c_bands:  3 eigenvalues not converged
     c_bands:  3 eigenvalues not converged
     c_bands:  2 eigenvalues not converged
     c_bands:  5 eigenvalues not converged
     c_bands:  5 eigenvalues not converged
     ethr =  1.00E-05,  avg # of iterations = 21.3

     negative rho (up, down):  9.004E-03 0.000E+00
 
     Adding external electric field

     Computed dipole along edir(3) : 
        Dipole               51.9967 Ry au,        132.1625 Debye
        Dipole field          0.0981 Ry au, 
 
        Potential amp.       -9.0960 Ry
        Total length         46.3494 bohr
 

     total cpu time spent up to now is       67.2 secs

     total energy              =   -2397.68288794 Ry
     estimated scf accuracy    <    6480.60819799 Ry

     iteration #  2     ecut=    29.40 Ry     beta= 0.05
     Davidson diagonalization with overlap
     ethr =  1.00E-02,  avg # of iterations = 22.7

     negative rho (up, down):  7.681E-04 0.000E+00
 
     Adding external electric field

     Computed dipole along edir(3) : 
        Dipole               -0.9818 Ry au,         -2.4954 Debye
        Dipole field         -0.0019 Ry au, 
 
        Potential amp.        0.1717 Ry
        Total length         46.3494 bohr
 

     total cpu time spent up to now is      164.8 secs

     total energy              =   -2467.59353843 Ry
     estimated scf accuracy    <   72905.25499339 Ry

     iteration #  3     ecut=    29.40 Ry     beta= 0.05
     Davidson diagonalization with overlap
     ethr =  1.00E-02,  avg # of iterations = 16.5

     negative rho (up, down):  8.314E-04 0.000E+00
 
     Adding external electric field

     Computed dipole along edir(3) : 
        Dipole               -3.7630 Ry au,         -9.5647 Debye
        Dipole field         -0.0071 Ry au, 
 
        Potential amp.        0.6583 Ry
        Total length         46.3494 bohr
 

     total cpu time spent up to now is      227.9 secs

     total energy              =   -2961.86267282 Ry
     estimated scf accuracy    <    5538.08111528 Ry

     iteration #  4     ecut=    29.40 Ry     beta= 0.05
     Davidson diagonalization with overlap
     ethr =  1.00E-02,  avg # of iterations = 11.7

     negative rho (up, down):  8.674E-04 0.000E+00
 
     Adding external electric field

     Computed dipole along edir(3) : 
        Dipole               -5.6313 Ry au,        -14.3134 Debye
        Dipole field         -0.0106 Ry au, 
 
        Potential amp.        0.9851 Ry
        Total length         46.3494 bohr
 

     total cpu time spent up to now is      253.0 secs

     total energy              =   -2958.71998890 Ry
     estimated scf accuracy    <    2164.16335414 Ry

     iteration #  5     ecut=    29.40 Ry     beta= 0.05
     Davidson diagonalization with overlap
     c_bands:  5 eigenvalues not converged
     c_bands:  5 eigenvalues not converged
     ethr =  1.00E-02,  avg # of iterations = 11.6

     negative rho (up, down):  9.178E-04 0.000E+00
 
     Adding external electric field

     Computed dipole along edir(3) : 
        Dipole               -6.4940 Ry au,        -16.5062 Debye
        Dipole field         -0.0123 Ry au, 
 
        Potential amp.        1.1360 Ry
        Total length         46.3494 bohr
 

     total cpu time spent up to now is      273.2 secs

     total energy              =   -2960.85873423 Ry
     estimated scf accuracy    <     807.04375828 Ry

     iteration #  6     ecut=    29.40 Ry     beta= 0.05
     Davidson diagonalization with overlap
     ethr =  1.00E-02,  avg # of iterations =  7.7

     negative rho (up, down):  9.161E-04 0.000E+00
 
     Adding external electric field

     Computed dipole along edir(3) : 
        Dipole               -6.0991 Ry au,        -15.5025 Debye
        Dipole field         -0.0115 Ry au, 
 
        Potential amp.        1.0670 Ry
        Total length         46.3494 bohr
 

     total cpu time spent up to now is      292.1 secs

     total energy              =   -2974.22263424 Ry
     estimated scf accuracy    <      46.53384599 Ry

     iteration #  7     ecut=    29.40 Ry     beta= 0.05
     Davidson diagonalization with overlap
     ethr =  1.00E-02,  avg # of iterations =  1.4

     negative rho (up, down):  9.248E-04 0.000E+00
 
     Adding external electric field

     Computed dipole along edir(3) : 
        Dipole               -5.3055 Ry au,        -13.4851 Debye
        Dipole field         -0.0100 Ry au, 
 
        Potential amp.        0.9281 Ry
        Total length         46.3494 bohr
 

     total cpu time spent up to now is      305.0 secs

     total energy              =   -2974.10178148 Ry
     estimated scf accuracy    <      40.60029596 Ry

     iteration #  8     ecut=    29.40 Ry     beta= 0.05
     Davidson diagonalization with overlap
     ethr =  1.00E-02,  avg # of iterations =  1.5

     negative rho (up, down):  9.594E-04 0.000E+00
 
     Adding external electric field

     Computed dipole along edir(3) : 
        Dipole               -3.6580 Ry au,         -9.2976 Debye
        Dipole field         -0.0069 Ry au, 
 
        Potential amp.        0.6399 Ry
        Total length         46.3494 bohr
 

     total cpu time spent up to now is      317.9 secs

     total energy              =   -2974.29558322 Ry
     estimated scf accuracy    <      41.35352514 Ry

     iteration #  9     ecut=    29.40 Ry     beta= 0.05
     Davidson diagonalization with overlap
     ethr =  1.00E-02,  avg # of iterations =  1.0

     negative rho (up, down):  1.228E-03 0.000E+00
 
     Adding external electric field

     Computed dipole along edir(3) : 
        Dipole                1.5082 Ry au,          3.8335 Debye
        Dipole field          0.0028 Ry au, 
 
        Potential amp.       -0.2638 Ry
        Total length         46.3494 bohr
 

     total cpu time spent up to now is      330.5 secs

     total energy              =   -2976.09347833 Ry
     estimated scf accuracy    <      52.04065922 Ry

     iteration # 10     ecut=    29.40 Ry     beta= 0.05
     Davidson diagonalization with overlap
     ethr =  1.00E-02,  avg # of iterations = 12.3

     negative rho (up, down):  1.401E-03 0.000E+00
 
     Adding external electric field

     Computed dipole along edir(3) : 
        Dipole                2.8971 Ry au,          7.3636 Debye
        Dipole field          0.0055 Ry au, 
 
        Potential amp.       -0.5068 Ry
        Total length         46.3494 bohr
 

     total cpu time spent up to now is      353.5 secs

     total energy              =   -3010.82805134 Ry
     estimated scf accuracy    <    2954.93896994 Ry

     iteration # 11     ecut=    29.40 Ry     beta= 0.05
     Davidson diagonalization with overlap
     ethr =  1.00E-02,  avg # of iterations =  2.7

     negative rho (up, down):  1.463E-03 0.000E+00
 
     Adding external electric field

     Computed dipole along edir(3) : 
        Dipole                1.6797 Ry au,          4.2693 Debye
        Dipole field          0.0032 Ry au, 
 
        Potential amp.       -0.2938 Ry
        Total length         46.3494 bohr
 

     total cpu time spent up to now is      367.2 secs

     total energy              =   -2994.01764704 Ry
     estimated scf accuracy    <    3210.30894236 Ry

     iteration # 12     ecut=    29.40 Ry     beta= 0.05
     Davidson diagonalization with overlap
     ethr =  1.00E-02,  avg # of iterations =  1.0

     negative rho (up, down):  1.499E-03 0.000E+00
 
     Adding external electric field

     Computed dipole along edir(3) : 
        Dipole                0.7788 Ry au,          1.9794 Debye
        Dipole field          0.0015 Ry au, 
 
        Potential amp.       -0.1362 Ry
        Total length         46.3494 bohr
 

     total cpu time spent up to now is      379.8 secs

     total energy              =   -2986.27887671 Ry
     estimated scf accuracy    <    2646.27347734 Ry

     iteration # 13     ecut=    29.40 Ry     beta= 0.05
     Davidson diagonalization with overlap
     ethr =  1.00E-02,  avg # of iterations =  1.0

     negative rho (up, down):  1.543E-03 0.000E+00
 
     Adding external electric field

     Computed dipole along edir(3) : 
        Dipole                0.5555 Ry au,          1.4120 Debye
        Dipole field          0.0010 Ry au, 
 
        Potential amp.       -0.0972 Ry
        Total length         46.3494 bohr
 

     total cpu time spent up to now is      392.4 secs

     total energy              =   -2986.86223782 Ry
     estimated scf accuracy    <    2419.73034612 Ry

     iteration # 14     ecut=    29.40 Ry     beta= 0.05
     Davidson diagonalization with overlap
     ethr =  1.00E-02,  avg # of iterations =  1.0

     negative rho (up, down):  1.392E-03 0.000E+00
 
     Adding external electric field

     Computed dipole along edir(3) : 
        Dipole               -0.7312 Ry au,         -1.8586 Debye
        Dipole field         -0.0014 Ry au, 
 
        Potential amp.        0.1279 Ry
        Total length         46.3494 bohr
 

     total cpu time spent up to now is      405.0 secs

     total energy              =   -2974.04481955 Ry
     estimated scf accuracy    <    2575.79634256 Ry

     iteration # 15     ecut=    29.40 Ry     beta= 0.05
     Davidson diagonalization with overlap
     ethr =  1.00E-02,  avg # of iterations =  1.0

     negative rho (up, down):  1.441E-03 0.000E+00
 
     Adding external electric field

     Computed dipole along edir(3) : 
        Dipole               -1.2783 Ry au,         -3.2490 Debye
        Dipole field         -0.0024 Ry au, 
 
        Potential amp.        0.2236 Ry
        Total length         46.3494 bohr
 

     total cpu time spent up to now is      417.6 secs

     total energy              =   -2972.07215003 Ry
     estimated scf accuracy    <    1824.12186085 Ry

     iteration # 16     ecut=    29.40 Ry     beta= 0.05
     Davidson diagonalization with overlap
     ethr =  1.00E-02,  avg # of iterations =  2.0

     negative rho (up, down):  1.321E-03 0.000E+00
 
     Adding external electric field

     Computed dipole along edir(3) : 
        Dipole               -2.2652 Ry au,         -5.7577 Debye
        Dipole field         -0.0043 Ry au, 
 
        Potential amp.        0.3963 Ry
        Total length         46.3494 bohr
 

     total cpu time spent up to now is      431.0 secs

     total energy              =   -2971.23128954 Ry
     estimated scf accuracy    <    1785.37306893 Ry

     iteration # 17     ecut=    29.40 Ry     beta= 0.05
     Davidson diagonalization with overlap
     ethr =  1.00E-02,  avg # of iterations =  2.1

     negative rho (up, down):  1.463E-03 0.000E+00
 
     Adding external electric field

     Computed dipole along edir(3) : 
        Dipole               -2.0821 Ry au,         -5.2922 Debye
        Dipole field         -0.0039 Ry au, 
 
        Potential amp.        0.3642 Ry
        Total length         46.3494 bohr
 

     total cpu time spent up to now is      444.6 secs

     total energy              =   -2969.73907557 Ry
     estimated scf accuracy    <    2017.70133151 Ry

     iteration # 18     ecut=    29.40 Ry     beta= 0.05
     Davidson diagonalization with overlap
     ethr =  1.00E-02,  avg # of iterations =  2.6

     negative rho (up, down):  1.149E-01 0.000E+00
 
     Adding external electric field

     Computed dipole along edir(3) : 
        Dipole              -31.3465 Ry au,        -79.6749 Debye
        Dipole field         -0.0592 Ry au, 
 
        Potential amp.        5.4836 Ry
        Total length         46.3494 bohr
 

     total cpu time spent up to now is      458.4 secs

     total energy              =   -2824.97341490 Ry
     estimated scf accuracy    <    1639.29216232 Ry

     iteration # 19     ecut=    29.40 Ry     beta= 0.05
     Davidson diagonalization with overlap
     ethr =  1.00E-02,  avg # of iterations = 22.7

     negative rho (up, down):  3.452E-02 0.000E+00
 
     Adding external electric field

     Computed dipole along edir(3) : 
        Dipole              -22.9006 Ry au,        -58.2074 Debye
        Dipole field         -0.0432 Ry au, 
 
        Potential amp.        4.0061 Ry
        Total length         46.3494 bohr
 

     total cpu time spent up to now is      549.2 secs

     total energy              =   -3235.15777003 Ry
     estimated scf accuracy    <   89333.95185151 Ry

     iteration # 20     ecut=    29.40 Ry     beta= 0.05
     Davidson diagonalization with overlap
     c_bands:  5 eigenvalues not converged
     c_bands:  5 eigenvalues not converged
     c_bands:  1 eigenvalues not converged
     ethr =  1.00E-02,  avg # of iterations = 18.4

     negative rho (up, down):  8.556E-04 0.000E+00
 
     Adding external electric field

     Computed dipole along edir(3) : 
        Dipole               -8.9684 Ry au,        -22.7955 Debye
        Dipole field         -0.0169 Ry au, 
 
        Potential amp.        1.5689 Ry
        Total length         46.3494 bohr
 

     total cpu time spent up to now is      594.6 secs

     total energy              =   -2862.47881308 Ry
     estimated scf accuracy    <   41286.73876083 Ry

     iteration # 21     ecut=    29.40 Ry     beta= 0.05
     Davidson diagonalization with overlap
     ethr =  1.00E-02,  avg # of iterations = 15.4

     negative rho (up, down):  7.626E-03 0.000E+00
 
     Adding external electric field

     Computed dipole along edir(3) : 
        Dipole               -2.4926 Ry au,         -6.3357 Debye
        Dipole field         -0.0047 Ry au, 
 
        Potential amp.        0.4361 Ry
        Total length         46.3494 bohr
 

     total cpu time spent up to now is      638.9 secs

     total energy              =   -2936.59889996 Ry
     estimated scf accuracy    <    5817.14970373 Ry

     iteration # 22     ecut=    29.40 Ry     beta= 0.05
     Davidson diagonalization with overlap
     ethr =  1.00E-02,  avg # of iterations = 12.7

     negative rho (up, down):  6.579E-03 0.000E+00
 
     Adding external electric field

     Computed dipole along edir(3) : 
        Dipole               -1.8013 Ry au,         -4.5784 Debye
        Dipole field         -0.0034 Ry au, 
 
        Potential amp.        0.3151 Ry
        Total length         46.3494 bohr
 

     total cpu time spent up to now is      669.5 secs

     total energy              =   -2971.90563269 Ry
     estimated scf accuracy    <      66.52325456 Ry

     iteration # 23     ecut=    29.40 Ry     beta= 0.05
     Davidson diagonalization with overlap
     ethr =  1.00E-02,  avg # of iterations =  2.0

     negative rho (up, down):  6.096E-03 0.000E+00
 
     Adding external electric field

     Computed dipole along edir(3) : 
        Dipole               -1.7823 Ry au,         -4.5301 Debye
        Dipole field         -0.0034 Ry au, 
 
        Potential amp.        0.3118 Ry
        Total length         46.3494 bohr
 

     total cpu time spent up to now is      683.0 secs

     total energy              =   -2972.75062070 Ry
     estimated scf accuracy    <      25.36927133 Ry

     iteration # 24     ecut=    29.40 Ry     beta= 0.05
     Davidson diagonalization with overlap
     ethr =  6.31E-03,  avg # of iterations =  1.5

     negative rho (up, down):  4.631E-03 0.000E+00
 
     Adding external electric field

     Computed dipole along edir(3) : 
        Dipole               -1.2964 Ry au,         -3.2952 Debye
        Dipole field         -0.0024 Ry au, 
 
        Potential amp.        0.2268 Ry
        Total length         46.3494 bohr
 

     total cpu time spent up to now is      695.9 secs

     total energy              =   -2971.95090933 Ry
     estimated scf accuracy    <      20.63332613 Ry

     iteration # 25     ecut=    29.40 Ry     beta= 0.05
     Davidson diagonalization with overlap
     ethr =  5.13E-03,  avg # of iterations =  1.3

     negative rho (up, down):  3.183E-03 0.000E+00
 
     Adding external electric field

     Computed dipole along edir(3) : 
        Dipole               -1.0155 Ry au,         -2.5811 Debye
        Dipole field         -0.0019 Ry au, 
 
        Potential amp.        0.1776 Ry
        Total length         46.3494 bohr
 

     total cpu time spent up to now is      708.8 secs

     total energy              =   -2971.79682468 Ry
     estimated scf accuracy    <      15.76457130 Ry

     iteration # 26     ecut=    29.40 Ry     beta= 0.05
     Davidson diagonalization with overlap
     ethr =  3.92E-03,  avg # of iterations =  1.9

     negative rho (up, down):  1.044E-03 0.000E+00
 
     Adding external electric field

     Computed dipole along edir(3) : 
        Dipole               -0.6037 Ry au,         -1.5346 Debye
        Dipole field         -0.0011 Ry au, 
 
        Potential amp.        0.1056 Ry
        Total length         46.3494 bohr
 

     total cpu time spent up to now is      721.9 secs

     total energy              =   -2971.66736262 Ry
     estimated scf accuracy    <      12.05039982 Ry

     iteration # 27     ecut=    29.40 Ry     beta= 0.05
     Davidson diagonalization with overlap
     c_bands:  1 eigenvalues not converged
     c_bands:  1 eigenvalues not converged
     ethr =  3.00E-03,  avg # of iterations =  7.6

     negative rho (up, down):  6.652E-04 0.000E+00
 
     Adding external electric field

     Computed dipole along edir(3) : 
        Dipole               -0.2527 Ry au,         -0.6422 Debye
        Dipole field         -0.0005 Ry au, 
 
        Potential amp.        0.0442 Ry
        Total length         46.3494 bohr
 

     total cpu time spent up to now is      737.7 secs

     total energy              =   -2972.45830539 Ry
     estimated scf accuracy    <       1.67472324 Ry

     iteration # 28     ecut=    29.40 Ry     beta= 0.05
     Davidson diagonalization with overlap
     c_bands:  1 eigenvalues not converged
     ethr =  4.17E-04,  avg # of iterations = 16.8

     negative rho (up, down):  5.225E-04 0.000E+00
 
     Adding external electric field

     Computed dipole along edir(3) : 
        Dipole               -0.0982 Ry au,         -0.2497 Debye
        Dipole field         -0.0002 Ry au, 
 
        Potential amp.        0.0172 Ry
        Total length         46.3494 bohr
 

     total cpu time spent up to now is      765.8 secs

     total energy              =   -2973.44561620 Ry
     estimated scf accuracy    <      27.61207371 Ry

     iteration # 29     ecut=    29.40 Ry     beta= 0.05
     Davidson diagonalization with overlap
     ethr =  4.17E-04,  avg # of iterations =  7.8

     negative rho (up, down):  1.002E-03 0.000E+00
 
     Adding external electric field

     Computed dipole along edir(3) : 
        Dipole               -0.2496 Ry au,         -0.6343 Debye
        Dipole field         -0.0005 Ry au, 
 
        Potential amp.        0.0437 Ry
        Total length         46.3494 bohr
 

     total cpu time spent up to now is      781.7 secs

     total energy              =   -2972.89778885 Ry
     estimated scf accuracy    <      63.82938751 Ry

     iteration # 30     ecut=    29.40 Ry     beta= 0.05
     Davidson diagonalization with overlap
     c_bands:  1 eigenvalues not converged
     ethr =  4.17E-04,  avg # of iterations =  8.0

     negative rho (up, down):  1.325E-03 0.000E+00
 
     Adding external electric field

     Computed dipole along edir(3) : 
        Dipole               -0.3239 Ry au,         -0.8232 Debye
        Dipole field         -0.0006 Ry au, 
 
        Potential amp.        0.0567 Ry
        Total length         46.3494 bohr
 

     total cpu time spent up to now is      797.6 secs

     total energy              =   -2972.97169503 Ry
     estimated scf accuracy    <      13.34771508 Ry

     iteration # 31     ecut=    29.40 Ry     beta= 0.05
     Davidson diagonalization with overlap
     ethr =  4.17E-04,  avg # of iterations =  1.3

     negative rho (up, down):  2.348E-03 0.000E+00
 
     Adding external electric field

     Computed dipole along edir(3) : 
        Dipole               -0.3386 Ry au,         -0.8607 Debye
        Dipole field         -0.0006 Ry au, 
 
        Potential amp.        0.0592 Ry
        Total length         46.3494 bohr
 

     total cpu time spent up to now is      810.5 secs

     total energy              =   -2972.90398255 Ry
     estimated scf accuracy    <       4.42682380 Ry

     iteration # 32     ecut=    29.40 Ry     beta= 0.05
     Davidson diagonalization with overlap
     ethr =  4.17E-04,  avg # of iterations =  4.1

     negative rho (up, down):  3.789E-03 0.000E+00
 
     Adding external electric field

     Computed dipole along edir(3) : 
        Dipole               -0.2807 Ry au,         -0.7136 Debye
        Dipole field         -0.0005 Ry au, 
 
        Potential amp.        0.0491 Ry
        Total length         46.3494 bohr
 

     total cpu time spent up to now is      824.8 secs

     total energy              =   -2972.88883892 Ry
     estimated scf accuracy    <       2.17304302 Ry

     iteration # 33     ecut=    29.40 Ry     beta= 0.05
     Davidson diagonalization with overlap
     ethr =  4.17E-04,  avg # of iterations =  1.2

     negative rho (up, down):  1.180E-02 0.000E+00
 
     Adding external electric field

     Computed dipole along edir(3) : 
        Dipole               -0.0079 Ry au,         -0.0202 Debye
        Dipole field         -0.0000 Ry au, 
 
        Potential amp.        0.0014 Ry
        Total length         46.3494 bohr
 

     total cpu time spent up to now is      837.6 secs

     total energy              =   -2972.81419261 Ry
     estimated scf accuracy    <       1.89826814 Ry

     iteration # 34     ecut=    29.40 Ry     beta= 0.05
     Davidson diagonalization with overlap
     ethr =  4.17E-04,  avg # of iterations =  2.4

     negative rho (up, down):  1.693E-02 0.000E+00
 
     Adding external electric field

     Computed dipole along edir(3) : 
        Dipole                0.0091 Ry au,          0.0232 Debye
        Dipole field          0.0000 Ry au, 
 
        Potential amp.       -0.0016 Ry
        Total length         46.3494 bohr
 

     total cpu time spent up to now is      851.3 secs

     total energy              =   -2972.75987799 Ry
     estimated scf accuracy    <       2.04442093 Ry

     iteration # 35     ecut=    29.40 Ry     beta= 0.05
     Davidson diagonalization with overlap
     ethr =  4.17E-04,  avg # of iterations =  5.0

     negative rho (up, down):  1.703E-02 0.000E+00
 
     Adding external electric field

     Computed dipole along edir(3) : 
        Dipole                0.0672 Ry au,          0.1709 Debye
        Dipole field          0.0001 Ry au, 
 
        Potential amp.       -0.0118 Ry
        Total length         46.3494 bohr
 

     total cpu time spent up to now is      866.1 secs

     total energy              =   -2972.84755689 Ry
     estimated scf accuracy    <       0.82755130 Ry

     iteration # 36     ecut=    29.40 Ry     beta= 0.05
     Davidson diagonalization with overlap
     c_bands:  1 eigenvalues not converged
     c_bands:  1 eigenvalues not converged
     c_bands:  2 eigenvalues not converged
     c_bands:  2 eigenvalues not converged
     c_bands:  1 eigenvalues not converged
     ethr =  2.06E-04,  avg # of iterations = 15.5

     negative rho (up, down):  1.896E-02 0.000E+00
 
     Adding external electric field

     Computed dipole along edir(3) : 
        Dipole                0.0952 Ry au,          0.2419 Debye
        Dipole field          0.0002 Ry au, 
 
        Potential amp.       -0.0167 Ry
        Total length         46.3494 bohr
 

     total cpu time spent up to now is      885.2 secs

     total energy              =   -2972.94155988 Ry
     estimated scf accuracy    <       1.86499142 Ry

     iteration # 37     ecut=    29.40 Ry     beta= 0.05
     Davidson diagonalization with overlap
     ethr =  2.06E-04,  avg # of iterations =  4.1

     negative rho (up, down):  1.719E-02 0.000E+00
 
     Adding external electric field

     Computed dipole along edir(3) : 
        Dipole                0.0367 Ry au,          0.0933 Debye
        Dipole field          0.0001 Ry au, 
 
        Potential amp.       -0.0064 Ry
        Total length         46.3494 bohr
 

     total cpu time spent up to now is      899.6 secs

     total energy              =   -2972.78661142 Ry
     estimated scf accuracy    <       6.57319532 Ry

     iteration # 38     ecut=    29.40 Ry     beta= 0.05
     Davidson diagonalization with overlap
     ethr =  2.06E-04,  avg # of iterations =  5.0

     negative rho (up, down):  6.501E-03 0.000E+00
 
     Adding external electric field

     Computed dipole along edir(3) : 
        Dipole               -0.1780 Ry au,         -0.4523 Debye
        Dipole field         -0.0003 Ry au, 
 
        Potential amp.        0.0311 Ry
        Total length         46.3494 bohr
 

     total cpu time spent up to now is      914.2 secs

     total energy              =   -2972.80267301 Ry
     estimated scf accuracy    <       1.00574531 Ry

     iteration # 39     ecut=    29.40 Ry     beta= 0.05
     Davidson diagonalization with overlap
     ethr =  2.06E-04,  avg # of iterations =  4.5

     negative rho (up, down):  5.844E-03 0.000E+00
 
     Adding external electric field

     Computed dipole along edir(3) : 
        Dipole               -0.2037 Ry au,         -0.5179 Debye
        Dipole field         -0.0004 Ry au, 
 
        Potential amp.        0.0356 Ry
        Total length         46.3494 bohr
 

     total cpu time spent up to now is      929.2 secs

     total energy              =   -2972.85540704 Ry
     estimated scf accuracy    <       3.60552650 Ry

     iteration # 40     ecut=    29.40 Ry     beta= 0.05
     Davidson diagonalization with overlap
     ethr =  2.06E-04,  avg # of iterations =  8.2

     negative rho (up, down):  1.968E-02 0.000E+00
 
     Adding external electric field

     Computed dipole along edir(3) : 
        Dipole                0.1494 Ry au,          0.3797 Debye
        Dipole field          0.0003 Ry au, 
 
        Potential amp.       -0.0261 Ry
        Total length         46.3494 bohr
 

     total cpu time spent up to now is      944.8 secs

     total energy              =   -2972.71603373 Ry
     estimated scf accuracy    <       2.86808761 Ry

     iteration # 41     ecut=    29.40 Ry     beta= 0.05
     Davidson diagonalization with overlap
     c_bands:  1 eigenvalues not converged
     c_bands:  2 eigenvalues not converged
     c_bands:  1 eigenvalues not converged
     ethr =  2.06E-04,  avg # of iterations = 16.7

     negative rho (up, down):  2.310E-02 0.000E+00
 
     Adding external electric field

     Computed dipole along edir(3) : 
        Dipole                0.3166 Ry au,          0.8047 Debye
        Dipole field          0.0006 Ry au, 
 
        Potential amp.       -0.0554 Ry
        Total length         46.3494 bohr
 

     total cpu time spent up to now is      967.7 secs

     total energy              =   -2972.80547699 Ry
     estimated scf accuracy    <       5.69586629 Ry

     iteration # 42     ecut=    29.40 Ry     beta= 0.05
     Davidson diagonalization with overlap
     ethr =  2.06E-04,  avg # of iterations =  5.1

     negative rho (up, down):  1.412E-02 0.000E+00
 
     Adding external electric field

     Computed dipole along edir(3) : 
        Dipole                0.2585 Ry au,          0.6569 Debye
        Dipole field          0.0005 Ry au, 
 
        Potential amp.       -0.0452 Ry
        Total length         46.3494 bohr
 

     total cpu time spent up to now is      982.5 secs

     total energy              =   -2972.75660777 Ry
     estimated scf accuracy    <       3.97975062 Ry

     iteration # 43     ecut=    29.40 Ry     beta= 0.05
     Davidson diagonalization with overlap
     ethr =  2.06E-04,  avg # of iterations =  5.3

     negative rho (up, down):  1.008E-02 0.000E+00
 
     Adding external electric field

     Computed dipole along edir(3) : 
        Dipole                0.3157 Ry au,          0.8025 Debye
        Dipole field          0.0006 Ry au, 
 
        Potential amp.       -0.0552 Ry
        Total length         46.3494 bohr
 

     total cpu time spent up to now is      996.9 secs

     total energy              =   -2972.75581233 Ry
     estimated scf accuracy    <       0.53455886 Ry

     iteration # 44     ecut=    29.40 Ry     beta= 0.05
     Davidson diagonalization with overlap
     ethr =  1.33E-04,  avg # of iterations =  2.4

     negative rho (up, down):  7.107E-03 0.000E+00
 
     Adding external electric field

     Computed dipole along edir(3) : 
        Dipole                0.2763 Ry au,          0.7023 Debye
        Dipole field          0.0005 Ry au, 
 
        Potential amp.       -0.0483 Ry
        Total length         46.3494 bohr
 

     total cpu time spent up to now is     1010.8 secs

     total energy              =   -2972.73404379 Ry
     estimated scf accuracy    <       0.27608815 Ry

     iteration # 45     ecut=    29.40 Ry     beta= 0.05
     Davidson diagonalization with overlap
     c_bands:  2 eigenvalues not converged
     c_bands:  1 eigenvalues not converged
     c_bands:  4 eigenvalues not converged
     c_bands:  2 eigenvalues not converged
     c_bands:  3 eigenvalues not converged
     c_bands:  1 eigenvalues not converged
     c_bands:  1 eigenvalues not converged
     c_bands:  2 eigenvalues not converged
     c_bands:  1 eigenvalues not converged
     ethr =  6.87E-05,  avg # of iterations = 18.8

     negative rho (up, down):  8.022E-03 0.000E+00
 
     Adding external electric field

     Computed dipole along edir(3) : 
        Dipole                0.2482 Ry au,          0.6309 Debye
        Dipole field          0.0005 Ry au, 
 
        Potential amp.       -0.0434 Ry
        Total length         46.3494 bohr
 

     total cpu time spent up to now is     1033.7 secs

     total energy              =   -2972.74859136 Ry
     estimated scf accuracy    <       0.12914564 Ry

     iteration # 46     ecut=    29.40 Ry     beta= 0.05
     Davidson diagonalization with overlap
     c_bands:  1 eigenvalues not converged
     c_bands:  2 eigenvalues not converged
     c_bands:  1 eigenvalues not converged
     ethr =  3.21E-05,  avg # of iterations = 16.4

     negative rho (up, down):  1.236E-02 0.000E+00
 
     Adding external electric field

     Computed dipole along edir(3) : 
        Dipole                0.3069 Ry au,          0.7801 Debye
        Dipole field          0.0006 Ry au, 
 
        Potential amp.       -0.0537 Ry
        Total length         46.3494 bohr
 

     total cpu time spent up to now is     1054.9 secs

     total energy              =   -2972.74349255 Ry
     estimated scf accuracy    <       0.11417052 Ry

     iteration # 47     ecut=    29.40 Ry     beta= 0.05
     Davidson diagonalization with overlap
     c_bands:  1 eigenvalues not converged
     ethr =  2.84E-05,  avg # of iterations = 11.8

     negative rho (up, down):  9.515E-03 0.000E+00
 
     Adding external electric field

     Computed dipole along edir(3) : 
        Dipole                0.3306 Ry au,          0.8403 Debye
        Dipole field          0.0006 Ry au, 
 
        Potential amp.       -0.0578 Ry
        Total length         46.3494 bohr
 

     total cpu time spent up to now is     1073.2 secs

     total energy              =   -2972.74677526 Ry
     estimated scf accuracy    <       0.16340482 Ry

     iteration # 48     ecut=    29.40 Ry     beta= 0.05
     Davidson diagonalization with overlap
     ethr =  2.84E-05,  avg # of iterations =  2.3

     negative rho (up, down):  6.249E-03 0.000E+00
 
     Adding external electric field

     Computed dipole along edir(3) : 
        Dipole                0.4670 Ry au,          1.1869 Debye
        Dipole field          0.0009 Ry au, 
 
        Potential amp.       -0.0817 Ry
        Total length         46.3494 bohr
 

     total cpu time spent up to now is     1086.9 secs

     total energy              =   -2972.74733665 Ry
     estimated scf accuracy    <       0.04371431 Ry

     iteration # 49     ecut=    29.40 Ry     beta= 0.05
     Davidson diagonalization with overlap
     c_bands:  1 eigenvalues not converged
     c_bands:  2 eigenvalues not converged
     c_bands:  2 eigenvalues not converged
     c_bands:  1 eigenvalues not converged
     c_bands:  3 eigenvalues not converged
     c_bands:  3 eigenvalues not converged
     c_bands:  3 eigenvalues not converged
     c_bands:  3 eigenvalues not converged
     c_bands:  1 eigenvalues not converged
     c_bands:  4 eigenvalues not converged
     ethr =  1.09E-05,  avg # of iterations = 20.0

     negative rho (up, down):  8.215E-03 0.000E+00
 
     Adding external electric field

     Computed dipole along edir(3) : 
        Dipole                0.4524 Ry au,          1.1500 Debye
        Dipole field          0.0009 Ry au, 
 
        Potential amp.       -0.0791 Ry
        Total length         46.3494 bohr
 

     total cpu time spent up to now is     1117.1 secs

     total energy              =   -2972.74671613 Ry
     estimated scf accuracy    <       0.14342747 Ry

     iteration # 50     ecut=    29.40 Ry     beta= 0.05
     Davidson diagonalization with overlap
     c_bands:  1 eigenvalues not converged
     c_bands:  1 eigenvalues not converged
     c_bands:  1 eigenvalues not converged
     ethr =  1.09E-05,  avg # of iterations = 15.0

     negative rho (up, down):  8.978E-03 0.000E+00
 
     Adding external electric field

     Computed dipole along edir(3) : 
        Dipole                0.4734 Ry au,          1.2033 Debye
        Dipole field          0.0009 Ry au, 
 
        Potential amp.       -0.0828 Ry
        Total length         46.3494 bohr
 

     total cpu time spent up to now is     1136.3 secs

     total energy              =   -2972.74937874 Ry
     estimated scf accuracy    <       0.03550505 Ry

     iteration # 51     ecut=    29.40 Ry     beta= 0.05
     Davidson diagonalization with overlap
     c_bands:  1 eigenvalues not converged
     c_bands:  1 eigenvalues not converged
     c_bands:  1 eigenvalues not converged
     ethr =  8.83E-06,  avg # of iterations = 10.9

     negative rho (up, down):  1.190E-02 0.000E+00
 
     Adding external electric field

     Computed dipole along edir(3) : 
        Dipole                0.5356 Ry au,          1.3613 Debye
        Dipole field          0.0010 Ry au, 
 
        Potential amp.       -0.0937 Ry
        Total length         46.3494 bohr
 

     total cpu time spent up to now is     1152.4 secs

     total energy              =   -2972.74497916 Ry
     estimated scf accuracy    <       0.03182073 Ry

     iteration # 52     ecut=    29.40 Ry     beta= 0.05
     Davidson diagonalization with overlap
     c_bands:  1 eigenvalues not converged
     c_bands:  1 eigenvalues not converged
     c_bands:  3 eigenvalues not converged
     ethr =  7.92E-06,  avg # of iterations = 15.6

     negative rho (up, down):  1.047E-02 0.000E+00
 
     Adding external electric field

     Computed dipole along edir(3) : 
        Dipole                0.5393 Ry au,          1.3708 Debye
        Dipole field          0.0010 Ry au, 
 
        Potential amp.       -0.0943 Ry
        Total length         46.3494 bohr
 

     total cpu time spent up to now is     1178.0 secs

     total energy              =   -2972.75137679 Ry
     estimated scf accuracy    <       0.02152889 Ry

     iteration # 53     ecut=    29.40 Ry     beta= 0.05
     Davidson diagonalization with overlap
     c_bands:  1 eigenvalues not converged
     ethr =  5.36E-06,  avg # of iterations =  3.8

     negative rho (up, down):  9.637E-03 0.000E+00
 
     Adding external electric field

     Computed dipole along edir(3) : 
        Dipole                0.6026 Ry au,          1.5317 Debye
        Dipole field          0.0011 Ry au, 
 
        Potential amp.       -0.1054 Ry
        Total length         46.3494 bohr
 

     total cpu time spent up to now is     1192.1 secs

     total energy              =   -2972.74780272 Ry
     estimated scf accuracy    <       0.01244763 Ry

     iteration # 54     ecut=    29.40 Ry     beta= 0.05
     Davidson diagonalization with overlap
     c_bands:  1 eigenvalues not converged
     c_bands:  2 eigenvalues not converged
     c_bands:  3 eigenvalues not converged
     c_bands:  2 eigenvalues not converged
     c_bands:  1 eigenvalues not converged
     ethr =  3.10E-06,  avg # of iterations = 16.4

     negative rho (up, down):  1.128E-02 0.000E+00
 
     Adding external electric field

     Computed dipole along edir(3) : 
        Dipole                0.6085 Ry au,          1.5467 Debye
        Dipole field          0.0011 Ry au, 
 
        Potential amp.       -0.1065 Ry
        Total length         46.3494 bohr
 

     total cpu time spent up to now is     1222.7 secs

     total energy              =   -2972.75272839 Ry
     estimated scf accuracy    <       0.03249527 Ry

     iteration # 55     ecut=    29.40 Ry     beta= 0.05
     Davidson diagonalization with overlap
     c_bands:  2 eigenvalues not converged
     ethr =  3.10E-06,  avg # of iterations =  9.2

     negative rho (up, down):  1.310E-02 0.000E+00
 
     Adding external electric field

     Computed dipole along edir(3) : 
        Dipole                0.6064 Ry au,          1.5414 Debye
        Dipole field          0.0011 Ry au, 
 
        Potential amp.       -0.1061 Ry
        Total length         46.3494 bohr
 

     total cpu time spent up to now is     1238.9 secs

     total energy              =   -2972.74936971 Ry
     estimated scf accuracy    <       0.01694436 Ry

     iteration # 56     ecut=    29.40 Ry     beta= 0.05
     Davidson diagonalization with overlap
     c_bands:  1 eigenvalues not converged
     c_bands:  1 eigenvalues not converged
     ethr =  3.10E-06,  avg # of iterations = 12.8

     negative rho (up, down):  1.412E-02 0.000E+00
 
     Adding external electric field

     Computed dipole along edir(3) : 
        Dipole                0.6468 Ry au,          1.6440 Debye
        Dipole field          0.0012 Ry au, 
 
        Potential amp.       -0.1131 Ry
        Total length         46.3494 bohr
 

     total cpu time spent up to now is     1262.4 secs

     total energy              =   -2972.75223857 Ry
     estimated scf accuracy    <       0.00359943 Ry

     iteration # 57     ecut=    29.40 Ry     beta= 0.05
     Davidson diagonalization with overlap
     ethr =  8.95E-07,  avg # of iterations =  7.0

     negative rho (up, down):  1.492E-02 0.000E+00
 
     Adding external electric field

     Computed dipole along edir(3) : 
        Dipole                0.6578 Ry au,          1.6719 Debye
        Dipole field          0.0012 Ry au, 
 
        Potential amp.       -0.1151 Ry
        Total length         46.3494 bohr
 

     total cpu time spent up to now is     1279.1 secs

     total energy              =   -2972.75254274 Ry
     estimated scf accuracy    <       0.00216395 Ry

     iteration # 58     ecut=    29.40 Ry     beta= 0.05
     Davidson diagonalization with overlap
     ethr =  5.38E-07,  avg # of iterations =  5.7

     negative rho (up, down):  1.509E-02 0.000E+00
 
     Adding external electric field

     Computed dipole along edir(3) : 
        Dipole                0.6591 Ry au,          1.6752 Debye
        Dipole field          0.0012 Ry au, 
 
        Potential amp.       -0.1153 Ry
        Total length         46.3494 bohr
 

     total cpu time spent up to now is     1294.3 secs

     total energy              =   -2972.75266724 Ry
     estimated scf accuracy    <       0.00032459 Ry

     iteration # 59     ecut=    29.40 Ry     beta= 0.05
     Davidson diagonalization with overlap
     ethr =  8.07E-08,  avg # of iterations =  7.8

     negative rho (up, down):  1.504E-02 0.000E+00
 
     Adding external electric field

     Computed dipole along edir(3) : 
        Dipole                0.6593 Ry au,          1.6757 Debye
        Dipole field          0.0012 Ry au, 
 
        Potential amp.       -0.1153 Ry
        Total length         46.3494 bohr
 

     total cpu time spent up to now is     1315.8 secs

     total energy              =   -2972.75275592 Ry
     estimated scf accuracy    <       0.00048044 Ry

     iteration # 60     ecut=    29.40 Ry     beta= 0.05
     Davidson diagonalization with overlap
     ethr =  8.07E-08,  avg # of iterations =  1.0

     negative rho (up, down):  1.497E-02 0.000E+00
 
     Adding external electric field

     Computed dipole along edir(3) : 
        Dipole                0.6624 Ry au,          1.6838 Debye
        Dipole field          0.0013 Ry au, 
 
        Potential amp.       -0.1159 Ry
        Total length         46.3494 bohr
 

     total cpu time spent up to now is     1328.3 secs

     total energy              =   -2972.75266329 Ry
     estimated scf accuracy    <       0.00039666 Ry

     iteration # 61     ecut=    29.40 Ry     beta= 0.05
     Davidson diagonalization with overlap
     ethr =  8.07E-08,  avg # of iterations =  8.8

     negative rho (up, down):  1.545E-02 0.000E+00
 
     Adding external electric field

     Computed dipole along edir(3) : 
        Dipole                0.6652 Ry au,          1.6907 Debye
        Dipole field          0.0013 Ry au, 
 
        Potential amp.       -0.1164 Ry
        Total length         46.3494 bohr
 

     total cpu time spent up to now is     1353.7 secs

     total energy              =   -2972.75260130 Ry
     estimated scf accuracy    <       0.00139758 Ry

     iteration # 62     ecut=    29.40 Ry     beta= 0.05
     Davidson diagonalization with overlap
     ethr =  8.07E-08,  avg # of iterations =  8.7

     negative rho (up, down):  1.506E-02 0.000E+00
 
     Adding external electric field

     Computed dipole along edir(3) : 
        Dipole                0.6644 Ry au,          1.6888 Debye
        Dipole field          0.0013 Ry au, 
 
        Potential amp.       -0.1162 Ry
        Total length         46.3494 bohr
 

     total cpu time spent up to now is     1377.0 secs

     total energy              =   -2972.75278183 Ry
     estimated scf accuracy    <       0.00011505 Ry

     iteration # 63     ecut=    29.40 Ry     beta= 0.05
     Davidson diagonalization with overlap
     ethr =  2.86E-08,  avg # of iterations =  6.0

     negative rho (up, down):  1.493E-02 0.000E+00
 
     Adding external electric field

     Computed dipole along edir(3) : 
        Dipole                0.6622 Ry au,          1.6830 Debye
        Dipole field          0.0012 Ry au, 
 
        Potential amp.       -0.1158 Ry
        Total length         46.3494 bohr
 

     total cpu time spent up to now is     1394.9 secs

     total energy              =   -2972.75280391 Ry
     estimated scf accuracy    <       0.00006784 Ry

     iteration # 64     ecut=    29.40 Ry     beta= 0.05
     Davidson diagonalization with overlap
     ethr =  1.69E-08,  avg # of iterations =  2.0

     negative rho (up, down):  1.491E-02 0.000E+00
 
     Adding external electric field

     Computed dipole along edir(3) : 
        Dipole                0.6593 Ry au,          1.6759 Debye
        Dipole field          0.0012 Ry au, 
 
        Potential amp.       -0.1153 Ry
        Total length         46.3494 bohr
 

     total cpu time spent up to now is     1408.4 secs

     total energy              =   -2972.75280610 Ry
     estimated scf accuracy    <       0.00004864 Ry

     iteration # 65     ecut=    29.40 Ry     beta= 0.05
     Davidson diagonalization with overlap
     ethr =  1.21E-08,  avg # of iterations =  6.2

     negative rho (up, down):  1.488E-02 0.000E+00
 
     Adding external electric field

     Computed dipole along edir(3) : 
        Dipole                0.6600 Ry au,          1.6775 Debye
        Dipole field          0.0012 Ry au, 
 
        Potential amp.       -0.1155 Ry
        Total length         46.3494 bohr
 

     total cpu time spent up to now is     1428.0 secs

     total energy              =   -2972.75282300 Ry
     estimated scf accuracy    <       0.00002751 Ry

     iteration # 66     ecut=    29.40 Ry     beta= 0.05
     Davidson diagonalization with overlap
     ethr =  6.84E-09,  avg # of iterations =  3.2

     negative rho (up, down):  1.486E-02 0.000E+00
 
     Adding external electric field

     Computed dipole along edir(3) : 
        Dipole                0.6621 Ry au,          1.6830 Debye
        Dipole field          0.0012 Ry au, 
 
        Potential amp.       -0.1158 Ry
        Total length         46.3494 bohr
 

     total cpu time spent up to now is     1442.1 secs

     total energy              =   -2972.75282744 Ry
     estimated scf accuracy    <       0.00002023 Ry

     iteration # 67     ecut=    29.40 Ry     beta= 0.05
     Davidson diagonalization with overlap
     ethr =  5.03E-09,  avg # of iterations =  8.6

     negative rho (up, down):  1.484E-02 0.000E+00
 
     Adding external electric field

     Computed dipole along edir(3) : 
        Dipole                0.6612 Ry au,          1.6805 Debye
        Dipole field          0.0012 Ry au, 
 
        Potential amp.       -0.1157 Ry
        Total length         46.3494 bohr
 

     total cpu time spent up to now is     1465.3 secs

     total energy              =   -2972.75283752 Ry
     estimated scf accuracy    <       0.00006986 Ry

     iteration # 68     ecut=    29.40 Ry     beta= 0.05
     Davidson diagonalization with overlap
     ethr =  5.03E-09,  avg # of iterations =  6.6

     negative rho (up, down):  1.492E-02 0.000E+00
 
     Adding external electric field

     Computed dipole along edir(3) : 
        Dipole                0.6611 Ry au,          1.6804 Debye
        Dipole field          0.0012 Ry au, 
 
        Potential amp.       -0.1157 Ry
        Total length         46.3494 bohr
 

     total cpu time spent up to now is     1483.5 secs

     total energy              =   -2972.75284641 Ry
     estimated scf accuracy    <       0.00001727 Ry

     iteration # 69     ecut=    29.40 Ry     beta= 0.05
     Davidson diagonalization with overlap
     ethr =  4.30E-09,  avg # of iterations =  1.9

     negative rho (up, down):  1.492E-02 0.000E+00
 
     Adding external electric field

     Computed dipole along edir(3) : 
        Dipole                0.6607 Ry au,          1.6793 Debye
        Dipole field          0.0012 Ry au, 
 
        Potential amp.       -0.1156 Ry
        Total length         46.3494 bohr
 

     total cpu time spent up to now is     1497.1 secs

     total energy              =   -2972.75285138 Ry
     estimated scf accuracy    <       0.00000739 Ry

     iteration # 70     ecut=    29.40 Ry     beta= 0.05
     Davidson diagonalization with overlap
     ethr =  1.84E-09,  avg # of iterations =  6.0

     negative rho (up, down):  1.488E-02 0.000E+00
 
     Adding external electric field

     Computed dipole along edir(3) : 
        Dipole                0.6606 Ry au,          1.6792 Debye
        Dipole field          0.0012 Ry au, 
 
        Potential amp.       -0.1156 Ry
        Total length         46.3494 bohr
 

     total cpu time spent up to now is     1517.4 secs

     total energy              =   -2972.75285782 Ry
     estimated scf accuracy    <       0.00000432 Ry

     iteration # 71     ecut=    29.40 Ry     beta= 0.05
     Davidson diagonalization with overlap
     ethr =  1.07E-09,  avg # of iterations =  1.4

     negative rho (up, down):  1.485E-02 0.000E+00
 
     Adding external electric field

     Computed dipole along edir(3) : 
        Dipole                0.6610 Ry au,          1.6802 Debye
        Dipole field          0.0012 Ry au, 
 
        Potential amp.       -0.1156 Ry
        Total length         46.3494 bohr
 

     total cpu time spent up to now is     1530.4 secs

     total energy              =   -2972.75286180 Ry
     estimated scf accuracy    <       0.00000282 Ry

     iteration # 72     ecut=    29.40 Ry     beta= 0.05
     Davidson diagonalization with overlap
     ethr =  7.02E-10,  avg # of iterations =  7.6

     negative rho (up, down):  1.489E-02 0.000E+00
 
     Adding external electric field

     Computed dipole along edir(3) : 
        Dipole                0.6610 Ry au,          1.6800 Debye
        Dipole field          0.0012 Ry au, 
 
        Potential amp.       -0.1156 Ry
        Total length         46.3494 bohr
 

     total cpu time spent up to now is     1552.1 secs

     total energy              =   -2972.75286652 Ry
     estimated scf accuracy    <       0.00000395 Ry

     iteration # 73     ecut=    29.40 Ry     beta= 0.05
     Davidson diagonalization with overlap
     ethr =  7.02E-10,  avg # of iterations =  5.4

     negative rho (up, down):  1.490E-02 0.000E+00
 
     Adding external electric field

     Computed dipole along edir(3) : 
        Dipole                0.6611 Ry au,          1.6803 Debye
        Dipole field          0.0012 Ry au, 
 
        Potential amp.       -0.1156 Ry
        Total length         46.3494 bohr
 

     total cpu time spent up to now is     1571.0 secs

     total energy              =   -2972.75287095 Ry
     estimated scf accuracy    <       0.00000085 Ry

     iteration # 74     ecut=    29.40 Ry     beta= 0.05
     Davidson diagonalization with overlap
     ethr =  2.12E-10,  avg # of iterations =  5.6

     negative rho (up, down):  1.489E-02 0.000E+00
 
     Adding external electric field

     Computed dipole along edir(3) : 
        Dipole                0.6614 Ry au,          1.6810 Debye
        Dipole field          0.0012 Ry au, 
 
        Potential amp.       -0.1157 Ry
        Total length         46.3494 bohr
 

     total cpu time spent up to now is     1586.6 secs

     total energy              =   -2972.75287415 Ry
     estimated scf accuracy    <       0.00000078 Ry

     iteration # 75     ecut=    29.40 Ry     beta= 0.05
     Davidson diagonalization with overlap
     ethr =  1.93E-10,  avg # of iterations =  2.8

     negative rho (up, down):  1.490E-02 0.000E+00
 
     Adding external electric field

     Computed dipole along edir(3) : 
        Dipole                0.6617 Ry au,          1.6818 Debye
        Dipole field          0.0012 Ry au, 
 
        Potential amp.       -0.1157 Ry
        Total length         46.3494 bohr
 

     total cpu time spent up to now is     1601.8 secs

     total energy              =   -2972.75287709 Ry
     estimated scf accuracy    <       0.00000030 Ry

     iteration # 76     ecut=    29.40 Ry     beta= 0.05
     Davidson diagonalization with overlap
     ethr =  7.36E-11,  avg # of iterations =  5.9

     negative rho (up, down):  1.490E-02 0.000E+00
 
     Adding external electric field

     Computed dipole along edir(3) : 
        Dipole                0.6616 Ry au,          1.6817 Debye
        Dipole field          0.0012 Ry au, 
 
        Potential amp.       -0.1157 Ry
        Total length         46.3494 bohr
 

     total cpu time spent up to now is     1622.0 secs

     total energy              =   -2972.75287982 Ry
     estimated scf accuracy    <       0.00000022 Ry

     iteration # 77     ecut=    29.40 Ry     beta= 0.05
     Davidson diagonalization with overlap
     ethr =  5.54E-11,  avg # of iterations =  3.5

     negative rho (up, down):  1.489E-02 0.000E+00
 
     Adding external electric field

     Computed dipole along edir(3) : 
        Dipole                0.6615 Ry au,          1.6815 Debye
        Dipole field          0.0012 Ry au, 
 
        Potential amp.       -0.1157 Ry
        Total length         46.3494 bohr
 

     total cpu time spent up to now is     1636.4 secs

     total energy              =   -2972.75288225 Ry
     estimated scf accuracy    <       0.00000010 Ry

     iteration # 78     ecut=    29.40 Ry     beta= 0.05
     Davidson diagonalization with overlap
     ethr =  2.43E-11,  avg # of iterations =  5.8

     negative rho (up, down):  1.492E-02 0.000E+00
 
     Adding external electric field

     Computed dipole along edir(3) : 
        Dipole                0.6610 Ry au,          1.6802 Debye
        Dipole field          0.0012 Ry au, 
 
        Potential amp.       -0.1156 Ry
        Total length         46.3494 bohr
 

     total cpu time spent up to now is     1655.3 secs

     End of self-consistent calculation

          k = 0.0000 0.0000 0.0000 ( 18029 PWs)   bands (ev):

   -56.1974 -56.1636 -55.7818 -55.7482 -55.5636 -55.5410 -55.4912 -55.3402
   -55.3044 -55.3020 -55.1596 -55.1463 -55.0183 -54.9962 -54.9681 -54.9341
   -32.6477 -32.4898 -32.4629 -32.3559 -32.2719 -32.2633 -32.2614 -32.0251
   -32.0006 -31.9808 -31.9288 -31.9237 -31.9079 -31.8889 -31.8377 -31.8123
   -31.7729 -31.7634 -31.7617 -31.7179 -31.7005 -31.6914 -31.6764 -31.6490
   -31.6280 -31.6162 -31.5461 -31.5202 -31.5125 -31.5113 -31.4904 -31.4567
   -31.4258 -31.3927 -31.3648 -31.3544 -31.3495 -31.3013 -31.2777 -31.2751
   -31.2477 -31.2316 -31.2304 -31.2282 -31.2075 -31.1833 -31.0988 -30.9870
   -18.8033 -16.4900 -16.4467 -16.1542 -15.9448 -15.7724 -15.6852 -15.6762
   -15.6284 -15.5073 -15.4912 -15.3827 -15.2949 -15.2205 -15.1917 -15.1862
   -15.0950 -15.0496 -15.0037 -14.9789 -14.9701 -14.9584 -14.9299 -14.8227
   -14.8171 -14.7866 -14.6902 -14.6732 -14.5732 -14.2779 -14.2601 -13.4659
   -13.3537 -11.4418  -6.8918  -4.3493  -4.1954  -3.9999  -3.9814  -3.9387
    -3.7024  -3.4901  -3.4024  -3.2366  -3.1887  -3.1066  -2.9113  -2.9019
    -2.8484  -2.7768  -2.7003  -2.6414  -2.5950  -2.5790  -2.4822  -2.4458
    -2.4250  -2.4225  -2.3870  -2.3712  -2.2473  -2.2436  -2.2131  -2.1633
    -2.1060  -2.0897  -2.0236  -2.0149  -1.9982  -1.9503  -1.9093  -1.8666
    -1.7990  -1.7846  -1.6482  -1.6216  -1.6138  -1.5358  -1.5098  -1.5020
    -1.4486  -1.2899  -1.2197  -1.1715  -1.1677  -1.0323  -1.0209  -0.9773
    -0.9012  -0.8622  -0.7740  -0.7716  -0.7582  -0.7398  -0.6593  -0.6267
    -0.6151  -0.5833  -0.4004  -0.3691  -0.3094  -0.2578  -0.1576  -0.1138
    -0.1071  -0.0985  -0.0588  -0.0046   0.0175   0.0318   0.1311   0.1511
     0.1988   0.2807   0.3154   0.3892   0.4082   0.4098   0.4221   0.4771
     0.5657   0.6608   0.7037   0.7190   0.7881   0.8032   0.9394   0.9532
     1.0562   1.0984   1.1091   1.1700   1.2874   1.5730   1.6044   1.6436
     2.7614   3.0292   3.1569   3.3145   3.4612   3.5589   3.8575   3.8962
     3.9346   3.9607   4.0051

          k = 0.0000 0.0419 0.0000 ( 17933 PWs)   bands (ev):

   -56.1924 -56.1685 -55.7768 -55.7530 -55.5632 -55.5379 -55.4942 -55.3354
   -55.3091 -55.3023 -55.1586 -55.1453 -55.0192 -54.9971 -54.9630 -54.9390
   -32.5940 -32.4854 -32.4658 -32.3424 -32.3281 -32.2769 -32.2102 -31.9886
   -31.9726 -31.9719 -31.9573 -31.9358 -31.9218 -31.8816 -31.8116 -31.7839
   -31.7696 -31.7601 -31.7542 -31.7153 -31.7035 -31.6997 -31.6915 -31.6380
   -31.6020 -31.5962 -31.5464 -31.5425 -31.5288 -31.5191 -31.5134 -31.4920
   -31.4213 -31.3923 -31.3533 -31.3456 -31.3114 -31.3021 -31.2977 -31.2809
   -31.2712 -31.2510 -31.2337 -31.2302 -31.2279 -31.1710 -31.1111 -31.0438
   -18.8019 -16.4432 -16.3665 -16.0348 -15.8402 -15.7620 -15.6899 -15.5787
   -15.5728 -15.5686 -15.4527 -15.3650 -15.3333 -15.2802 -15.2083 -15.1618
   -15.1366 -15.0894 -15.0549 -15.0034 -14.9511 -14.9343 -14.9217 -14.8718
   -14.8650 -14.7322 -14.7202 -14.7022 -14.6336 -14.3693 -14.3172 -13.4721
   -13.3944 -11.4409  -6.9000  -4.3237  -4.1940  -3.9781  -3.9332  -3.8186
    -3.5260  -3.3355  -3.2369  -3.1212  -3.0810  -2.9813  -2.8860  -2.8703
    -2.8555  -2.7137  -2.6577  -2.6174  -2.5787  -2.5617  -2.5530  -2.5097
    -2.4753  -2.4591  -2.4383  -2.4040  -2.3715  -2.3587  -2.3455  -2.2933
    -2.2365  -2.1981  -2.1405  -2.0964  -2.0466  -2.0059  -1.8974  -1.8424
    -1.7459  -1.7127  -1.6386  -1.6198  -1.5489  -1.4789  -1.4209  -1.4054
    -1.2949  -1.2188  -1.1252  -1.0662  -1.0393  -0.9942  -0.9673  -0.9155
    -0.8348  -0.8288  -0.7769  -0.7236  -0.6871  -0.6289  -0.6119  -0.5548
    -0.5311  -0.5044  -0.4607  -0.4049  -0.3548  -0.3300  -0.2564  -0.2062
    -0.1676  -0.1449  -0.0837  -0.0663  -0.0407  -0.0058   0.0833   0.0988
     0.1454   0.2018   0.2115   0.3135   0.3228   0.3624   0.3967   0.4204
     0.4543   0.5088   0.5444   0.6197   0.6711   0.7224   0.7309   0.7718
     0.9012   0.9911   1.0680   1.2693   1.3938   1.4430   1.5573   1.5795
     2.7582   3.2609   3.3034   3.4192   3.6058   3.7653   3.7715   3.8794
     3.8817   3.9742   4.0061

          k = 0.0000-0.0839 0.0000 ( 17884 PWs)   bands (ev):

   -56.1805 -56.1803 -55.7656 -55.7641 -55.5628 -55.5343 -55.4977 -55.3275
   -55.3169 -55.3025 -55.1576 -55.1443 -55.0201 -54.9980 -54.9511 -54.9509
   -32.4753 -32.4751 -32.4625 -32.4623 -32.3099 -32.3094 -32.0855 -32.0819
   -31.9598 -31.9551 -31.9545 -31.9521 -31.8547 -31.8505 -31.8255 -31.8113
   -31.7662 -31.7563 -31.7431 -31.7144 -31.7116 -31.6785 -31.6576 -31.6447
   -31.5944 -31.5837 -31.5712 -31.5593 -31.5390 -31.5338 -31.5230 -31.4973
   -31.4183 -31.3919 -31.3630 -31.3520 -31.3480 -31.2931 -31.2891 -31.2890
   -31.2797 -31.2410 -31.2298 -31.2292 -31.1797 -31.1793 -31.1414 -31.1410
   -18.8006 -16.4401 -16.0655 -16.0592 -15.7606 -15.7395 -15.6403 -15.5841
   -15.5113 -15.4943 -15.4245 -15.4243 -15.3297 -15.3178 -15.2532 -15.2510
   -15.2002 -15.1452 -15.0458 -15.0084 -14.9993 -14.9663 -14.8418 -14.8292
   -14.8111 -14.7896 -14.7686 -14.7017 -14.6514 -14.5091 -14.3986 -13.4574
   -13.4568 -11.4401  -6.9081  -4.2986  -4.1931  -3.9746  -3.9353  -3.3713
    -3.3712  -3.1068  -3.0962  -3.0113  -2.9684  -2.9209  -2.9166  -2.8840
    -2.8659  -2.8216  -2.7726  -2.7326  -2.7227  -2.6638  -2.6391  -2.5795
    -2.5760  -2.5017  -2.4658  -2.4458  -2.3694  -2.3048  -2.2758  -2.2637
    -2.2333  -2.1562  -2.1208  -2.1070  -2.0421  -1.8889  -1.8165  -1.7348
    -1.7006  -1.6454  -1.6005  -1.5825  -1.5017  -1.4384  -1.3707  -1.3579
    -1.2976  -1.2352  -1.1615  -1.0841  -1.0510  -1.0285  -0.9825  -0.9391
    -0.8881  -0.8423  -0.8077  -0.7777  -0.6864  -0.6374  -0.5531  -0.5407
    -0.4776  -0.4744  -0.4385  -0.3805  -0.3415  -0.3011  -0.2714  -0.2330
    -0.2267  -0.1347  -0.1208  -0.0990   0.0020   0.0293   0.0465   0.0729
     0.0881   0.1171   0.1311   0.1880   0.2222   0.2679   0.3057   0.3498
     0.3624   0.3937   0.4121   0.4614   0.4977   0.5718   0.6147   0.6701
     0.8386   0.9650   1.1962   1.2732   1.4115   1.4217   1.4976   1.5023
     2.7859   3.4990   3.5028   3.6371   3.6387   3.7507   3.7509   3.8857
     3.8965   3.9026   3.9322

          k = 0.0380 0.0000 0.0000 ( 17913 PWs)   bands (ev):

   -56.1973 -56.1635 -55.7816 -55.7481 -55.5635 -55.5409 -55.4911 -55.3400
   -55.3043 -55.3019 -55.1596 -55.1462 -55.0182 -54.9961 -54.9680 -54.9340
   -32.6484 -32.4896 -32.4628 -32.3536 -32.2716 -32.2631 -32.2615 -32.0371
   -32.0004 -31.9694 -31.9237 -31.9153 -31.9091 -31.8886 -31.8398 -31.8121
   -31.7731 -31.7703 -31.7632 -31.7178 -31.7005 -31.6914 -31.6764 -31.6487
   -31.6286 -31.6080 -31.5459 -31.5181 -31.5094 -31.5087 -31.4903 -31.4571
   -31.4257 -31.3961 -31.3643 -31.3590 -31.3495 -31.3040 -31.2758 -31.2750
   -31.2475 -31.2325 -31.2318 -31.2282 -31.2074 -31.1831 -31.0987 -30.9867
   -18.8031 -16.4443 -16.3941 -16.0607 -15.8832 -15.8011 -15.7861 -15.6773
   -15.5964 -15.5337 -15.4507 -15.3747 -15.3249 -15.2966 -15.2393 -15.2004
   -15.1269 -15.1150 -15.0743 -14.9984 -14.9465 -14.9188 -14.8887 -14.8352
   -14.8190 -14.7225 -14.6908 -14.6741 -14.6153 -14.2750 -14.2592 -13.4630
   -13.3534 -11.4413  -6.8884  -4.3326  -4.1918  -3.9946  -3.9396  -3.7181
    -3.5506  -3.3664  -3.2124  -3.1852  -3.1558  -3.0730  -3.0130  -3.0114
    -2.9128  -2.7734  -2.7207  -2.6745  -2.6274  -2.5729  -2.5293  -2.4572
    -2.4271  -2.3942  -2.3853  -2.3158  -2.2609  -2.2250  -2.1252  -2.0800
    -2.0640  -2.0353  -1.9839  -1.9380  -1.8599  -1.8386  -1.8214  -1.7794
    -1.7549  -1.6870  -1.5834  -1.5458  -1.5374  -1.5287  -1.5065  -1.4737
    -1.4359  -1.4003  -1.3719  -1.2154  -1.1798  -1.0903  -1.0739  -0.9644
    -0.9315  -0.9124  -0.8965  -0.8331  -0.7862  -0.7650  -0.7444  -0.6935
    -0.6391  -0.5241  -0.5128  -0.4808  -0.3593  -0.3039  -0.2667  -0.1789
    -0.1509  -0.1370  -0.0503  -0.0138   0.0412   0.0856   0.1125   0.1602
     0.1737   0.2328   0.2454   0.2816   0.2983   0.3721   0.3899   0.4611
     0.4759   0.5267   0.6407   0.6529   0.7523   0.7937   0.8401   0.9289
     0.9439   1.0412   1.0681   1.1103   1.2582   1.4468   1.4976   1.5627
     2.7799   3.1295   3.1388   3.4505   3.4616   3.6057   3.7782   3.8201
     3.8865   4.0440   4.0791

          k = 0.0380 0.0419 0.0000 ( 17878 PWs)   bands (ev):

   -56.1923 -56.1685 -55.7767 -55.7530 -55.5631 -55.5378 -55.4942 -55.3353
   -55.3090 -55.3022 -55.1586 -55.1452 -55.0191 -54.9970 -54.9630 -54.9390
   -32.5947 -32.4852 -32.4659 -32.3405 -32.3281 -32.2765 -32.2104 -31.9917
   -31.9884 -31.9640 -31.9570 -31.9219 -31.9135 -31.8827 -31.8116 -31.7860
   -31.7675 -31.7640 -31.7599 -31.7151 -31.7027 -31.7014 -31.6915 -31.6380
   -31.5990 -31.5932 -31.5479 -31.5425 -31.5250 -31.5140 -31.5134 -31.4920
   -31.4212 -31.3951 -31.3575 -31.3457 -31.3111 -31.3019 -31.2998 -31.2799
   -31.2711 -31.2508 -31.2340 -31.2326 -31.2285 -31.1709 -31.1111 -31.0437
   -18.8018 -16.4414 -16.2775 -15.9495 -15.7956 -15.7858 -15.7088 -15.6908
   -15.5016 -15.4802 -15.4250 -15.4239 -15.3692 -15.2930 -15.2588 -15.1878
   -15.1376 -15.1057 -15.0723 -15.0006 -14.9944 -14.9480 -14.9309 -14.9066
   -14.7974 -14.7890 -14.7406 -14.6850 -14.6489 -14.3656 -14.3171 -13.4701
   -13.3946 -11.4406  -6.8978  -4.3138  -4.2002  -3.9822  -3.9306  -3.5410
    -3.3867  -3.2092  -3.0665  -3.0467  -3.0111  -2.9249  -2.9029  -2.8271
    -2.7437  -2.7304  -2.6639  -2.6357  -2.5980  -2.5851  -2.5393  -2.5188
    -2.4814  -2.4309  -2.4162  -2.3667  -2.3321  -2.3083  -2.2669  -2.2428
    -2.1760  -2.1385  -2.0950  -2.0454  -2.0095  -1.9613  -1.8759  -1.7959
    -1.7366  -1.6992  -1.6618  -1.6014  -1.5266  -1.4949  -1.4187  -1.3062
    -1.2963  -1.2762  -1.2160  -1.1912  -1.1080  -1.0613  -0.9590  -0.9431
    -0.8823  -0.8648  -0.8507  -0.7884  -0.7658  -0.7349  -0.6969  -0.6548
    -0.5869  -0.5503  -0.5172  -0.4847  -0.4564  -0.4314  -0.3587  -0.3100
    -0.2718  -0.2560  -0.2264  -0.1490  -0.1258  -0.0763  -0.0127   0.0695
     0.0975   0.1267   0.1826   0.2602   0.3062   0.3359   0.3954   0.4245
     0.4711   0.5001   0.5338   0.6353   0.6647   0.6901   0.7909   0.8674
     0.8840   0.9256   1.0239   1.2787   1.3684   1.4176   1.4817   1.5371
     2.7719   3.2496   3.3603   3.5319   3.6598   3.6681   3.7888   3.8675
     3.9264   3.9546   4.0048

          k = 0.0380-0.0839 0.0000 ( 17916 PWs)   bands (ev):

   -56.1805 -56.1804 -55.7656 -55.7641 -55.5628 -55.5343 -55.4978 -55.3275
   -55.3169 -55.3025 -55.1577 -55.1443 -55.0201 -54.9980 -54.9511 -54.9509
   -32.4753 -32.4752 -32.4631 -32.4629 -32.3090 -32.3085 -32.0858 -32.0822
   -31.9598 -31.9556 -31.9544 -31.9531 -31.8514 -31.8477 -31.8203 -31.8116
   -31.7646 -31.7564 -31.7490 -31.7169 -31.7144 -31.6785 -31.6595 -31.6472
   -31.5937 -31.5864 -31.5680 -31.5547 -31.5364 -31.5338 -31.5185 -31.4973
   -31.4182 -31.3946 -31.3633 -31.3558 -31.3477 -31.2928 -31.2899 -31.2898
   -31.2797 -31.2411 -31.2329 -31.2306 -31.1797 -31.1792 -31.1414 -31.1410
   -18.8005 -16.4389 -16.0034 -15.9966 -15.7282 -15.7136 -15.6184 -15.5948
   -15.5369 -15.4848 -15.4452 -15.4379 -15.2866 -15.2690 -15.2557 -15.2286
   -15.1879 -15.1695 -15.0811 -15.0675 -15.0176 -14.9534 -14.9333 -14.8934
   -14.8728 -14.8289 -14.7577 -14.6924 -14.6429 -14.4992 -14.3960 -13.4572
   -13.4567 -11.4399  -6.9068  -4.2944  -4.2032  -3.9739  -3.9340  -3.1654
    -3.1637  -3.0472  -2.9902  -2.9054  -2.8522  -2.8244  -2.8067  -2.7971
    -2.7670  -2.6936  -2.6513  -2.6364  -2.5875  -2.5702  -2.5380  -2.5207
    -2.5086  -2.4843  -2.4454  -2.3958  -2.3836  -2.3521  -2.2901  -2.2381
    -2.2108  -2.1696  -2.1297  -1.9448  -1.8846  -1.8644  -1.8264  -1.8094
    -1.7666  -1.6699  -1.6490  -1.5867  -1.5048  -1.4847  -1.4606  -1.4245
    -1.3814  -1.3415  -1.2681  -1.2507  -1.2270  -1.1787  -1.1106  -1.0876
    -0.9550  -0.9050  -0.8613  -0.8273  -0.7553  -0.7263  -0.6548  -0.6428
    -0.6082  -0.5716  -0.4882  -0.4779  -0.4574  -0.4387  -0.4190  -0.3621
    -0.3420  -0.3131  -0.2225  -0.1777  -0.1451  -0.1098  -0.0755  -0.0218
     0.0774   0.1200   0.1547   0.1653   0.1937   0.2365   0.3392   0.3791
     0.4234   0.4589   0.4924   0.5909   0.6109   0.6690   0.7383   0.7932
     0.8612   0.9078   1.1862   1.2174   1.4218   1.4307   1.4840   1.4879
     2.8007   3.5022   3.5062   3.6699   3.6712   3.8497   3.8533   3.8671
     3.9057   3.9242   3.9504

          k = 0.0380-0.0419 0.0000 ( 17876 PWs)   bands (ev):

   -56.1923 -56.1685 -55.7767 -55.7530 -55.5631 -55.5378 -55.4942 -55.3353
   -55.3090 -55.3022 -55.1586 -55.1452 -55.0191 -54.9970 -54.9630 -54.9390
   -32.5947 -32.4852 -32.4659 -32.3405 -32.3281 -32.2765 -32.2104 -31.9917
   -31.9884 -31.9640 -31.9570 -31.9219 -31.9134 -31.8828 -31.8115 -31.7860
   -31.7674 -31.7640 -31.7599 -31.7151 -31.7030 -31.7011 -31.6915 -31.6382
   -31.5983 -31.5938 -31.5470 -31.5425 -31.5241 -31.5149 -31.5142 -31.4920
   -31.4212 -31.3953 -31.3577 -31.3455 -31.3111 -31.3019 -31.2998 -31.2799
   -31.2711 -31.2508 -31.2339 -31.2326 -31.2286 -31.1709 -31.1111 -31.0437
   -18.8018 -16.4414 -16.2774 -15.9492 -15.7952 -15.7864 -15.7082 -15.6907
   -15.4991 -15.4834 -15.4249 -15.4233 -15.3695 -15.2932 -15.2590 -15.1938
   -15.1359 -15.1053 -15.0691 -15.0015 -14.9959 -14.9534 -14.9282 -14.9025
   -14.8004 -14.7826 -14.7381 -14.6881 -14.6496 -14.3665 -14.3168 -13.4701
   -13.3946 -11.4405  -6.8976  -4.3130  -4.1945  -3.9860  -3.9343  -3.5403
    -3.3868  -3.2085  -3.0673  -3.0472  -3.0116  -2.9219  -2.9021  -2.8283
    -2.7442  -2.7302  -2.6646  -2.6369  -2.6025  -2.5875  -2.5348  -2.5144
    -2.4840  -2.4479  -2.4227  -2.3629  -2.3318  -2.3137  -2.2711  -2.2399
    -2.1803  -2.1346  -2.1013  -2.0528  -2.0111  -1.9690  -1.8768  -1.8049
    -1.7358  -1.6831  -1.6611  -1.5481  -1.5123  -1.4957  -1.4099  -1.3077
    -1.2946  -1.2796  -1.2177  -1.1887  -1.1077  -1.0609  -0.9566  -0.9402
    -0.8792  -0.8699  -0.8454  -0.7942  -0.7658  -0.7371  -0.6784  -0.6509
    -0.6016  -0.5568  -0.5087  -0.4859  -0.4365  -0.4315  -0.3706  -0.3284
    -0.2706  -0.2438  -0.2250  -0.1635  -0.1315  -0.0701  -0.0186   0.0660
     0.1017   0.1297   0.1598   0.2542   0.2847   0.3280   0.3972   0.4232
     0.4688   0.4994   0.5370   0.6489   0.6641   0.6978   0.8121   0.8443
     0.8856   0.9282   1.0226   1.2787   1.3688   1.4179   1.4815   1.5377
     2.7775   3.2499   3.3603   3.5320   3.6598   3.6669   3.7839   3.8676
     3.9174   3.9532   4.0043

          k =-0.0760-0.0000 0.0000 ( 17886 PWs)   bands (ev):

   -56.1973 -56.1635 -55.7815 -55.7481 -55.5634 -55.5409 -55.4911 -55.3400
   -55.3043 -55.3019 -55.1595 -55.1461 -55.0182 -54.9961 -54.9679 -54.9340
   -32.6491 -32.4894 -32.4626 -32.3514 -32.2715 -32.2634 -32.2617 -32.0470
   -32.0003 -31.9565 -31.9236 -31.9105 -31.9047 -31.8886 -31.8419 -31.8120
   -31.7861 -31.7681 -31.7631 -31.7179 -31.7004 -31.6919 -31.6766 -31.6487
   -31.6294 -31.5993 -31.5458 -31.5172 -31.5067 -31.5051 -31.4901 -31.4578
   -31.4257 -31.4005 -31.3643 -31.3640 -31.3495 -31.3067 -31.2749 -31.2746
   -31.2476 -31.2345 -31.2323 -31.2282 -31.2075 -31.1831 -31.0986 -30.9868
   -18.8029 -16.4420 -16.2525 -15.9427 -15.9055 -15.8692 -15.7425 -15.6755
   -15.6192 -15.5640 -15.4495 -15.4442 -15.2959 -15.2685 -15.2494 -15.2338
   -15.2015 -15.1720 -15.1063 -15.0592 -14.9711 -14.9380 -14.8676 -14.8295
   -14.7939 -14.7398 -14.6678 -14.6510 -14.6043 -14.2724 -14.2595 -13.4603
   -13.3531 -11.4409  -6.8852  -4.3177  -4.1882  -4.0064  -3.9414  -3.5326
    -3.3305  -3.3258  -3.1944  -3.1694  -3.1145  -2.9742  -2.9253  -2.9222
    -2.8870  -2.7965  -2.6925  -2.6276  -2.5928  -2.5152  -2.4799  -2.4576
    -2.3601  -2.3439  -2.3422  -2.3070  -2.2046  -2.1491  -2.1101  -2.0665
    -2.0454  -1.9540  -1.9408  -1.9074  -1.8710  -1.8489  -1.7883  -1.7733
    -1.7324  -1.6631  -1.6589  -1.6133  -1.5566  -1.5337  -1.5058  -1.4992
    -1.3862  -1.3630  -1.3419  -1.3158  -1.2389  -1.1800  -1.1149  -1.0748
    -0.9956  -0.9365  -0.8776  -0.8413  -0.8294  -0.8096  -0.7848  -0.7115
    -0.6557  -0.6369  -0.5223  -0.4660  -0.4364  -0.3938  -0.3656  -0.2916
    -0.2761  -0.1646  -0.1209  -0.1154  -0.0793   0.0135   0.0363   0.0427
     0.1457   0.1962   0.2099   0.2632   0.2851   0.3968   0.4266   0.4500
     0.5032   0.5945   0.6133   0.6881   0.7062   0.7442   0.7835   0.8045
     0.9033   1.0555   1.0879   1.1780   1.2067   1.2438   1.3765   1.5018
     2.8001   3.1053   3.1679   3.3621   3.4610   3.5716   3.5925   3.9209
     3.9699   4.0523   4.0642

          k =-0.0760 0.0419 0.0000 ( 17914 PWs)   bands (ev):

   -56.1923 -56.1685 -55.7767 -55.7530 -55.5631 -55.5379 -55.4942 -55.3353
   -55.3090 -55.3022 -55.1586 -55.1452 -55.0191 -54.9971 -54.9630 -54.9390
   -32.5956 -32.4852 -32.4659 -32.3389 -32.3284 -32.2765 -32.2107 -32.0042
   -31.9884 -31.9574 -31.9544 -31.9220 -31.8990 -31.8841 -31.8117 -31.7882
   -31.7745 -31.7656 -31.7600 -31.7151 -31.7038 -31.7018 -31.6917 -31.6382
   -31.5995 -31.5863 -31.5487 -31.5426 -31.5214 -31.5147 -31.5093 -31.4920
   -31.4213 -31.3988 -31.3624 -31.3457 -31.3109 -31.3021 -31.3019 -31.2793
   -31.2712 -31.2508 -31.2353 -31.2344 -31.2292 -31.1709 -31.1112 -31.0438
   -18.8017 -16.4398 -16.1435 -15.8542 -15.8260 -15.8064 -15.7116 -15.6775
   -15.5403 -15.5201 -15.3945 -15.3656 -15.3526 -15.3293 -15.2296 -15.2231
   -15.1752 -15.1552 -15.1146 -15.0797 -14.9962 -14.9623 -14.9489 -14.8819
   -14.8532 -14.7979 -14.7137 -14.6658 -14.6565 -14.3631 -14.3178 -13.4682
   -13.3949 -11.4402  -6.8956  -4.3042  -4.2016  -3.9884  -3.9327  -3.3763
    -3.1212  -3.0624  -3.0312  -2.9538  -2.9299  -2.8046  -2.7575  -2.7298
    -2.6925  -2.6889  -2.6580  -2.6463  -2.5864  -2.5739  -2.5176  -2.5060
    -2.4732  -2.4309  -2.4044  -2.3461  -2.2898  -2.2504  -2.2330  -2.1408
    -2.1188  -2.0476  -2.0175  -1.9749  -1.8989  -1.8618  -1.8452  -1.8340
    -1.7908  -1.7689  -1.6119  -1.5715  -1.5441  -1.4800  -1.4523  -1.4009
    -1.3102  -1.3031  -1.2493  -1.2307  -1.1611  -1.1258  -1.0897  -1.0607
    -1.0339  -0.9618  -0.9420  -0.9020  -0.8339  -0.7780  -0.7663  -0.7193
    -0.6648  -0.6519  -0.6133  -0.5963  -0.5659  -0.5359  -0.5094  -0.4781
    -0.4327  -0.3902  -0.3500  -0.2889  -0.1513  -0.1132  -0.0850  -0.0514
     0.0413   0.0773   0.1525   0.2930   0.3270   0.3481   0.4320   0.4793
     0.4921   0.5483   0.6091   0.6198   0.7003   0.7624   0.7940   0.8430
     0.9200   0.9735   1.1346   1.1573   1.2888   1.4088   1.4090   1.5240
     2.7920   3.2522   3.3681   3.4445   3.5546   3.6997   3.7916   3.8429
     3.9762   4.0413   4.0666

          k =-0.0760-0.0839 0.0000 ( 17948 PWs)   bands (ev):

   -56.1805 -56.1804 -55.7656 -55.7641 -55.5628 -55.5344 -55.4978 -55.3275
   -55.3169 -55.3026 -55.1577 -55.1443 -55.0201 -54.9981 -54.9511 -54.9509
   -32.4754 -32.4752 -32.4638 -32.4636 -32.3081 -32.3076 -32.0861 -32.0825
   -31.9598 -31.9569 -31.9544 -31.9534 -31.8524 -31.8402 -31.8140 -31.8119
   -31.7629 -31.7565 -31.7558 -31.7226 -31.7145 -31.6786 -31.6613 -31.6495
   -31.5930 -31.5892 -31.5661 -31.5496 -31.5339 -31.5331 -31.5139 -31.4974
   -31.4180 -31.3974 -31.3634 -31.3600 -31.3475 -31.2927 -31.2906 -31.2905
   -31.2798 -31.2412 -31.2359 -31.2320 -31.1797 -31.1792 -31.1414 -31.1410
   -18.8005 -16.4379 -15.8986 -15.8895 -15.7633 -15.7583 -15.5838 -15.5701
   -15.5650 -15.4849 -15.4440 -15.4226 -15.2794 -15.2657 -15.2044 -15.1787
   -15.1590 -15.1375 -15.1309 -15.0970 -15.0859 -15.0315 -14.9756 -14.9696
   -14.9111 -14.9035 -14.7460 -14.6847 -14.6384 -14.4915 -14.3940 -13.4571
   -13.4565 -11.4397  -6.9056  -4.2902  -4.2136  -3.9729  -3.9327  -3.0634
    -3.0151  -2.9117  -2.8756  -2.7935  -2.7799  -2.6710  -2.6529  -2.6085
    -2.5917  -2.5828  -2.5362  -2.4906  -2.4803  -2.4580  -2.4321  -2.4161
    -2.4045  -2.3652  -2.3153  -2.2990  -2.2936  -2.2683  -2.1664  -2.1349
    -2.1273  -2.1171  -2.0862  -2.0636  -2.0186  -1.9520  -1.9192  -1.8806
    -1.8686  -1.7962  -1.7380  -1.6867  -1.6762  -1.6036  -1.5489  -1.5217
    -1.4463  -1.3986  -1.2846  -1.2718  -1.2539  -1.1916  -1.1681  -1.1161
    -1.0934  -1.0323  -0.9850  -0.9607  -0.9555  -0.9414  -0.8706  -0.8148
    -0.7077  -0.6695  -0.6516  -0.6080  -0.6045  -0.5739  -0.5382  -0.5016
    -0.4028  -0.3899  -0.3730  -0.3233  -0.3125  -0.2434  -0.1640  -0.0499
     0.0727   0.1494   0.1598   0.1792   0.2180   0.2978   0.3779   0.4190
     0.4627   0.5250   0.5677   0.5969   0.6753   0.8143   0.8675   0.8902
     0.9734   1.0108   1.0820   1.1686   1.4446   1.4554   1.4595   1.4604
     2.8134   3.5785   3.5809   3.6106   3.6215   3.7424   3.8168   3.8343
     3.9604   4.0178   4.0727

     the Fermi energy is     2.9653 ev

!    total energy              =   -2972.75290431 Ry
     estimated scf accuracy    <       0.00000006 Ry
     smearing contrib. (-TS)   =      -0.01279912 Ry
     internal energy E=F+TS    =   -2972.74010519 Ry

     The total energy is F=E-TS. E is the sum of the following terms:
     one-electron contribution =  -23541.96330045 Ry
     hartree contribution      =   11864.67075934 Ry
     xc contribution           =    -493.07147414 Ry
     ewald contribution        =    9197.62308542 Ry
     electric field correction =       0.00082464 Ry

     convergence has been achieved in  78 iterations

     Forces acting on atoms (cartesian axes, Ry/au):

     atom    1 type  1   force =     0.00008418   -0.00037138    0.10686748
     atom    2 type  1   force =    -0.00012684    0.00015827   -0.16540454
     atom    3 type  2   force =     0.00006866   -0.00045011   -0.03897849
     atom    4 type  2   force =     0.00000276    0.00016492    0.03532316
     atom    5 type  2   force =    -0.00261238   -0.00318519   -0.00917485
     atom    6 type  2   force =     0.00443265   -0.00251848   -0.00946054
     atom    7 type  1   force =    -0.00000956    0.00132238    0.03464328
     atom    8 type  1   force =     0.00023764    0.01555337    0.06093156
     atom    9 type  2   force =    -0.00017987   -0.00042660   -0.00009754
     atom   10 type  2   force =    -0.00255541    0.00088645   -0.04269517
     atom   11 type  2   force =    -0.00102205    0.00035081    0.00035495
     atom   12 type  2   force =     0.00051668    0.00025093    0.00025086
     atom   13 type  1   force =     0.00045754    0.00067377   -0.00028330
     atom   14 type  1   force =     0.00025658   -0.00018889    0.00059428
     atom   15 type  2   force =     0.00020298    0.00066120    0.00009299
     atom   16 type  2   force =    -0.00008059   -0.00042152   -0.00114744
     atom   17 type  2   force =     0.00016257    0.00045912    0.00000740
     atom   18 type  2   force =    -0.00014798    0.00043702   -0.00028795
     atom   19 type  1   force =     0.00004332   -0.00093686    0.00007787
     atom   20 type  1   force =     0.00020352    0.00021862   -0.00052590
     atom   21 type  2   force =     0.00003253    0.00013334    0.10039353
     atom   22 type  2   force =     0.00014773    0.00073962    0.00022556
     atom   23 type  2   force =    -0.07680787   -0.00000699   -0.03010459
     atom   24 type  2   force =     0.07667887    0.00046342   -0.03014930
     atom   25 type  1   force =    -0.00008305   -0.00045389    0.10725243
     atom   26 type  1   force =    -0.00020736   -0.00132009   -0.16544612
     atom   27 type  2   force =     0.00010095   -0.00032130   -0.03726770
     atom   28 type  2   force =     0.00004652   -0.00000091    0.03047661
     atom   29 type  2   force =    -0.00564827    0.00366220   -0.00704371
     atom   30 type  2   force =     0.00728343    0.00401129   -0.00731664
     atom   31 type  1   force =    -0.00011679   -0.00228825    0.02283309
     atom   32 type  1   force =     0.00032708   -0.01775464    0.06140725
     atom   33 type  2   force =    -0.00017066    0.00022108   -0.00032139
     atom   34 type  2   force =    -0.00143702    0.00001507   -0.05439739
     atom   35 type  2   force =    -0.00007669   -0.00016843   -0.00024483
     atom   36 type  2   force =    -0.00024764    0.00005863   -0.00008834
     atom   37 type  1   force =     0.00013069   -0.00008810    0.00069180
     atom   38 type  1   force =     0.00033347    0.00008847    0.00037327
     atom   39 type  2   force =    -0.00013422    0.00028177   -0.00036161
     atom   40 type  2   force =     0.00001836    0.00028702    0.00028517
     atom   41 type  2   force =     0.00010286   -0.00008380   -0.00024875
     atom   42 type  2   force =    -0.00014079   -0.00046710   -0.00017638
     atom   43 type  1   force =     0.00009678    0.00047540   -0.00664122
     atom   44 type  1   force =     0.00034912    0.00001048   -0.00060939
     atom   45 type  2   force =     0.00003386    0.00013476    0.10023776
     atom   46 type  2   force =    -0.07678426    0.00003496   -0.03009085
     atom   47 type  2   force =     0.07664490    0.00047266   -0.03011093
     atom   48 type  3   force =     0.00037745    0.00040171   -0.00091027
     atom   49 type  3   force =     0.00028263   -0.00025655   -0.00059828
     atom   50 type  4   force =     0.00010641    0.00005200   -0.00027967
     atom   51 type  5   force =    -0.00018583   -0.00048626   -0.00061886
     atom   52 type  5   force =    -0.00019539   -0.00042106   -0.00015163
     atom   53 type  5   force =     0.00019579    0.00010195   -0.00045069
     atom   54 type  2   force =    -0.00134670    0.00889221    0.01583432
     atom   55 type  5   force =     0.00035867   -0.00905849   -0.00747037

     Total force =     0.381533     Total SCF correction =     0.000555
  @ DRIVER MODE: Message from server: STATUS
  @ DRIVER MODE: Message from server: GETFORCE
  @ DRIVER MODE: Returning v,forces,stress,ensemble 

     Writing output data file ./calc.save/
  @ DRIVER MODE: Message from server: EXIT
  @ DRIVE MODE: Exiting  
 
     init_run     :     13.30s CPU     13.67s WALL (       1 calls)
     electrons    :   1608.08s CPU   1641.26s WALL (       1 calls)
     forces       :      2.73s CPU      2.85s WALL (       1 calls)

     Called by init_run:
     wfcinit      :      5.80s CPU      5.95s WALL (       1 calls)
     potinit      :      6.75s CPU      6.84s WALL (       1 calls)
     hinit0       :      0.38s CPU      0.40s WALL (       1 calls)

     Called by electrons:
     c_bands      :   1384.42s CPU   1401.80s WALL (      78 calls)
     sum_band     :    156.06s CPU    163.46s WALL (      78 calls)
     v_of_rho     :     51.12s CPU     53.43s WALL (      79 calls)
     newd         :     20.19s CPU     26.08s WALL (      79 calls)
     mix_rho      :      1.90s CPU      2.03s WALL (      78 calls)
     vdW_kernel   :      5.84s CPU      5.85s WALL (       1 calls)

     Called by c_bands:
     init_us_2    :      6.52s CPU      6.59s WALL (    1580 calls)
     cegterg      :   1358.98s CPU   1375.73s WALL (     803 calls)

     Called by *egterg:
     cdiaghg      :    194.86s CPU    195.73s WALL (    6687 calls)
     h_psi        :    752.36s CPU    763.20s WALL (    6698 calls)
     s_psi        :     88.48s CPU     88.79s WALL (    6698 calls)
     g_psi        :      2.72s CPU      2.74s WALL (    5885 calls)

     Called by h_psi:
     h_psi:calbec :     88.84s CPU     90.02s WALL (    6698 calls)
     vloc_psi     :    572.27s CPU    577.28s WALL (    6698 calls)
     add_vuspsi   :     88.58s CPU     90.96s WALL (    6698 calls)

     General routines
     calbec       :    116.26s CPU    117.52s WALL (    7518 calls)
     fft          :     25.93s CPU     26.07s WALL (    4977 calls)
     ffts         :      0.22s CPU      0.23s WALL (     157 calls)
     fftw         :    633.26s CPU    638.84s WALL ( 1160750 calls)
     interpolate  :      0.55s CPU      0.55s WALL (      79 calls)
     davcio       :      0.01s CPU      0.98s WALL (      10 calls)
 
     Parallel routines
 
     PWSCF        :  27m 4.44s CPU  27m40.11s WALL

 
   This run was terminated on:  15:23:54  23Sep2021            

=------------------------------------------------------------------------------=
   JOB DONE.
=------------------------------------------------------------------------------=
