
     Program PWSCF v.6.7GPU starts on 23Sep2021 at  1:33: 2 

     This program is part of the open-source Quantum ESPRESSO suite
     for quantum simulation of materials; please cite
         "P. Giannozzi et al., J. Phys.:Condens. Matter 21 395502 (2009);
         "P. Giannozzi et al., J. Phys.:Condens. Matter 29 465901 (2017);
         "P. Giannozzi et al., J. Chem. Phys. 152 154105 (2020);
          URL http://www.quantum-espresso.org", 
     in publications or presentations arising from this work. More details at
     http://www.quantum-espresso.org/quote

     Parallel version (MPI), running on    10 processors

     MPI processes distributed on     1 nodes
     R & G space division:  proc/nbgrp/npool/nimage =      10
     Reading input from /storage/home/hcoda1/3/ntian30/research/carbon/CxH_vib/H2O_calc/ads_slab/CH2N2HHO_a/out_0027/pw.inp
Warning: card &CELL ignored
Warning: card   CELL_DYNAMICS='IPI', ignored
Warning: card / ignored

     Current dimensions of program PWSCF are:
     Max number of different atomic species (ntypx) = 10
     Max number of k-points (npk) =  40000
     Max angular momentum in pseudopotentials (lmaxx) =  3
     Presently no symmetry can be used with electric field

     Message from routine cell_base_init:
     DEPRECATED: use true lattice parameter, not A to a.u. conversion factor

     **************************************************************************
     Initializing libbeef V0.1.2 with the BEEF-vdW functional.
     Citation: Wellendorff et al., PRB 85, 235149 (2012).
     **************************************************************************


     IMPORTANT: XC functional enforced from input :
     Exchange-correlation= BEEF-VDW
                           (   1   4  43  14   2   0   0)
     Any further DFT definition will be discarded
     Please, verify this is what you really want


     Subspace diagonalization in iterative solution of the eigenvalue problem:
     one sub-group per band group will be used
     scalapack distributed-memory algorithm (size of sub-group:  3*  3 procs)

  @ DRIVER MODE: Connecting to 
 qe_1139763_2937323.sched-torque.pace.gatech.edud22goqwf_scratch
  using UNIX socket
  @ DRIVER MODE: Message from server: STATUS
  @ DRIVER MODE: Message from server: INIT
  @ DRIVER MODE: Receiving replica           0          -1
  @ DRIVER MODE: Receiving encoded integer          25
  @ DRIVER MODE:  SCF:  T  FORCE:  T  STRESS:  F  VC:  F  ENSEMBLE:  F
  @ DRIVER MODE:  SCF:  T  FORCE:  T  STRESS:  F  VC:  F  ENSEMBLE:  F
 
     Parallelization info
     --------------------
     sticks:   dense  smooth     PW     G-vecs:    dense   smooth      PW
     Min         327     131     37                56683    14340    2191
     Max         328     133     38                56694    14346    2206
     Sum        3275    1317    379               566857   143421   21985
 
     Using Slab Decomposition
 


     bravais-lattice index     =            0
     lattice parameter (alat)  =       1.8897  a.u.
     unit-cell volume          =    6658.9804 (a.u.)^3
     number of atoms/cell      =           55
     number of atomic types    =            5
     number of electrons       =       402.00
     number of Kohn-Sham states=          211
     kinetic-energy cutoff     =      29.3995  Ry
     charge density cutoff     =     293.9946  Ry
     scf convergence threshold =      7.3E-08
     mixing beta               =       0.0500
     number of iterations used =            8  plain     mixing
     Exchange-correlation= BEEF-VDW
                           (   1   4  43  14   2   0   0)

     celldm(1)=   1.889726  celldm(2)=   0.000000  celldm(3)=   0.000000
     celldm(4)=   0.000000  celldm(5)=   0.000000  celldm(6)=   0.000000

     crystal axes: (cart. coord. in units of alat)
               a(1) = (   6.579727   0.000000   0.000000 )  
               a(2) = (  -0.000775   5.961596   0.000000 )  
               a(3) = (   0.000000   0.000000  25.155947 )  

     reciprocal axes: (cart. coord. in units 2 pi/alat)
               b(1) = (  0.151982  0.000020  0.000000 )  
               b(2) = (  0.000000  0.167740  0.000000 )  
               b(3) = (  0.000000  0.000000  0.039752 )  


     PseudoPot. # 1 for Ti read from file:
     /storage/coda1/p-amedford6/0/shared/rich_project_chbe-medford/medford-share/data/pseudos_module/espresso/nninc/pbe/van/Ti.UPF
     MD5 check sum: 8e4df49b7f0d34bbd5052bf3f5ea0213
     Pseudo is Ultrasoft, Zval = 12.0
     Generated by new atomic code, or converted to UPF format
     Using radial grid of  851 points,  6 beta functions with: 
                l(1) =   0
                l(2) =   0
                l(3) =   1
                l(4) =   1
                l(5) =   2
                l(6) =   2
     Q(r) pseudized with  8 coefficients,  rinner =    1.000   1.000   1.000
                                                       1.000   1.000

     PseudoPot. # 2 for O  read from file:
     /storage/coda1/p-amedford6/0/shared/rich_project_chbe-medford/medford-share/data/pseudos_module/espresso/nninc/pbe/van/O.UPF
     MD5 check sum: 78c19812648e8988a0fe644b0f25305e
     Pseudo is Ultrasoft, Zval =  6.0
     Generated by new atomic code, or converted to UPF format
     Using radial grid of  737 points,  4 beta functions with: 
                l(1) =   0
                l(2) =   0
                l(3) =   1
                l(4) =   1
     Q(r) pseudized with  8 coefficients,  rinner =    0.800   0.800   0.800


     PseudoPot. # 3 for N  read from file:
     /storage/coda1/p-amedford6/0/shared/rich_project_chbe-medford/medford-share/data/pseudos_module/espresso/nninc/pbe/van/N.UPF
     MD5 check sum: 90d10febe142ad51ac9d5be1deb811c4
     Pseudo is Ultrasoft, Zval =  5.0
     Generated by new atomic code, or converted to UPF format
     Using radial grid of  729 points,  4 beta functions with: 
                l(1) =   0
                l(2) =   0
                l(3) =   1
                l(4) =   1
     Q(r) pseudized with  8 coefficients,  rinner =    0.800   0.800   0.800


     PseudoPot. # 4 for C  read from file:
     /storage/coda1/p-amedford6/0/shared/rich_project_chbe-medford/medford-share/data/pseudos_module/espresso/nninc/pbe/van/C.UPF
     MD5 check sum: 1a69bf6b8db32088f5b2163dbdb77a27
     Pseudo is Ultrasoft, Zval =  4.0
     Generated by new atomic code, or converted to UPF format
     Using radial grid of  721 points,  4 beta functions with: 
                l(1) =   0
                l(2) =   0
                l(3) =   1
                l(4) =   1
     Q(r) pseudized with  8 coefficients,  rinner =    0.800   0.800   0.800


     PseudoPot. # 5 for H  read from file:
     /storage/coda1/p-amedford6/0/shared/rich_project_chbe-medford/medford-share/data/pseudos_module/espresso/nninc/pbe/van/H.UPF
     MD5 check sum: b5ee9d7bfd3a09ee7748110bda690ff7
     Pseudo is Ultrasoft, Zval =  1.0
     Generated by new atomic code, or converted to UPF format
     Using radial grid of  615 points,  1 beta functions with: 
                l(1) =   0
     Q(r) pseudized with  8 coefficients,  rinner =    0.800

     atomic species   valence    mass     pseudopotential
        Ti1           12.00    47.86700     Ti( 1.00)
        O1             6.00    15.99900     O ( 1.00)
        N1             5.00    14.00700     N ( 1.00)
        C1             4.00    12.01100     C ( 1.00)
        H1             1.00     1.00800     H ( 1.00)

     No symmetry found



   Cartesian axes

     site n.     atom                  positions (alat units)
         1           Ti1 tau(   1) = (   0.0004258   2.9801865   6.0000000  )
         2           Ti1 tau(   2) = (   3.2906075   1.4906267   6.0002472  )
         3           O1  tau(   3) = (   0.0006271   0.0005054   7.9858123  )
         4           O1  tau(   4) = (   3.2906025   0.0005020   7.3038282  )
         5           O1  tau(   5) = (   4.5942328   1.4918067   9.2879030  )
         6           O1  tau(   6) = (   1.9868534   1.4903216   9.2879459  )
         7           Ti1 tau(   7) = (   3.2907910   2.8959150   9.1758416  )
         8           Ti1 tau(   8) = (   0.0015273   1.4827037   9.2680791  )
         9           O1  tau(   9) = (   3.3002520   5.9418316  11.2747492  )
        10           O1  tau(  10) = (   0.0116148   5.9584955  10.6183126  )
        11           O1  tau(  11) = (   1.2897458   1.4862980  12.6211975  )
        12           O1  tau(  12) = (   5.3051886   1.5023792  12.6347999  )
        13           Ti1 tau(  13) = (   0.0146078   2.8478158  12.7200684  )
        14           Ti1 tau(  14) = (   3.3063360   1.3081926  12.6482236  )
        15           O1  tau(  15) = (   0.0235978   5.9609164  14.6274833  )
        16           O1  tau(  16) = (   3.2983906   0.0399142  13.8749830  )
        17           O1  tau(  17) = (   4.5813539   1.5856785  16.0626423  )
        18           O1  tau(  18) = (   2.0324892   1.5097802  16.0098020  )
        19           Ti1 tau(  19) = (   3.2774956   2.9544257  15.6266065  )
        20           Ti1 tau(  20) = (   6.5530467   1.3151789  15.9772938  )
        21           O1  tau(  21) = (   3.2904802   0.0005063   4.7018136  )
        22           O1  tau(  22) = (   6.5059356   5.9265713  17.1294848  )
        23           O1  tau(  23) = (   1.3043587   1.4918075   6.0039043  )
        24           O1  tau(  24) = (   5.2767064   1.4903225   6.0039473  )
        25           Ti1 tau(  25) = (   0.0000382   5.9609847   6.0000000  )
        26           Ti1 tau(  26) = (   3.2902200   4.4714249   6.0002472  )
        27           O1  tau(  27) = (   0.0002396   2.9813036   7.9858123  )
        28           O1  tau(  28) = (   3.2902150   2.9813002   7.3038282  )
        29           O1  tau(  29) = (   4.5938453   4.4726049   9.2879030  )
        30           O1  tau(  30) = (   1.9864658   4.4711199   9.2879459  )
        31           Ti1 tau(  31) = (   3.2891106   5.8743827   9.1763621  )
        32           Ti1 tau(  32) = (   0.0006254   4.4649316   9.2693709  )
        33           O1  tau(  33) = (   3.2992753   3.0242338  11.2405823  )
        34           O1  tau(  34) = (   0.0092240   2.9805883  10.6323155  )
        35           O1  tau(  35) = (   1.2972400   4.4705050  12.6241655  )
        36           O1  tau(  36) = (   5.3008088   4.4694758  12.6340222  )
        37           Ti1 tau(  37) = (   0.0289225   5.8314391  12.5906285  )
        38           Ti1 tau(  38) = (   3.3189507   4.3956991  12.4097224  )
        39           O1  tau(  39) = (   0.0312427   2.9750824  14.7260556  )
        40           O1  tau(  40) = (   3.2762925   2.9668711  13.8358254  )
        41           O1  tau(  41) = (   4.5358187   4.4455929  15.9064879  )
        42           O1  tau(  42) = (   2.0572077   4.4429961  16.0439637  )
        43           Ti1 tau(  43) = (   3.2186928   5.9141907  16.2420754  )
        44           Ti1 tau(  44) = (   6.4642982   4.4840528  15.9061301  )
        45           O1  tau(  45) = (   3.2900926   2.9813045   4.7018136  )
        46           O1  tau(  46) = (   1.3039711   4.4726057   6.0039043  )
        47           O1  tau(  47) = (   5.2763189   4.4711207   6.0039473  )
        48           N1  tau(  48) = (   0.2499663   2.3419386  17.9913213  )
        49           C1  tau(  49) = (   0.6208863   1.8700663  19.1394302  )
        50           H1  tau(  50) = (   0.7431952   2.5333404  19.9929579  )
        51           H1  tau(  51) = (   0.8399735   0.8189210  19.2161768  )
        52           N1  tau(  52) = (   6.5658643   3.6016587  17.7752569  )
        53           H1  tau(  53) = (   0.1300021   4.2235620  18.5825096  )
        54           O1  tau(  54) = (   3.3713844   5.9089882  18.0735649  )
        55           H1  tau(  55) = (   4.1655974   0.3538959  18.4550359  )

     number of k points=    10  Fermi-Dirac smearing, width (Ry)=  0.0073
                       cart. coord. in units 2pi/alat
        k(    1) = (   0.0000000   0.0000000   0.0000000), wk =   0.1250000
        k(    2) = (   0.0000000   0.0419351   0.0000000), wk =   0.2500000
        k(    3) = (   0.0000000  -0.0838702   0.0000000), wk =   0.1250000
        k(    4) = (   0.0379955   0.0000049   0.0000000), wk =   0.2500000
        k(    5) = (   0.0379955   0.0419400   0.0000000), wk =   0.2500000
        k(    6) = (   0.0379955  -0.0838652   0.0000000), wk =   0.2500000
        k(    7) = (   0.0379955  -0.0419301   0.0000000), wk =   0.2500000
        k(    8) = (  -0.0759910  -0.0000099   0.0000000), wk =   0.1250000
        k(    9) = (  -0.0759910   0.0419252   0.0000000), wk =   0.2500000
        k(   10) = (  -0.0759910  -0.0838800   0.0000000), wk =   0.1250000

     Dense  grid:   566857 G-vectors     FFT dimensions: (  72,  64, 270)

     Smooth grid:   143421 G-vectors     FFT dimensions: (  45,  40, 180)

     Estimated max dynamical RAM per process >     367.45 MB

     Estimated total dynamical RAM >       3.59 GB
     Cannot read rho : file not found

     Initial potential from superposition of free atoms

     starting charge  385.99915, renormalised to  402.00000

     negative rho (up, down):  1.591E-02 0.000E+00


     %%%%%%%%%%%%%%%%%%%%%%%%%%%%%%%%%%%%%%%%%%%%%%%%%%%%%%%%%%%%%%%%%%%%%%%%
     %                                                                      %
     % You are using vdW-DF, which was implemented by the Thonhauser group. %
     % Please cite the following two papers that made this development      %
     % possible and the two reviews that describe the various versions:     %
     %                                                                      %
     %   T. Thonhauser et al., PRL 115, 136402 (2015).                      %
     %   T. Thonhauser et al., PRB 76, 125112 (2007).                       %
     %   K. Berland et al., Rep. Prog. Phys. 78, 066501 (2015).             %
     %   D.C. Langreth et al., J. Phys.: Condens. Matter 21, 084203 (2009). %
     %                                                                      %
     %                                                                      %
     % If you are calculating the stress with vdW-DF, please also cite:     %
     %                                                                      %
     %   R. Sabatini et al., J. Phys.: Condens. Matter 24, 424209 (2012).   %
     %                                                                      %
     %%%%%%%%%%%%%%%%%%%%%%%%%%%%%%%%%%%%%%%%%%%%%%%%%%%%%%%%%%%%%%%%%%%%%%%%


 
     Adding external electric field

     Computed dipole along edir(3) : 
        Dipole              -11.3527 Ry au,        -28.8557 Debye
        Dipole field         -0.0214 Ry au, 
 
        Potential amp.        1.9860 Ry
        Total length         46.3494 bohr
 
     Starting wfcs are  304 atomic wfcs
  @ DRIVER MODE: Message from server: STATUS
  @ DRIVER MODE: Message from server: POSDATA
  @ DRIVER MODE: Reading and sharing cell 
  @ DRIVER MODE: Reading and sharing positions 
  @ DRIVER MODE: Received positions 

     total cpu time spent up to now is       12.4 secs

     Self-consistent Calculation

     iteration #  1     ecut=    29.40 Ry     beta= 0.05
     Davidson diagonalization with overlap
     c_bands:  4 eigenvalues not converged
     c_bands:  3 eigenvalues not converged
     c_bands:  3 eigenvalues not converged
     c_bands:  5 eigenvalues not converged
     c_bands:  5 eigenvalues not converged
     c_bands:  1 eigenvalues not converged
     c_bands:  5 eigenvalues not converged
     c_bands:  4 eigenvalues not converged
     c_bands:  5 eigenvalues not converged
     c_bands:  1 eigenvalues not converged
     ethr =  1.00E-05,  avg # of iterations = 24.0

     negative rho (up, down):  1.030E-02 0.000E+00
 
     Adding external electric field

     Computed dipole along edir(3) : 
        Dipole               51.1600 Ry au,        130.0357 Debye
        Dipole field          0.0965 Ry au, 
 
        Potential amp.       -8.9497 Ry
        Total length         46.3494 bohr
 

     total cpu time spent up to now is       58.9 secs

     total energy              =   -2410.16015924 Ry
     estimated scf accuracy    <    6308.40533295 Ry

     iteration #  2     ecut=    29.40 Ry     beta= 0.05
     Davidson diagonalization with overlap
     ethr =  1.00E-02,  avg # of iterations = 23.8

     negative rho (up, down):  1.077E-03 0.000E+00
 
     Adding external electric field

     Computed dipole along edir(3) : 
        Dipole               -0.7980 Ry au,         -2.0283 Debye
        Dipole field         -0.0015 Ry au, 
 
        Potential amp.        0.1396 Ry
        Total length         46.3494 bohr
 

     total cpu time spent up to now is      139.6 secs

     total energy              =   -2475.26335658 Ry
     estimated scf accuracy    <   71740.35194755 Ry

     iteration #  3     ecut=    29.40 Ry     beta= 0.05
     Davidson diagonalization with overlap
     ethr =  1.00E-02,  avg # of iterations = 16.7

     negative rho (up, down):  1.148E-03 0.000E+00
 
     Adding external electric field

     Computed dipole along edir(3) : 
        Dipole               -3.7839 Ry au,         -9.6178 Debye
        Dipole field         -0.0071 Ry au, 
 
        Potential amp.        0.6619 Ry
        Total length         46.3494 bohr
 

     total cpu time spent up to now is      191.1 secs

     total energy              =   -2958.20830456 Ry
     estimated scf accuracy    <    5667.21905088 Ry

     iteration #  4     ecut=    29.40 Ry     beta= 0.05
     Davidson diagonalization with overlap
     ethr =  1.00E-02,  avg # of iterations = 10.6

     negative rho (up, down):  1.190E-03 0.000E+00
 
     Adding external electric field

     Computed dipole along edir(3) : 
        Dipole               -5.6739 Ry au,        -14.4216 Debye
        Dipole field         -0.0107 Ry au, 
 
        Potential amp.        0.9926 Ry
        Total length         46.3494 bohr
 

     total cpu time spent up to now is      211.5 secs

     total energy              =   -2956.03961006 Ry
     estimated scf accuracy    <    2245.90438765 Ry

     iteration #  5     ecut=    29.40 Ry     beta= 0.05
     Davidson diagonalization with overlap
     c_bands:  3 eigenvalues not converged
     c_bands:  1 eigenvalues not converged
     c_bands:  1 eigenvalues not converged
     c_bands:  3 eigenvalues not converged
     ethr =  1.00E-02,  avg # of iterations = 14.7

     negative rho (up, down):  1.217E-03 0.000E+00
 
     Adding external electric field

     Computed dipole along edir(3) : 
        Dipole               -5.3744 Ry au,        -13.6603 Debye
        Dipole field         -0.0101 Ry au, 
 
        Potential amp.        0.9402 Ry
        Total length         46.3494 bohr
 

     total cpu time spent up to now is      230.9 secs

     total energy              =   -2972.35611538 Ry
     estimated scf accuracy    <     189.13245628 Ry

     iteration #  6     ecut=    29.40 Ry     beta= 0.05
     Davidson diagonalization with overlap
     ethr =  1.00E-02,  avg # of iterations =  3.8

     negative rho (up, down):  1.221E-03 0.000E+00
 
     Adding external electric field

     Computed dipole along edir(3) : 
        Dipole               -5.1698 Ry au,        -13.1404 Debye
        Dipole field         -0.0098 Ry au, 
 
        Potential amp.        0.9044 Ry
        Total length         46.3494 bohr
 

     total cpu time spent up to now is      242.7 secs

     total energy              =   -2973.69958686 Ry
     estimated scf accuracy    <     101.54720063 Ry

     iteration #  7     ecut=    29.40 Ry     beta= 0.05
     Davidson diagonalization with overlap
     ethr =  1.00E-02,  avg # of iterations =  1.8

     negative rho (up, down):  1.284E-03 0.000E+00
 
     Adding external electric field

     Computed dipole along edir(3) : 
        Dipole               -4.3860 Ry au,        -11.1481 Debye
        Dipole field         -0.0083 Ry au, 
 
        Potential amp.        0.7673 Ry
        Total length         46.3494 bohr
 

     total cpu time spent up to now is      253.4 secs

     total energy              =   -2973.14249442 Ry
     estimated scf accuracy    <     100.27784155 Ry

     iteration #  8     ecut=    29.40 Ry     beta= 0.05
     Davidson diagonalization with overlap
     ethr =  1.00E-02,  avg # of iterations =  1.0

     negative rho (up, down):  1.604E-03 0.000E+00
 
     Adding external electric field

     Computed dipole along edir(3) : 
        Dipole               -2.2574 Ry au,         -5.7378 Debye
        Dipole field         -0.0043 Ry au, 
 
        Potential amp.        0.3949 Ry
        Total length         46.3494 bohr
 

     total cpu time spent up to now is      263.6 secs

     total energy              =   -2971.89177729 Ry
     estimated scf accuracy    <     100.28051504 Ry

     iteration #  9     ecut=    29.40 Ry     beta= 0.05
     Davidson diagonalization with overlap
     ethr =  1.00E-02,  avg # of iterations =  1.6

     negative rho (up, down):  1.660E-03 0.000E+00
 
     Adding external electric field

     Computed dipole along edir(3) : 
        Dipole               -2.6273 Ry au,         -6.6780 Debye
        Dipole field         -0.0050 Ry au, 
 
        Potential amp.        0.4596 Ry
        Total length         46.3494 bohr
 

     total cpu time spent up to now is      274.5 secs

     total energy              =   -2971.06014281 Ry
     estimated scf accuracy    <     596.29240808 Ry

     iteration # 10     ecut=    29.40 Ry     beta= 0.05
     Davidson diagonalization with overlap
     ethr =  1.00E-02,  avg # of iterations =  1.0

     negative rho (up, down):  1.960E-03 0.000E+00
 
     Adding external electric field

     Computed dipole along edir(3) : 
        Dipole               -2.4826 Ry au,         -6.3102 Debye
        Dipole field         -0.0047 Ry au, 
 
        Potential amp.        0.4343 Ry
        Total length         46.3494 bohr
 

     total cpu time spent up to now is      284.7 secs

     total energy              =   -2970.28669688 Ry
     estimated scf accuracy    <     136.57648668 Ry

     iteration # 11     ecut=    29.40 Ry     beta= 0.05
     Davidson diagonalization with overlap
     ethr =  1.00E-02,  avg # of iterations =  1.5

     negative rho (up, down):  1.973E-03 0.000E+00
 
     Adding external electric field

     Computed dipole along edir(3) : 
        Dipole               -3.2835 Ry au,         -8.3459 Debye
        Dipole field         -0.0062 Ry au, 
 
        Potential amp.        0.5744 Ry
        Total length         46.3494 bohr
 

     total cpu time spent up to now is      295.2 secs

     total energy              =   -2968.64690742 Ry
     estimated scf accuracy    <      93.83469757 Ry

     iteration # 12     ecut=    29.40 Ry     beta= 0.05
     Davidson diagonalization with overlap
     ethr =  1.00E-02,  avg # of iterations =  3.1

     negative rho (up, down):  1.935E-03 0.000E+00
 
     Adding external electric field

     Computed dipole along edir(3) : 
        Dipole               -3.3663 Ry au,         -8.5562 Debye
        Dipole field         -0.0064 Ry au, 
 
        Potential amp.        0.5889 Ry
        Total length         46.3494 bohr
 

     total cpu time spent up to now is      307.0 secs

     total energy              =   -2972.12137313 Ry
     estimated scf accuracy    <       1.92480894 Ry

     iteration # 13     ecut=    29.40 Ry     beta= 0.05
     Davidson diagonalization with overlap
     c_bands:  1 eigenvalues not converged
     ethr =  4.79E-04,  avg # of iterations = 16.5

     negative rho (up, down):  1.987E-03 0.000E+00
 
     Adding external electric field

     Computed dipole along edir(3) : 
        Dipole               -3.4428 Ry au,         -8.7507 Debye
        Dipole field         -0.0065 Ry au, 
 
        Potential amp.        0.6023 Ry
        Total length         46.3494 bohr
 

     total cpu time spent up to now is      332.1 secs

     total energy              =   -2974.37342892 Ry
     estimated scf accuracy    <      73.72380527 Ry

     iteration # 14     ecut=    29.40 Ry     beta= 0.05
     Davidson diagonalization with overlap
     ethr =  4.79E-04,  avg # of iterations =  1.8

     negative rho (up, down):  1.981E-03 0.000E+00
 
     Adding external electric field

     Computed dipole along edir(3) : 
        Dipole               -3.6008 Ry au,         -9.1523 Debye
        Dipole field         -0.0068 Ry au, 
 
        Potential amp.        0.6299 Ry
        Total length         46.3494 bohr
 

     total cpu time spent up to now is      343.1 secs

     total energy              =   -2974.71285815 Ry
     estimated scf accuracy    <     144.98709950 Ry

     iteration # 15     ecut=    29.40 Ry     beta= 0.05
     Davidson diagonalization with overlap
     ethr =  4.79E-04,  avg # of iterations =  1.6

     negative rho (up, down):  2.000E-03 0.000E+00
 
     Adding external electric field

     Computed dipole along edir(3) : 
        Dipole               -3.6083 Ry au,         -9.1715 Debye
        Dipole field         -0.0068 Ry au, 
 
        Potential amp.        0.6312 Ry
        Total length         46.3494 bohr
 

     total cpu time spent up to now is      353.9 secs

     total energy              =   -2974.78080964 Ry
     estimated scf accuracy    <     178.03767306 Ry

     iteration # 16     ecut=    29.40 Ry     beta= 0.05
     Davidson diagonalization with overlap
     ethr =  4.79E-04,  avg # of iterations =  1.0

     negative rho (up, down):  2.037E-03 0.000E+00
 
     Adding external electric field

     Computed dipole along edir(3) : 
        Dipole               -3.5678 Ry au,         -9.0685 Debye
        Dipole field         -0.0067 Ry au, 
 
        Potential amp.        0.6241 Ry
        Total length         46.3494 bohr
 

     total cpu time spent up to now is      364.7 secs

     total energy              =   -2974.86770849 Ry
     estimated scf accuracy    <     186.25280021 Ry

     iteration # 17     ecut=    29.40 Ry     beta= 0.05
     Davidson diagonalization with overlap
     ethr =  4.79E-04,  avg # of iterations =  1.0

     negative rho (up, down):  2.110E-03 0.000E+00
 
     Adding external electric field

     Computed dipole along edir(3) : 
        Dipole               -3.5330 Ry au,         -8.9800 Debye
        Dipole field         -0.0067 Ry au, 
 
        Potential amp.        0.6180 Ry
        Total length         46.3494 bohr
 

     total cpu time spent up to now is      374.9 secs

     total energy              =   -2975.35651484 Ry
     estimated scf accuracy    <     186.59794106 Ry

     iteration # 18     ecut=    29.40 Ry     beta= 0.05
     Davidson diagonalization with overlap
     ethr =  4.79E-04,  avg # of iterations =  1.3

     negative rho (up, down):  2.157E-03 0.000E+00
 
     Adding external electric field

     Computed dipole along edir(3) : 
        Dipole               -3.5596 Ry au,         -9.0476 Debye
        Dipole field         -0.0067 Ry au, 
 
        Potential amp.        0.6227 Ry
        Total length         46.3494 bohr
 

     total cpu time spent up to now is      385.2 secs

     total energy              =   -2975.43113835 Ry
     estimated scf accuracy    <     219.54226949 Ry

     iteration # 19     ecut=    29.40 Ry     beta= 0.05
     Davidson diagonalization with overlap
     ethr =  4.79E-04,  avg # of iterations =  1.0

     negative rho (up, down):  2.200E-03 0.000E+00
 
     Adding external electric field

     Computed dipole along edir(3) : 
        Dipole               -3.5391 Ry au,         -8.9954 Debye
        Dipole field         -0.0067 Ry au, 
 
        Potential amp.        0.6191 Ry
        Total length         46.3494 bohr
 

     total cpu time spent up to now is      395.4 secs

     total energy              =   -2975.47573006 Ry
     estimated scf accuracy    <     239.62808261 Ry

     iteration # 20     ecut=    29.40 Ry     beta= 0.05
     Davidson diagonalization with overlap
     ethr =  4.79E-04,  avg # of iterations =  1.3

     negative rho (up, down):  2.208E-03 0.000E+00
 
     Adding external electric field

     Computed dipole along edir(3) : 
        Dipole               -3.6761 Ry au,         -9.3438 Debye
        Dipole field         -0.0069 Ry au, 
 
        Potential amp.        0.6431 Ry
        Total length         46.3494 bohr
 

     total cpu time spent up to now is      405.8 secs

     total energy              =   -2975.41036580 Ry
     estimated scf accuracy    <     191.93230750 Ry

     iteration # 21     ecut=    29.40 Ry     beta= 0.05
     Davidson diagonalization with overlap
     ethr =  4.79E-04,  avg # of iterations =  1.9

     negative rho (up, down):  2.227E-03 0.000E+00
 
     Adding external electric field

     Computed dipole along edir(3) : 
        Dipole               -2.7286 Ry au,         -6.9354 Debye
        Dipole field         -0.0051 Ry au, 
 
        Potential amp.        0.4773 Ry
        Total length         46.3494 bohr
 

     total cpu time spent up to now is      416.7 secs

     total energy              =   -2970.04592309 Ry
     estimated scf accuracy    <     177.25518182 Ry

     iteration # 22     ecut=    29.40 Ry     beta= 0.05
     Davidson diagonalization with overlap
     ethr =  4.79E-04,  avg # of iterations = 14.6

     negative rho (up, down):  2.217E-03 0.000E+00
 
     Adding external electric field

     Computed dipole along edir(3) : 
        Dipole               -2.7777 Ry au,         -7.0603 Debye
        Dipole field         -0.0052 Ry au, 
 
        Potential amp.        0.4859 Ry
        Total length         46.3494 bohr
 

     total cpu time spent up to now is      437.5 secs

     total energy              =   -2972.97602771 Ry
     estimated scf accuracy    <       3.04385034 Ry

     iteration # 23     ecut=    29.40 Ry     beta= 0.05
     Davidson diagonalization with overlap
     ethr =  4.79E-04,  avg # of iterations =  2.0

     negative rho (up, down):  2.383E-03 0.000E+00
 
     Adding external electric field

     Computed dipole along edir(3) : 
        Dipole               -2.4272 Ry au,         -6.1694 Debye
        Dipole field         -0.0046 Ry au, 
 
        Potential amp.        0.4246 Ry
        Total length         46.3494 bohr
 

     total cpu time spent up to now is      447.9 secs

     total energy              =   -2972.79280408 Ry
     estimated scf accuracy    <       1.95036525 Ry

     iteration # 24     ecut=    29.40 Ry     beta= 0.05
     Davidson diagonalization with overlap
     ethr =  4.79E-04,  avg # of iterations =  5.9

     negative rho (up, down):  2.637E-03 0.000E+00
 
     Adding external electric field

     Computed dipole along edir(3) : 
        Dipole               -1.6900 Ry au,         -4.2955 Debye
        Dipole field         -0.0032 Ry au, 
 
        Potential amp.        0.2956 Ry
        Total length         46.3494 bohr
 

     total cpu time spent up to now is      460.2 secs

     total energy              =   -2972.81091687 Ry
     estimated scf accuracy    <       4.48533776 Ry

     iteration # 25     ecut=    29.40 Ry     beta= 0.05
     Davidson diagonalization with overlap
     ethr =  4.79E-04,  avg # of iterations =  6.5

     negative rho (up, down):  2.793E-03 0.000E+00
 
     Adding external electric field

     Computed dipole along edir(3) : 
        Dipole               -1.1675 Ry au,         -2.9674 Debye
        Dipole field         -0.0022 Ry au, 
 
        Potential amp.        0.2042 Ry
        Total length         46.3494 bohr
 

     total cpu time spent up to now is      472.6 secs

     total energy              =   -2972.67724278 Ry
     estimated scf accuracy    <       7.44531033 Ry

     iteration # 26     ecut=    29.40 Ry     beta= 0.05
     Davidson diagonalization with overlap
     ethr =  4.79E-04,  avg # of iterations =  1.8

     negative rho (up, down):  2.905E-03 0.000E+00
 
     Adding external electric field

     Computed dipole along edir(3) : 
        Dipole               -0.9939 Ry au,         -2.5261 Debye
        Dipole field         -0.0019 Ry au, 
 
        Potential amp.        0.1739 Ry
        Total length         46.3494 bohr
 

     total cpu time spent up to now is      483.3 secs

     total energy              =   -2972.77118634 Ry
     estimated scf accuracy    <       0.64057186 Ry

     iteration # 27     ecut=    29.40 Ry     beta= 0.05
     Davidson diagonalization with overlap
     c_bands:  3 eigenvalues not converged
     ethr =  1.59E-04,  avg # of iterations =  6.6

     negative rho (up, down):  3.254E-03 0.000E+00
 
     Adding external electric field

     Computed dipole along edir(3) : 
        Dipole               -1.1235 Ry au,         -2.8557 Debye
        Dipole field         -0.0021 Ry au, 
 
        Potential amp.        0.1965 Ry
        Total length         46.3494 bohr
 

     total cpu time spent up to now is      495.5 secs

     total energy              =   -2972.70987926 Ry
     estimated scf accuracy    <       0.51307449 Ry

     iteration # 28     ecut=    29.40 Ry     beta= 0.05
     Davidson diagonalization with overlap
     c_bands:  1 eigenvalues not converged
     ethr =  1.28E-04,  avg # of iterations =  5.3

     negative rho (up, down):  4.352E-03 0.000E+00
 
     Adding external electric field

     Computed dipole along edir(3) : 
        Dipole               -0.3409 Ry au,         -0.8664 Debye
        Dipole field         -0.0006 Ry au, 
 
        Potential amp.        0.0596 Ry
        Total length         46.3494 bohr
 

     total cpu time spent up to now is      507.4 secs

     total energy              =   -2972.69968452 Ry
     estimated scf accuracy    <       1.26667557 Ry

     iteration # 29     ecut=    29.40 Ry     beta= 0.05
     Davidson diagonalization with overlap
     c_bands:  1 eigenvalues not converged
     c_bands:  4 eigenvalues not converged
     c_bands:  1 eigenvalues not converged
     c_bands:  2 eigenvalues not converged
     c_bands:  3 eigenvalues not converged
     c_bands:  1 eigenvalues not converged
     ethr =  1.28E-04,  avg # of iterations = 17.4

     negative rho (up, down):  4.773E-03 0.000E+00
 
     Adding external electric field

     Computed dipole along edir(3) : 
        Dipole                0.0830 Ry au,          0.2110 Debye
        Dipole field          0.0002 Ry au, 
 
        Potential amp.       -0.0145 Ry
        Total length         46.3494 bohr
 

     total cpu time spent up to now is      524.2 secs

     total energy              =   -2972.70488803 Ry
     estimated scf accuracy    <       1.19290053 Ry

     iteration # 30     ecut=    29.40 Ry     beta= 0.05
     Davidson diagonalization with overlap
     ethr =  1.28E-04,  avg # of iterations =  3.8

     negative rho (up, down):  4.862E-03 0.000E+00
 
     Adding external electric field

     Computed dipole along edir(3) : 
        Dipole                0.0892 Ry au,          0.2267 Debye
        Dipole field          0.0002 Ry au, 
 
        Potential amp.       -0.0156 Ry
        Total length         46.3494 bohr
 

     total cpu time spent up to now is      535.6 secs

     total energy              =   -2972.72034734 Ry
     estimated scf accuracy    <       0.08756559 Ry

     iteration # 31     ecut=    29.40 Ry     beta= 0.05
     Davidson diagonalization with overlap
     c_bands:  3 eigenvalues not converged
     c_bands:  2 eigenvalues not converged
     c_bands:  1 eigenvalues not converged
     c_bands:  2 eigenvalues not converged
     c_bands:  1 eigenvalues not converged
     c_bands:  1 eigenvalues not converged
     ethr =  2.18E-05,  avg # of iterations = 17.9

     negative rho (up, down):  4.764E-03 0.000E+00
 
     Adding external electric field

     Computed dipole along edir(3) : 
        Dipole                0.0054 Ry au,          0.0136 Debye
        Dipole field          0.0000 Ry au, 
 
        Potential amp.       -0.0009 Ry
        Total length         46.3494 bohr
 

     total cpu time spent up to now is      553.4 secs

     total energy              =   -2972.72139207 Ry
     estimated scf accuracy    <       0.10409822 Ry

     iteration # 32     ecut=    29.40 Ry     beta= 0.05
     Davidson diagonalization with overlap
     c_bands:  1 eigenvalues not converged
     ethr =  2.18E-05,  avg # of iterations =  4.9

     negative rho (up, down):  6.018E-03 0.000E+00
 
     Adding external electric field

     Computed dipole along edir(3) : 
        Dipole                0.1614 Ry au,          0.4103 Debye
        Dipole field          0.0003 Ry au, 
 
        Potential amp.       -0.0282 Ry
        Total length         46.3494 bohr
 

     total cpu time spent up to now is      565.0 secs

     total energy              =   -2972.71191868 Ry
     estimated scf accuracy    <       0.06150924 Ry

     iteration # 33     ecut=    29.40 Ry     beta= 0.05
     Davidson diagonalization with overlap
     c_bands:  1 eigenvalues not converged
     c_bands:  1 eigenvalues not converged
     ethr =  1.53E-05,  avg # of iterations = 15.5

     negative rho (up, down):  6.916E-03 0.000E+00
 
     Adding external electric field

     Computed dipole along edir(3) : 
        Dipole                0.3167 Ry au,          0.8049 Debye
        Dipole field          0.0006 Ry au, 
 
        Potential amp.       -0.0554 Ry
        Total length         46.3494 bohr
 

     total cpu time spent up to now is      586.2 secs

     total energy              =   -2972.72424695 Ry
     estimated scf accuracy    <       0.08610785 Ry

     iteration # 34     ecut=    29.40 Ry     beta= 0.05
     Davidson diagonalization with overlap
     ethr =  1.53E-05,  avg # of iterations =  2.0

     negative rho (up, down):  6.352E-03 0.000E+00
 
     Adding external electric field

     Computed dipole along edir(3) : 
        Dipole                0.2708 Ry au,          0.6884 Debye
        Dipole field          0.0005 Ry au, 
 
        Potential amp.       -0.0474 Ry
        Total length         46.3494 bohr
 

     total cpu time spent up to now is      597.3 secs

     total energy              =   -2972.71948658 Ry
     estimated scf accuracy    <       0.04738481 Ry

     iteration # 35     ecut=    29.40 Ry     beta= 0.05
     Davidson diagonalization with overlap
     ethr =  1.18E-05,  avg # of iterations =  6.0

     negative rho (up, down):  6.391E-03 0.000E+00
 
     Adding external electric field

     Computed dipole along edir(3) : 
        Dipole                0.2575 Ry au,          0.6545 Debye
        Dipole field          0.0005 Ry au, 
 
        Potential amp.       -0.0450 Ry
        Total length         46.3494 bohr
 

     total cpu time spent up to now is      610.6 secs

     total energy              =   -2972.72352349 Ry
     estimated scf accuracy    <       0.02563573 Ry

     iteration # 36     ecut=    29.40 Ry     beta= 0.05
     Davidson diagonalization with overlap
     ethr =  6.38E-06,  avg # of iterations =  3.5

     negative rho (up, down):  8.614E-03 0.000E+00
 
     Adding external electric field

     Computed dipole along edir(3) : 
        Dipole                0.2734 Ry au,          0.6950 Debye
        Dipole field          0.0005 Ry au, 
 
        Potential amp.       -0.0478 Ry
        Total length         46.3494 bohr
 

     total cpu time spent up to now is      621.9 secs

     total energy              =   -2972.72396895 Ry
     estimated scf accuracy    <       0.01357375 Ry

     iteration # 37     ecut=    29.40 Ry     beta= 0.05
     Davidson diagonalization with overlap
     c_bands:  1 eigenvalues not converged
     c_bands:  2 eigenvalues not converged
     ethr =  3.38E-06,  avg # of iterations = 12.8

     negative rho (up, down):  1.145E-02 0.000E+00
 
     Adding external electric field

     Computed dipole along edir(3) : 
        Dipole                0.3606 Ry au,          0.9165 Debye
        Dipole field          0.0007 Ry au, 
 
        Potential amp.       -0.0631 Ry
        Total length         46.3494 bohr
 

     total cpu time spent up to now is      640.8 secs

     total energy              =   -2972.72621070 Ry
     estimated scf accuracy    <       0.00637323 Ry

     iteration # 38     ecut=    29.40 Ry     beta= 0.05
     Davidson diagonalization with overlap
     c_bands:  1 eigenvalues not converged
     c_bands:  3 eigenvalues not converged
     ethr =  1.59E-06,  avg # of iterations =  6.8

     negative rho (up, down):  1.197E-02 0.000E+00
 
     Adding external electric field

     Computed dipole along edir(3) : 
        Dipole                0.3986 Ry au,          1.0132 Debye
        Dipole field          0.0008 Ry au, 
 
        Potential amp.       -0.0697 Ry
        Total length         46.3494 bohr
 

     total cpu time spent up to now is      653.9 secs

     total energy              =   -2972.72614264 Ry
     estimated scf accuracy    <       0.04328321 Ry

     iteration # 39     ecut=    29.40 Ry     beta= 0.05
     Davidson diagonalization with overlap
     c_bands:  1 eigenvalues not converged
     ethr =  1.59E-06,  avg # of iterations =  4.9

     negative rho (up, down):  1.181E-02 0.000E+00
 
     Adding external electric field

     Computed dipole along edir(3) : 
        Dipole                0.4013 Ry au,          1.0199 Debye
        Dipole field          0.0008 Ry au, 
 
        Potential amp.       -0.0702 Ry
        Total length         46.3494 bohr
 

     total cpu time spent up to now is      665.8 secs

     total energy              =   -2972.72661438 Ry
     estimated scf accuracy    <       0.00626554 Ry

     iteration # 40     ecut=    29.40 Ry     beta= 0.05
     Davidson diagonalization with overlap
     ethr =  1.56E-06,  avg # of iterations =  1.2

     negative rho (up, down):  1.356E-02 0.000E+00
 
     Adding external electric field

     Computed dipole along edir(3) : 
        Dipole                0.4473 Ry au,          1.1368 Debye
        Dipole field          0.0008 Ry au, 
 
        Potential amp.       -0.0782 Ry
        Total length         46.3494 bohr
 

     total cpu time spent up to now is      676.2 secs

     total energy              =   -2972.72604264 Ry
     estimated scf accuracy    <       0.00576465 Ry

     iteration # 41     ecut=    29.40 Ry     beta= 0.05
     Davidson diagonalization with overlap
     ethr =  1.43E-06,  avg # of iterations =  6.7

     negative rho (up, down):  1.499E-02 0.000E+00
 
     Adding external electric field

     Computed dipole along edir(3) : 
        Dipole                0.4596 Ry au,          1.1683 Debye
        Dipole field          0.0009 Ry au, 
 
        Potential amp.       -0.0804 Ry
        Total length         46.3494 bohr
 

     total cpu time spent up to now is      690.2 secs

     total energy              =   -2972.72662325 Ry
     estimated scf accuracy    <       0.00357527 Ry

     iteration # 42     ecut=    29.40 Ry     beta= 0.05
     Davidson diagonalization with overlap
     ethr =  8.89E-07,  avg # of iterations =  6.0

     negative rho (up, down):  1.551E-02 0.000E+00
 
     Adding external electric field

     Computed dipole along edir(3) : 
        Dipole                0.4535 Ry au,          1.1526 Debye
        Dipole field          0.0009 Ry au, 
 
        Potential amp.       -0.0793 Ry
        Total length         46.3494 bohr
 

     total cpu time spent up to now is      703.1 secs

     total energy              =   -2972.72687158 Ry
     estimated scf accuracy    <       0.00292178 Ry

     iteration # 43     ecut=    29.40 Ry     beta= 0.05
     Davidson diagonalization with overlap
     ethr =  7.27E-07,  avg # of iterations =  4.5

     negative rho (up, down):  1.544E-02 0.000E+00
 
     Adding external electric field

     Computed dipole along edir(3) : 
        Dipole                0.4518 Ry au,          1.1483 Debye
        Dipole field          0.0009 Ry au, 
 
        Potential amp.       -0.0790 Ry
        Total length         46.3494 bohr
 

     total cpu time spent up to now is      714.5 secs

     total energy              =   -2972.72693346 Ry
     estimated scf accuracy    <       0.00049294 Ry

     iteration # 44     ecut=    29.40 Ry     beta= 0.05
     Davidson diagonalization with overlap
     ethr =  1.23E-07,  avg # of iterations =  7.0

     negative rho (up, down):  1.541E-02 0.000E+00
 
     Adding external electric field

     Computed dipole along edir(3) : 
        Dipole                0.4543 Ry au,          1.1547 Debye
        Dipole field          0.0009 Ry au, 
 
        Potential amp.       -0.0795 Ry
        Total length         46.3494 bohr
 

     total cpu time spent up to now is      727.9 secs

     total energy              =   -2972.72701092 Ry
     estimated scf accuracy    <       0.00021315 Ry

     iteration # 45     ecut=    29.40 Ry     beta= 0.05
     Davidson diagonalization with overlap
     ethr =  5.30E-08,  avg # of iterations =  2.0

     negative rho (up, down):  1.593E-02 0.000E+00
 
     Adding external electric field

     Computed dipole along edir(3) : 
        Dipole                0.4593 Ry au,          1.1673 Debye
        Dipole field          0.0009 Ry au, 
 
        Potential amp.       -0.0803 Ry
        Total length         46.3494 bohr
 

     total cpu time spent up to now is      738.9 secs

     total energy              =   -2972.72703316 Ry
     estimated scf accuracy    <       0.00019211 Ry

     iteration # 46     ecut=    29.40 Ry     beta= 0.05
     Davidson diagonalization with overlap
     ethr =  4.78E-08,  avg # of iterations =  6.1

     negative rho (up, down):  1.626E-02 0.000E+00
 
     Adding external electric field

     Computed dipole along edir(3) : 
        Dipole                0.4618 Ry au,          1.1738 Debye
        Dipole field          0.0009 Ry au, 
 
        Potential amp.       -0.0808 Ry
        Total length         46.3494 bohr
 

     total cpu time spent up to now is      755.8 secs

     total energy              =   -2972.72709570 Ry
     estimated scf accuracy    <       0.00022835 Ry

     iteration # 47     ecut=    29.40 Ry     beta= 0.05
     Davidson diagonalization with overlap
     ethr =  4.78E-08,  avg # of iterations =  5.0

     negative rho (up, down):  1.634E-02 0.000E+00
 
     Adding external electric field

     Computed dipole along edir(3) : 
        Dipole                0.4639 Ry au,          1.1792 Debye
        Dipole field          0.0009 Ry au, 
 
        Potential amp.       -0.0812 Ry
        Total length         46.3494 bohr
 

     total cpu time spent up to now is      768.4 secs

     total energy              =   -2972.72712670 Ry
     estimated scf accuracy    <       0.00015613 Ry

     iteration # 48     ecut=    29.40 Ry     beta= 0.05
     Davidson diagonalization with overlap
     ethr =  3.88E-08,  avg # of iterations =  2.6

     negative rho (up, down):  1.637E-02 0.000E+00
 
     Adding external electric field

     Computed dipole along edir(3) : 
        Dipole                0.4641 Ry au,          1.1797 Debye
        Dipole field          0.0009 Ry au, 
 
        Potential amp.       -0.0812 Ry
        Total length         46.3494 bohr
 

     total cpu time spent up to now is      779.7 secs

     total energy              =   -2972.72715090 Ry
     estimated scf accuracy    <       0.00008631 Ry

     iteration # 49     ecut=    29.40 Ry     beta= 0.05
     Davidson diagonalization with overlap
     ethr =  2.15E-08,  avg # of iterations =  5.6

     negative rho (up, down):  1.639E-02 0.000E+00
 
     Adding external electric field

     Computed dipole along edir(3) : 
        Dipole                0.4652 Ry au,          1.1823 Debye
        Dipole field          0.0009 Ry au, 
 
        Potential amp.       -0.0814 Ry
        Total length         46.3494 bohr
 

     total cpu time spent up to now is      791.8 secs

     total energy              =   -2972.72716511 Ry
     estimated scf accuracy    <       0.00006146 Ry

     iteration # 50     ecut=    29.40 Ry     beta= 0.05
     Davidson diagonalization with overlap
     ethr =  1.53E-08,  avg # of iterations =  5.3

     negative rho (up, down):  1.643E-02 0.000E+00
 
     Adding external electric field

     Computed dipole along edir(3) : 
        Dipole                0.4659 Ry au,          1.1843 Debye
        Dipole field          0.0009 Ry au, 
 
        Potential amp.       -0.0815 Ry
        Total length         46.3494 bohr
 

     total cpu time spent up to now is      806.6 secs

     total energy              =   -2972.72719219 Ry
     estimated scf accuracy    <       0.00002283 Ry

     iteration # 51     ecut=    29.40 Ry     beta= 0.05
     Davidson diagonalization with overlap
     ethr =  5.68E-09,  avg # of iterations =  2.9

     negative rho (up, down):  1.632E-02 0.000E+00
 
     Adding external electric field

     Computed dipole along edir(3) : 
        Dipole                0.4649 Ry au,          1.1817 Debye
        Dipole field          0.0009 Ry au, 
 
        Potential amp.       -0.0813 Ry
        Total length         46.3494 bohr
 

     total cpu time spent up to now is      818.4 secs

     total energy              =   -2972.72720918 Ry
     estimated scf accuracy    <       0.00001293 Ry

     iteration # 52     ecut=    29.40 Ry     beta= 0.05
     Davidson diagonalization with overlap
     ethr =  3.22E-09,  avg # of iterations =  6.0

     negative rho (up, down):  1.629E-02 0.000E+00
 
     Adding external electric field

     Computed dipole along edir(3) : 
        Dipole                0.4641 Ry au,          1.1797 Debye
        Dipole field          0.0009 Ry au, 
 
        Potential amp.       -0.0812 Ry
        Total length         46.3494 bohr
 

     total cpu time spent up to now is      835.3 secs

     total energy              =   -2972.72722571 Ry
     estimated scf accuracy    <       0.00002210 Ry

     iteration # 53     ecut=    29.40 Ry     beta= 0.05
     Davidson diagonalization with overlap
     ethr =  3.22E-09,  avg # of iterations =  2.6

     negative rho (up, down):  1.621E-02 0.000E+00
 
     Adding external electric field

     Computed dipole along edir(3) : 
        Dipole                0.4626 Ry au,          1.1759 Debye
        Dipole field          0.0009 Ry au, 
 
        Potential amp.       -0.0809 Ry
        Total length         46.3494 bohr
 

     total cpu time spent up to now is      846.6 secs

     total energy              =   -2972.72723823 Ry
     estimated scf accuracy    <       0.00001220 Ry

     iteration # 54     ecut=    29.40 Ry     beta= 0.05
     Davidson diagonalization with overlap
     ethr =  3.04E-09,  avg # of iterations =  5.0

     negative rho (up, down):  1.618E-02 0.000E+00
 
     Adding external electric field

     Computed dipole along edir(3) : 
        Dipole                0.4618 Ry au,          1.1739 Debye
        Dipole field          0.0009 Ry au, 
 
        Potential amp.       -0.0808 Ry
        Total length         46.3494 bohr
 

     total cpu time spent up to now is      861.2 secs

     total energy              =   -2972.72725361 Ry
     estimated scf accuracy    <       0.00000368 Ry

     iteration # 55     ecut=    29.40 Ry     beta= 0.05
     Davidson diagonalization with overlap
     ethr =  9.15E-10,  avg # of iterations =  5.1

     negative rho (up, down):  1.617E-02 0.000E+00
 
     Adding external electric field

     Computed dipole along edir(3) : 
        Dipole                0.4612 Ry au,          1.1724 Debye
        Dipole field          0.0009 Ry au, 
 
        Potential amp.       -0.0807 Ry
        Total length         46.3494 bohr
 

     total cpu time spent up to now is      873.7 secs

     total energy              =   -2972.72726531 Ry
     estimated scf accuracy    <       0.00000299 Ry

     iteration # 56     ecut=    29.40 Ry     beta= 0.05
     Davidson diagonalization with overlap
     ethr =  7.44E-10,  avg # of iterations =  6.0

     negative rho (up, down):  1.621E-02 0.000E+00
 
     Adding external electric field

     Computed dipole along edir(3) : 
        Dipole                0.4611 Ry au,          1.1720 Debye
        Dipole field          0.0009 Ry au, 
 
        Potential amp.       -0.0807 Ry
        Total length         46.3494 bohr
 

     total cpu time spent up to now is      886.6 secs

     total energy              =   -2972.72727616 Ry
     estimated scf accuracy    <       0.00000143 Ry

     iteration # 57     ecut=    29.40 Ry     beta= 0.05
     Davidson diagonalization with overlap
     ethr =  3.55E-10,  avg # of iterations =  6.0

     negative rho (up, down):  1.622E-02 0.000E+00
 
     Adding external electric field

     Computed dipole along edir(3) : 
        Dipole                0.4608 Ry au,          1.1713 Debye
        Dipole field          0.0009 Ry au, 
 
        Potential amp.       -0.0806 Ry
        Total length         46.3494 bohr
 

     total cpu time spent up to now is      905.0 secs

     total energy              =   -2972.72728566 Ry
     estimated scf accuracy    <       0.00000308 Ry

     iteration # 58     ecut=    29.40 Ry     beta= 0.05
     Davidson diagonalization with overlap
     ethr =  3.55E-10,  avg # of iterations =  5.2

     negative rho (up, down):  1.621E-02 0.000E+00
 
     Adding external electric field

     Computed dipole along edir(3) : 
        Dipole                0.4604 Ry au,          1.1702 Debye
        Dipole field          0.0009 Ry au, 
 
        Potential amp.       -0.0805 Ry
        Total length         46.3494 bohr
 

     total cpu time spent up to now is      919.8 secs

     total energy              =   -2972.72729458 Ry
     estimated scf accuracy    <       0.00000052 Ry

     iteration # 59     ecut=    29.40 Ry     beta= 0.05
     Davidson diagonalization with overlap
     ethr =  1.30E-10,  avg # of iterations =  5.6

     negative rho (up, down):  1.620E-02 0.000E+00
 
     Adding external electric field

     Computed dipole along edir(3) : 
        Dipole                0.4600 Ry au,          1.1693 Debye
        Dipole field          0.0009 Ry au, 
 
        Potential amp.       -0.0805 Ry
        Total length         46.3494 bohr
 

     total cpu time spent up to now is      935.8 secs

     total energy              =   -2972.72730246 Ry
     estimated scf accuracy    <       0.00000064 Ry

     iteration # 60     ecut=    29.40 Ry     beta= 0.05
     Davidson diagonalization with overlap
     ethr =  1.30E-10,  avg # of iterations =  3.0

     negative rho (up, down):  1.619E-02 0.000E+00
 
     Adding external electric field

     Computed dipole along edir(3) : 
        Dipole                0.4595 Ry au,          1.1680 Debye
        Dipole field          0.0009 Ry au, 
 
        Potential amp.       -0.0804 Ry
        Total length         46.3494 bohr
 

     total cpu time spent up to now is      948.5 secs

     total energy              =   -2972.72730959 Ry
     estimated scf accuracy    <       0.00000020 Ry

     iteration # 61     ecut=    29.40 Ry     beta= 0.05
     Davidson diagonalization with overlap
     ethr =  5.08E-11,  avg # of iterations =  7.3

     negative rho (up, down):  1.618E-02 0.000E+00
 
     Adding external electric field

     Computed dipole along edir(3) : 
        Dipole                0.4594 Ry au,          1.1677 Debye
        Dipole field          0.0009 Ry au, 
 
        Potential amp.       -0.0804 Ry
        Total length         46.3494 bohr
 

     total cpu time spent up to now is      969.3 secs

     total energy              =   -2972.72731603 Ry
     estimated scf accuracy    <       0.00000070 Ry

     iteration # 62     ecut=    29.40 Ry     beta= 0.05
     Davidson diagonalization with overlap
     ethr =  5.08E-11,  avg # of iterations =  3.1

     negative rho (up, down):  1.617E-02 0.000E+00
 
     Adding external electric field

     Computed dipole along edir(3) : 
        Dipole                0.4592 Ry au,          1.1673 Debye
        Dipole field          0.0009 Ry au, 
 
        Potential amp.       -0.0803 Ry
        Total length         46.3494 bohr
 

     total cpu time spent up to now is      981.2 secs

     total energy              =   -2972.72732172 Ry
     estimated scf accuracy    <       0.00000040 Ry

     iteration # 63     ecut=    29.40 Ry     beta= 0.05
     Davidson diagonalization with overlap
     ethr =  5.08E-11,  avg # of iterations =  5.0

     negative rho (up, down):  1.619E-02 0.000E+00
 
     Adding external electric field

     Computed dipole along edir(3) : 
        Dipole                0.4594 Ry au,          1.1676 Debye
        Dipole field          0.0009 Ry au, 
 
        Potential amp.       -0.0804 Ry
        Total length         46.3494 bohr
 

     total cpu time spent up to now is      998.0 secs

     End of self-consistent calculation

          k = 0.0000 0.0000 0.0000 ( 18029 PWs)   bands (ev):

   -56.5347 -56.5011 -55.8866 -55.8511 -55.6241 -55.5646 -55.3845 -55.3308
   -55.3101 -55.2343 -55.2086 -55.1877 -55.1538 -55.0431 -55.0378 -54.9963
   -32.9672 -32.8195 -32.7915 -32.7019 -32.6106 -32.5928 -32.3695 -32.1060
   -32.1046 -32.0770 -32.0297 -32.0261 -31.9930 -31.8741 -31.8528 -31.8449
   -31.7922 -31.7683 -31.7274 -31.7138 -31.7008 -31.6549 -31.6520 -31.5939
   -31.5918 -31.5886 -31.5771 -31.5392 -31.5349 -31.5284 -31.5110 -31.5043
   -31.4890 -31.4843 -31.4281 -31.4143 -31.3976 -31.3632 -31.3148 -31.2996
   -31.2983 -31.2843 -31.2549 -31.2479 -31.2275 -31.2030 -31.1871 -31.1668
   -17.9281 -16.7215 -16.2898 -16.1776 -15.9852 -15.9053 -15.8846 -15.8511
   -15.7834 -15.6230 -15.5344 -15.5138 -15.4967 -15.4405 -15.2732 -15.1767
   -15.1662 -15.0992 -15.0197 -14.9952 -14.9560 -14.8986 -14.8808 -14.8620
   -14.8447 -14.8140 -14.6846 -14.6075 -14.5133 -14.3292 -14.3156 -13.6854
   -13.5758 -11.9664  -7.7283  -5.1647  -4.3737  -4.2715  -3.7978  -3.7806
    -3.6061  -3.4308  -3.3694  -3.2356  -3.1711  -3.1148  -3.0605  -3.0463
    -2.9418  -2.8199  -2.8008  -2.7427  -2.7184  -2.7143  -2.7027  -2.6077
    -2.5323  -2.5216  -2.4275  -2.3391  -2.3174  -2.2757  -2.2359  -2.2269
    -2.1834  -2.1486  -2.0908  -2.0527  -2.0424  -1.9433  -1.9231  -1.8190
    -1.7820  -1.7657  -1.7566  -1.7215  -1.6797  -1.6259  -1.5592  -1.4377
    -1.3438  -1.3239  -1.2545  -1.2502  -1.2187  -1.0587  -1.0213  -1.0155
    -0.9565  -0.8802  -0.8469  -0.7971  -0.7586  -0.7173  -0.6668  -0.6222
    -0.5872  -0.4519  -0.4492  -0.4036  -0.3172  -0.2939  -0.2626  -0.2399
    -0.1568  -0.1049  -0.0675  -0.0023   0.0603   0.0676   0.1078   0.1694
     0.2803   0.3212   0.3466   0.3763   0.4201   0.4463   0.5131   0.5603
     0.5916   0.6001   0.6738   0.7781   0.7956   0.8354   0.9162   0.9480
     1.0264   1.0665   1.0890   1.1787   1.1912   1.3735   1.4119   1.5755
     2.3896   2.7291   2.8789   3.1611   3.1746   3.4657   3.6907   3.7192
     3.7220   3.7989   3.9361

          k = 0.0000 0.0419 0.0000 ( 17933 PWs)   bands (ev):

   -56.5297 -56.5059 -55.8819 -55.8555 -55.6215 -55.5670 -55.3816 -55.3336
   -55.3091 -55.2336 -55.2095 -55.1827 -55.1587 -55.0397 -55.0385 -54.9995
   -32.9137 -32.8152 -32.7952 -32.6885 -32.6488 -32.6239 -32.3176 -32.0942
   -32.0692 -32.0640 -32.0516 -32.0328 -32.0250 -31.8500 -31.8377 -31.8205
   -31.7911 -31.7824 -31.7762 -31.6790 -31.6595 -31.6386 -31.6193 -31.5876
   -31.5852 -31.5823 -31.5547 -31.5500 -31.5359 -31.5252 -31.5247 -31.5076
   -31.5075 -31.4817 -31.4267 -31.4212 -31.4035 -31.3856 -31.3338 -31.3269
   -31.2990 -31.2932 -31.2596 -31.2552 -31.2475 -31.2269 -31.2199 -31.1814
   -17.9218 -16.6001 -16.1804 -16.1641 -15.9843 -15.8921 -15.8455 -15.8007
   -15.7930 -15.5566 -15.5251 -15.4995 -15.4799 -15.4533 -15.2883 -15.2183
   -15.1669 -15.0881 -15.0425 -14.9917 -14.9593 -14.9530 -14.9268 -14.8914
   -14.8334 -14.7886 -14.6969 -14.6671 -14.5626 -14.4350 -14.3830 -13.6928
   -13.6171 -11.9451  -7.6943  -5.1940  -4.4175  -4.0899  -3.7794  -3.6167
    -3.4580  -3.2947  -3.2608  -3.1096  -3.0973  -3.0682  -3.0580  -3.0455
    -2.8617  -2.7823  -2.7720  -2.7490  -2.7195  -2.7015  -2.6668  -2.6562
    -2.5704  -2.5289  -2.4748  -2.4661  -2.4055  -2.3885  -2.3456  -2.2846
    -2.2681  -2.2497  -2.1479  -2.0983  -2.0651  -1.9704  -1.9155  -1.8524
    -1.8231  -1.7385  -1.6924  -1.6053  -1.5763  -1.5576  -1.4883  -1.3747
    -1.2935  -1.2881  -1.2200  -1.1554  -1.0997  -1.0316  -1.0153  -0.9792
    -0.8904  -0.8783  -0.8411  -0.7891  -0.7336  -0.7167  -0.6364  -0.5559
    -0.5145  -0.4479  -0.4203  -0.4052  -0.3718  -0.3001  -0.2675  -0.2418
    -0.2036  -0.1644  -0.1360  -0.0839  -0.0402  -0.0131   0.0762   0.1221
     0.1726   0.2333   0.2580   0.2741   0.3469   0.3746   0.4174   0.4499
     0.4794   0.5224   0.5944   0.6556   0.6688   0.7297   0.8106   0.9025
     0.9738   1.0360   1.0698   1.1108   1.2101   1.3125   1.3258   1.4877
     2.3769   2.9784   3.0047   3.1625   3.4048   3.5247   3.5889   3.6761
     3.6779   3.8268   3.9119

          k = 0.0000-0.0839 0.0000 ( 17884 PWs)   bands (ev):

   -56.5181 -56.5175 -55.8745 -55.8628 -55.6187 -55.5698 -55.3783 -55.3368
   -55.3081 -55.2328 -55.2104 -55.1713 -55.1701 -55.0391 -55.0357 -55.0035
   -32.8053 -32.8047 -32.7831 -32.7822 -32.6563 -32.6561 -32.1951 -32.1856
   -32.0682 -32.0552 -32.0547 -32.0462 -31.9401 -31.8977 -31.8464 -31.8278
   -31.7907 -31.7869 -31.7032 -31.6717 -31.6348 -31.6165 -31.6019 -31.5968
   -31.5858 -31.5775 -31.5566 -31.5478 -31.5350 -31.5164 -31.5156 -31.5146
   -31.4786 -31.4740 -31.4271 -31.4243 -31.3958 -31.3942 -31.3927 -31.3570
   -31.3559 -31.3040 -31.2917 -31.2702 -31.2537 -31.2471 -31.2251 -31.1896
   -17.9156 -16.3008 -16.2978 -16.1626 -15.9348 -15.9194 -15.7020 -15.7011
   -15.7010 -15.6824 -15.6005 -15.5259 -15.3876 -15.3767 -15.2954 -15.2180
   -15.2070 -15.1430 -15.0952 -15.0756 -15.0192 -14.9945 -14.8294 -14.8147
   -14.8029 -14.7565 -14.7110 -14.6919 -14.6572 -14.6144 -14.4695 -13.6801
   -13.6795 -11.9253  -7.6595  -5.2244  -4.4513  -3.7754  -3.6387  -3.6384
    -3.2196  -3.1858  -3.1583  -3.1517  -3.1490  -3.1239  -2.9153  -2.8867
    -2.8657  -2.8263  -2.8037  -2.7527  -2.7370  -2.7144  -2.6875  -2.6577
    -2.6524  -2.5743  -2.5088  -2.4771  -2.4458  -2.3562  -2.3088  -2.2732
    -2.2552  -2.2294  -2.1880  -2.0911  -2.0148  -1.9486  -1.9312  -1.9006
    -1.8528  -1.8310  -1.6608  -1.6212  -1.5082  -1.4578  -1.4255  -1.3801
    -1.3295  -1.2034  -1.1766  -1.1618  -1.0631  -1.0282  -1.0121  -0.9534
    -0.9200  -0.8217  -0.8077  -0.7278  -0.7056  -0.6930  -0.6647  -0.5780
    -0.5398  -0.4712  -0.4591  -0.4370  -0.4299  -0.3942  -0.3284  -0.2396
    -0.2067  -0.1759  -0.1407  -0.1352  -0.0768  -0.0468   0.0354   0.0726
     0.0845   0.0953   0.1632   0.2006   0.2814   0.2986   0.3162   0.3811
     0.3963   0.4158   0.4411   0.5394   0.5922   0.6632   0.7802   0.8568
     0.9430   0.9885   1.1554   1.2057   1.2147   1.2682   1.2821   1.2975
     2.3607   3.2271   3.2294   3.3561   3.3571   3.4443   3.4446   3.6936
     3.7020   3.8223   3.9038

          k = 0.0380 0.0000 0.0000 ( 17913 PWs)   bands (ev):

   -56.5346 -56.5010 -55.8864 -55.8510 -55.6240 -55.5645 -55.3844 -55.3307
   -55.3100 -55.2343 -55.2085 -55.1876 -55.1537 -55.0430 -55.0377 -54.9962
   -32.9678 -32.8193 -32.7914 -32.6998 -32.6103 -32.5926 -32.3696 -32.1188
   -32.1058 -32.0663 -32.0295 -32.0106 -31.9927 -31.8762 -31.8555 -31.8525
   -31.7921 -31.7684 -31.7272 -31.7145 -31.7027 -31.6555 -31.6436 -31.5926
   -31.5912 -31.5856 -31.5767 -31.5373 -31.5344 -31.5309 -31.5110 -31.5025
   -31.4889 -31.4841 -31.4324 -31.4110 -31.3974 -31.3627 -31.3147 -31.2994
   -31.2986 -31.2842 -31.2606 -31.2493 -31.2256 -31.2027 -31.1869 -31.1667
   -17.9276 -16.6223 -16.2088 -16.1694 -16.0627 -15.9868 -15.8653 -15.8494
   -15.6570 -15.6217 -15.5510 -15.5339 -15.4503 -15.4425 -15.4356 -15.1897
   -15.1519 -15.1177 -15.0469 -15.0026 -15.0008 -14.9667 -14.9404 -14.8741
   -14.7204 -14.7096 -14.6830 -14.6457 -14.5600 -14.3264 -14.3156 -13.6826
   -13.5755 -11.9662  -7.7282  -5.1638  -4.3743  -3.9879  -3.7664  -3.6761
    -3.4573  -3.4385  -3.3365  -3.2675  -3.1237  -3.1058  -3.0621  -3.0512
    -2.8886  -2.8065  -2.7913  -2.7594  -2.7077  -2.6756  -2.6600  -2.6341
    -2.5753  -2.5373  -2.5092  -2.4559  -2.3324  -2.2420  -2.1688  -2.1253
    -2.1152  -2.0375  -2.0054  -1.9636  -1.9331  -1.9030  -1.8158  -1.7863
    -1.7731  -1.7348  -1.6900  -1.6628  -1.6382  -1.6013  -1.5485  -1.5352
    -1.4964  -1.3696  -1.3236  -1.1975  -1.1767  -1.0857  -1.0377  -0.9922
    -0.9817  -0.9276  -0.8592  -0.8288  -0.8046  -0.7644  -0.7192  -0.6838
    -0.6328  -0.5549  -0.5326  -0.4881  -0.3994  -0.3625  -0.3414  -0.2269
    -0.2037  -0.1107  -0.0836  -0.0064   0.0149   0.1185   0.1485   0.1961
     0.2291   0.2496   0.2706   0.3228   0.3618   0.3881   0.4168   0.4822
     0.5332   0.5851   0.6081   0.7775   0.7937   0.8163   0.8478   0.9261
     0.9392   0.9764   1.0511   1.0706   1.1956   1.2696   1.3242   1.4476
     2.3417   2.8520   2.8763   3.1633   3.2672   3.3456   3.6876   3.7122
     3.7354   3.7844   3.9792

          k = 0.0380 0.0419 0.0000 ( 17878 PWs)   bands (ev):

   -56.5296 -56.5059 -55.8819 -55.8555 -55.6214 -55.5670 -55.3815 -55.3335
   -55.3091 -55.2335 -55.2094 -55.1826 -55.1587 -55.0396 -55.0384 -54.9995
   -32.9143 -32.8150 -32.7952 -32.6868 -32.6488 -32.6236 -32.3177 -32.0940
   -32.0771 -32.0643 -32.0602 -32.0251 -32.0054 -31.8499 -31.8464 -31.8226
   -31.7910 -31.7815 -31.7780 -31.6802 -31.6615 -31.6310 -31.6199 -31.5872
   -31.5847 -31.5790 -31.5526 -31.5497 -31.5356 -31.5267 -31.5249 -31.5075
   -31.5067 -31.4816 -31.4307 -31.4171 -31.4048 -31.3855 -31.3335 -31.3270
   -31.2989 -31.2933 -31.2595 -31.2586 -31.2493 -31.2273 -31.2195 -31.1814
   -17.9216 -16.5069 -16.1655 -16.1044 -16.0482 -15.9084 -15.8904 -15.7730
   -15.6862 -15.6479 -15.5035 -15.4890 -15.4415 -15.4208 -15.3969 -15.1936
   -15.1560 -15.1129 -15.0782 -15.0448 -14.9962 -14.9837 -14.9506 -14.8457
   -14.8084 -14.7789 -14.7033 -14.6754 -14.6081 -14.4349 -14.3815 -13.6909
   -13.6173 -11.9449  -7.6939  -5.1942  -4.4161  -3.8105  -3.7616  -3.5157
    -3.3043  -3.2793  -3.2202  -3.1266  -2.9807  -2.9614  -2.9574  -2.9371
    -2.9243  -2.8208  -2.7644  -2.7480  -2.7068  -2.6614  -2.6180  -2.6032
    -2.5511  -2.5271  -2.4803  -2.4505  -2.3814  -2.3718  -2.3152  -2.2609
    -2.2373  -2.1781  -2.1409  -2.0893  -2.0162  -1.9575  -1.8584  -1.8275
    -1.7729  -1.7585  -1.6554  -1.6014  -1.5854  -1.4996  -1.4639  -1.4188
    -1.3833  -1.3121  -1.2834  -1.1945  -1.1558  -1.1115  -1.0578  -1.0120
    -0.9959  -0.9086  -0.8723  -0.8265  -0.8011  -0.7165  -0.6666  -0.6478
    -0.6270  -0.5993  -0.5515  -0.5013  -0.4412  -0.4237  -0.3747  -0.3097
    -0.2900  -0.2263  -0.1631  -0.1158  -0.0880  -0.0210   0.0281   0.0776
     0.1250   0.1654   0.2423   0.2692   0.2946   0.3506   0.3870   0.4307
     0.4777   0.5209   0.5631   0.6552   0.6783   0.7756   0.8255   0.8936
     0.9302   1.0055   1.0774   1.1329   1.2169   1.2512   1.3006   1.4014
     2.3549   2.9687   3.1093   3.2327   3.3968   3.4507   3.6276   3.7067
     3.7345   3.8483   4.0272

          k = 0.0380-0.0839 0.0000 ( 17916 PWs)   bands (ev):

   -56.5181 -56.5175 -55.8746 -55.8628 -55.6187 -55.5698 -55.3783 -55.3368
   -55.3081 -55.2329 -55.2104 -55.1713 -55.1701 -55.0392 -55.0357 -55.0035
   -32.8054 -32.8048 -32.7837 -32.7828 -32.6555 -32.6553 -32.1953 -32.1858
   -32.0682 -32.0554 -32.0546 -32.0469 -31.9336 -31.8934 -31.8465 -31.8333
   -31.7917 -31.7907 -31.7055 -31.6738 -31.6357 -31.6153 -31.5991 -31.5963
   -31.5841 -31.5734 -31.5575 -31.5477 -31.5337 -31.5171 -31.5162 -31.5146
   -31.4792 -31.4748 -31.4298 -31.4225 -31.3957 -31.3941 -31.3923 -31.3570
   -31.3559 -31.3041 -31.2917 -31.2701 -31.2549 -31.2493 -31.2275 -31.1897
   -17.9155 -16.2344 -16.2312 -16.1602 -15.9280 -15.9192 -15.7870 -15.7782
   -15.6572 -15.6402 -15.5664 -15.4932 -15.3715 -15.3632 -15.2436 -15.2238
   -15.2034 -15.1596 -15.1448 -15.1027 -15.0107 -14.9855 -14.9109 -14.8579
   -14.8467 -14.7800 -14.7187 -14.7019 -14.6723 -14.6020 -14.4643 -13.6799
   -13.6794 -11.9253  -7.6592  -5.2250  -4.4490  -3.7656  -3.4285  -3.4271
    -3.1987  -3.1642  -3.0573  -3.0456  -2.9908  -2.9435  -2.8759  -2.8627
    -2.8205  -2.7964  -2.7443  -2.6790  -2.6568  -2.6305  -2.6077  -2.5907
    -2.5429  -2.5266  -2.4553  -2.4355  -2.4056  -2.3635  -2.2850  -2.2676
    -2.2507  -2.1326  -2.0968  -2.0766  -2.0493  -2.0030  -1.9620  -1.9137
    -1.8368  -1.8268  -1.7088  -1.5971  -1.5475  -1.5261  -1.4859  -1.4604
    -1.3851  -1.3461  -1.3066  -1.2542  -1.2206  -1.1720  -1.1390  -1.0740
    -1.0393  -0.9636  -0.9255  -0.9069  -0.8742  -0.7353  -0.6818  -0.6449
    -0.6054  -0.5774  -0.5528  -0.4995  -0.4587  -0.4422  -0.4058  -0.3648
    -0.3020  -0.2105  -0.1976  -0.1388  -0.1020  -0.0866  -0.0552  -0.0293
     0.0231   0.0722   0.1321   0.1966   0.2517   0.3079   0.3591   0.4069
     0.4302   0.4525   0.5346   0.6321   0.6777   0.7069   0.8207   0.8579
     0.9253   1.0077   1.1548   1.2122   1.2164   1.2451   1.2659   1.2762
     2.3473   3.2335   3.2356   3.3900   3.3918   3.6143   3.6149   3.6653
     3.6738   3.8536   3.9109

          k = 0.0380-0.0419 0.0000 ( 17876 PWs)   bands (ev):

   -56.5296 -56.5059 -55.8819 -55.8555 -55.6214 -55.5670 -55.3815 -55.3335
   -55.3091 -55.2335 -55.2094 -55.1826 -55.1587 -55.0396 -55.0384 -54.9995
   -32.9143 -32.8150 -32.7952 -32.6868 -32.6488 -32.6236 -32.3177 -32.0940
   -32.0772 -32.0643 -32.0602 -32.0250 -32.0054 -31.8499 -31.8465 -31.8226
   -31.7910 -31.7815 -31.7780 -31.6801 -31.6609 -31.6310 -31.6203 -31.5875
   -31.5851 -31.5793 -31.5528 -31.5496 -31.5351 -31.5267 -31.5249 -31.5075
   -31.5067 -31.4816 -31.4307 -31.4187 -31.4029 -31.3855 -31.3336 -31.3270
   -31.2989 -31.2934 -31.2595 -31.2582 -31.2492 -31.2278 -31.2193 -31.1814
   -17.9215 -16.5067 -16.1657 -16.1043 -16.0490 -15.9084 -15.8901 -15.7742
   -15.6856 -15.6483 -15.5031 -15.4857 -15.4438 -15.4215 -15.3971 -15.1948
   -15.1394 -15.1081 -15.0849 -15.0619 -15.0041 -14.9815 -14.9364 -14.8457
   -14.8130 -14.7820 -14.6965 -14.6807 -14.6063 -14.4339 -14.3817 -13.6909
   -13.6173 -11.9450  -7.6942  -5.1937  -4.4173  -3.8098  -3.7697  -3.5159
    -3.3033  -3.2801  -3.2205  -3.1274  -2.9812  -2.9615  -2.9588  -2.9386
    -2.9232  -2.8184  -2.7632  -2.7498  -2.6902  -2.6683  -2.6197  -2.5998
    -2.5563  -2.5327  -2.4998  -2.4556  -2.3756  -2.3504  -2.3160  -2.2586
    -2.2398  -2.1807  -2.1295  -2.0653  -2.0199  -1.9587  -1.8626  -1.8092
    -1.7923  -1.7514  -1.6614  -1.5983  -1.5858  -1.4997  -1.4782  -1.4135
    -1.3765  -1.3183  -1.2809  -1.2059  -1.1477  -1.1120  -1.0605  -1.0243
    -0.9901  -0.9105  -0.8826  -0.8153  -0.7962  -0.7170  -0.6750  -0.6390
    -0.6219  -0.5645  -0.5491  -0.4819  -0.4312  -0.4179  -0.3913  -0.3184
    -0.2701  -0.2376  -0.2011  -0.1651  -0.1092  -0.0564   0.0626   0.0815
     0.1530   0.1659   0.2314   0.2849   0.3275   0.3492   0.3977   0.4093
     0.4668   0.5278   0.5724   0.6571   0.6806   0.7646   0.8205   0.8937
     0.9518   1.0115   1.0725   1.1093   1.2116   1.2510   1.3000   1.3951
     2.3373   2.9692   3.1094   3.2327   3.3959   3.4505   3.6281   3.7063
     3.7349   3.8487   4.0308

          k =-0.0760-0.0000 0.0000 ( 17886 PWs)   bands (ev):

   -56.5346 -56.5010 -55.8863 -55.8509 -55.6239 -55.5645 -55.3843 -55.3307
   -55.3100 -55.2343 -55.2085 -55.1876 -55.1537 -55.0429 -55.0377 -54.9962
   -32.9685 -32.8191 -32.7913 -32.6978 -32.6105 -32.5925 -32.3698 -32.1297
   -32.1057 -32.0546 -32.0294 -31.9989 -31.9927 -31.8783 -31.8672 -31.8525
   -31.7920 -31.7690 -31.7271 -31.7153 -31.7048 -31.6563 -31.6347 -31.5920
   -31.5912 -31.5816 -31.5765 -31.5361 -31.5338 -31.5333 -31.5111 -31.5014
   -31.4890 -31.4841 -31.4377 -31.4077 -31.3974 -31.3624 -31.3146 -31.2995
   -31.2990 -31.2842 -31.2671 -31.2509 -31.2238 -31.2028 -31.1869 -31.1668
   -17.9272 -16.4761 -16.1660 -16.1457 -16.0913 -16.0868 -15.8480 -15.8315
   -15.6719 -15.6474 -15.5505 -15.5019 -15.4543 -15.4141 -15.3735 -15.2878
   -15.2266 -15.1578 -15.1037 -15.0629 -14.9925 -14.9566 -14.9195 -14.9048
   -14.6969 -14.6905 -14.6661 -14.6297 -14.5771 -14.3244 -14.3166 -13.6801
   -13.5751 -11.9662  -7.7282  -5.1632  -4.3758  -3.7473  -3.6621  -3.5963
    -3.5951  -3.2886  -3.2756  -3.2585  -3.0686  -3.0532  -2.9924  -2.9721
    -2.8431  -2.8287  -2.7917  -2.7417  -2.6621  -2.6344  -2.5579  -2.5456
    -2.5366  -2.4600  -2.4481  -2.4236  -2.3285  -2.3119  -2.2381  -2.0818
    -2.0580  -2.0339  -1.9945  -1.9253  -1.9171  -1.8955  -1.8614  -1.8027
    -1.7792  -1.7571  -1.7020  -1.6738  -1.6181  -1.6108  -1.5721  -1.5534
    -1.4345  -1.4115  -1.3557  -1.2586  -1.1315  -1.1196  -1.0981  -0.9975
    -0.9825  -0.9504  -0.8769  -0.8519  -0.8150  -0.7734  -0.7561  -0.7165
    -0.6282  -0.5979  -0.5756  -0.5593  -0.5091  -0.4812  -0.4520  -0.3589
    -0.2876  -0.1975  -0.0824  -0.0786  -0.0285   0.0197   0.1045   0.1317
     0.1620   0.2233   0.2605   0.3592   0.3875   0.4006   0.4489   0.5043
     0.5126   0.5775   0.6801   0.7103   0.7502   0.7878   0.7979   0.8666
     0.8940   0.9429   1.0360   1.1525   1.1537   1.1669   1.2121   1.2649
     2.2920   2.8278   2.9358   3.0919   3.1629   3.3792   3.4843   3.7479
     3.8781   3.9133   3.9452

          k =-0.0760 0.0419 0.0000 ( 17914 PWs)   bands (ev):

   -56.5296 -56.5059 -55.8819 -55.8555 -55.6215 -55.5670 -55.3815 -55.3335
   -55.3091 -55.2336 -55.2094 -55.1826 -55.1587 -55.0397 -55.0384 -54.9995
   -32.9151 -32.8150 -32.7953 -32.6854 -32.6491 -32.6236 -32.3180 -32.0940
   -32.0903 -32.0640 -32.0521 -32.0251 -31.9902 -31.8562 -31.8498 -31.8249
   -31.7910 -31.7807 -31.7804 -31.6815 -31.6631 -31.6233 -31.6210 -31.5873
   -31.5850 -31.5757 -31.5534 -31.5478 -31.5349 -31.5288 -31.5248 -31.5076
   -31.5060 -31.4816 -31.4355 -31.4145 -31.4045 -31.3855 -31.3336 -31.3270
   -31.2990 -31.2937 -31.2625 -31.2596 -31.2512 -31.2279 -31.2193 -31.1814
   -17.9213 -16.3646 -16.1615 -16.1004 -16.0295 -16.0028 -15.8952 -15.7746
   -15.6241 -15.6154 -15.5632 -15.4823 -15.4721 -15.3841 -15.2866 -15.2399
   -15.2083 -15.1788 -15.1310 -15.0339 -15.0244 -15.0034 -14.9583 -14.9049
   -14.7808 -14.7542 -14.7062 -14.6677 -14.6386 -14.4339 -14.3817 -13.6891
   -13.6176 -11.9449  -7.6939  -5.1939  -4.4165  -3.7514  -3.5099  -3.3898
    -3.2908  -3.1541  -3.1539  -3.0692  -2.9677  -2.9173  -2.9121  -2.8915
    -2.8472  -2.7700  -2.7346  -2.6778  -2.6502  -2.6196  -2.5859  -2.5478
    -2.4939  -2.4805  -2.4534  -2.4052  -2.3559  -2.3355  -2.2839  -2.2152
    -2.1462  -2.1255  -2.0991  -2.0226  -2.0084  -1.9896  -1.9064  -1.8768
    -1.7901  -1.6921  -1.6877  -1.6463  -1.5538  -1.5375  -1.5215  -1.4541
    -1.3840  -1.3193  -1.3023  -1.2590  -1.2364  -1.1939  -1.1021  -1.0868
    -1.0499  -0.9835  -0.9464  -0.9207  -0.8870  -0.8269  -0.7767  -0.7192
    -0.7000  -0.6769  -0.6426  -0.5842  -0.5460  -0.5378  -0.4578  -0.3974
    -0.3730  -0.3459  -0.2831  -0.2313  -0.1854  -0.0869  -0.0627   0.0470
     0.0663   0.2107   0.2449   0.2895   0.3441   0.3598   0.4193   0.4434
     0.4957   0.5551   0.5759   0.6650   0.7448   0.8017   0.8592   0.8701
     0.9436   1.0660   1.0840   1.1326   1.1823   1.1917   1.2557   1.2918
     2.3154   2.9799   3.1318   3.1785   3.2680   3.5601   3.6224   3.7310
     3.7802   3.9627   3.9837

          k =-0.0760-0.0839 0.0000 ( 17948 PWs)   bands (ev):

   -56.5181 -56.5175 -55.8746 -55.8629 -55.6187 -55.5698 -55.3783 -55.3368
   -55.3081 -55.2329 -55.2104 -55.1713 -55.1701 -55.0392 -55.0357 -55.0036
   -32.8054 -32.8048 -32.7843 -32.7834 -32.6547 -32.6546 -32.1956 -32.1861
   -32.0682 -32.0554 -32.0550 -32.0472 -31.9268 -31.8881 -31.8466 -31.8399
   -31.7969 -31.7908 -31.7076 -31.6756 -31.6366 -31.6155 -31.5983 -31.5927
   -31.5822 -31.5695 -31.5586 -31.5478 -31.5318 -31.5177 -31.5169 -31.5147
   -31.4801 -31.4753 -31.4344 -31.4190 -31.3956 -31.3940 -31.3921 -31.3570
   -31.3559 -31.3042 -31.2917 -31.2698 -31.2561 -31.2514 -31.2300 -31.1898
   -17.9154 -16.1579 -16.1053 -16.1010 -16.0171 -16.0147 -15.8116 -15.8044
   -15.6263 -15.6038 -15.5321 -15.4638 -15.3514 -15.3203 -15.2945 -15.2424
   -15.2023 -15.1720 -15.1191 -15.0874 -15.0041 -14.9735 -14.9565 -14.9439
   -14.9132 -14.8624 -14.7273 -14.6904 -14.6739 -14.5966 -14.4601 -13.6798
   -13.6792 -11.9254  -7.6588  -5.2256  -4.4470  -3.7560  -3.2184  -3.1898
    -3.1398  -3.1305  -2.9342  -2.8923  -2.8792  -2.8261  -2.8134  -2.7811
    -2.7256  -2.7200  -2.6390  -2.5871  -2.5549  -2.5420  -2.5177  -2.4597
    -2.4406  -2.4054  -2.3919  -2.3654  -2.3559  -2.3474  -2.3240  -2.2550
    -2.2114  -2.1541  -2.1243  -2.0834  -2.0194  -2.0144  -1.9826  -1.9730
    -1.9008  -1.8061  -1.7691  -1.6907  -1.6085  -1.5756  -1.5454  -1.5274
    -1.4888  -1.4246  -1.3995  -1.3488  -1.3255  -1.2724  -1.2323  -1.2257
    -1.1621  -1.1224  -1.0566  -1.0355  -0.9561  -0.8434  -0.7902  -0.7597
    -0.7354  -0.7211  -0.6531  -0.5919  -0.5486  -0.5223  -0.4497  -0.4445
    -0.4167  -0.3670  -0.3532  -0.3155  -0.2052  -0.1504  -0.0788   0.0062
     0.0427   0.0780   0.1537   0.2130   0.2400   0.3132   0.3944   0.4739
     0.4883   0.5286   0.5330   0.7044   0.7287   0.8461   0.8705   0.9479
     0.9817   1.0218   1.1449   1.1888   1.2237   1.2248   1.2451   1.2620
     2.3360   3.2987   3.3012   3.3508   3.3590   3.6256   3.6341   3.7730
     3.7750   3.8901   3.9298

     the Fermi energy is     2.6097 ev

!    total energy              =   -2972.72737517 Ry
     estimated scf accuracy    <       0.00000006 Ry
     smearing contrib. (-TS)   =      -0.00752953 Ry
     internal energy E=F+TS    =   -2972.71984564 Ry

     The total energy is F=E-TS. E is the sum of the following terms:
     one-electron contribution =  -24031.72483883 Ry
     hartree contribution      =   12109.45530218 Ry
     xc contribution           =    -493.28849137 Ry
     ewald contribution        =    9442.83778418 Ry
     electric field correction =       0.00039821 Ry

     convergence has been achieved in  63 iterations

     Forces acting on atoms (cartesian axes, Ry/au):

     atom    1 type  1   force =    -0.00000579   -0.00043819    0.11605877
     atom    2 type  1   force =    -0.00006956    0.00011605   -0.15944110
     atom    3 type  2   force =     0.00002446    0.00000893   -0.05233045
     atom    4 type  2   force =     0.00005037   -0.00014347    0.02481114
     atom    5 type  2   force =    -0.00350980   -0.00224897   -0.01037077
     atom    6 type  2   force =     0.00530489   -0.00174912   -0.01057154
     atom    7 type  1   force =    -0.00000021   -0.00613170    0.04599250
     atom    8 type  1   force =     0.00041407    0.01613979    0.08011139
     atom    9 type  2   force =    -0.00001070   -0.00060828    0.00033395
     atom   10 type  2   force =    -0.00257241    0.00057771   -0.04948782
     atom   11 type  2   force =    -0.00055147   -0.00012677   -0.00007447
     atom   12 type  2   force =     0.00059220   -0.00027733    0.00008338
     atom   13 type  1   force =    -0.00018997    0.00044324   -0.00041003
     atom   14 type  1   force =     0.00018026    0.00003794   -0.00131767
     atom   15 type  2   force =    -0.00023409   -0.00062052   -0.00021358
     atom   16 type  2   force =     0.00013518   -0.00068110    0.00089373
     atom   17 type  2   force =     0.00007388    0.00051910    0.00011915
     atom   18 type  2   force =     0.00002896    0.00059884   -0.00023292
     atom   19 type  1   force =    -0.00060262   -0.00044958   -0.00068133
     atom   20 type  1   force =     0.00058820    0.00069463   -0.00045965
     atom   21 type  2   force =     0.00004888    0.00021618    0.09895958
     atom   22 type  2   force =    -0.00000591   -0.00216856   -0.00004603
     atom   23 type  2   force =    -0.07979157    0.00004093   -0.03161618
     atom   24 type  2   force =     0.07968981    0.00047172   -0.03167649
     atom   25 type  1   force =     0.00007068   -0.00056951    0.11635227
     atom   26 type  1   force =    -0.00011671   -0.00141311   -0.15996269
     atom   27 type  2   force =     0.00006985   -0.00069807   -0.05034770
     atom   28 type  2   force =     0.00005411    0.00165867    0.02035235
     atom   29 type  2   force =    -0.00171487    0.00505246   -0.01365609
     atom   30 type  2   force =     0.00362514    0.00547366   -0.01378891
     atom   31 type  1   force =    -0.00017469    0.00220826    0.03149479
     atom   32 type  1   force =     0.00032536   -0.01974782    0.07977969
     atom   33 type  2   force =     0.00014324   -0.00032145    0.00036258
     atom   34 type  2   force =    -0.00158686    0.00084691   -0.06306236
     atom   35 type  2   force =     0.00038629    0.00002439   -0.00009010
     atom   36 type  2   force =     0.00017865   -0.00005436   -0.00015991
     atom   37 type  1   force =    -0.00013528   -0.00024972   -0.00100414
     atom   38 type  1   force =     0.00012788    0.00047743   -0.00015492
     atom   39 type  2   force =    -0.00029547    0.00060144    0.00034124
     atom   40 type  2   force =     0.00024150    0.00011114    0.00092384
     atom   41 type  2   force =     0.00160634   -0.00002640    0.00009090
     atom   42 type  2   force =    -0.00156584   -0.00063223    0.00026229
     atom   43 type  1   force =    -0.00051727    0.00069859   -0.00020853
     atom   44 type  1   force =    -0.00014426    0.00023019   -0.00002449
     atom   45 type  2   force =     0.00005100    0.00003130    0.09875069
     atom   46 type  2   force =    -0.07984640    0.00000661   -0.03161948
     atom   47 type  2   force =     0.07973789    0.00043494   -0.03168719
     atom   48 type  3   force =     0.00218509   -0.01183920    0.00181486
     atom   49 type  4   force =     0.00058051   -0.00226601    0.00160028
     atom   50 type  5   force =    -0.00027414   -0.00013108   -0.00038305
     atom   51 type  5   force =     0.00016517    0.00055614   -0.00022990
     atom   52 type  3   force =    -0.00208343    0.02070348    0.00213928
     atom   53 type  5   force =    -0.00149870   -0.00522876   -0.00594008
     atom   54 type  2   force =    -0.00028001   -0.00023634   -0.00110229
     atom   55 type  5   force =     0.00109817    0.00007697    0.00072319

     Total force =     0.397176     Total SCF correction =     0.000552
  @ DRIVER MODE: Message from server: STATUS
  @ DRIVER MODE: Message from server: GETFORCE
  @ DRIVER MODE: Returning v,forces,stress,ensemble 

     Writing output data file ./calc.save/
  @ DRIVER MODE: Message from server: EXIT
  @ DRIVE MODE: Exiting  
 
     init_run     :     11.25s CPU     11.56s WALL (       1 calls)
     electrons    :    969.52s CPU    985.60s WALL (       1 calls)
     forces       :      2.46s CPU      2.55s WALL (       1 calls)

     Called by init_run:
     wfcinit      :      4.96s CPU      5.08s WALL (       1 calls)
     potinit      :      5.35s CPU      5.45s WALL (       1 calls)
     hinit0       :      0.29s CPU      0.31s WALL (       1 calls)

     Called by electrons:
     c_bands      :    820.67s CPU    828.10s WALL (      63 calls)
     sum_band     :    102.90s CPU    106.58s WALL (      63 calls)
     v_of_rho     :     35.00s CPU     36.81s WALL (      64 calls)
     newd         :     14.09s CPU     17.28s WALL (      64 calls)
     mix_rho      :      1.59s CPU      1.64s WALL (      63 calls)
     vdW_kernel   :      4.57s CPU      4.62s WALL (       1 calls)

     Called by c_bands:
     init_us_2    :      4.95s CPU      4.98s WALL (    1280 calls)
     cegterg      :    803.72s CPU    810.87s WALL (     642 calls)

     Called by *egterg:
     cdiaghg      :    113.01s CPU    113.66s WALL (    4480 calls)
     h_psi        :    450.95s CPU    455.93s WALL (    4492 calls)
     s_psi        :     54.77s CPU     55.01s WALL (    4492 calls)
     g_psi        :      1.58s CPU      1.59s WALL (    3840 calls)

     Called by h_psi:
     h_psi:calbec :     53.28s CPU     53.61s WALL (    4492 calls)
     vloc_psi     :    340.80s CPU    344.93s WALL (    4492 calls)
     add_vuspsi   :     54.84s CPU     55.19s WALL (    4492 calls)

     General routines
     calbec       :     71.72s CPU     72.15s WALL (    5162 calls)
     fft          :     17.76s CPU     17.95s WALL (    4032 calls)
     ffts         :      0.14s CPU      0.14s WALL (     127 calls)
     fftw         :    381.67s CPU    386.38s WALL (  870776 calls)
     interpolate  :      0.37s CPU      0.37s WALL (      64 calls)
     davcio       :      0.00s CPU      0.11s WALL (      10 calls)
 
     Parallel routines
 
     PWSCF        :  16m24.18s CPU  16m41.08s WALL

 
   This run was terminated on:   1:49:43  23Sep2021            

=------------------------------------------------------------------------------=
   JOB DONE.
=------------------------------------------------------------------------------=
