
     Program PWSCF v.6.7GPU starts on 15Sep2021 at 20:27:28 

     This program is part of the open-source Quantum ESPRESSO suite
     for quantum simulation of materials; please cite
         "P. Giannozzi et al., J. Phys.:Condens. Matter 21 395502 (2009);
         "P. Giannozzi et al., J. Phys.:Condens. Matter 29 465901 (2017);
         "P. Giannozzi et al., J. Chem. Phys. 152 154105 (2020);
          URL http://www.quantum-espresso.org", 
     in publications or presentations arising from this work. More details at
     http://www.quantum-espresso.org/quote

     Parallel version (MPI), running on    10 processors

     MPI processes distributed on     1 nodes
     R & G space division:  proc/nbgrp/npool/nimage =      10
     Reading input from /storage/home/hcoda1/3/ntian30/research/carbon/CxH_vib/H2O_calc/ads_slab/CH2NNHHH2O_a/out_0014/pw.inp
Warning: card &CELL ignored
Warning: card   CELL_DYNAMICS='IPI', ignored
Warning: card / ignored

     Current dimensions of program PWSCF are:
     Max number of different atomic species (ntypx) = 10
     Max number of k-points (npk) =  40000
     Max angular momentum in pseudopotentials (lmaxx) =  3
     Presently no symmetry can be used with electric field

     Message from routine cell_base_init:
     DEPRECATED: use true lattice parameter, not A to a.u. conversion factor

     **************************************************************************
     Initializing libbeef V0.1.2 with the BEEF-vdW functional.
     Citation: Wellendorff et al., PRB 85, 235149 (2012).
     **************************************************************************


     IMPORTANT: XC functional enforced from input :
     Exchange-correlation= BEEF-VDW
                           (   1   4  43  14   2   0   0)
     Any further DFT definition will be discarded
     Please, verify this is what you really want


     Subspace diagonalization in iterative solution of the eigenvalue problem:
     one sub-group per band group will be used
     scalapack distributed-memory algorithm (size of sub-group:  3*  3 procs)

  @ DRIVER MODE: Connecting to 
 qe_1139763_2852611.sched-torque.pace.gatech.eduuvi0ux2b_scratch
  using UNIX socket
  @ DRIVER MODE: Message from server: STATUS
  @ DRIVER MODE: Message from server: INIT
  @ DRIVER MODE: Receiving replica           0          -1
  @ DRIVER MODE: Receiving encoded integer          25
  @ DRIVER MODE:  SCF:  T  FORCE:  T  STRESS:  F  VC:  F  ENSEMBLE:  F
  @ DRIVER MODE:  SCF:  T  FORCE:  T  STRESS:  F  VC:  F  ENSEMBLE:  F
 
     Parallelization info
     --------------------
     sticks:   dense  smooth     PW     G-vecs:    dense   smooth      PW
     Min         327     131     37                56683    14340    2191
     Max         328     133     38                56694    14346    2206
     Sum        3275    1317    379               566857   143421   21985
 
     Using Slab Decomposition
 


     bravais-lattice index     =            0
     lattice parameter (alat)  =       1.8897  a.u.
     unit-cell volume          =    6658.9804 (a.u.)^3
     number of atoms/cell      =           57
     number of atomic types    =            5
     number of electrons       =       404.00
     number of Kohn-Sham states=          212
     kinetic-energy cutoff     =      29.3995  Ry
     charge density cutoff     =     293.9946  Ry
     scf convergence threshold =      7.3E-08
     mixing beta               =       0.0500
     number of iterations used =            8  plain     mixing
     Exchange-correlation= BEEF-VDW
                           (   1   4  43  14   2   0   0)

     celldm(1)=   1.889726  celldm(2)=   0.000000  celldm(3)=   0.000000
     celldm(4)=   0.000000  celldm(5)=   0.000000  celldm(6)=   0.000000

     crystal axes: (cart. coord. in units of alat)
               a(1) = (   6.579727   0.000000   0.000000 )  
               a(2) = (  -0.000775   5.961596   0.000000 )  
               a(3) = (   0.000000   0.000000  25.155947 )  

     reciprocal axes: (cart. coord. in units 2 pi/alat)
               b(1) = (  0.151982  0.000020  0.000000 )  
               b(2) = (  0.000000  0.167740  0.000000 )  
               b(3) = (  0.000000  0.000000  0.039752 )  


     PseudoPot. # 1 for Ti read from file:
     /storage/coda1/p-amedford6/0/shared/rich_project_chbe-medford/medford-share/data/pseudos_module/espresso/nninc/pbe/van/Ti.UPF
     MD5 check sum: 8e4df49b7f0d34bbd5052bf3f5ea0213
     Pseudo is Ultrasoft, Zval = 12.0
     Generated by new atomic code, or converted to UPF format
     Using radial grid of  851 points,  6 beta functions with: 
                l(1) =   0
                l(2) =   0
                l(3) =   1
                l(4) =   1
                l(5) =   2
                l(6) =   2
     Q(r) pseudized with  8 coefficients,  rinner =    1.000   1.000   1.000
                                                       1.000   1.000

     PseudoPot. # 2 for O  read from file:
     /storage/coda1/p-amedford6/0/shared/rich_project_chbe-medford/medford-share/data/pseudos_module/espresso/nninc/pbe/van/O.UPF
     MD5 check sum: 78c19812648e8988a0fe644b0f25305e
     Pseudo is Ultrasoft, Zval =  6.0
     Generated by new atomic code, or converted to UPF format
     Using radial grid of  737 points,  4 beta functions with: 
                l(1) =   0
                l(2) =   0
                l(3) =   1
                l(4) =   1
     Q(r) pseudized with  8 coefficients,  rinner =    0.800   0.800   0.800


     PseudoPot. # 3 for N  read from file:
     /storage/coda1/p-amedford6/0/shared/rich_project_chbe-medford/medford-share/data/pseudos_module/espresso/nninc/pbe/van/N.UPF
     MD5 check sum: 90d10febe142ad51ac9d5be1deb811c4
     Pseudo is Ultrasoft, Zval =  5.0
     Generated by new atomic code, or converted to UPF format
     Using radial grid of  729 points,  4 beta functions with: 
                l(1) =   0
                l(2) =   0
                l(3) =   1
                l(4) =   1
     Q(r) pseudized with  8 coefficients,  rinner =    0.800   0.800   0.800


     PseudoPot. # 4 for C  read from file:
     /storage/coda1/p-amedford6/0/shared/rich_project_chbe-medford/medford-share/data/pseudos_module/espresso/nninc/pbe/van/C.UPF
     MD5 check sum: 1a69bf6b8db32088f5b2163dbdb77a27
     Pseudo is Ultrasoft, Zval =  4.0
     Generated by new atomic code, or converted to UPF format
     Using radial grid of  721 points,  4 beta functions with: 
                l(1) =   0
                l(2) =   0
                l(3) =   1
                l(4) =   1
     Q(r) pseudized with  8 coefficients,  rinner =    0.800   0.800   0.800


     PseudoPot. # 5 for H  read from file:
     /storage/coda1/p-amedford6/0/shared/rich_project_chbe-medford/medford-share/data/pseudos_module/espresso/nninc/pbe/van/H.UPF
     MD5 check sum: b5ee9d7bfd3a09ee7748110bda690ff7
     Pseudo is Ultrasoft, Zval =  1.0
     Generated by new atomic code, or converted to UPF format
     Using radial grid of  615 points,  1 beta functions with: 
                l(1) =   0
     Q(r) pseudized with  8 coefficients,  rinner =    0.800

     atomic species   valence    mass     pseudopotential
        Ti1           12.00    47.86700     Ti( 1.00)
        O1             6.00    15.99900     O ( 1.00)
        N1             5.00    14.00700     N ( 1.00)
        C1             4.00    12.01100     C ( 1.00)
        H1             1.00     1.00800     H ( 1.00)

     No symmetry found



   Cartesian axes

     site n.     atom                  positions (alat units)
         1           Ti1 tau(   1) = (   0.0004258   2.9801865   6.0000000  )
         2           Ti1 tau(   2) = (   3.2906075   1.4906267   6.0002472  )
         3           O1  tau(   3) = (   0.0006271   0.0005054   7.9858123  )
         4           O1  tau(   4) = (   3.2906025   0.0005020   7.3038282  )
         5           O1  tau(   5) = (   4.5942328   1.4918067   9.2879030  )
         6           O1  tau(   6) = (   1.9868534   1.4903216   9.2879459  )
         7           Ti1 tau(   7) = (   3.2907910   2.8959150   9.1758416  )
         8           Ti1 tau(   8) = (   0.0015273   1.4827037   9.2680791  )
         9           O1  tau(   9) = (   3.3121314   5.9338840  11.3691909  )
        10           O1  tau(  10) = (   0.0116148   5.9584955  10.6183126  )
        11           O1  tau(  11) = (   1.3134021   1.4784130  12.6451072  )
        12           O1  tau(  12) = (   5.3172625   1.4801399  12.6491864  )
        13           Ti1 tau(  13) = (   0.0380378   2.9573341  12.5222382  )
        14           Ti1 tau(  14) = (   3.3404755   1.4532591  12.5245293  )
        15           O1  tau(  15) = (   0.0239237   0.0366503  14.6894071  )
        16           O1  tau(  16) = (   3.3255740   5.9570089  14.0129324  )
        17           O1  tau(  17) = (   4.5846449   1.4795273  16.1858442  )
        18           O1  tau(  18) = (   2.0539891   1.4908220  16.1938258  )
        19           Ti1 tau(  19) = (   3.3028508   2.9322526  15.7076921  )
        20           Ti1 tau(  20) = (   0.0088316   1.3655950  16.0522487  )
        21           O1  tau(  21) = (   3.2904802   0.0005063   4.7018136  )
        22           O1  tau(  22) = (   0.0586005   5.8320325  17.2288864  )
        23           O1  tau(  23) = (   1.3043587   1.4918075   6.0039043  )
        24           O1  tau(  24) = (   5.2767064   1.4903225   6.0039473  )
        25           Ti1 tau(  25) = (   0.0000382   5.9609847   6.0000000  )
        26           Ti1 tau(  26) = (   3.2902200   4.4714249   6.0002472  )
        27           O1  tau(  27) = (   0.0002396   2.9813036   7.9858123  )
        28           O1  tau(  28) = (   3.2902150   2.9813002   7.3038282  )
        29           O1  tau(  29) = (   4.5938453   4.4726049   9.2879030  )
        30           O1  tau(  30) = (   1.9864658   4.4711199   9.2879459  )
        31           Ti1 tau(  31) = (   3.2891106   5.8743827   9.1763621  )
        32           Ti1 tau(  32) = (   0.0006254   4.4649316   9.2693709  )
        33           O1  tau(  33) = (   3.3142679   2.9660735  11.3641874  )
        34           O1  tau(  34) = (   0.0092240   2.9805883  10.6323155  )
        35           O1  tau(  35) = (   1.3108675   4.4558178  12.6782323  )
        36           O1  tau(  36) = (   5.3175068   4.4537340  12.6790822  )
        37           Ti1 tau(  37) = (   0.0418451   5.9490355  12.4996082  )
        38           Ti1 tau(  38) = (   3.3402151   4.4429940  12.5219265  )
        39           O1  tau(  39) = (   0.0332256   2.9148708  14.9327709  )
        40           O1  tau(  40) = (   3.3156017   2.9437717  13.9283311  )
        41           O1  tau(  41) = (   4.5915719   4.3868214  16.1197993  )
        42           O1  tau(  42) = (   2.0539401   4.4017640  16.0846163  )
        43           Ti1 tau(  43) = (   3.3369130   5.9116756  15.8392261  )
        44           Ti1 tau(  44) = (   0.0533093   4.5818758  15.8415549  )
        45           O1  tau(  45) = (   3.2900926   2.9813045   4.7018136  )
        46           O1  tau(  46) = (   1.3039711   4.4726057   6.0039043  )
        47           O1  tau(  47) = (   5.2763189   4.4711207   6.0039473  )
        48           N1  tau(  48) = (   6.5287229   2.7802708  18.1865785  )
        49           C1  tau(  49) = (   0.9724842   2.7744648  18.9576868  )
        50           H1  tau(  50) = (   0.9253086   3.0669255  20.0057840  )
        51           H1  tau(  51) = (   1.9225290   2.4867234  18.5393133  )
        52           N1  tau(  52) = (   5.2958906   3.1014149  18.7352402  )
        53           H1  tau(  53) = (   5.3913054   3.6367428  19.5974321  )
        54           H1  tau(  54) = (   4.7863746   3.6605970  18.0522289  )
        55           O1  tau(  55) = (   3.2511457   5.8152340  18.3397965  )
        56           H1  tau(  56) = (   3.7467739   0.6636339  18.5518981  )
        57           H1  tau(  57) = (   2.3053106   0.0674530  18.4201010  )

     number of k points=    10  Fermi-Dirac smearing, width (Ry)=  0.0073
                       cart. coord. in units 2pi/alat
        k(    1) = (   0.0000000   0.0000000   0.0000000), wk =   0.1250000
        k(    2) = (   0.0000000   0.0419351   0.0000000), wk =   0.2500000
        k(    3) = (   0.0000000  -0.0838702   0.0000000), wk =   0.1250000
        k(    4) = (   0.0379955   0.0000049   0.0000000), wk =   0.2500000
        k(    5) = (   0.0379955   0.0419400   0.0000000), wk =   0.2500000
        k(    6) = (   0.0379955  -0.0838652   0.0000000), wk =   0.2500000
        k(    7) = (   0.0379955  -0.0419301   0.0000000), wk =   0.2500000
        k(    8) = (  -0.0759910  -0.0000099   0.0000000), wk =   0.1250000
        k(    9) = (  -0.0759910   0.0419252   0.0000000), wk =   0.2500000
        k(   10) = (  -0.0759910  -0.0838800   0.0000000), wk =   0.1250000

     Dense  grid:   566857 G-vectors     FFT dimensions: (  72,  64, 270)

     Smooth grid:   143421 G-vectors     FFT dimensions: (  45,  40, 180)

     Estimated max dynamical RAM per process >     367.81 MB

     Estimated total dynamical RAM >       3.59 GB
     Cannot read rho : file not found

     Initial potential from superposition of free atoms

     starting charge  387.99913, renormalised to  404.00000

     negative rho (up, down):  1.527E-02 0.000E+00


     %%%%%%%%%%%%%%%%%%%%%%%%%%%%%%%%%%%%%%%%%%%%%%%%%%%%%%%%%%%%%%%%%%%%%%%%
     %                                                                      %
     % You are using vdW-DF, which was implemented by the Thonhauser group. %
     % Please cite the following two papers that made this development      %
     % possible and the two reviews that describe the various versions:     %
     %                                                                      %
     %   T. Thonhauser et al., PRL 115, 136402 (2015).                      %
     %   T. Thonhauser et al., PRB 76, 125112 (2007).                       %
     %   K. Berland et al., Rep. Prog. Phys. 78, 066501 (2015).             %
     %   D.C. Langreth et al., J. Phys.: Condens. Matter 21, 084203 (2009). %
     %                                                                      %
     %                                                                      %
     % If you are calculating the stress with vdW-DF, please also cite:     %
     %                                                                      %
     %   R. Sabatini et al., J. Phys.: Condens. Matter 24, 424209 (2012).   %
     %                                                                      %
     %%%%%%%%%%%%%%%%%%%%%%%%%%%%%%%%%%%%%%%%%%%%%%%%%%%%%%%%%%%%%%%%%%%%%%%%


 
     Adding external electric field

     Computed dipole along edir(3) : 
        Dipole              -14.3244 Ry au,        -36.4090 Debye
        Dipole field         -0.0270 Ry au, 
 
        Potential amp.        2.5058 Ry
        Total length         46.3494 bohr
 
     Starting wfcs are  306 atomic wfcs
  @ DRIVER MODE: Message from server: STATUS
  @ DRIVER MODE: Message from server: POSDATA
  @ DRIVER MODE: Reading and sharing cell 
  @ DRIVER MODE: Reading and sharing positions 
  @ DRIVER MODE: Received positions 

     total cpu time spent up to now is       11.4 secs

     Self-consistent Calculation

     iteration #  1     ecut=    29.40 Ry     beta= 0.05
     Davidson diagonalization with overlap
     c_bands:  4 eigenvalues not converged
     c_bands:  3 eigenvalues not converged
     c_bands:  5 eigenvalues not converged
     c_bands:  1 eigenvalues not converged
     c_bands:  2 eigenvalues not converged
     c_bands:  1 eigenvalues not converged
     c_bands:  2 eigenvalues not converged
     c_bands:  4 eigenvalues not converged
     c_bands:  5 eigenvalues not converged
     ethr =  1.00E-05,  avg # of iterations = 24.6

     negative rho (up, down):  8.674E-03 0.000E+00
 
     Adding external electric field

     Computed dipole along edir(3) : 
        Dipole               59.3543 Ry au,        150.8636 Debye
        Dipole field          0.1120 Ry au, 
 
        Potential amp.      -10.3831 Ry
        Total length         46.3494 bohr
 

     total cpu time spent up to now is       58.1 secs

     total energy              =   -2233.94229497 Ry
     estimated scf accuracy    <    8445.26095774 Ry

     iteration #  2     ecut=    29.40 Ry     beta= 0.05
     Davidson diagonalization with overlap
     ethr =  1.00E-02,  avg # of iterations = 24.9

     negative rho (up, down):  2.989E-04 0.000E+00
 
     Adding external electric field

     Computed dipole along edir(3) : 
        Dipole                0.7103 Ry au,          1.8054 Debye
        Dipole field          0.0013 Ry au, 
 
        Potential amp.       -0.1243 Ry
        Total length         46.3494 bohr
 

     total cpu time spent up to now is      144.2 secs

     total energy              =   -2488.70717128 Ry
     estimated scf accuracy    <   73773.00699836 Ry

     iteration #  3     ecut=    29.40 Ry     beta= 0.05
     Davidson diagonalization with overlap
     ethr =  1.00E-02,  avg # of iterations = 16.4

     negative rho (up, down):  3.467E-04 0.000E+00
 
     Adding external electric field

     Computed dipole along edir(3) : 
        Dipole               -3.1196 Ry au,         -7.9292 Debye
        Dipole field         -0.0059 Ry au, 
 
        Potential amp.        0.5457 Ry
        Total length         46.3494 bohr
 

     total cpu time spent up to now is      193.8 secs

     total energy              =   -2959.72511910 Ry
     estimated scf accuracy    <    7832.52203264 Ry

     iteration #  4     ecut=    29.40 Ry     beta= 0.05
     Davidson diagonalization with overlap
     c_bands:  2 eigenvalues not converged
     ethr =  1.00E-02,  avg # of iterations = 11.8

     negative rho (up, down):  3.672E-04 0.000E+00
 
     Adding external electric field

     Computed dipole along edir(3) : 
        Dipole               -5.0057 Ry au,        -12.7231 Debye
        Dipole field         -0.0094 Ry au, 
 
        Potential amp.        0.8757 Ry
        Total length         46.3494 bohr
 

     total cpu time spent up to now is      217.6 secs

     total energy              =   -2965.05860130 Ry
     estimated scf accuracy    <    2404.82754251 Ry

     iteration #  5     ecut=    29.40 Ry     beta= 0.05
     Davidson diagonalization with overlap
     ethr =  1.00E-02,  avg # of iterations =  6.6

     negative rho (up, down):  4.159E-04 0.000E+00
 
     Adding external electric field

     Computed dipole along edir(3) : 
        Dipole               -7.6451 Ry au,        -19.4319 Debye
        Dipole field         -0.0144 Ry au, 
 
        Potential amp.        1.3374 Ry
        Total length         46.3494 bohr
 

     total cpu time spent up to now is      230.4 secs

     total energy              =   -2942.79638314 Ry
     estimated scf accuracy    <    1724.21388125 Ry

     iteration #  6     ecut=    29.40 Ry     beta= 0.05
     Davidson diagonalization with overlap
     c_bands:  2 eigenvalues not converged
     ethr =  1.00E-02,  avg # of iterations = 13.3

     negative rho (up, down):  3.976E-04 0.000E+00
 
     Adding external electric field

     Computed dipole along edir(3) : 
        Dipole               -5.9220 Ry au,        -15.0523 Debye
        Dipole field         -0.0112 Ry au, 
 
        Potential amp.        1.0360 Ry
        Total length         46.3494 bohr
 

     total cpu time spent up to now is      256.0 secs

     total energy              =   -2979.24639187 Ry
     estimated scf accuracy    <      82.83639131 Ry

     iteration #  7     ecut=    29.40 Ry     beta= 0.05
     Davidson diagonalization with overlap
     ethr =  1.00E-02,  avg # of iterations =  1.6

     negative rho (up, down):  4.075E-04 0.000E+00
 
     Adding external electric field

     Computed dipole along edir(3) : 
        Dipole               -4.6017 Ry au,        -11.6963 Debye
        Dipole field         -0.0087 Ry au, 
 
        Potential amp.        0.8050 Ry
        Total length         46.3494 bohr
 

     total cpu time spent up to now is      266.4 secs

     total energy              =   -2978.29123094 Ry
     estimated scf accuracy    <      28.18337488 Ry

     iteration #  8     ecut=    29.40 Ry     beta= 0.05
     Davidson diagonalization with overlap
     ethr =  6.98E-03,  avg # of iterations =  3.7

     negative rho (up, down):  4.151E-04 0.000E+00
 
     Adding external electric field

     Computed dipole along edir(3) : 
        Dipole               -3.8397 Ry au,         -9.7594 Debye
        Dipole field         -0.0072 Ry au, 
 
        Potential amp.        0.6717 Ry
        Total length         46.3494 bohr
 

     total cpu time spent up to now is      277.4 secs

     total energy              =   -2978.45187616 Ry
     estimated scf accuracy    <      16.90476958 Ry

     iteration #  9     ecut=    29.40 Ry     beta= 0.05
     Davidson diagonalization with overlap
     ethr =  4.18E-03,  avg # of iterations =  3.8

     negative rho (up, down):  4.623E-04 0.000E+00
 
     Adding external electric field

     Computed dipole along edir(3) : 
        Dipole               -0.0963 Ry au,         -0.2447 Debye
        Dipole field         -0.0002 Ry au, 
 
        Potential amp.        0.0168 Ry
        Total length         46.3494 bohr
 

     total cpu time spent up to now is      288.5 secs

     total energy              =   -2977.12246591 Ry
     estimated scf accuracy    <      15.67679984 Ry

     iteration # 10     ecut=    29.40 Ry     beta= 0.05
     Davidson diagonalization with overlap
     ethr =  3.88E-03,  avg # of iterations = 16.3

     negative rho (up, down):  6.803E-04 0.000E+00
 
     Adding external electric field

     Computed dipole along edir(3) : 
        Dipole                2.9658 Ry au,          7.5382 Debye
        Dipole field          0.0056 Ry au, 
 
        Potential amp.       -0.5188 Ry
        Total length         46.3494 bohr
 

     total cpu time spent up to now is      311.4 secs

     total energy              =   -3017.97632855 Ry
     estimated scf accuracy    <    2670.64180907 Ry

     iteration # 11     ecut=    29.40 Ry     beta= 0.05
     Davidson diagonalization with overlap
     ethr =  3.88E-03,  avg # of iterations =  6.0

     negative rho (up, down):  7.337E-04 0.000E+00
 
     Adding external electric field

     Computed dipole along edir(3) : 
        Dipole                1.7418 Ry au,          4.4271 Debye
        Dipole field          0.0033 Ry au, 
 
        Potential amp.       -0.3047 Ry
        Total length         46.3494 bohr
 

     total cpu time spent up to now is      323.5 secs

     total energy              =   -2997.58656769 Ry
     estimated scf accuracy    <    3874.55220463 Ry

     iteration # 12     ecut=    29.40 Ry     beta= 0.05
     Davidson diagonalization with overlap
     ethr =  3.88E-03,  avg # of iterations =  1.8

     negative rho (up, down):  8.159E-04 0.000E+00
 
     Adding external electric field

     Computed dipole along edir(3) : 
        Dipole                0.1373 Ry au,          0.3490 Debye
        Dipole field          0.0003 Ry au, 
 
        Potential amp.       -0.0240 Ry
        Total length         46.3494 bohr
 

     total cpu time spent up to now is      334.2 secs

     total energy              =   -2975.36829967 Ry
     estimated scf accuracy    <    2594.89842248 Ry

     iteration # 13     ecut=    29.40 Ry     beta= 0.05
     Davidson diagonalization with overlap
     c_bands:  4 eigenvalues not converged
     ethr =  3.88E-03,  avg # of iterations = 15.1

     negative rho (up, down):  8.331E-04 0.000E+00
 
     Adding external electric field

     Computed dipole along edir(3) : 
        Dipole                1.1198 Ry au,          2.8462 Debye
        Dipole field          0.0021 Ry au, 
 
        Potential amp.       -0.1959 Ry
        Total length         46.3494 bohr
 

     total cpu time spent up to now is      351.6 secs

     total energy              =   -2986.26094210 Ry
     estimated scf accuracy    <    1307.04008531 Ry

     iteration # 14     ecut=    29.40 Ry     beta= 0.05
     Davidson diagonalization with overlap
     ethr =  3.88E-03,  avg # of iterations =  2.0

     negative rho (up, down):  7.463E-04 0.000E+00
 
     Adding external electric field

     Computed dipole along edir(3) : 
        Dipole               -0.7781 Ry au,         -1.9777 Debye
        Dipole field         -0.0015 Ry au, 
 
        Potential amp.        0.1361 Ry
        Total length         46.3494 bohr
 

     total cpu time spent up to now is      362.2 secs

     total energy              =   -2971.88421047 Ry
     estimated scf accuracy    <    1821.76907056 Ry

     iteration # 15     ecut=    29.40 Ry     beta= 0.05
     Davidson diagonalization with overlap
     ethr =  3.88E-03,  avg # of iterations =  9.2

     negative rho (up, down):  7.301E-04 0.000E+00
 
     Adding external electric field

     Computed dipole along edir(3) : 
        Dipole               -2.6372 Ry au,         -6.7031 Debye
        Dipole field         -0.0050 Ry au, 
 
        Potential amp.        0.4613 Ry
        Total length         46.3494 bohr
 

     total cpu time spent up to now is      375.9 secs

     total energy              =   -2962.53899375 Ry
     estimated scf accuracy    <     833.56252175 Ry

     iteration # 16     ecut=    29.40 Ry     beta= 0.05
     Davidson diagonalization with overlap
     c_bands:  2 eigenvalues not converged
     c_bands:  2 eigenvalues not converged
     c_bands:  2 eigenvalues not converged
     c_bands:  2 eigenvalues not converged
     ethr =  3.88E-03,  avg # of iterations = 17.5

     negative rho (up, down):  7.997E-04 0.000E+00
 
     Adding external electric field

     Computed dipole along edir(3) : 
        Dipole               -1.0551 Ry au,         -2.6817 Debye
        Dipole field         -0.0020 Ry au, 
 
        Potential amp.        0.1846 Ry
        Total length         46.3494 bohr
 

     total cpu time spent up to now is      400.8 secs

     total energy              =   -2974.98019544 Ry
     estimated scf accuracy    <      11.78441747 Ry

     iteration # 17     ecut=    29.40 Ry     beta= 0.05
     Davidson diagonalization with overlap
     ethr =  2.92E-03,  avg # of iterations =  1.8

     negative rho (up, down):  8.803E-04 0.000E+00
 
     Adding external electric field

     Computed dipole along edir(3) : 
        Dipole               -0.2357 Ry au,         -0.5990 Debye
        Dipole field         -0.0004 Ry au, 
 
        Potential amp.        0.0412 Ry
        Total length         46.3494 bohr
 

     total cpu time spent up to now is      411.4 secs

     total energy              =   -2975.44488945 Ry
     estimated scf accuracy    <       2.24222434 Ry

     iteration # 18     ecut=    29.40 Ry     beta= 0.05
     Davidson diagonalization with overlap
     c_bands:  3 eigenvalues not converged
     c_bands:  2 eigenvalues not converged
     c_bands:  1 eigenvalues not converged
     c_bands:  4 eigenvalues not converged
     c_bands:  4 eigenvalues not converged
     c_bands:  2 eigenvalues not converged
     c_bands:  1 eigenvalues not converged
     c_bands:  3 eigenvalues not converged
     c_bands:  3 eigenvalues not converged
     ethr =  5.55E-04,  avg # of iterations = 21.1

     negative rho (up, down):  9.047E-04 0.000E+00
 
     Adding external electric field

     Computed dipole along edir(3) : 
        Dipole               -0.0492 Ry au,         -0.1249 Debye
        Dipole field         -0.0001 Ry au, 
 
        Potential amp.        0.0086 Ry
        Total length         46.3494 bohr
 

     total cpu time spent up to now is      434.6 secs

     total energy              =   -2976.42890367 Ry
     estimated scf accuracy    <     105.35234548 Ry

     iteration # 19     ecut=    29.40 Ry     beta= 0.05
     Davidson diagonalization with overlap
     ethr =  5.55E-04,  avg # of iterations =  8.1

     negative rho (up, down):  9.790E-04 0.000E+00
 
     Adding external electric field

     Computed dipole along edir(3) : 
        Dipole                0.3712 Ry au,          0.9435 Debye
        Dipole field          0.0007 Ry au, 
 
        Potential amp.       -0.0649 Ry
        Total length         46.3494 bohr
 

     total cpu time spent up to now is      447.3 secs

     total energy              =   -2976.77915408 Ry
     estimated scf accuracy    <     128.73408281 Ry

     iteration # 20     ecut=    29.40 Ry     beta= 0.05
     Davidson diagonalization with overlap
     c_bands:  1 eigenvalues not converged
     ethr =  5.55E-04,  avg # of iterations =  6.7

     negative rho (up, down):  1.075E-03 0.000E+00
 
     Adding external electric field

     Computed dipole along edir(3) : 
        Dipole                0.8604 Ry au,          2.1870 Debye
        Dipole field          0.0016 Ry au, 
 
        Potential amp.       -0.1505 Ry
        Total length         46.3494 bohr
 

     total cpu time spent up to now is      459.2 secs

     total energy              =   -2977.23168291 Ry
     estimated scf accuracy    <     177.78908404 Ry

     iteration # 21     ecut=    29.40 Ry     beta= 0.05
     Davidson diagonalization with overlap
     c_bands:  1 eigenvalues not converged
     ethr =  5.55E-04,  avg # of iterations = 10.5

     negative rho (up, down):  1.130E-03 0.000E+00
 
     Adding external electric field

     Computed dipole along edir(3) : 
        Dipole                0.5492 Ry au,          1.3959 Debye
        Dipole field          0.0010 Ry au, 
 
        Potential amp.       -0.0961 Ry
        Total length         46.3494 bohr
 

     total cpu time spent up to now is      472.7 secs

     total energy              =   -2974.72495192 Ry
     estimated scf accuracy    <     250.89055834 Ry

     iteration # 22     ecut=    29.40 Ry     beta= 0.05
     Davidson diagonalization with overlap
     c_bands:  1 eigenvalues not converged
     ethr =  5.55E-04,  avg # of iterations = 14.1

     negative rho (up, down):  1.173E-03 0.000E+00
 
     Adding external electric field

     Computed dipole along edir(3) : 
        Dipole                0.6483 Ry au,          1.6478 Debye
        Dipole field          0.0012 Ry au, 
 
        Potential amp.       -0.1134 Ry
        Total length         46.3494 bohr
 

     total cpu time spent up to now is      489.1 secs

     total energy              =   -2975.61879887 Ry
     estimated scf accuracy    <      41.79616360 Ry

     iteration # 23     ecut=    29.40 Ry     beta= 0.05
     Davidson diagonalization with overlap
     ethr =  5.55E-04,  avg # of iterations =  1.2

     negative rho (up, down):  1.204E-03 0.000E+00
 
     Adding external electric field

     Computed dipole along edir(3) : 
        Dipole               -0.1335 Ry au,         -0.3393 Debye
        Dipole field         -0.0003 Ry au, 
 
        Potential amp.        0.0234 Ry
        Total length         46.3494 bohr
 

     total cpu time spent up to now is      499.1 secs

     total energy              =   -2973.95023066 Ry
     estimated scf accuracy    <      43.28785707 Ry

     iteration # 24     ecut=    29.40 Ry     beta= 0.05
     Davidson diagonalization with overlap
     c_bands:  1 eigenvalues not converged
     c_bands:  1 eigenvalues not converged
     c_bands:  2 eigenvalues not converged
     c_bands:  1 eigenvalues not converged
     ethr =  5.55E-04,  avg # of iterations = 16.6

     negative rho (up, down):  1.317E-03 0.000E+00
 
     Adding external electric field

     Computed dipole along edir(3) : 
        Dipole               -0.6265 Ry au,         -1.5924 Debye
        Dipole field         -0.0012 Ry au, 
 
        Potential amp.        0.1096 Ry
        Total length         46.3494 bohr
 

     total cpu time spent up to now is      517.4 secs

     total energy              =   -2975.40358688 Ry
     estimated scf accuracy    <       1.22030439 Ry

     iteration # 25     ecut=    29.40 Ry     beta= 0.05
     Davidson diagonalization with overlap
     c_bands:  1 eigenvalues not converged
     c_bands:  5 eigenvalues not converged
     c_bands:  1 eigenvalues not converged
     c_bands:  2 eigenvalues not converged
     c_bands:  2 eigenvalues not converged
     c_bands:  3 eigenvalues not converged
     ethr =  3.02E-04,  avg # of iterations = 18.8

     negative rho (up, down):  1.222E-03 0.000E+00
 
     Adding external electric field

     Computed dipole along edir(3) : 
        Dipole               -0.3481 Ry au,         -0.8848 Debye
        Dipole field         -0.0007 Ry au, 
 
        Potential amp.        0.0609 Ry
        Total length         46.3494 bohr
 

     total cpu time spent up to now is      537.9 secs

     total energy              =   -2975.26331370 Ry
     estimated scf accuracy    <       5.74454946 Ry

     iteration # 26     ecut=    29.40 Ry     beta= 0.05
     Davidson diagonalization with overlap
     ethr =  3.02E-04,  avg # of iterations = 11.7

     negative rho (up, down):  1.415E-03 0.000E+00
 
     Adding external electric field

     Computed dipole along edir(3) : 
        Dipole               -0.1457 Ry au,         -0.3704 Debye
        Dipole field         -0.0003 Ry au, 
 
        Potential amp.        0.0255 Ry
        Total length         46.3494 bohr
 

     total cpu time spent up to now is      551.5 secs

     total energy              =   -2975.18197954 Ry
     estimated scf accuracy    <       2.22588474 Ry

     iteration # 27     ecut=    29.40 Ry     beta= 0.05
     Davidson diagonalization with overlap
     c_bands:  1 eigenvalues not converged
     c_bands:  1 eigenvalues not converged
     c_bands:  4 eigenvalues not converged
     c_bands:  1 eigenvalues not converged
     c_bands:  2 eigenvalues not converged
     ethr =  3.02E-04,  avg # of iterations = 19.9

     negative rho (up, down):  1.662E-03 0.000E+00
 
     Adding external electric field

     Computed dipole along edir(3) : 
        Dipole               -0.4029 Ry au,         -1.0241 Debye
        Dipole field         -0.0008 Ry au, 
 
        Potential amp.        0.0705 Ry
        Total length         46.3494 bohr
 

     total cpu time spent up to now is      570.5 secs

     total energy              =   -2975.25139475 Ry
     estimated scf accuracy    <       0.74028472 Ry

     iteration # 28     ecut=    29.40 Ry     beta= 0.05
     Davidson diagonalization with overlap
     c_bands:  1 eigenvalues not converged
     c_bands:  1 eigenvalues not converged
     c_bands:  2 eigenvalues not converged
     ethr =  1.83E-04,  avg # of iterations = 17.6

     negative rho (up, down):  1.656E-03 0.000E+00
 
     Adding external electric field

     Computed dipole along edir(3) : 
        Dipole               -0.4000 Ry au,         -1.0167 Debye
        Dipole field         -0.0008 Ry au, 
 
        Potential amp.        0.0700 Ry
        Total length         46.3494 bohr
 

     total cpu time spent up to now is      587.1 secs

     total energy              =   -2975.35754065 Ry
     estimated scf accuracy    <       3.35169070 Ry

     iteration # 29     ecut=    29.40 Ry     beta= 0.05
     Davidson diagonalization with overlap
     ethr =  1.83E-04,  avg # of iterations =  1.1

     negative rho (up, down):  1.622E-03 0.000E+00
 
     Adding external electric field

     Computed dipole along edir(3) : 
        Dipole               -0.3805 Ry au,         -0.9672 Debye
        Dipole field         -0.0007 Ry au, 
 
        Potential amp.        0.0666 Ry
        Total length         46.3494 bohr
 

     total cpu time spent up to now is      597.1 secs

     total energy              =   -2975.34563688 Ry
     estimated scf accuracy    <       3.37467350 Ry

     iteration # 30     ecut=    29.40 Ry     beta= 0.05
     Davidson diagonalization with overlap
     ethr =  1.83E-04,  avg # of iterations =  1.8

     negative rho (up, down):  2.504E-03 0.000E+00
 
     Adding external electric field

     Computed dipole along edir(3) : 
        Dipole               -0.1020 Ry au,         -0.2591 Debye
        Dipole field         -0.0002 Ry au, 
 
        Potential amp.        0.0178 Ry
        Total length         46.3494 bohr
 

     total cpu time spent up to now is      607.4 secs

     total energy              =   -2975.50274920 Ry
     estimated scf accuracy    <       3.19705405 Ry

     iteration # 31     ecut=    29.40 Ry     beta= 0.05
     Davidson diagonalization with overlap
     c_bands:  2 eigenvalues not converged
     c_bands:  2 eigenvalues not converged
     ethr =  1.83E-04,  avg # of iterations = 14.3

     negative rho (up, down):  3.370E-03 0.000E+00
 
     Adding external electric field

     Computed dipole along edir(3) : 
        Dipole                0.2171 Ry au,          0.5519 Debye
        Dipole field          0.0004 Ry au, 
 
        Potential amp.       -0.0380 Ry
        Total length         46.3494 bohr
 

     total cpu time spent up to now is      627.8 secs

     total energy              =   -2975.49755203 Ry
     estimated scf accuracy    <       6.45047894 Ry

     iteration # 32     ecut=    29.40 Ry     beta= 0.05
     Davidson diagonalization with overlap
     ethr =  1.83E-04,  avg # of iterations =  7.1

     negative rho (up, down):  3.007E-03 0.000E+00
 
     Adding external electric field

     Computed dipole along edir(3) : 
        Dipole                0.5319 Ry au,          1.3519 Debye
        Dipole field          0.0010 Ry au, 
 
        Potential amp.       -0.0930 Ry
        Total length         46.3494 bohr
 

     total cpu time spent up to now is      640.0 secs

     total energy              =   -2975.39700083 Ry
     estimated scf accuracy    <       4.36240358 Ry

     iteration # 33     ecut=    29.40 Ry     beta= 0.05
     Davidson diagonalization with overlap
     ethr =  1.83E-04,  avg # of iterations =  8.0

     negative rho (up, down):  3.239E-03 0.000E+00
 
     Adding external electric field

     Computed dipole along edir(3) : 
        Dipole                1.4278 Ry au,          3.6290 Debye
        Dipole field          0.0027 Ry au, 
 
        Potential amp.       -0.2498 Ry
        Total length         46.3494 bohr
 

     total cpu time spent up to now is      652.6 secs

     total energy              =   -2975.08033386 Ry
     estimated scf accuracy    <       3.28289661 Ry

     iteration # 34     ecut=    29.40 Ry     beta= 0.05
     Davidson diagonalization with overlap
     c_bands:  5 eigenvalues not converged
     c_bands:  4 eigenvalues not converged
     c_bands:  5 eigenvalues not converged
     c_bands:  3 eigenvalues not converged
     ethr =  1.83E-04,  avg # of iterations = 25.1

     negative rho (up, down):  2.856E-03 0.000E+00
 
     Adding external electric field

     Computed dipole along edir(3) : 
        Dipole                1.0798 Ry au,          2.7445 Debye
        Dipole field          0.0020 Ry au, 
 
        Potential amp.       -0.1889 Ry
        Total length         46.3494 bohr
 

     total cpu time spent up to now is      680.7 secs

     total energy              =   -2975.21140247 Ry
     estimated scf accuracy    <       1.73134014 Ry

     iteration # 35     ecut=    29.40 Ry     beta= 0.05
     Davidson diagonalization with overlap
     ethr =  1.83E-04,  avg # of iterations =  8.0

     negative rho (up, down):  3.144E-03 0.000E+00
 
     Adding external electric field

     Computed dipole along edir(3) : 
        Dipole                1.1770 Ry au,          2.9915 Debye
        Dipole field          0.0022 Ry au, 
 
        Potential amp.       -0.2059 Ry
        Total length         46.3494 bohr
 

     total cpu time spent up to now is      693.0 secs

     total energy              =   -2975.23123528 Ry
     estimated scf accuracy    <       0.91448170 Ry

     iteration # 36     ecut=    29.40 Ry     beta= 0.05
     Davidson diagonalization with overlap
     ethr =  1.83E-04,  avg # of iterations =  5.2

     negative rho (up, down):  3.046E-03 0.000E+00
 
     Adding external electric field

     Computed dipole along edir(3) : 
        Dipole                0.9534 Ry au,          2.4233 Debye
        Dipole field          0.0018 Ry au, 
 
        Potential amp.       -0.1668 Ry
        Total length         46.3494 bohr
 

     total cpu time spent up to now is      704.4 secs

     total energy              =   -2975.20973055 Ry
     estimated scf accuracy    <       0.97622942 Ry

     iteration # 37     ecut=    29.40 Ry     beta= 0.05
     Davidson diagonalization with overlap
     ethr =  1.83E-04,  avg # of iterations = 11.4

     negative rho (up, down):  2.632E-03 0.000E+00
 
     Adding external electric field

     Computed dipole along edir(3) : 
        Dipole                0.8942 Ry au,          2.2727 Debye
        Dipole field          0.0017 Ry au, 
 
        Potential amp.       -0.1564 Ry
        Total length         46.3494 bohr
 

     total cpu time spent up to now is      718.2 secs

     total energy              =   -2975.21120934 Ry
     estimated scf accuracy    <       0.29507491 Ry

     iteration # 38     ecut=    29.40 Ry     beta= 0.05
     Davidson diagonalization with overlap
     ethr =  7.30E-05,  avg # of iterations = 10.2

     negative rho (up, down):  2.507E-03 0.000E+00
 
     Adding external electric field

     Computed dipole along edir(3) : 
        Dipole                0.7607 Ry au,          1.9336 Debye
        Dipole field          0.0014 Ry au, 
 
        Potential amp.       -0.1331 Ry
        Total length         46.3494 bohr
 

     total cpu time spent up to now is      731.7 secs

     total energy              =   -2975.20477780 Ry
     estimated scf accuracy    <       0.25676845 Ry

     iteration # 39     ecut=    29.40 Ry     beta= 0.05
     Davidson diagonalization with overlap
     c_bands:  1 eigenvalues not converged
     c_bands:  1 eigenvalues not converged
     ethr =  6.36E-05,  avg # of iterations = 11.8

     negative rho (up, down):  3.024E-03 0.000E+00
 
     Adding external electric field

     Computed dipole along edir(3) : 
        Dipole                0.4943 Ry au,          1.2563 Debye
        Dipole field          0.0009 Ry au, 
 
        Potential amp.       -0.0865 Ry
        Total length         46.3494 bohr
 

     total cpu time spent up to now is      745.3 secs

     total energy              =   -2975.18908417 Ry
     estimated scf accuracy    <       0.16604319 Ry

     iteration # 40     ecut=    29.40 Ry     beta= 0.05
     Davidson diagonalization with overlap
     c_bands:  1 eigenvalues not converged
     c_bands:  2 eigenvalues not converged
     c_bands:  4 eigenvalues not converged
     c_bands:  4 eigenvalues not converged
     c_bands:  4 eigenvalues not converged
     c_bands:  3 eigenvalues not converged
     c_bands:  2 eigenvalues not converged
     c_bands:  1 eigenvalues not converged
     c_bands:  1 eigenvalues not converged
     ethr =  4.11E-05,  avg # of iterations = 22.0

     negative rho (up, down):  2.893E-03 0.000E+00
 
     Adding external electric field

     Computed dipole along edir(3) : 
        Dipole                0.7173 Ry au,          1.8232 Debye
        Dipole field          0.0014 Ry au, 
 
        Potential amp.       -0.1255 Ry
        Total length         46.3494 bohr
 

     total cpu time spent up to now is      768.4 secs

     total energy              =   -2975.19269346 Ry
     estimated scf accuracy    <       1.80636869 Ry

     iteration # 41     ecut=    29.40 Ry     beta= 0.05
     Davidson diagonalization with overlap
     c_bands:  3 eigenvalues not converged
     c_bands:  1 eigenvalues not converged
     ethr =  4.11E-05,  avg # of iterations = 11.7

     negative rho (up, down):  3.348E-03 0.000E+00
 
     Adding external electric field

     Computed dipole along edir(3) : 
        Dipole                0.9861 Ry au,          2.5064 Debye
        Dipole field          0.0019 Ry au, 
 
        Potential amp.       -0.1725 Ry
        Total length         46.3494 bohr
 

     total cpu time spent up to now is      782.2 secs

     total energy              =   -2975.19167800 Ry
     estimated scf accuracy    <       0.29161184 Ry

     iteration # 42     ecut=    29.40 Ry     beta= 0.05
     Davidson diagonalization with overlap
     c_bands:  2 eigenvalues not converged
     c_bands:  2 eigenvalues not converged
     c_bands:  5 eigenvalues not converged
     c_bands:  1 eigenvalues not converged
     c_bands:  4 eigenvalues not converged
     c_bands:  3 eigenvalues not converged
     c_bands:  2 eigenvalues not converged
     c_bands:  3 eigenvalues not converged
     ethr =  4.11E-05,  avg # of iterations = 19.0

     negative rho (up, down):  3.717E-03 0.000E+00
 
     Adding external electric field

     Computed dipole along edir(3) : 
        Dipole                0.9305 Ry au,          2.3650 Debye
        Dipole field          0.0018 Ry au, 
 
        Potential amp.       -0.1628 Ry
        Total length         46.3494 bohr
 

     total cpu time spent up to now is      801.0 secs

     total energy              =   -2975.20010679 Ry
     estimated scf accuracy    <       0.31274056 Ry

     iteration # 43     ecut=    29.40 Ry     beta= 0.05
     Davidson diagonalization with overlap
     ethr =  4.11E-05,  avg # of iterations = 10.7

     negative rho (up, down):  3.964E-03 0.000E+00
 
     Adding external electric field

     Computed dipole along edir(3) : 
        Dipole                1.1356 Ry au,          2.8864 Debye
        Dipole field          0.0021 Ry au, 
 
        Potential amp.       -0.1987 Ry
        Total length         46.3494 bohr
 

     total cpu time spent up to now is      813.8 secs

     total energy              =   -2975.19995634 Ry
     estimated scf accuracy    <       0.05860242 Ry

     iteration # 44     ecut=    29.40 Ry     beta= 0.05
     Davidson diagonalization with overlap
     c_bands:  1 eigenvalues not converged
     c_bands:  3 eigenvalues not converged
     c_bands:  1 eigenvalues not converged
     ethr =  1.45E-05,  avg # of iterations = 16.2

     negative rho (up, down):  6.264E-03 0.000E+00
 
     Adding external electric field

     Computed dipole along edir(3) : 
        Dipole                1.2932 Ry au,          3.2870 Debye
        Dipole field          0.0024 Ry au, 
 
        Potential amp.       -0.2262 Ry
        Total length         46.3494 bohr
 

     total cpu time spent up to now is      830.1 secs

     total energy              =   -2975.20710587 Ry
     estimated scf accuracy    <       0.48270902 Ry

     iteration # 45     ecut=    29.40 Ry     beta= 0.05
     Davidson diagonalization with overlap
     ethr =  1.45E-05,  avg # of iterations =  7.4

     negative rho (up, down):  7.203E-03 0.000E+00
 
     Adding external electric field

     Computed dipole along edir(3) : 
        Dipole                1.2276 Ry au,          3.1203 Debye
        Dipole field          0.0023 Ry au, 
 
        Potential amp.       -0.2148 Ry
        Total length         46.3494 bohr
 

     total cpu time spent up to now is      842.5 secs

     total energy              =   -2975.20248580 Ry
     estimated scf accuracy    <       0.32857036 Ry

     iteration # 46     ecut=    29.40 Ry     beta= 0.05
     Davidson diagonalization with overlap
     c_bands:  2 eigenvalues not converged
     c_bands:  2 eigenvalues not converged
     c_bands:  1 eigenvalues not converged
     c_bands:  1 eigenvalues not converged
     c_bands:  2 eigenvalues not converged
     c_bands:  2 eigenvalues not converged
     ethr =  1.45E-05,  avg # of iterations = 17.7

     negative rho (up, down):  7.687E-03 0.000E+00
 
     Adding external electric field

     Computed dipole along edir(3) : 
        Dipole                1.2464 Ry au,          3.1680 Debye
        Dipole field          0.0024 Ry au, 
 
        Potential amp.       -0.2180 Ry
        Total length         46.3494 bohr
 

     total cpu time spent up to now is      859.2 secs

     total energy              =   -2975.20831121 Ry
     estimated scf accuracy    <       0.07226391 Ry

     iteration # 47     ecut=    29.40 Ry     beta= 0.05
     Davidson diagonalization with overlap
     ethr =  1.45E-05,  avg # of iterations =  6.0

     negative rho (up, down):  7.398E-03 0.000E+00
 
     Adding external electric field

     Computed dipole along edir(3) : 
        Dipole                1.3330 Ry au,          3.3880 Debye
        Dipole field          0.0025 Ry au, 
 
        Potential amp.       -0.2332 Ry
        Total length         46.3494 bohr
 

     total cpu time spent up to now is      870.6 secs

     total energy              =   -2975.19946578 Ry
     estimated scf accuracy    <       0.09036468 Ry

     iteration # 48     ecut=    29.40 Ry     beta= 0.05
     Davidson diagonalization with overlap
     c_bands:  1 eigenvalues not converged
     ethr =  1.45E-05,  avg # of iterations = 11.8

     negative rho (up, down):  9.740E-03 0.000E+00
 
     Adding external electric field

     Computed dipole along edir(3) : 
        Dipole                1.3569 Ry au,          3.4490 Debye
        Dipole field          0.0026 Ry au, 
 
        Potential amp.       -0.2374 Ry
        Total length         46.3494 bohr
 

     total cpu time spent up to now is      885.4 secs

     total energy              =   -2975.20431585 Ry
     estimated scf accuracy    <       0.02711987 Ry

     iteration # 49     ecut=    29.40 Ry     beta= 0.05
     Davidson diagonalization with overlap
     ethr =  6.71E-06,  avg # of iterations =  9.4

     negative rho (up, down):  1.244E-02 0.000E+00
 
     Adding external electric field

     Computed dipole along edir(3) : 
        Dipole                1.3855 Ry au,          3.5216 Debye
        Dipole field          0.0026 Ry au, 
 
        Potential amp.       -0.2424 Ry
        Total length         46.3494 bohr
 

     total cpu time spent up to now is      898.2 secs

     total energy              =   -2975.20498914 Ry
     estimated scf accuracy    <       0.00288900 Ry

     iteration # 50     ecut=    29.40 Ry     beta= 0.05
     Davidson diagonalization with overlap
     c_bands:  2 eigenvalues not converged
     c_bands:  1 eigenvalues not converged
     c_bands:  4 eigenvalues not converged
     c_bands:  3 eigenvalues not converged
     ethr =  7.15E-07,  avg # of iterations = 17.7

     negative rho (up, down):  1.219E-02 0.000E+00
 
     Adding external electric field

     Computed dipole along edir(3) : 
        Dipole                1.3756 Ry au,          3.4963 Debye
        Dipole field          0.0026 Ry au, 
 
        Potential amp.       -0.2406 Ry
        Total length         46.3494 bohr
 

     total cpu time spent up to now is      919.4 secs

     total energy              =   -2975.20597447 Ry
     estimated scf accuracy    <       0.00645682 Ry

     iteration # 51     ecut=    29.40 Ry     beta= 0.05
     Davidson diagonalization with overlap
     c_bands:  2 eigenvalues not converged
     c_bands:  3 eigenvalues not converged
     c_bands:  3 eigenvalues not converged
     ethr =  7.15E-07,  avg # of iterations =  9.5

     negative rho (up, down):  1.282E-02 0.000E+00
 
     Adding external electric field

     Computed dipole along edir(3) : 
        Dipole                1.3861 Ry au,          3.5232 Debye
        Dipole field          0.0026 Ry au, 
 
        Potential amp.       -0.2425 Ry
        Total length         46.3494 bohr
 

     total cpu time spent up to now is      932.4 secs

     total energy              =   -2975.20543426 Ry
     estimated scf accuracy    <       0.00573839 Ry

     iteration # 52     ecut=    29.40 Ry     beta= 0.05
     Davidson diagonalization with overlap
     ethr =  7.15E-07,  avg # of iterations = 12.2

     negative rho (up, down):  1.359E-02 0.000E+00
 
     Adding external electric field

     Computed dipole along edir(3) : 
        Dipole                1.3915 Ry au,          3.5368 Debye
        Dipole field          0.0026 Ry au, 
 
        Potential amp.       -0.2434 Ry
        Total length         46.3494 bohr
 

     total cpu time spent up to now is      947.5 secs

     total energy              =   -2975.20558263 Ry
     estimated scf accuracy    <       0.00135717 Ry

     iteration # 53     ecut=    29.40 Ry     beta= 0.05
     Davidson diagonalization with overlap
     c_bands:  1 eigenvalues not converged
     c_bands:  1 eigenvalues not converged
     ethr =  3.36E-07,  avg # of iterations = 13.2

     negative rho (up, down):  1.382E-02 0.000E+00
 
     Adding external electric field

     Computed dipole along edir(3) : 
        Dipole                1.3941 Ry au,          3.5435 Debye
        Dipole field          0.0026 Ry au, 
 
        Potential amp.       -0.2439 Ry
        Total length         46.3494 bohr
 

     total cpu time spent up to now is      964.5 secs

     total energy              =   -2975.20576049 Ry
     estimated scf accuracy    <       0.00047877 Ry

     iteration # 54     ecut=    29.40 Ry     beta= 0.05
     Davidson diagonalization with overlap
     c_bands:  1 eigenvalues not converged
     ethr =  1.19E-07,  avg # of iterations = 12.4

     negative rho (up, down):  1.399E-02 0.000E+00
 
     Adding external electric field

     Computed dipole along edir(3) : 
        Dipole                1.3964 Ry au,          3.5492 Debye
        Dipole field          0.0026 Ry au, 
 
        Potential amp.       -0.2443 Ry
        Total length         46.3494 bohr
 

     total cpu time spent up to now is      978.5 secs

     total energy              =   -2975.20575269 Ry
     estimated scf accuracy    <       0.00026632 Ry

     iteration # 55     ecut=    29.40 Ry     beta= 0.05
     Davidson diagonalization with overlap
     c_bands:  1 eigenvalues not converged
     c_bands:  1 eigenvalues not converged
     ethr =  6.59E-08,  avg # of iterations = 15.9

     negative rho (up, down):  1.435E-02 0.000E+00
 
     Adding external electric field

     Computed dipole along edir(3) : 
        Dipole                1.3994 Ry au,          3.5568 Debye
        Dipole field          0.0026 Ry au, 
 
        Potential amp.       -0.2448 Ry
        Total length         46.3494 bohr
 

     total cpu time spent up to now is      998.1 secs

     total energy              =   -2975.20581786 Ry
     estimated scf accuracy    <       0.00030754 Ry

     iteration # 56     ecut=    29.40 Ry     beta= 0.05
     Davidson diagonalization with overlap
     ethr =  6.59E-08,  avg # of iterations =  5.4

     negative rho (up, down):  1.468E-02 0.000E+00
 
     Adding external electric field

     Computed dipole along edir(3) : 
        Dipole                1.3978 Ry au,          3.5529 Debye
        Dipole field          0.0026 Ry au, 
 
        Potential amp.       -0.2445 Ry
        Total length         46.3494 bohr
 

     total cpu time spent up to now is     1009.7 secs

     total energy              =   -2975.20582212 Ry
     estimated scf accuracy    <       0.00016844 Ry

     iteration # 57     ecut=    29.40 Ry     beta= 0.05
     Davidson diagonalization with overlap
     c_bands:  1 eigenvalues not converged
     c_bands:  2 eigenvalues not converged
     c_bands:  1 eigenvalues not converged
     ethr =  4.17E-08,  avg # of iterations = 16.1

     negative rho (up, down):  1.456E-02 0.000E+00
 
     Adding external electric field

     Computed dipole along edir(3) : 
        Dipole                1.3954 Ry au,          3.5467 Debye
        Dipole field          0.0026 Ry au, 
 
        Potential amp.       -0.2441 Ry
        Total length         46.3494 bohr
 

     total cpu time spent up to now is     1028.5 secs

     total energy              =   -2975.20583859 Ry
     estimated scf accuracy    <       0.00012483 Ry

     iteration # 58     ecut=    29.40 Ry     beta= 0.05
     Davidson diagonalization with overlap
     c_bands:  1 eigenvalues not converged
     ethr =  3.09E-08,  avg # of iterations = 13.3

     negative rho (up, down):  1.497E-02 0.000E+00
 
     Adding external electric field

     Computed dipole along edir(3) : 
        Dipole                1.3971 Ry au,          3.5510 Debye
        Dipole field          0.0026 Ry au, 
 
        Potential amp.       -0.2444 Ry
        Total length         46.3494 bohr
 

     total cpu time spent up to now is     1043.6 secs

     total energy              =   -2975.20586306 Ry
     estimated scf accuracy    <       0.00004379 Ry

     iteration # 59     ecut=    29.40 Ry     beta= 0.05
     Davidson diagonalization with overlap
     c_bands:  1 eigenvalues not converged
     ethr =  1.08E-08,  avg # of iterations = 12.7

     negative rho (up, down):  1.502E-02 0.000E+00
 
     Adding external electric field

     Computed dipole along edir(3) : 
        Dipole                1.3977 Ry au,          3.5527 Debye
        Dipole field          0.0026 Ry au, 
 
        Potential amp.       -0.2445 Ry
        Total length         46.3494 bohr
 

     total cpu time spent up to now is     1058.9 secs

     total energy              =   -2975.20587704 Ry
     estimated scf accuracy    <       0.00001632 Ry

     iteration # 60     ecut=    29.40 Ry     beta= 0.05
     Davidson diagonalization with overlap
     ethr =  4.04E-09,  avg # of iterations = 10.4

     negative rho (up, down):  1.512E-02 0.000E+00
 
     Adding external electric field

     Computed dipole along edir(3) : 
        Dipole                1.3985 Ry au,          3.5546 Debye
        Dipole field          0.0026 Ry au, 
 
        Potential amp.       -0.2446 Ry
        Total length         46.3494 bohr
 

     total cpu time spent up to now is     1072.0 secs

     total energy              =   -2975.20588650 Ry
     estimated scf accuracy    <       0.00001666 Ry

     iteration # 61     ecut=    29.40 Ry     beta= 0.05
     Davidson diagonalization with overlap
     ethr =  4.04E-09,  avg # of iterations =  1.6

     negative rho (up, down):  1.513E-02 0.000E+00
 
     Adding external electric field

     Computed dipole along edir(3) : 
        Dipole                1.4017 Ry au,          3.5628 Debye
        Dipole field          0.0026 Ry au, 
 
        Potential amp.       -0.2452 Ry
        Total length         46.3494 bohr
 

     total cpu time spent up to now is     1082.2 secs

     total energy              =   -2975.20589227 Ry
     estimated scf accuracy    <       0.00001285 Ry

     iteration # 62     ecut=    29.40 Ry     beta= 0.05
     Davidson diagonalization with overlap
     ethr =  3.18E-09,  avg # of iterations = 11.7

     negative rho (up, down):  1.524E-02 0.000E+00
 
     Adding external electric field

     Computed dipole along edir(3) : 
        Dipole                1.4020 Ry au,          3.5635 Debye
        Dipole field          0.0026 Ry au, 
 
        Potential amp.       -0.2453 Ry
        Total length         46.3494 bohr
 

     total cpu time spent up to now is     1101.2 secs

     total energy              =   -2975.20589945 Ry
     estimated scf accuracy    <       0.00001388 Ry

     iteration # 63     ecut=    29.40 Ry     beta= 0.05
     Davidson diagonalization with overlap
     c_bands:  1 eigenvalues not converged
     ethr =  3.18E-09,  avg # of iterations = 12.0

     negative rho (up, down):  1.519E-02 0.000E+00
 
     Adding external electric field

     Computed dipole along edir(3) : 
        Dipole                1.4019 Ry au,          3.5632 Debye
        Dipole field          0.0026 Ry au, 
 
        Potential amp.       -0.2452 Ry
        Total length         46.3494 bohr
 

     total cpu time spent up to now is     1117.7 secs

     total energy              =   -2975.20590746 Ry
     estimated scf accuracy    <       0.00000358 Ry

     iteration # 64     ecut=    29.40 Ry     beta= 0.05
     Davidson diagonalization with overlap
     ethr =  8.85E-10,  avg # of iterations =  8.2

     negative rho (up, down):  1.511E-02 0.000E+00
 
     Adding external electric field

     Computed dipole along edir(3) : 
        Dipole                1.4017 Ry au,          3.5628 Debye
        Dipole field          0.0026 Ry au, 
 
        Potential amp.       -0.2452 Ry
        Total length         46.3494 bohr
 

     total cpu time spent up to now is     1130.6 secs

     total energy              =   -2975.20591278 Ry
     estimated scf accuracy    <       0.00000244 Ry

     iteration # 65     ecut=    29.40 Ry     beta= 0.05
     Davidson diagonalization with overlap
     c_bands:  1 eigenvalues not converged
     ethr =  6.03E-10,  avg # of iterations = 13.8

     negative rho (up, down):  1.518E-02 0.000E+00
 
     Adding external electric field

     Computed dipole along edir(3) : 
        Dipole                1.4022 Ry au,          3.5641 Debye
        Dipole field          0.0026 Ry au, 
 
        Potential amp.       -0.2453 Ry
        Total length         46.3494 bohr
 

     total cpu time spent up to now is     1148.1 secs

     total energy              =   -2975.20591798 Ry
     estimated scf accuracy    <       0.00000283 Ry

     iteration # 66     ecut=    29.40 Ry     beta= 0.05
     Davidson diagonalization with overlap
     ethr =  6.03E-10,  avg # of iterations = 12.6

     negative rho (up, down):  1.516E-02 0.000E+00
 
     Adding external electric field

     Computed dipole along edir(3) : 
        Dipole                1.4023 Ry au,          3.5643 Debye
        Dipole field          0.0026 Ry au, 
 
        Potential amp.       -0.2453 Ry
        Total length         46.3494 bohr
 

     total cpu time spent up to now is     1163.5 secs

     total energy              =   -2975.20592289 Ry
     estimated scf accuracy    <       0.00000119 Ry

     iteration # 67     ecut=    29.40 Ry     beta= 0.05
     Davidson diagonalization with overlap
     ethr =  2.95E-10,  avg # of iterations = 10.7

     negative rho (up, down):  1.515E-02 0.000E+00
 
     Adding external electric field

     Computed dipole along edir(3) : 
        Dipole                1.4021 Ry au,          3.5637 Debye
        Dipole field          0.0026 Ry au, 
 
        Potential amp.       -0.2453 Ry
        Total length         46.3494 bohr
 

     total cpu time spent up to now is     1177.6 secs

     total energy              =   -2975.20592711 Ry
     estimated scf accuracy    <       0.00000047 Ry

     iteration # 68     ecut=    29.40 Ry     beta= 0.05
     Davidson diagonalization with overlap
     c_bands:  1 eigenvalues not converged
     ethr =  1.17E-10,  avg # of iterations = 11.5

     negative rho (up, down):  1.514E-02 0.000E+00
 
     Adding external electric field

     Computed dipole along edir(3) : 
        Dipole                1.4020 Ry au,          3.5636 Debye
        Dipole field          0.0026 Ry au, 
 
        Potential amp.       -0.2453 Ry
        Total length         46.3494 bohr
 

     total cpu time spent up to now is     1194.4 secs

     total energy              =   -2975.20593084 Ry
     estimated scf accuracy    <       0.00000027 Ry

     iteration # 69     ecut=    29.40 Ry     beta= 0.05
     Davidson diagonalization with overlap
     c_bands:  1 eigenvalues not converged
     ethr =  6.70E-11,  avg # of iterations = 14.4

     negative rho (up, down):  1.516E-02 0.000E+00
 
     Adding external electric field

     Computed dipole along edir(3) : 
        Dipole                1.4021 Ry au,          3.5639 Debye
        Dipole field          0.0026 Ry au, 
 
        Potential amp.       -0.2453 Ry
        Total length         46.3494 bohr
 

     total cpu time spent up to now is     1209.9 secs

     total energy              =   -2975.20593410 Ry
     estimated scf accuracy    <       0.00000026 Ry

     iteration # 70     ecut=    29.40 Ry     beta= 0.05
     Davidson diagonalization with overlap
     ethr =  6.42E-11,  avg # of iterations = 10.7

     negative rho (up, down):  1.516E-02 0.000E+00
 
     Adding external electric field

     Computed dipole along edir(3) : 
        Dipole                1.4022 Ry au,          3.5639 Debye
        Dipole field          0.0026 Ry au, 
 
        Potential amp.       -0.2453 Ry
        Total length         46.3494 bohr
 

     total cpu time spent up to now is     1224.9 secs

     total energy              =   -2975.20593712 Ry
     estimated scf accuracy    <       0.00000014 Ry

     iteration # 71     ecut=    29.40 Ry     beta= 0.05
     Davidson diagonalization with overlap
     c_bands:  1 eigenvalues not converged
     c_bands:  1 eigenvalues not converged
     ethr =  3.49E-11,  avg # of iterations = 13.1

     negative rho (up, down):  1.515E-02 0.000E+00
 
     Adding external electric field

     Computed dipole along edir(3) : 
        Dipole                1.4021 Ry au,          3.5637 Debye
        Dipole field          0.0026 Ry au, 
 
        Potential amp.       -0.2453 Ry
        Total length         46.3494 bohr
 

     total cpu time spent up to now is     1242.2 secs

     total energy              =   -2975.20593983 Ry
     estimated scf accuracy    <       0.00000009 Ry

     iteration # 72     ecut=    29.40 Ry     beta= 0.05
     Davidson diagonalization with overlap
     ethr =  2.11E-11,  avg # of iterations =  9.6

     negative rho (up, down):  1.520E-02 0.000E+00
 
     Adding external electric field

     Computed dipole along edir(3) : 
        Dipole                1.4019 Ry au,          3.5633 Debye
        Dipole field          0.0026 Ry au, 
 
        Potential amp.       -0.2452 Ry
        Total length         46.3494 bohr
 

     total cpu time spent up to now is     1255.3 secs

     End of self-consistent calculation

          k = 0.0000 0.0000 0.0000 ( 18029 PWs)   bands (ev):

   -55.1885 -55.1525 -55.1489 -55.1147 -55.1009 -55.0692 -55.0352 -55.0311
   -55.0075 -54.9780 -54.9725 -54.9689 -54.9444 -54.8739 -54.1717 -54.1377
   -31.7538 -31.6404 -31.5991 -31.5578 -31.5070 -31.4969 -31.4897 -31.4826
   -31.4379 -31.4035 -31.3999 -31.3935 -31.3912 -31.3650 -31.3423 -31.3334
   -31.3325 -31.3261 -31.3068 -31.3007 -31.2813 -31.2768 -31.2619 -31.2481
   -31.2373 -31.2348 -31.2142 -31.2079 -31.2059 -31.1993 -31.1935 -31.1757
   -31.1710 -31.1606 -31.1558 -31.1425 -31.1216 -31.1175 -31.1061 -31.0893
   -31.0885 -31.0036 -30.5807 -30.4874 -30.4653 -30.3973 -30.3106 -30.1994
   -18.9160 -18.5436 -16.0143 -15.7491 -15.6131 -15.5030 -15.3872 -15.2576
   -15.2099 -15.0787 -15.0192 -14.9058 -14.8778 -14.8354 -14.8164 -14.8112
   -14.7532 -14.7258 -14.7189 -14.6937 -14.6834 -14.6621 -14.6227 -14.6164
   -14.5804 -14.5693 -14.5656 -14.4207 -14.3431 -14.2787 -13.9675 -13.6677
   -12.6741 -12.5568  -8.8048  -6.7043  -6.4593  -6.0707  -4.1352  -3.3574
    -3.2018  -3.1876  -3.1256  -3.0853  -3.0676  -3.0081  -2.9392  -2.7360
    -2.6012  -2.5741  -2.4550  -2.3890  -2.3845  -2.3315  -2.1887  -2.1840
    -2.1285  -2.0891  -2.0390  -2.0189  -1.9955  -1.9718  -1.9380  -1.9186
    -1.8917  -1.7570  -1.7371  -1.6632  -1.6009  -1.5903  -1.5322  -1.5084
    -1.4895  -1.4839  -1.4753  -1.4631  -1.4242  -1.4104  -1.3673  -1.3101
    -1.2074  -1.1204  -1.0269  -0.9478  -0.8849  -0.8229  -0.7614  -0.7523
    -0.6753  -0.6628  -0.5717  -0.5485  -0.5179  -0.4051  -0.3428  -0.3384
    -0.2751  -0.1733  -0.1446  -0.1286  -0.0571   0.0210   0.0400   0.0477
     0.0558   0.1795   0.2325   0.2649   0.2983   0.3689   0.3905   0.4402
     0.4866   0.4935   0.5725   0.6323   0.6865   0.7359   0.7532   0.7777
     0.7957   0.8053   0.8222   0.9033   0.9260   0.9591   1.0123   1.1679
     1.3272   1.4267   1.4428   1.7608   1.7740   1.8512   2.0356   2.4264
     2.4743   3.9075   3.9844   4.0434   4.0496   4.0587   4.1447   4.3892
     4.4048   4.4176   4.4297   4.4734

          k = 0.0000 0.0419 0.0000 ( 17933 PWs)   bands (ev):

   -55.1832 -55.1577 -55.1438 -55.1197 -55.0998 -55.0647 -55.0356 -55.0341
   -55.0025 -54.9774 -54.9730 -54.9699 -54.9493 -54.8748 -54.1667 -54.1426
   -31.6967 -31.5864 -31.5640 -31.5030 -31.4779 -31.4571 -31.4443 -31.4402
   -31.4330 -31.4234 -31.4110 -31.3886 -31.3876 -31.3726 -31.3571 -31.3361
   -31.3343 -31.3255 -31.3184 -31.2923 -31.2868 -31.2838 -31.2701 -31.2427
   -31.2384 -31.2333 -31.2293 -31.2215 -31.2200 -31.2143 -31.2111 -31.2062
   -31.1775 -31.1706 -31.1671 -31.1577 -31.1518 -31.1488 -31.1424 -31.1164
   -31.0859 -31.0439 -30.5265 -30.4839 -30.4682 -30.3847 -30.3232 -30.2566
   -18.9149 -18.5439 -15.8847 -15.6332 -15.5279 -15.4321 -15.2816 -15.2092
   -15.1677 -15.0895 -15.0180 -14.9863 -14.9346 -14.8649 -14.8226 -14.8159
   -14.7577 -14.7423 -14.6914 -14.6862 -14.6813 -14.6691 -14.6622 -14.6303
   -14.6246 -14.6045 -14.5546 -14.4772 -14.3986 -14.3382 -14.0911 -13.6690
   -12.6778 -12.5961  -8.8065  -6.7066  -6.4634  -6.0694  -4.1081  -3.1818
    -3.1329  -3.0361  -3.0262  -2.9662  -2.9287  -2.9086  -2.7951  -2.5316
    -2.5024  -2.4675  -2.4147  -2.3337  -2.3305  -2.2897  -2.2524  -2.2030
    -2.1873  -2.1583  -2.1310  -2.1151  -2.0735  -2.0319  -1.9830  -1.9556
    -1.9217  -1.9032  -1.8258  -1.7812  -1.7482  -1.7402  -1.7106  -1.6819
    -1.6161  -1.5931  -1.4998  -1.4876  -1.4226  -1.3412  -1.2368  -1.1258
    -1.0902  -1.0000  -0.9863  -0.9004  -0.8608  -0.7604  -0.7457  -0.5969
    -0.5339  -0.5085  -0.5019  -0.4750  -0.4453  -0.3728  -0.3178  -0.2679
    -0.1875  -0.1636  -0.1282  -0.1237  -0.1022  -0.0136  -0.0043   0.0180
     0.0671   0.1535   0.2032   0.2270   0.2427   0.2896   0.3099   0.3861
     0.4250   0.4494   0.5083   0.5652   0.5716   0.6019   0.6221   0.6668
     0.7493   0.7744   0.8102   0.8608   0.9050   0.9397   1.0180   1.1089
     1.1221   1.1791   1.3260   1.4601   1.6490   2.0353   2.1132   2.3813
     2.3848   4.0919   4.1133   4.1405   4.1986   4.2756   4.2878   4.3085
     4.3339   4.3487   4.4234   4.4422

          k = 0.0000-0.0839 0.0000 ( 17884 PWs)   bands (ev):

   -55.1714 -55.1694 -55.1317 -55.1317 -55.0987 -55.0581 -55.0420 -55.0331
   -54.9932 -54.9867 -54.9710 -54.9613 -54.9609 -54.8757 -54.1546 -54.1546
   -31.5626 -31.5523 -31.5234 -31.4540 -31.4539 -31.4485 -31.4400 -31.4232
   -31.4231 -31.3874 -31.3762 -31.3758 -31.3658 -31.3609 -31.3572 -31.3478
   -31.3247 -31.3197 -31.3172 -31.3129 -31.3074 -31.2687 -31.2655 -31.2618
   -31.2575 -31.2551 -31.2531 -31.2519 -31.2518 -31.2434 -31.2355 -31.2324
   -31.2262 -31.2173 -31.2171 -31.1556 -31.1540 -31.1510 -31.1416 -31.1412
   -31.0918 -31.0828 -30.4759 -30.4758 -30.3934 -30.3932 -30.3540 -30.3539
   -18.9138 -18.5442 -15.6112 -15.5603 -15.3910 -15.3415 -15.2271 -15.2088
   -15.1834 -15.0999 -15.0226 -15.0140 -15.0126 -14.9637 -14.8690 -14.7942
   -14.7797 -14.7750 -14.7561 -14.7543 -14.6741 -14.6283 -14.6019 -14.5936
   -14.5912 -14.5366 -14.5302 -14.4834 -14.4799 -14.4699 -14.3202 -13.6702
   -12.6588 -12.6587  -8.8083  -6.7089  -6.4676  -6.0682  -4.0808  -3.1520
    -3.0185  -2.7719  -2.7091  -2.6614  -2.6388  -2.6226  -2.6142  -2.5762
    -2.5268  -2.4719  -2.4673  -2.4486  -2.3601  -2.3510  -2.3495  -2.3270
    -2.3111  -2.2360  -2.1932  -2.1598  -2.1053  -2.0610  -2.0506  -2.0243
    -2.0175  -2.0141  -1.9315  -1.8694  -1.8198  -1.7867  -1.6374  -1.6083
    -1.5570  -1.5501  -1.4797  -1.3335  -1.2958  -1.2803  -1.2390  -1.0882
    -1.0421  -0.9633  -0.9487  -0.9333  -0.7673  -0.6963  -0.6668  -0.6593
    -0.6360  -0.6136  -0.5771  -0.5725  -0.5585  -0.4582  -0.4034  -0.3438
    -0.2726  -0.1903  -0.1271  -0.0298   0.0782   0.0917   0.1154   0.1392
     0.1825   0.2016   0.2101   0.2242   0.2521   0.2867   0.3279   0.3357
     0.3636   0.3971   0.4414   0.4623   0.4825   0.5291   0.5726   0.5961
     0.5983   0.6291   0.6435   0.6952   0.7503   0.9502   1.0243   1.0257
     1.0319   1.1979   1.2463   1.3801   1.3969   2.1774   2.1787   2.3170
     2.3171   4.0947   4.1927   4.2172   4.2392   4.2503   4.3554   4.3882
     4.3987   4.4837   4.5021   4.5211

          k = 0.0380 0.0000 0.0000 ( 17913 PWs)   bands (ev):

   -55.1883 -55.1524 -55.1487 -55.1146 -55.1008 -55.0691 -55.0351 -55.0310
   -55.0072 -54.9781 -54.9724 -54.9688 -54.9443 -54.8738 -54.1716 -54.1376
   -31.7539 -31.6413 -31.5992 -31.5631 -31.5101 -31.5010 -31.4895 -31.4829
   -31.4377 -31.4033 -31.3934 -31.3915 -31.3824 -31.3649 -31.3330 -31.3325
   -31.3291 -31.3198 -31.2987 -31.2859 -31.2813 -31.2768 -31.2656 -31.2616
   -31.2399 -31.2370 -31.2140 -31.2083 -31.2053 -31.1988 -31.1861 -31.1807
   -31.1755 -31.1708 -31.1574 -31.1410 -31.1202 -31.1172 -31.1060 -31.0934
   -31.0890 -31.0036 -30.5802 -30.4909 -30.4632 -30.3971 -30.3105 -30.1992
   -18.9151 -18.5437 -15.9368 -15.6623 -15.6043 -15.4600 -15.2905 -15.2693
   -15.2134 -15.0993 -15.0205 -14.9960 -14.9592 -14.9020 -14.8823 -14.8778
   -14.8628 -14.7827 -14.7401 -14.7116 -14.6637 -14.6151 -14.5852 -14.5747
   -14.5388 -14.4932 -14.4391 -14.4161 -14.4145 -14.3660 -13.9672 -13.6762
   -12.6708 -12.5565  -8.7883  -6.7046  -6.4306  -6.0821  -4.1318  -3.2519
    -3.1568  -3.0822  -3.0470  -2.9681  -2.8936  -2.8312  -2.7956  -2.7253
    -2.7002  -2.6131  -2.5877  -2.5272  -2.4964  -2.3263  -2.2661  -2.2387
    -2.1310  -2.1100  -1.9721  -1.9548  -1.9176  -1.8885  -1.8629  -1.8261
    -1.7862  -1.7349  -1.6986  -1.5914  -1.5742  -1.5516  -1.5405  -1.5102
    -1.4900  -1.4536  -1.4373  -1.4226  -1.3774  -1.2747  -1.2437  -1.2243
    -1.1210  -1.0934  -0.9951  -0.9795  -0.8915  -0.8287  -0.8120  -0.7484
    -0.7040  -0.6749  -0.6069  -0.6005  -0.5789  -0.5293  -0.4968  -0.4731
    -0.2629  -0.1943  -0.1612  -0.1221  -0.0872  -0.0609  -0.0203   0.0319
     0.1287   0.1630   0.1912   0.2238   0.2615   0.3058   0.3495   0.3877
     0.4317   0.5051   0.5220   0.5500   0.5844   0.5990   0.6149   0.6703
     0.6880   0.7790   0.7855   0.8559   0.8609   0.9235   0.9773   1.0236
     1.1044   1.2878   1.4755   1.6344   1.7664   1.8631   2.0045   2.3139
     2.3916   3.9230   4.0072   4.1475   4.2162   4.2415   4.3019   4.3463
     4.3575   4.3926   4.4039   4.4186

          k = 0.0380 0.0419 0.0000 ( 17878 PWs)   bands (ev):

   -55.1830 -55.1577 -55.1437 -55.1196 -55.0997 -55.0647 -55.0356 -55.0340
   -55.0023 -54.9773 -54.9731 -54.9699 -54.9493 -54.8748 -54.1666 -54.1426
   -31.6969 -31.5872 -31.5642 -31.5093 -31.4781 -31.4602 -31.4483 -31.4409
   -31.4328 -31.4235 -31.4110 -31.3879 -31.3756 -31.3718 -31.3572 -31.3267
   -31.3253 -31.3221 -31.3184 -31.2852 -31.2839 -31.2738 -31.2702 -31.2588
   -31.2430 -31.2329 -31.2272 -31.2212 -31.2196 -31.2112 -31.2089 -31.2021
   -31.1882 -31.1709 -31.1679 -31.1637 -31.1583 -31.1463 -31.1421 -31.1165
   -31.0911 -31.0436 -30.5261 -30.4867 -30.4672 -30.3845 -30.3232 -30.2565
   -18.9146 -18.5433 -15.8143 -15.5544 -15.5378 -15.3653 -15.2181 -15.1968
   -15.1593 -15.0893 -15.0427 -14.9899 -14.9759 -14.9212 -14.8730 -14.8415
   -14.8222 -14.7870 -14.7556 -14.7320 -14.7073 -14.6548 -14.6263 -14.5983
   -14.5711 -14.5463 -14.5120 -14.4795 -14.4643 -14.4199 -14.0910 -13.6758
   -12.6754 -12.5964  -8.7869  -6.7062  -6.4320  -6.0835  -4.1528  -3.1727
    -3.0781  -2.9742  -2.9094  -2.8010  -2.7400  -2.6770  -2.6240  -2.5574
    -2.5165  -2.4847  -2.4366  -2.3744  -2.3103  -2.2585  -2.2315  -2.1903
    -2.1755  -2.1158  -2.0809  -2.0488  -2.0164  -1.9952  -1.9667  -1.9415
    -1.8866  -1.8795  -1.8236  -1.7784  -1.7364  -1.7003  -1.6760  -1.6446
    -1.6076  -1.5653  -1.4967  -1.3986  -1.3365  -1.2557  -1.2166  -1.1854
    -1.0364  -1.0103  -0.9435  -0.9156  -0.8702  -0.7928  -0.7156  -0.6500
    -0.6297  -0.5829  -0.5565  -0.5301  -0.5125  -0.4540  -0.4288  -0.3607
    -0.2773  -0.2353  -0.2129  -0.1614  -0.1294  -0.1144  -0.0703  -0.0052
     0.0447   0.0595   0.1036   0.1278   0.1663   0.1968   0.2310   0.2450
     0.2944   0.3671   0.3916   0.4317   0.4819   0.5375   0.5637   0.6551
     0.7336   0.7403   0.8187   0.8492   0.9264   0.9714   0.9775   1.0583
     1.1145   1.2301   1.2723   1.4095   1.5998   2.0461   2.1166   2.3035
     2.3664   4.0830   4.1036   4.1314   4.2515   4.2889   4.3076   4.3418
     4.3518   4.4124   4.4731   4.4961

          k = 0.0380-0.0839 0.0000 ( 17916 PWs)   bands (ev):

   -55.1714 -55.1694 -55.1317 -55.1317 -55.0987 -55.0582 -55.0420 -55.0332
   -54.9931 -54.9866 -54.9710 -54.9614 -54.9610 -54.8758 -54.1547 -54.1546
   -31.5629 -31.5526 -31.5237 -31.4548 -31.4547 -31.4487 -31.4402 -31.4232
   -31.4232 -31.3939 -31.3893 -31.3811 -31.3759 -31.3491 -31.3383 -31.3305
   -31.3216 -31.3198 -31.3162 -31.3157 -31.3141 -31.2715 -31.2695 -31.2670
   -31.2526 -31.2526 -31.2508 -31.2418 -31.2408 -31.2363 -31.2328 -31.2307
   -31.2261 -31.2256 -31.2170 -31.1658 -31.1631 -31.1546 -31.1416 -31.1413
   -31.0929 -31.0876 -30.4769 -30.4769 -30.3934 -30.3931 -30.3540 -30.3539
   -18.9137 -18.5435 -15.5747 -15.5246 -15.3567 -15.2893 -15.2185 -15.1619
   -15.1268 -15.0673 -15.0343 -15.0279 -14.9731 -14.9242 -14.8606 -14.8293
   -14.8084 -14.8021 -14.7706 -14.7464 -14.7419 -14.6761 -14.6509 -14.6222
   -14.6179 -14.5573 -14.5504 -14.5335 -14.5320 -14.4551 -14.3130 -13.6766
   -12.6586 -12.6585  -8.7885  -6.7066  -6.4400  -6.0823  -4.1274  -3.1842
    -2.9698  -2.7534  -2.6536  -2.5542  -2.4680  -2.4600  -2.4496  -2.4120
    -2.3730  -2.3548  -2.3043  -2.2895  -2.2807  -2.2715  -2.2656  -2.2461
    -2.2248  -2.1755  -2.1618  -2.1154  -2.0823  -2.0694  -2.0277  -2.0136
    -1.9555  -1.9472  -1.8982  -1.8721  -1.8424  -1.8016  -1.6701  -1.6300
    -1.5201  -1.4516  -1.3828  -1.3675  -1.2859  -1.2477  -1.1918  -1.1462
    -1.1164  -1.0837  -1.0396  -1.0112  -0.9395  -0.8922  -0.8701  -0.8573
    -0.7978  -0.7384  -0.6438  -0.5492  -0.5268  -0.4987  -0.4469  -0.3905
    -0.3303  -0.2446  -0.2031  -0.1677  -0.1295  -0.0923  -0.0373   0.0001
     0.0094   0.0243   0.0389   0.1194   0.1682   0.1763   0.2119   0.2541
     0.2878   0.2994   0.3400   0.3567   0.5100   0.5460   0.5593   0.5987
     0.7136   0.7458   0.7990   0.8790   0.8832   0.9364   0.9726   1.0561
     1.0640   1.1608   1.1896   1.3694   1.3856   2.1908   2.1921   2.3073
     2.3080   4.0883   4.1255   4.1762   4.2404   4.2612   4.3394   4.3643
     4.4068   4.4945   4.5140   4.5600

          k = 0.0380-0.0419 0.0000 ( 17876 PWs)   bands (ev):

   -55.1830 -55.1577 -55.1437 -55.1196 -55.0997 -55.0647 -55.0355 -55.0340
   -55.0023 -54.9773 -54.9731 -54.9699 -54.9493 -54.8748 -54.1666 -54.1426
   -31.6969 -31.5872 -31.5641 -31.5092 -31.4781 -31.4599 -31.4483 -31.4409
   -31.4328 -31.4235 -31.4110 -31.3878 -31.3758 -31.3716 -31.3571 -31.3267
   -31.3252 -31.3231 -31.3184 -31.2852 -31.2840 -31.2738 -31.2706 -31.2588
   -31.2416 -31.2329 -31.2272 -31.2212 -31.2196 -31.2112 -31.2089 -31.2021
   -31.1884 -31.1698 -31.1677 -31.1638 -31.1583 -31.1477 -31.1421 -31.1165
   -31.0911 -31.0436 -30.5261 -30.4867 -30.4672 -30.3845 -30.3232 -30.2565
   -18.9142 -18.5438 -15.8144 -15.5545 -15.5381 -15.3688 -15.2190 -15.1963
   -15.1591 -15.0894 -15.0400 -14.9884 -14.9706 -14.9211 -14.8734 -14.8418
   -14.8213 -14.7911 -14.7570 -14.7321 -14.7065 -14.6547 -14.6260 -14.5989
   -14.5700 -14.5461 -14.5112 -14.4794 -14.4646 -14.4202 -14.0915 -13.6769
   -12.6754 -12.5964  -8.7899  -6.7049  -6.4385  -6.0810  -4.1035  -3.1844
    -3.0804  -3.0082  -2.9109  -2.8013  -2.7353  -2.6775  -2.6238  -2.5617
    -2.5189  -2.4860  -2.4356  -2.3759  -2.3106  -2.2581  -2.2307  -2.1923
    -2.1749  -2.1135  -2.0821  -2.0578  -2.0151  -1.9939  -1.9704  -1.9400
    -1.8878  -1.8796  -1.8199  -1.7759  -1.7256  -1.7005  -1.6823  -1.6255
    -1.6024  -1.5707  -1.5175  -1.3934  -1.3536  -1.2528  -1.2108  -1.1817
    -1.0399  -1.0034  -0.9366  -0.9119  -0.8622  -0.7920  -0.7151  -0.6523
    -0.6302  -0.5844  -0.5566  -0.5336  -0.5135  -0.4476  -0.4285  -0.3599
    -0.2983  -0.2416  -0.2264  -0.1588  -0.1237  -0.1108  -0.0661   0.0070
     0.0408   0.0537   0.1022   0.1286   0.1624   0.1979   0.2216   0.2545
     0.2908   0.3763   0.3861   0.4314   0.4776   0.5410   0.5808   0.6467
     0.6915   0.7506   0.8148   0.8681   0.9277   0.9749   0.9820   1.0666
     1.1175   1.2298   1.2693   1.4096   1.5994   2.0462   2.1165   2.3033
     2.3671   4.0790   4.1049   4.1327   4.2499   4.2815   4.3206   4.3441
     4.3668   4.4073   4.4738   4.4979

          k =-0.0760-0.0000 0.0000 ( 17886 PWs)   bands (ev):

   -55.1882 -55.1524 -55.1487 -55.1146 -55.1007 -55.0691 -55.0351 -55.0310
   -55.0069 -54.9782 -54.9724 -54.9688 -54.9443 -54.8738 -54.1716 -54.1376
   -31.7540 -31.6422 -31.5994 -31.5682 -31.5132 -31.5050 -31.4893 -31.4832
   -31.4376 -31.4032 -31.3934 -31.3914 -31.3648 -31.3572 -31.3328 -31.3321
   -31.3142 -31.3131 -31.2954 -31.2916 -31.2816 -31.2769 -31.2615 -31.2498
   -31.2485 -31.2374 -31.2169 -31.2139 -31.2086 -31.2052 -31.1987 -31.1786
   -31.1757 -31.1710 -31.1601 -31.1403 -31.1192 -31.1175 -31.1059 -31.0972
   -31.0899 -31.0036 -30.5798 -30.4943 -30.4619 -30.3971 -30.3104 -30.1993
   -18.9143 -18.5438 -15.8124 -15.6825 -15.5067 -15.4004 -15.2785 -15.2197
   -15.1631 -15.0929 -15.0605 -15.0366 -15.0298 -14.9681 -14.9602 -14.9464
   -14.9158 -14.8791 -14.7379 -14.6664 -14.6533 -14.6058 -14.5898 -14.5796
   -14.5756 -14.5126 -14.4563 -14.4362 -14.3487 -14.3268 -13.9671 -13.6845
   -12.6677 -12.5562  -8.7719  -6.7047  -6.4007  -6.0946  -4.1304  -3.2296
    -3.1874  -3.0768  -3.0421  -2.8278  -2.7279  -2.6816  -2.6755  -2.6588
    -2.6473  -2.5932  -2.5875  -2.4937  -2.4390  -2.4234  -2.2471  -2.0961
    -2.0929  -2.0313  -1.8935  -1.8917  -1.8258  -1.7926  -1.7880  -1.7417
    -1.6991  -1.6842  -1.6745  -1.6531  -1.6359  -1.5994  -1.5421  -1.5145
    -1.5035  -1.4703  -1.4695  -1.3981  -1.3364  -1.2991  -1.2652  -1.1726
    -1.1240  -1.0363  -0.9277  -0.8564  -0.8426  -0.8183  -0.7986  -0.7738
    -0.7610  -0.7525  -0.6738  -0.6562  -0.6317  -0.5534  -0.5114  -0.5050
    -0.4549  -0.4449  -0.3807  -0.1622  -0.1320  -0.0903  -0.0885   0.0138
     0.0467   0.0997   0.1235   0.1980   0.2032   0.2763   0.3179   0.3372
     0.3615   0.4089   0.4229   0.4818   0.4999   0.5694   0.5953   0.6228
     0.6427   0.6587   0.7617   0.8004   0.8225   0.8942   0.9464   1.1120
     1.1217   1.3098   1.3528   1.4988   1.7713   1.8845   1.9796   2.1839
     2.3365   3.9232   3.9656   4.0515   4.1843   4.2315   4.2883   4.3254
     4.3525   4.3932   4.4162   4.4858

          k =-0.0760 0.0419 0.0000 ( 17914 PWs)   bands (ev):

   -55.1830 -55.1577 -55.1437 -55.1197 -55.0997 -55.0647 -55.0356 -55.0341
   -55.0021 -54.9773 -54.9733 -54.9699 -54.9493 -54.8748 -54.1666 -54.1426
   -31.6972 -31.5883 -31.5644 -31.5153 -31.4786 -31.4630 -31.4526 -31.4415
   -31.4328 -31.4236 -31.4110 -31.3881 -31.3731 -31.3573 -31.3564 -31.3253
   -31.3187 -31.3172 -31.3083 -31.2840 -31.2828 -31.2788 -31.2712 -31.2501
   -31.2380 -31.2341 -31.2267 -31.2223 -31.2211 -31.2196 -31.2120 -31.2108
   -31.1823 -31.1731 -31.1690 -31.1673 -31.1653 -31.1454 -31.1430 -31.1165
   -31.0969 -31.0435 -30.5259 -30.4896 -30.4665 -30.3846 -30.3233 -30.2565
   -18.9139 -18.5434 -15.6985 -15.6057 -15.4247 -15.3105 -15.2109 -15.1403
   -15.1119 -15.0880 -15.0329 -15.0032 -14.9779 -14.9739 -14.9244 -14.9202
   -14.8973 -14.8433 -14.7769 -14.7387 -14.7270 -14.6444 -14.6301 -14.6098
   -14.5801 -14.5597 -14.5429 -14.4795 -14.4368 -14.4337 -14.0916 -13.6836
   -12.6733 -12.5967  -8.7704  -6.7044  -6.4052  -6.0965  -4.1532  -3.2061
    -3.0651  -2.9764  -2.8911  -2.5895  -2.5600  -2.5188  -2.4618  -2.4444
    -2.4155  -2.3927  -2.3834  -2.3231  -2.2827  -2.2227  -2.2082  -2.1416
    -2.1309  -2.1159  -2.0657  -2.0062  -1.9779  -1.9112  -1.8978  -1.8644
    -1.8359  -1.7966  -1.7784  -1.7578  -1.7411  -1.7283  -1.6809  -1.6554
    -1.6234  -1.4206  -1.3993  -1.3455  -1.3178  -1.2778  -1.1807  -1.1687
    -1.1413  -0.9834  -0.9620  -0.8650  -0.8575  -0.8166  -0.7642  -0.7565
    -0.6915  -0.6784  -0.6122  -0.5837  -0.5672  -0.5386  -0.4972  -0.4533
    -0.4283  -0.4137  -0.3998  -0.3295  -0.3132  -0.2548  -0.2431  -0.1645
    -0.1341  -0.0329   0.0105   0.0379   0.0431   0.0862   0.1193   0.1420
     0.2701   0.3032   0.3448   0.4086   0.4822   0.5485   0.5741   0.6300
     0.6875   0.7633   0.8339   0.8782   0.9528   1.0365   1.0811   1.0908
     1.1896   1.2368   1.3071   1.3326   1.4702   2.0613   2.1187   2.2257
     2.3556   4.0798   4.1074   4.1245   4.1318   4.2182   4.2881   4.3090
     4.3362   4.4179   4.4304   4.5383

          k =-0.0760-0.0839 0.0000 ( 17948 PWs)   bands (ev):

   -55.1714 -55.1694 -55.1318 -55.1317 -55.0986 -55.0582 -55.0421 -55.0332
   -54.9930 -54.9865 -54.9710 -54.9615 -54.9612 -54.8758 -54.1547 -54.1546
   -31.5631 -31.5529 -31.5240 -31.4556 -31.4555 -31.4491 -31.4403 -31.4233
   -31.4232 -31.4020 -31.3913 -31.3885 -31.3761 -31.3501 -31.3260 -31.3205
   -31.3203 -31.3200 -31.3175 -31.3082 -31.3026 -31.2839 -31.2709 -31.2681
   -31.2542 -31.2512 -31.2512 -31.2505 -31.2406 -31.2363 -31.2264 -31.2248
   -31.2171 -31.2062 -31.2004 -31.1902 -31.1891 -31.1522 -31.1416 -31.1413
   -31.0975 -31.0899 -30.4780 -30.4779 -30.3933 -30.3931 -30.3540 -30.3539
   -18.9136 -18.5429 -15.5313 -15.4847 -15.3294 -15.1950 -15.1918 -15.1515
   -15.0959 -15.0244 -15.0033 -14.9602 -14.9494 -14.9308 -14.8940 -14.8867
   -14.8604 -14.7898 -14.7803 -14.7719 -14.7380 -14.6990 -14.6883 -14.6869
   -14.6701 -14.6402 -14.6370 -14.5396 -14.5374 -14.4452 -14.3072 -13.6829
   -12.6584 -12.6583  -8.7688  -6.7039  -6.4097  -6.0984  -4.1767  -3.2088
    -2.9310  -2.7488  -2.6435  -2.5414  -2.4144  -2.4088  -2.3234  -2.3149
    -2.2340  -2.1997  -2.1875  -2.1717  -2.0806  -2.0671  -2.0569  -2.0351
    -2.0186  -2.0007  -1.9689  -1.9628  -1.9391  -1.9125  -1.9021  -1.9004
    -1.8814  -1.8480  -1.8170  -1.7979  -1.7774  -1.7468  -1.7355  -1.6681
    -1.6277  -1.5398  -1.5048  -1.3900  -1.3881  -1.3666  -1.3109  -1.2910
    -1.2699  -1.2209  -1.2117  -1.1656  -1.0237  -0.9369  -0.9260  -0.8880
    -0.8389  -0.7902  -0.7433  -0.7279  -0.6618  -0.6409  -0.5482  -0.5325
    -0.4307  -0.3892  -0.3773  -0.3615  -0.2788  -0.2148  -0.1679  -0.1478
    -0.1433  -0.0926  -0.0786  -0.0652   0.0065   0.0538   0.0775   0.0920
     0.1336   0.3019   0.3622   0.3758   0.4951   0.5444   0.6484   0.7085
     0.7844   0.8042   0.8403   0.9308   0.9373   1.0139   1.1087   1.1226
     1.1589   1.2032   1.2521   1.2750   1.2799   2.2085   2.2099   2.2943
     2.2944   4.0514   4.1276   4.1856   4.2335   4.2419   4.3630   4.4248
     4.4674   4.4896   4.4918   4.5689

     the Fermi energy is     3.9656 ev

!    total energy              =   -2975.20596445 Ry
     estimated scf accuracy    <       0.00000004 Ry
     smearing contrib. (-TS)   =      -0.03732399 Ry
     internal energy E=F+TS    =   -2975.16864046 Ry

     The total energy is F=E-TS. E is the sum of the following terms:
     one-electron contribution =  -23538.17450135 Ry
     hartree contribution      =   11867.10732530 Ry
     xc contribution           =    -494.97214244 Ry
     ewald contribution        =    9190.86696907 Ry
     electric field correction =       0.00370895 Ry

     convergence has been achieved in  72 iterations

     Forces acting on atoms (cartesian axes, Ry/au):

     atom    1 type  1   force =     0.00006174   -0.00019809    0.09355382
     atom    2 type  1   force =    -0.00020642   -0.00021038   -0.17805685
     atom    3 type  2   force =     0.00010996   -0.00020578   -0.02064883
     atom    4 type  2   force =     0.00004910   -0.00198027    0.05807475
     atom    5 type  2   force =    -0.01001708   -0.00167081    0.00693223
     atom    6 type  2   force =     0.01216362   -0.00104006    0.00744631
     atom    7 type  1   force =     0.00022619    0.00249020   -0.01211169
     atom    8 type  1   force =    -0.00049572    0.00204100   -0.00194374
     atom    9 type  2   force =     0.00006806    0.00006295   -0.00004086
     atom   10 type  2   force =    -0.00044282   -0.00135238   -0.00317132
     atom   11 type  2   force =     0.00015956   -0.00008320   -0.00007033
     atom   12 type  2   force =    -0.00066942   -0.00012343    0.00009050
     atom   13 type  1   force =     0.00051304    0.00098502    0.00026022
     atom   14 type  1   force =    -0.00140223    0.00026812    0.00018016
     atom   15 type  2   force =    -0.00018677    0.00094586    0.00022209
     atom   16 type  2   force =    -0.00000941   -0.00043596    0.00013407
     atom   17 type  2   force =     0.00071087    0.00005000   -0.00024001
     atom   18 type  2   force =     0.00056313    0.00013122   -0.00041544
     atom   19 type  1   force =    -0.00122014    0.00090797    0.00052816
     atom   20 type  1   force =     0.00064081   -0.00009652   -0.00087307
     atom   21 type  2   force =     0.00001373   -0.00002179    0.10386623
     atom   22 type  2   force =     0.00007036    0.00087344   -0.00011299
     atom   23 type  2   force =    -0.07052136   -0.00011847   -0.02696081
     atom   24 type  2   force =     0.07045940    0.00031004   -0.02702290
     atom   25 type  1   force =     0.00001815   -0.00019056    0.09300913
     atom   26 type  1   force =    -0.00009737   -0.00048741   -0.17797227
     atom   27 type  2   force =     0.00017151   -0.00036574   -0.01953987
     atom   28 type  2   force =     0.00011021   -0.00160267    0.05715526
     atom   29 type  2   force =    -0.01007039   -0.00086152    0.00631033
     atom   30 type  2   force =     0.01213344   -0.00061742    0.00686890
     atom   31 type  1   force =     0.00031835    0.00503072   -0.01528411
     atom   32 type  1   force =    -0.00039072   -0.00269213   -0.00236255
     atom   33 type  2   force =    -0.00002975   -0.00025816   -0.00003935
     atom   34 type  2   force =     0.00046126    0.00031538   -0.00054600
     atom   35 type  2   force =    -0.00011685   -0.00036800   -0.00006816
     atom   36 type  2   force =    -0.00044681   -0.00036070    0.00024975
     atom   37 type  1   force =     0.00027111   -0.00103913    0.00053014
     atom   38 type  1   force =    -0.00122248    0.00025692    0.00129746
     atom   39 type  2   force =    -0.00012779   -0.00046960    0.00026724
     atom   40 type  2   force =     0.00003316   -0.00041671    0.00044620
     atom   41 type  2   force =    -0.00016339   -0.00003387    0.00009897
     atom   42 type  2   force =     0.00129213   -0.00025523    0.00004098
     atom   43 type  1   force =    -0.00125133   -0.00068375   -0.00006737
     atom   44 type  1   force =     0.00096643    0.00065033   -0.00002980
     atom   45 type  2   force =     0.00004125   -0.00002030    0.10380411
     atom   46 type  2   force =    -0.07055479   -0.00007681   -0.02696796
     atom   47 type  2   force =     0.07046249    0.00038964   -0.02699970
     atom   48 type  3   force =    -0.00054622    0.00020947    0.00205372
     atom   49 type  4   force =     0.00291357    0.00011134   -0.00113062
     atom   50 type  5   force =    -0.00254728    0.00045989   -0.00011586
     atom   51 type  5   force =    -0.00052640   -0.00029308   -0.00080508
     atom   52 type  3   force =    -0.00042028    0.00075598    0.00011666
     atom   53 type  5   force =     0.00020045    0.00049468   -0.00033062
     atom   54 type  5   force =    -0.00059682    0.00073958    0.00017392
     atom   55 type  2   force =    -0.00054881    0.00073515   -0.00009481
     atom   56 type  5   force =    -0.00038089   -0.00036566    0.00081182
     atom   57 type  5   force =     0.00000670   -0.00021933   -0.00050015

     Total force =     0.365760     Total SCF correction =     0.000439
  @ DRIVER MODE: Message from server: STATUS
  @ DRIVER MODE: Message from server: GETFORCE
  @ DRIVER MODE: Returning v,forces,stress,ensemble 

     Writing output data file ./calc.save/
  @ DRIVER MODE: Message from server: EXIT
  @ DRIVE MODE: Exiting  
 
     init_run     :     10.83s CPU     11.03s WALL (       1 calls)
     electrons    :   1227.45s CPU   1243.92s WALL (       1 calls)
     forces       :      2.36s CPU      2.48s WALL (       1 calls)

     Called by init_run:
     wfcinit      :      4.82s CPU      4.89s WALL (       1 calls)
     potinit      :      5.36s CPU      5.42s WALL (       1 calls)
     hinit0       :      0.30s CPU      0.30s WALL (       1 calls)

     Called by electrons:
     c_bands      :   1057.72s CPU   1064.86s WALL (      72 calls)
     sum_band     :    116.25s CPU    119.95s WALL (      72 calls)
     v_of_rho     :     40.24s CPU     42.22s WALL (      73 calls)
     newd         :     16.39s CPU     20.03s WALL (      73 calls)
     mix_rho      :      1.48s CPU      1.51s WALL (      72 calls)
     vdW_kernel   :      4.54s CPU      4.55s WALL (       1 calls)

     Called by c_bands:
     init_us_2    :      6.74s CPU      6.77s WALL (    1460 calls)
     cegterg      :   1038.20s CPU   1045.05s WALL (     743 calls)

     Called by *egterg:
     cdiaghg      :    191.58s CPU    192.38s WALL (    9013 calls)
     h_psi        :    533.32s CPU    538.06s WALL (    9026 calls)
     s_psi        :     74.00s CPU     74.24s WALL (    9026 calls)
     g_psi        :      1.93s CPU      1.95s WALL (    8273 calls)

     Called by h_psi:
     h_psi:calbec :     68.53s CPU     68.85s WALL (    9026 calls)
     vloc_psi     :    387.10s CPU    390.85s WALL (    9026 calls)
     add_vuspsi   :     74.26s CPU     74.71s WALL (    9026 calls)

     General routines
     calbec       :     88.99s CPU     89.40s WALL (    9786 calls)
     fft          :     20.19s CPU     20.34s WALL (    4599 calls)
     ffts         :      0.13s CPU      0.13s WALL (     145 calls)
     fftw         :    432.13s CPU    436.30s WALL ( 1030772 calls)
     interpolate  :      0.42s CPU      0.42s WALL (      73 calls)
     davcio       :      0.00s CPU      0.31s WALL (      10 calls)
 
     Parallel routines
 
     PWSCF        :  20m40.93s CPU  20m58.79s WALL

 
   This run was terminated on:  20:48:27  15Sep2021            

=------------------------------------------------------------------------------=
   JOB DONE.
=------------------------------------------------------------------------------=
