
     Program PWSCF v.6.7GPU starts on 15Sep2021 at 21: 6:11 

     This program is part of the open-source Quantum ESPRESSO suite
     for quantum simulation of materials; please cite
         "P. Giannozzi et al., J. Phys.:Condens. Matter 21 395502 (2009);
         "P. Giannozzi et al., J. Phys.:Condens. Matter 29 465901 (2017);
         "P. Giannozzi et al., J. Chem. Phys. 152 154105 (2020);
          URL http://www.quantum-espresso.org", 
     in publications or presentations arising from this work. More details at
     http://www.quantum-espresso.org/quote

     Parallel version (MPI), running on    10 processors

     MPI processes distributed on     1 nodes
     R & G space division:  proc/nbgrp/npool/nimage =      10
     Reading input from /storage/home/hcoda1/3/ntian30/research/carbon/CxH_vib/H2O_calc/ads_slab/CHN2HH2O_a/out_0018/pw.inp
Warning: card &CELL ignored
Warning: card   CELL_DYNAMICS='IPI', ignored
Warning: card / ignored

     Current dimensions of program PWSCF are:
     Max number of different atomic species (ntypx) = 10
     Max number of k-points (npk) =  40000
     Max angular momentum in pseudopotentials (lmaxx) =  3
     Presently no symmetry can be used with electric field

     Message from routine cell_base_init:
     DEPRECATED: use true lattice parameter, not A to a.u. conversion factor

     **************************************************************************
     Initializing libbeef V0.1.2 with the BEEF-vdW functional.
     Citation: Wellendorff et al., PRB 85, 235149 (2012).
     **************************************************************************


     IMPORTANT: XC functional enforced from input :
     Exchange-correlation= BEEF-VDW
                           (   1   4  43  14   2   0   0)
     Any further DFT definition will be discarded
     Please, verify this is what you really want


     Subspace diagonalization in iterative solution of the eigenvalue problem:
     one sub-group per band group will be used
     scalapack distributed-memory algorithm (size of sub-group:  3*  3 procs)

  @ DRIVER MODE: Connecting to 
 qe_1139763_2852626.sched-torque.pace.gatech.eduul17idi3_scratch
  using UNIX socket
  @ DRIVER MODE: Message from server: STATUS
  @ DRIVER MODE: Message from server: INIT
  @ DRIVER MODE: Receiving replica           0          -1
  @ DRIVER MODE: Receiving encoded integer          25
  @ DRIVER MODE:  SCF:  T  FORCE:  T  STRESS:  F  VC:  F  ENSEMBLE:  F
  @ DRIVER MODE:  SCF:  T  FORCE:  T  STRESS:  F  VC:  F  ENSEMBLE:  F
 
     Parallelization info
     --------------------
     sticks:   dense  smooth     PW     G-vecs:    dense   smooth      PW
     Min         327     131     37                56683    14340    2191
     Max         328     133     38                56694    14346    2206
     Sum        3275    1317    379               566857   143421   21985
 
     Using Slab Decomposition
 


     bravais-lattice index     =            0
     lattice parameter (alat)  =       1.8897  a.u.
     unit-cell volume          =    6658.9804 (a.u.)^3
     number of atoms/cell      =           55
     number of atomic types    =            5
     number of electrons       =       402.00
     number of Kohn-Sham states=          211
     kinetic-energy cutoff     =      29.3995  Ry
     charge density cutoff     =     293.9946  Ry
     scf convergence threshold =      7.3E-08
     mixing beta               =       0.0500
     number of iterations used =            8  plain     mixing
     Exchange-correlation= BEEF-VDW
                           (   1   4  43  14   2   0   0)

     celldm(1)=   1.889726  celldm(2)=   0.000000  celldm(3)=   0.000000
     celldm(4)=   0.000000  celldm(5)=   0.000000  celldm(6)=   0.000000

     crystal axes: (cart. coord. in units of alat)
               a(1) = (   6.579727   0.000000   0.000000 )  
               a(2) = (  -0.000775   5.961596   0.000000 )  
               a(3) = (   0.000000   0.000000  25.155947 )  

     reciprocal axes: (cart. coord. in units 2 pi/alat)
               b(1) = (  0.151982  0.000020  0.000000 )  
               b(2) = (  0.000000  0.167740  0.000000 )  
               b(3) = (  0.000000  0.000000  0.039752 )  


     PseudoPot. # 1 for Ti read from file:
     /storage/coda1/p-amedford6/0/shared/rich_project_chbe-medford/medford-share/data/pseudos_module/espresso/nninc/pbe/van/Ti.UPF
     MD5 check sum: 8e4df49b7f0d34bbd5052bf3f5ea0213
     Pseudo is Ultrasoft, Zval = 12.0
     Generated by new atomic code, or converted to UPF format
     Using radial grid of  851 points,  6 beta functions with: 
                l(1) =   0
                l(2) =   0
                l(3) =   1
                l(4) =   1
                l(5) =   2
                l(6) =   2
     Q(r) pseudized with  8 coefficients,  rinner =    1.000   1.000   1.000
                                                       1.000   1.000

     PseudoPot. # 2 for O  read from file:
     /storage/coda1/p-amedford6/0/shared/rich_project_chbe-medford/medford-share/data/pseudos_module/espresso/nninc/pbe/van/O.UPF
     MD5 check sum: 78c19812648e8988a0fe644b0f25305e
     Pseudo is Ultrasoft, Zval =  6.0
     Generated by new atomic code, or converted to UPF format
     Using radial grid of  737 points,  4 beta functions with: 
                l(1) =   0
                l(2) =   0
                l(3) =   1
                l(4) =   1
     Q(r) pseudized with  8 coefficients,  rinner =    0.800   0.800   0.800


     PseudoPot. # 3 for N  read from file:
     /storage/coda1/p-amedford6/0/shared/rich_project_chbe-medford/medford-share/data/pseudos_module/espresso/nninc/pbe/van/N.UPF
     MD5 check sum: 90d10febe142ad51ac9d5be1deb811c4
     Pseudo is Ultrasoft, Zval =  5.0
     Generated by new atomic code, or converted to UPF format
     Using radial grid of  729 points,  4 beta functions with: 
                l(1) =   0
                l(2) =   0
                l(3) =   1
                l(4) =   1
     Q(r) pseudized with  8 coefficients,  rinner =    0.800   0.800   0.800


     PseudoPot. # 4 for C  read from file:
     /storage/coda1/p-amedford6/0/shared/rich_project_chbe-medford/medford-share/data/pseudos_module/espresso/nninc/pbe/van/C.UPF
     MD5 check sum: 1a69bf6b8db32088f5b2163dbdb77a27
     Pseudo is Ultrasoft, Zval =  4.0
     Generated by new atomic code, or converted to UPF format
     Using radial grid of  721 points,  4 beta functions with: 
                l(1) =   0
                l(2) =   0
                l(3) =   1
                l(4) =   1
     Q(r) pseudized with  8 coefficients,  rinner =    0.800   0.800   0.800


     PseudoPot. # 5 for H  read from file:
     /storage/coda1/p-amedford6/0/shared/rich_project_chbe-medford/medford-share/data/pseudos_module/espresso/nninc/pbe/van/H.UPF
     MD5 check sum: b5ee9d7bfd3a09ee7748110bda690ff7
     Pseudo is Ultrasoft, Zval =  1.0
     Generated by new atomic code, or converted to UPF format
     Using radial grid of  615 points,  1 beta functions with: 
                l(1) =   0
     Q(r) pseudized with  8 coefficients,  rinner =    0.800

     atomic species   valence    mass     pseudopotential
        Ti1           12.00    47.86700     Ti( 1.00)
        O1             6.00    15.99900     O ( 1.00)
        N1             5.00    14.00700     N ( 1.00)
        C1             4.00    12.01100     C ( 1.00)
        H1             1.00     1.00800     H ( 1.00)

     No symmetry found



   Cartesian axes

     site n.     atom                  positions (alat units)
         1           Ti1 tau(   1) = (   0.0004258   2.9801865   6.0000000  )
         2           Ti1 tau(   2) = (   3.2906075   1.4906267   6.0002472  )
         3           O1  tau(   3) = (   0.0006271   0.0005054   7.9858123  )
         4           O1  tau(   4) = (   3.2906025   0.0005020   7.3038282  )
         5           O1  tau(   5) = (   4.5942328   1.4918067   9.2879030  )
         6           O1  tau(   6) = (   1.9868534   1.4903216   9.2879459  )
         7           Ti1 tau(   7) = (   3.2907910   2.8959150   9.1758416  )
         8           Ti1 tau(   8) = (   0.0015273   1.4827037   9.2680791  )
         9           O1  tau(   9) = (   3.2768631   0.0039008  11.3091060  )
        10           O1  tau(  10) = (   0.0116148   5.9584955  10.6183126  )
        11           O1  tau(  11) = (   1.2710838   1.4709840  12.6395574  )
        12           O1  tau(  12) = (   5.2772223   1.5075092  12.6020671  )
        13           Ti1 tau(  13) = (   0.0276258   2.9086511  12.7028215  )
        14           Ti1 tau(  14) = (   3.3492493   1.4375301  12.4845766  )
        15           O1  tau(  15) = (   6.5006329   5.9509897  14.6081112  )
        16           O1  tau(  16) = (   3.3450391   0.0041935  13.9069437  )
        17           O1  tau(  17) = (   4.5555219   1.5659029  16.0522165  )
        18           O1  tau(  18) = (   1.9836904   1.4119734  15.8927236  )
        19           Ti1 tau(  19) = (   3.2827818   2.9316656  15.8555152  )
        20           Ti1 tau(  20) = (   6.5629331   1.3437128  15.9803530  )
        21           O1  tau(  21) = (   3.2904802   0.0005063   4.7018136  )
        22           O1  tau(  22) = (   6.5074089   5.9525318  17.1494500  )
        23           O1  tau(  23) = (   1.3043587   1.4918075   6.0039043  )
        24           O1  tau(  24) = (   5.2767064   1.4903225   6.0039473  )
        25           Ti1 tau(  25) = (   0.0000382   5.9609847   6.0000000  )
        26           Ti1 tau(  26) = (   3.2902200   4.4714249   6.0002472  )
        27           O1  tau(  27) = (   0.0002396   2.9813036   7.9858123  )
        28           O1  tau(  28) = (   3.2902150   2.9813002   7.3038282  )
        29           O1  tau(  29) = (   4.5938453   4.4726049   9.2879030  )
        30           O1  tau(  30) = (   1.9864658   4.4711199   9.2879459  )
        31           Ti1 tau(  31) = (   3.2891106   5.8743827   9.1763621  )
        32           Ti1 tau(  32) = (   0.0006254   4.4649316   9.2693709  )
        33           O1  tau(  33) = (   3.2854303   2.9668816  11.2996989  )
        34           O1  tau(  34) = (   0.0092240   2.9805883  10.6323155  )
        35           O1  tau(  35) = (   1.2743094   4.4851408  12.6236879  )
        36           O1  tau(  36) = (   5.2782958   4.4707264  12.5946799  )
        37           Ti1 tau(  37) = (   0.0481499   5.8920156  12.5607908  )
        38           Ti1 tau(  38) = (   3.3544845   4.3749597  12.5572158  )
        39           O1  tau(  39) = (   6.5410016   3.0017514  14.6365314  )
        40           O1  tau(  40) = (   3.2441134   3.0029108  13.8718978  )
        41           O1  tau(  41) = (   4.5385932   4.4028810  16.0550583  )
        42           O1  tau(  42) = (   1.9619458   4.5383001  15.8611175  )
        43           Ti1 tau(  43) = (   3.2178196   5.9097812  15.7399460  )
        44           Ti1 tau(  44) = (   6.5330930   4.4908980  15.8705378  )
        45           O1  tau(  45) = (   3.2900926   2.9813045   4.7018136  )
        46           O1  tau(  46) = (   1.3039711   4.4726057   6.0039043  )
        47           O1  tau(  47) = (   5.2763189   4.4711207   6.0039473  )
        48           N1  tau(  48) = (   1.2867840   3.0293760  18.3347772  )
        49           C1  tau(  49) = (   2.5003166   3.0326976  17.9707196  )
        50           H1  tau(  50) = (   3.2053588   3.1791635  18.8100936  )
        51           N1  tau(  51) = (   0.2138509   2.9871109  17.4421441  )
        52           H1  tau(  52) = (   5.9621615   2.9869774  18.0311354  )
        53           O1  tau(  53) = (   3.4290693   5.9360351  18.0748810  )
        54           H1  tau(  54) = (   4.3780305   0.1327944  18.2306609  )
        55           H1  tau(  55) = (   2.9458904   0.7245148  18.4607207  )

     number of k points=    10  Fermi-Dirac smearing, width (Ry)=  0.0073
                       cart. coord. in units 2pi/alat
        k(    1) = (   0.0000000   0.0000000   0.0000000), wk =   0.1250000
        k(    2) = (   0.0000000   0.0419351   0.0000000), wk =   0.2500000
        k(    3) = (   0.0000000  -0.0838702   0.0000000), wk =   0.1250000
        k(    4) = (   0.0379955   0.0000049   0.0000000), wk =   0.2500000
        k(    5) = (   0.0379955   0.0419400   0.0000000), wk =   0.2500000
        k(    6) = (   0.0379955  -0.0838652   0.0000000), wk =   0.2500000
        k(    7) = (   0.0379955  -0.0419301   0.0000000), wk =   0.2500000
        k(    8) = (  -0.0759910  -0.0000099   0.0000000), wk =   0.1250000
        k(    9) = (  -0.0759910   0.0419252   0.0000000), wk =   0.2500000
        k(   10) = (  -0.0759910  -0.0838800   0.0000000), wk =   0.1250000

     Dense  grid:   566857 G-vectors     FFT dimensions: (  72,  64, 270)

     Smooth grid:   143421 G-vectors     FFT dimensions: (  45,  40, 180)

     Estimated max dynamical RAM per process >     367.45 MB

     Estimated total dynamical RAM >       3.59 GB
     Cannot read rho : file not found

     Initial potential from superposition of free atoms

     starting charge  385.99915, renormalised to  402.00000

     negative rho (up, down):  1.830E-02 0.000E+00


     %%%%%%%%%%%%%%%%%%%%%%%%%%%%%%%%%%%%%%%%%%%%%%%%%%%%%%%%%%%%%%%%%%%%%%%%
     %                                                                      %
     % You are using vdW-DF, which was implemented by the Thonhauser group. %
     % Please cite the following two papers that made this development      %
     % possible and the two reviews that describe the various versions:     %
     %                                                                      %
     %   T. Thonhauser et al., PRL 115, 136402 (2015).                      %
     %   T. Thonhauser et al., PRB 76, 125112 (2007).                       %
     %   K. Berland et al., Rep. Prog. Phys. 78, 066501 (2015).             %
     %   D.C. Langreth et al., J. Phys.: Condens. Matter 21, 084203 (2009). %
     %                                                                      %
     %                                                                      %
     % If you are calculating the stress with vdW-DF, please also cite:     %
     %                                                                      %
     %   R. Sabatini et al., J. Phys.: Condens. Matter 24, 424209 (2012).   %
     %                                                                      %
     %%%%%%%%%%%%%%%%%%%%%%%%%%%%%%%%%%%%%%%%%%%%%%%%%%%%%%%%%%%%%%%%%%%%%%%%


 
     Adding external electric field

     Computed dipole along edir(3) : 
        Dipole              -11.0907 Ry au,        -28.1897 Debye
        Dipole field         -0.0209 Ry au, 
 
        Potential amp.        1.9401 Ry
        Total length         46.3494 bohr
 
     Starting wfcs are  304 atomic wfcs
  @ DRIVER MODE: Message from server: STATUS
  @ DRIVER MODE: Message from server: POSDATA
  @ DRIVER MODE: Reading and sharing cell 
  @ DRIVER MODE: Reading and sharing positions 
  @ DRIVER MODE: Received positions 

     total cpu time spent up to now is       11.2 secs

     Self-consistent Calculation

     iteration #  1     ecut=    29.40 Ry     beta= 0.05
     Davidson diagonalization with overlap
     c_bands:  5 eigenvalues not converged
     c_bands:  1 eigenvalues not converged
     c_bands:  3 eigenvalues not converged
     c_bands:  4 eigenvalues not converged
     c_bands:  1 eigenvalues not converged
     c_bands:  1 eigenvalues not converged
     c_bands:  1 eigenvalues not converged
     c_bands:  1 eigenvalues not converged
     c_bands:  2 eigenvalues not converged
     ethr =  1.00E-05,  avg # of iterations = 29.7

     negative rho (up, down):  1.067E-02 0.000E+00
 
     Adding external electric field

     Computed dipole along edir(3) : 
        Dipole               51.3627 Ry au,        130.5509 Debye
        Dipole field          0.0969 Ry au, 
 
        Potential amp.       -8.9851 Ry
        Total length         46.3494 bohr
 

     total cpu time spent up to now is       60.1 secs

     total energy              =   -2403.86405161 Ry
     estimated scf accuracy    <    6373.99304595 Ry

     iteration #  2     ecut=    29.40 Ry     beta= 0.05
     Davidson diagonalization with overlap
     ethr =  1.00E-02,  avg # of iterations = 25.2

     negative rho (up, down):  9.047E-04 0.000E+00
 
     Adding external electric field

     Computed dipole along edir(3) : 
        Dipole                0.0818 Ry au,          0.2079 Debye
        Dipole field          0.0002 Ry au, 
 
        Potential amp.       -0.0143 Ry
        Total length         46.3494 bohr
 

     total cpu time spent up to now is      136.7 secs

     total energy              =   -2484.19486659 Ry
     estimated scf accuracy    <   69599.49673348 Ry

     iteration #  3     ecut=    29.40 Ry     beta= 0.05
     Davidson diagonalization with overlap
     ethr =  1.00E-02,  avg # of iterations = 15.4

     negative rho (up, down):  9.770E-04 0.000E+00
 
     Adding external electric field

     Computed dipole along edir(3) : 
        Dipole               -3.1534 Ry au,         -8.0152 Debye
        Dipole field         -0.0060 Ry au, 
 
        Potential amp.        0.5516 Ry
        Total length         46.3494 bohr
 

     total cpu time spent up to now is      185.1 secs

     total energy              =   -2958.90774518 Ry
     estimated scf accuracy    <    5649.89763998 Ry

     iteration #  4     ecut=    29.40 Ry     beta= 0.05
     Davidson diagonalization with overlap
     ethr =  1.00E-02,  avg # of iterations = 11.0

     negative rho (up, down):  1.017E-03 0.000E+00
 
     Adding external electric field

     Computed dipole along edir(3) : 
        Dipole               -5.0579 Ry au,        -12.8559 Debye
        Dipole field         -0.0095 Ry au, 
 
        Potential amp.        0.8848 Ry
        Total length         46.3494 bohr
 

     total cpu time spent up to now is      204.6 secs

     total energy              =   -2957.22512480 Ry
     estimated scf accuracy    <    2155.11135308 Ry

     iteration #  5     ecut=    29.40 Ry     beta= 0.05
     Davidson diagonalization with overlap
     ethr =  1.00E-02,  avg # of iterations =  8.2

     negative rho (up, down):  1.090E-03 0.000E+00
 
     Adding external electric field

     Computed dipole along edir(3) : 
        Dipole               -6.8161 Ry au,        -17.3248 Debye
        Dipole field         -0.0129 Ry au, 
 
        Potential amp.        1.1924 Ry
        Total length         46.3494 bohr
 

     total cpu time spent up to now is      217.8 secs

     total energy              =   -2946.72774749 Ry
     estimated scf accuracy    <    1515.12172814 Ry

     iteration #  6     ecut=    29.40 Ry     beta= 0.05
     Davidson diagonalization with overlap
     ethr =  1.00E-02,  avg # of iterations = 11.2

     negative rho (up, down):  1.070E-03 0.000E+00
 
     Adding external electric field

     Computed dipole along edir(3) : 
        Dipole               -5.7866 Ry au,        -14.7081 Debye
        Dipole field         -0.0109 Ry au, 
 
        Potential amp.        1.0123 Ry
        Total length         46.3494 bohr
 

     total cpu time spent up to now is      240.7 secs

     total energy              =   -2976.79788156 Ry
     estimated scf accuracy    <      33.04792297 Ry

     iteration #  7     ecut=    29.40 Ry     beta= 0.05
     Davidson diagonalization with overlap
     ethr =  8.22E-03,  avg # of iterations =  1.4

     negative rho (up, down):  1.104E-03 0.000E+00
 
     Adding external electric field

     Computed dipole along edir(3) : 
        Dipole               -4.8814 Ry au,        -12.4074 Debye
        Dipole field         -0.0092 Ry au, 
 
        Potential amp.        0.8539 Ry
        Total length         46.3494 bohr
 

     total cpu time spent up to now is      250.9 secs

     total energy              =   -2975.63847108 Ry
     estimated scf accuracy    <      20.48596444 Ry

     iteration #  8     ecut=    29.40 Ry     beta= 0.05
     Davidson diagonalization with overlap
     ethr =  5.10E-03,  avg # of iterations =  1.0

     negative rho (up, down):  1.214E-03 0.000E+00
 
     Adding external electric field

     Computed dipole along edir(3) : 
        Dipole               -2.9496 Ry au,         -7.4971 Debye
        Dipole field         -0.0056 Ry au, 
 
        Potential amp.        0.5160 Ry
        Total length         46.3494 bohr
 

     total cpu time spent up to now is      260.8 secs

     total energy              =   -2973.58387161 Ry
     estimated scf accuracy    <      16.04133071 Ry

     iteration #  9     ecut=    29.40 Ry     beta= 0.05
     Davidson diagonalization with overlap
     ethr =  3.99E-03,  avg # of iterations =  6.8

     negative rho (up, down):  1.211E-03 0.000E+00
 
     Adding external electric field

     Computed dipole along edir(3) : 
        Dipole               -2.9440 Ry au,         -7.4830 Debye
        Dipole field         -0.0056 Ry au, 
 
        Potential amp.        0.5150 Ry
        Total length         46.3494 bohr
 

     total cpu time spent up to now is      272.8 secs

     total energy              =   -2974.21005860 Ry
     estimated scf accuracy    <      61.94850521 Ry

     iteration # 10     ecut=    29.40 Ry     beta= 0.05
     Davidson diagonalization with overlap
     ethr =  3.99E-03,  avg # of iterations =  1.5

     negative rho (up, down):  1.630E-03 0.000E+00
 
     Adding external electric field

     Computed dipole along edir(3) : 
        Dipole               -0.3972 Ry au,         -1.0095 Debye
        Dipole field         -0.0007 Ry au, 
 
        Potential amp.        0.0695 Ry
        Total length         46.3494 bohr
 

     total cpu time spent up to now is      282.9 secs

     total energy              =   -2975.11237258 Ry
     estimated scf accuracy    <      60.31593721 Ry

     iteration # 11     ecut=    29.40 Ry     beta= 0.05
     Davidson diagonalization with overlap
     c_bands:  1 eigenvalues not converged
     ethr =  3.99E-03,  avg # of iterations = 16.9

     negative rho (up, down):  2.018E-03 0.000E+00
 
     Adding external electric field

     Computed dipole along edir(3) : 
        Dipole               -0.2390 Ry au,         -0.6075 Debye
        Dipole field         -0.0005 Ry au, 
 
        Potential amp.        0.0418 Ry
        Total length         46.3494 bohr
 

     total cpu time spent up to now is      305.4 secs

     total energy              =   -2982.07868100 Ry
     estimated scf accuracy    <    2201.80447276 Ry

     iteration # 12     ecut=    29.40 Ry     beta= 0.05
     Davidson diagonalization with overlap
     ethr =  3.99E-03,  avg # of iterations =  1.2

     negative rho (up, down):  1.940E-03 0.000E+00
 
     Adding external electric field

     Computed dipole along edir(3) : 
        Dipole               -1.3273 Ry au,         -3.3737 Debye
        Dipole field         -0.0025 Ry au, 
 
        Potential amp.        0.2322 Ry
        Total length         46.3494 bohr
 

     total cpu time spent up to now is      315.4 secs

     total energy              =   -2970.25599514 Ry
     estimated scf accuracy    <    1768.75826391 Ry

     iteration # 13     ecut=    29.40 Ry     beta= 0.05
     Davidson diagonalization with overlap
     c_bands:  5 eigenvalues not converged
     ethr =  3.99E-03,  avg # of iterations = 14.2

     negative rho (up, down):  1.900E-03 0.000E+00
 
     Adding external electric field

     Computed dipole along edir(3) : 
        Dipole               -1.3946 Ry au,         -3.5448 Debye
        Dipole field         -0.0026 Ry au, 
 
        Potential amp.        0.2440 Ry
        Total length         46.3494 bohr
 

     total cpu time spent up to now is      332.2 secs

     total energy              =   -2972.54898366 Ry
     estimated scf accuracy    <     533.29290266 Ry

     iteration # 14     ecut=    29.40 Ry     beta= 0.05
     Davidson diagonalization with overlap
     ethr =  3.99E-03,  avg # of iterations =  1.7

     negative rho (up, down):  1.659E-03 0.000E+00
 
     Adding external electric field

     Computed dipole along edir(3) : 
        Dipole               -2.9936 Ry au,         -7.6090 Debye
        Dipole field         -0.0056 Ry au, 
 
        Potential amp.        0.5237 Ry
        Total length         46.3494 bohr
 

     total cpu time spent up to now is      342.5 secs

     total energy              =   -2964.69218740 Ry
     estimated scf accuracy    <     497.39313841 Ry

     iteration # 15     ecut=    29.40 Ry     beta= 0.05
     Davidson diagonalization with overlap
     ethr =  3.99E-03,  avg # of iterations = 12.5

     negative rho (up, down):  1.833E-03 0.000E+00
 
     Adding external electric field

     Computed dipole along edir(3) : 
        Dipole               -2.3994 Ry au,         -6.0986 Debye
        Dipole field         -0.0045 Ry au, 
 
        Potential amp.        0.4197 Ry
        Total length         46.3494 bohr
 

     total cpu time spent up to now is      362.1 secs

     total energy              =   -2972.80214034 Ry
     estimated scf accuracy    <       2.06907645 Ry

     iteration # 16     ecut=    29.40 Ry     beta= 0.05
     Davidson diagonalization with overlap
     ethr =  5.15E-04,  avg # of iterations =  3.2

     negative rho (up, down):  3.850E-03 0.000E+00
 
     Adding external electric field

     Computed dipole along edir(3) : 
        Dipole                0.1113 Ry au,          0.2829 Debye
        Dipole field          0.0002 Ry au, 
 
        Potential amp.       -0.0195 Ry
        Total length         46.3494 bohr
 

     total cpu time spent up to now is      373.3 secs

     total energy              =   -2972.63989881 Ry
     estimated scf accuracy    <       1.67099701 Ry

     iteration # 17     ecut=    29.40 Ry     beta= 0.05
     Davidson diagonalization with overlap
     ethr =  4.16E-04,  avg # of iterations = 12.2

     negative rho (up, down):  3.237E-03 0.000E+00
 
     Adding external electric field

     Computed dipole along edir(3) : 
        Dipole               -0.2965 Ry au,         -0.7537 Debye
        Dipole field         -0.0006 Ry au, 
 
        Potential amp.        0.0519 Ry
        Total length         46.3494 bohr
 

     total cpu time spent up to now is      398.1 secs

     total energy              =   -2974.77749517 Ry
     estimated scf accuracy    <     535.84593444 Ry

     iteration # 18     ecut=    29.40 Ry     beta= 0.05
     Davidson diagonalization with overlap
     ethr =  4.16E-04,  avg # of iterations =  4.9

     negative rho (up, down):  3.273E-03 0.000E+00
 
     Adding external electric field

     Computed dipole along edir(3) : 
        Dipole               -0.2774 Ry au,         -0.7051 Debye
        Dipole field         -0.0005 Ry au, 
 
        Potential amp.        0.0485 Ry
        Total length         46.3494 bohr
 

     total cpu time spent up to now is      409.3 secs

     total energy              =   -2974.81280508 Ry
     estimated scf accuracy    <     306.28500853 Ry

     iteration # 19     ecut=    29.40 Ry     beta= 0.05
     Davidson diagonalization with overlap
     ethr =  4.16E-04,  avg # of iterations =  1.1

     negative rho (up, down):  2.082E-03 0.000E+00
 
     Adding external electric field

     Computed dipole along edir(3) : 
        Dipole               -2.1241 Ry au,         -5.3990 Debye
        Dipole field         -0.0040 Ry au, 
 
        Potential amp.        0.3716 Ry
        Total length         46.3494 bohr
 

     total cpu time spent up to now is      419.2 secs

     total energy              =   -2968.24015283 Ry
     estimated scf accuracy    <     266.08582126 Ry

     iteration # 20     ecut=    29.40 Ry     beta= 0.05
     Davidson diagonalization with overlap
     c_bands:  2 eigenvalues not converged
     c_bands:  1 eigenvalues not converged
     c_bands:  2 eigenvalues not converged
     c_bands:  1 eigenvalues not converged
     ethr =  4.16E-04,  avg # of iterations = 18.8

     negative rho (up, down):  2.052E-03 0.000E+00
 
     Adding external electric field

     Computed dipole along edir(3) : 
        Dipole               -2.4101 Ry au,         -6.1259 Debye
        Dipole field         -0.0045 Ry au, 
 
        Potential amp.        0.4216 Ry
        Total length         46.3494 bohr
 

     total cpu time spent up to now is      448.3 secs

     total energy              =   -2972.77440290 Ry
     estimated scf accuracy    <       1.14901988 Ry

     iteration # 21     ecut=    29.40 Ry     beta= 0.05
     Davidson diagonalization with overlap
     c_bands:  1 eigenvalues not converged
     c_bands:  2 eigenvalues not converged
     c_bands:  2 eigenvalues not converged
     c_bands:  1 eigenvalues not converged
     ethr =  2.86E-04,  avg # of iterations = 13.0

     negative rho (up, down):  2.229E-03 0.000E+00
 
     Adding external electric field

     Computed dipole along edir(3) : 
        Dipole               -1.7506 Ry au,         -4.4495 Debye
        Dipole field         -0.0033 Ry au, 
 
        Potential amp.        0.3062 Ry
        Total length         46.3494 bohr
 

     total cpu time spent up to now is      463.3 secs

     total energy              =   -2972.68991234 Ry
     estimated scf accuracy    <       8.93758270 Ry

     iteration # 22     ecut=    29.40 Ry     beta= 0.05
     Davidson diagonalization with overlap
     ethr =  2.86E-04,  avg # of iterations =  3.4

     negative rho (up, down):  3.511E-03 0.000E+00
 
     Adding external electric field

     Computed dipole along edir(3) : 
        Dipole               -0.0633 Ry au,         -0.1610 Debye
        Dipole field         -0.0001 Ry au, 
 
        Potential amp.        0.0111 Ry
        Total length         46.3494 bohr
 

     total cpu time spent up to now is      474.4 secs

     total energy              =   -2972.63569754 Ry
     estimated scf accuracy    <       1.38560238 Ry

     iteration # 23     ecut=    29.40 Ry     beta= 0.05
     Davidson diagonalization with overlap
     c_bands:  1 eigenvalues not converged
     ethr =  2.86E-04,  avg # of iterations = 15.7

     negative rho (up, down):  3.465E-03 0.000E+00
 
     Adding external electric field

     Computed dipole along edir(3) : 
        Dipole               -0.0722 Ry au,         -0.1834 Debye
        Dipole field         -0.0001 Ry au, 
 
        Potential amp.        0.0126 Ry
        Total length         46.3494 bohr
 

     total cpu time spent up to now is      494.6 secs

     total energy              =   -2973.40753909 Ry
     estimated scf accuracy    <      19.51719994 Ry

     iteration # 24     ecut=    29.40 Ry     beta= 0.05
     Davidson diagonalization with overlap
     ethr =  2.86E-04,  avg # of iterations =  2.0

     negative rho (up, down):  2.809E-03 0.000E+00
 
     Adding external electric field

     Computed dipole along edir(3) : 
        Dipole               -0.9039 Ry au,         -2.2976 Debye
        Dipole field         -0.0017 Ry au, 
 
        Potential amp.        0.1581 Ry
        Total length         46.3494 bohr
 

     total cpu time spent up to now is      505.1 secs

     total energy              =   -2972.38465186 Ry
     estimated scf accuracy    <      19.55169378 Ry

     iteration # 25     ecut=    29.40 Ry     beta= 0.05
     Davidson diagonalization with overlap
     ethr =  2.86E-04,  avg # of iterations = 10.7

     negative rho (up, down):  2.645E-03 0.000E+00
 
     Adding external electric field

     Computed dipole along edir(3) : 
        Dipole               -1.0442 Ry au,         -2.6541 Debye
        Dipole field         -0.0020 Ry au, 
 
        Potential amp.        0.1827 Ry
        Total length         46.3494 bohr
 

     total cpu time spent up to now is      519.8 secs

     total energy              =   -2972.77948050 Ry
     estimated scf accuracy    <       6.07419370 Ry

     iteration # 26     ecut=    29.40 Ry     beta= 0.05
     Davidson diagonalization with overlap
     ethr =  2.86E-04,  avg # of iterations =  1.3

     negative rho (up, down):  3.052E-03 0.000E+00
 
     Adding external electric field

     Computed dipole along edir(3) : 
        Dipole               -0.3601 Ry au,         -0.9153 Debye
        Dipole field         -0.0007 Ry au, 
 
        Potential amp.        0.0630 Ry
        Total length         46.3494 bohr
 

     total cpu time spent up to now is      529.9 secs

     total energy              =   -2972.97001643 Ry
     estimated scf accuracy    <       3.24511881 Ry

     iteration # 27     ecut=    29.40 Ry     beta= 0.05
     Davidson diagonalization with overlap
     ethr =  2.86E-04,  avg # of iterations =  5.4

     negative rho (up, down):  3.183E-03 0.000E+00
 
     Adding external electric field

     Computed dipole along edir(3) : 
        Dipole               -0.2109 Ry au,         -0.5360 Debye
        Dipole field         -0.0004 Ry au, 
 
        Potential amp.        0.0369 Ry
        Total length         46.3494 bohr
 

     total cpu time spent up to now is      541.7 secs

     total energy              =   -2973.18858822 Ry
     estimated scf accuracy    <       5.33499001 Ry

     iteration # 28     ecut=    29.40 Ry     beta= 0.05
     Davidson diagonalization with overlap
     ethr =  2.86E-04,  avg # of iterations =  4.9

     negative rho (up, down):  2.948E-03 0.000E+00
 
     Adding external electric field

     Computed dipole along edir(3) : 
        Dipole               -0.3747 Ry au,         -0.9524 Debye
        Dipole field         -0.0007 Ry au, 
 
        Potential amp.        0.0655 Ry
        Total length         46.3494 bohr
 

     total cpu time spent up to now is      553.2 secs

     total energy              =   -2972.94636227 Ry
     estimated scf accuracy    <       9.77767925 Ry

     iteration # 29     ecut=    29.40 Ry     beta= 0.05
     Davidson diagonalization with overlap
     ethr =  2.86E-04,  avg # of iterations =  2.8

     negative rho (up, down):  2.272E-03 0.000E+00
 
     Adding external electric field

     Computed dipole along edir(3) : 
        Dipole               -1.6795 Ry au,         -4.2690 Debye
        Dipole field         -0.0032 Ry au, 
 
        Potential amp.        0.2938 Ry
        Total length         46.3494 bohr
 

     total cpu time spent up to now is      564.1 secs

     total energy              =   -2972.32674281 Ry
     estimated scf accuracy    <       5.13937416 Ry

     iteration # 30     ecut=    29.40 Ry     beta= 0.05
     Davidson diagonalization with overlap
     ethr =  2.86E-04,  avg # of iterations = 10.1

     negative rho (up, down):  2.323E-03 0.000E+00
 
     Adding external electric field

     Computed dipole along edir(3) : 
        Dipole               -1.6497 Ry au,         -4.1932 Debye
        Dipole field         -0.0031 Ry au, 
 
        Potential amp.        0.2886 Ry
        Total length         46.3494 bohr
 

     total cpu time spent up to now is      580.5 secs

     total energy              =   -2972.72128994 Ry
     estimated scf accuracy    <       0.65458294 Ry

     iteration # 31     ecut=    29.40 Ry     beta= 0.05
     Davidson diagonalization with overlap
     ethr =  1.63E-04,  avg # of iterations =  2.0

     negative rho (up, down):  3.327E-03 0.000E+00
 
     Adding external electric field

     Computed dipole along edir(3) : 
        Dipole               -1.0903 Ry au,         -2.7712 Debye
        Dipole field         -0.0021 Ry au, 
 
        Potential amp.        0.1907 Ry
        Total length         46.3494 bohr
 

     total cpu time spent up to now is      591.3 secs

     total energy              =   -2972.68042550 Ry
     estimated scf accuracy    <       0.49251063 Ry

     iteration # 32     ecut=    29.40 Ry     beta= 0.05
     Davidson diagonalization with overlap
     ethr =  1.23E-04,  avg # of iterations =  6.6

     negative rho (up, down):  3.576E-03 0.000E+00
 
     Adding external electric field

     Computed dipole along edir(3) : 
        Dipole               -0.7991 Ry au,         -2.0310 Debye
        Dipole field         -0.0015 Ry au, 
 
        Potential amp.        0.1398 Ry
        Total length         46.3494 bohr
 

     total cpu time spent up to now is      605.3 secs

     total energy              =   -2972.70877159 Ry
     estimated scf accuracy    <       4.31906111 Ry

     iteration # 33     ecut=    29.40 Ry     beta= 0.05
     Davidson diagonalization with overlap
     c_bands:  1 eigenvalues not converged
     ethr =  1.23E-04,  avg # of iterations =  6.2

     negative rho (up, down):  3.898E-03 0.000E+00
 
     Adding external electric field

     Computed dipole along edir(3) : 
        Dipole               -0.6321 Ry au,         -1.6066 Debye
        Dipole field         -0.0012 Ry au, 
 
        Potential amp.        0.1106 Ry
        Total length         46.3494 bohr
 

     total cpu time spent up to now is      617.1 secs

     total energy              =   -2972.70784350 Ry
     estimated scf accuracy    <       0.89997735 Ry

     iteration # 34     ecut=    29.40 Ry     beta= 0.05
     Davidson diagonalization with overlap
     ethr =  1.23E-04,  avg # of iterations =  2.0

     negative rho (up, down):  3.956E-03 0.000E+00
 
     Adding external electric field

     Computed dipole along edir(3) : 
        Dipole               -0.5518 Ry au,         -1.4026 Debye
        Dipole field         -0.0010 Ry au, 
 
        Potential amp.        0.0965 Ry
        Total length         46.3494 bohr
 

     total cpu time spent up to now is      627.9 secs

     total energy              =   -2972.68774436 Ry
     estimated scf accuracy    <       3.61279679 Ry

     iteration # 35     ecut=    29.40 Ry     beta= 0.05
     Davidson diagonalization with overlap
     ethr =  1.23E-04,  avg # of iterations =  1.2

     negative rho (up, down):  5.134E-03 0.000E+00
 
     Adding external electric field

     Computed dipole along edir(3) : 
        Dipole               -0.2865 Ry au,         -0.7282 Debye
        Dipole field         -0.0005 Ry au, 
 
        Potential amp.        0.0501 Ry
        Total length         46.3494 bohr
 

     total cpu time spent up to now is      637.9 secs

     total energy              =   -2972.69008430 Ry
     estimated scf accuracy    <       0.42854495 Ry

     iteration # 36     ecut=    29.40 Ry     beta= 0.05
     Davidson diagonalization with overlap
     c_bands:  2 eigenvalues not converged
     c_bands:  4 eigenvalues not converged
     c_bands:  1 eigenvalues not converged
     c_bands:  4 eigenvalues not converged
     ethr =  1.07E-04,  avg # of iterations = 12.0

     negative rho (up, down):  5.844E-03 0.000E+00
 
     Adding external electric field

     Computed dipole along edir(3) : 
        Dipole               -0.0797 Ry au,         -0.2025 Debye
        Dipole field         -0.0002 Ry au, 
 
        Potential amp.        0.0139 Ry
        Total length         46.3494 bohr
 

     total cpu time spent up to now is      651.6 secs

     total energy              =   -2972.69423899 Ry
     estimated scf accuracy    <       0.23045502 Ry

     iteration # 37     ecut=    29.40 Ry     beta= 0.05
     Davidson diagonalization with overlap
     c_bands:  1 eigenvalues not converged
     c_bands:  2 eigenvalues not converged
     c_bands:  2 eigenvalues not converged
     c_bands:  3 eigenvalues not converged
     c_bands:  1 eigenvalues not converged
     c_bands:  4 eigenvalues not converged
     ethr =  5.73E-05,  avg # of iterations = 15.0

     negative rho (up, down):  6.318E-03 0.000E+00
 
     Adding external electric field

     Computed dipole along edir(3) : 
        Dipole                0.0968 Ry au,          0.2461 Debye
        Dipole field          0.0002 Ry au, 
 
        Potential amp.       -0.0169 Ry
        Total length         46.3494 bohr
 

     total cpu time spent up to now is      666.5 secs

     total energy              =   -2972.69846641 Ry
     estimated scf accuracy    <       0.21528134 Ry

     iteration # 38     ecut=    29.40 Ry     beta= 0.05
     Davidson diagonalization with overlap
     c_bands:  1 eigenvalues not converged
     c_bands:  1 eigenvalues not converged
     ethr =  5.36E-05,  avg # of iterations =  5.9

     negative rho (up, down):  6.121E-03 0.000E+00
 
     Adding external electric field

     Computed dipole along edir(3) : 
        Dipole                0.2070 Ry au,          0.5261 Debye
        Dipole field          0.0004 Ry au, 
 
        Potential amp.       -0.0362 Ry
        Total length         46.3494 bohr
 

     total cpu time spent up to now is      678.3 secs

     total energy              =   -2972.69060685 Ry
     estimated scf accuracy    <       0.23223861 Ry

     iteration # 39     ecut=    29.40 Ry     beta= 0.05
     Davidson diagonalization with overlap
     c_bands:  1 eigenvalues not converged
     c_bands:  5 eigenvalues not converged
     ethr =  5.36E-05,  avg # of iterations =  9.4

     negative rho (up, down):  6.457E-03 0.000E+00
 
     Adding external electric field

     Computed dipole along edir(3) : 
        Dipole                0.1750 Ry au,          0.4447 Debye
        Dipole field          0.0003 Ry au, 
 
        Potential amp.       -0.0306 Ry
        Total length         46.3494 bohr
 

     total cpu time spent up to now is      691.4 secs

     total energy              =   -2972.69184885 Ry
     estimated scf accuracy    <       0.21659498 Ry

     iteration # 40     ecut=    29.40 Ry     beta= 0.05
     Davidson diagonalization with overlap
     ethr =  5.36E-05,  avg # of iterations =  2.6

     negative rho (up, down):  7.508E-03 0.000E+00
 
     Adding external electric field

     Computed dipole along edir(3) : 
        Dipole                0.2092 Ry au,          0.5317 Debye
        Dipole field          0.0004 Ry au, 
 
        Potential amp.       -0.0366 Ry
        Total length         46.3494 bohr
 

     total cpu time spent up to now is      702.0 secs

     total energy              =   -2972.68410499 Ry
     estimated scf accuracy    <       0.16844455 Ry

     iteration # 41     ecut=    29.40 Ry     beta= 0.05
     Davidson diagonalization with overlap
     c_bands:  2 eigenvalues not converged
     c_bands:  1 eigenvalues not converged
     c_bands:  2 eigenvalues not converged
     c_bands:  1 eigenvalues not converged
     ethr =  4.19E-05,  avg # of iterations = 15.6

     negative rho (up, down):  7.593E-03 0.000E+00
 
     Adding external electric field

     Computed dipole along edir(3) : 
        Dipole                0.1947 Ry au,          0.4949 Debye
        Dipole field          0.0004 Ry au, 
 
        Potential amp.       -0.0341 Ry
        Total length         46.3494 bohr
 

     total cpu time spent up to now is      717.1 secs

     total energy              =   -2972.69585280 Ry
     estimated scf accuracy    <       0.05812305 Ry

     iteration # 42     ecut=    29.40 Ry     beta= 0.05
     Davidson diagonalization with overlap
     c_bands:  1 eigenvalues not converged
     c_bands:  1 eigenvalues not converged
     c_bands:  1 eigenvalues not converged
     ethr =  1.45E-05,  avg # of iterations = 14.2

     negative rho (up, down):  8.103E-03 0.000E+00
 
     Adding external electric field

     Computed dipole along edir(3) : 
        Dipole                0.2885 Ry au,          0.7332 Debye
        Dipole field          0.0005 Ry au, 
 
        Potential amp.       -0.0505 Ry
        Total length         46.3494 bohr
 

     total cpu time spent up to now is      732.0 secs

     total energy              =   -2972.69036138 Ry
     estimated scf accuracy    <       0.07187819 Ry

     iteration # 43     ecut=    29.40 Ry     beta= 0.05
     Davidson diagonalization with overlap
     c_bands:  1 eigenvalues not converged
     ethr =  1.45E-05,  avg # of iterations =  7.1

     negative rho (up, down):  8.392E-03 0.000E+00
 
     Adding external electric field

     Computed dipole along edir(3) : 
        Dipole                0.2299 Ry au,          0.5843 Debye
        Dipole field          0.0004 Ry au, 
 
        Potential amp.       -0.0402 Ry
        Total length         46.3494 bohr
 

     total cpu time spent up to now is      744.3 secs

     total energy              =   -2972.69224496 Ry
     estimated scf accuracy    <       0.04692882 Ry

     iteration # 44     ecut=    29.40 Ry     beta= 0.05
     Davidson diagonalization with overlap
     ethr =  1.17E-05,  avg # of iterations =  3.5

     negative rho (up, down):  8.809E-03 0.000E+00
 
     Adding external electric field

     Computed dipole along edir(3) : 
        Dipole                0.2530 Ry au,          0.6429 Debye
        Dipole field          0.0005 Ry au, 
 
        Potential amp.       -0.0442 Ry
        Total length         46.3494 bohr
 

     total cpu time spent up to now is      755.3 secs

     total energy              =   -2972.68851921 Ry
     estimated scf accuracy    <       0.03620295 Ry

     iteration # 45     ecut=    29.40 Ry     beta= 0.05
     Davidson diagonalization with overlap
     ethr =  9.01E-06,  avg # of iterations =  5.6

     negative rho (up, down):  9.581E-03 0.000E+00
 
     Adding external electric field

     Computed dipole along edir(3) : 
        Dipole                0.2532 Ry au,          0.6435 Debye
        Dipole field          0.0005 Ry au, 
 
        Potential amp.       -0.0443 Ry
        Total length         46.3494 bohr
 

     total cpu time spent up to now is      766.9 secs

     total energy              =   -2972.68795555 Ry
     estimated scf accuracy    <       0.02146166 Ry

     iteration # 46     ecut=    29.40 Ry     beta= 0.05
     Davidson diagonalization with overlap
     c_bands:  1 eigenvalues not converged
     c_bands:  1 eigenvalues not converged
     ethr =  5.34E-06,  avg # of iterations = 11.6

     negative rho (up, down):  1.073E-02 0.000E+00
 
     Adding external electric field

     Computed dipole along edir(3) : 
        Dipole                0.2148 Ry au,          0.5460 Debye
        Dipole field          0.0004 Ry au, 
 
        Potential amp.       -0.0376 Ry
        Total length         46.3494 bohr
 

     total cpu time spent up to now is      781.6 secs

     total energy              =   -2972.69026188 Ry
     estimated scf accuracy    <       0.00784876 Ry

     iteration # 47     ecut=    29.40 Ry     beta= 0.05
     Davidson diagonalization with overlap
     c_bands:  1 eigenvalues not converged
     c_bands:  1 eigenvalues not converged
     c_bands:  1 eigenvalues not converged
     c_bands:  1 eigenvalues not converged
     ethr =  1.95E-06,  avg # of iterations = 16.3

     negative rho (up, down):  1.109E-02 0.000E+00
 
     Adding external electric field

     Computed dipole along edir(3) : 
        Dipole                0.2649 Ry au,          0.6734 Debye
        Dipole field          0.0005 Ry au, 
 
        Potential amp.       -0.0463 Ry
        Total length         46.3494 bohr
 

     total cpu time spent up to now is      798.5 secs

     total energy              =   -2972.69011338 Ry
     estimated scf accuracy    <       0.01971651 Ry

     iteration # 48     ecut=    29.40 Ry     beta= 0.05
     Davidson diagonalization with overlap
     c_bands:  1 eigenvalues not converged
     ethr =  1.95E-06,  avg # of iterations =  6.9

     negative rho (up, down):  1.103E-02 0.000E+00
 
     Adding external electric field

     Computed dipole along edir(3) : 
        Dipole                0.2758 Ry au,          0.7010 Debye
        Dipole field          0.0005 Ry au, 
 
        Potential amp.       -0.0482 Ry
        Total length         46.3494 bohr
 

     total cpu time spent up to now is      810.3 secs

     total energy              =   -2972.69024277 Ry
     estimated scf accuracy    <       0.00909943 Ry

     iteration # 49     ecut=    29.40 Ry     beta= 0.05
     Davidson diagonalization with overlap
     ethr =  1.95E-06,  avg # of iterations =  5.1

     negative rho (up, down):  1.117E-02 0.000E+00
 
     Adding external electric field

     Computed dipole along edir(3) : 
        Dipole                0.2320 Ry au,          0.5896 Debye
        Dipole field          0.0004 Ry au, 
 
        Potential amp.       -0.0406 Ry
        Total length         46.3494 bohr
 

     total cpu time spent up to now is      822.1 secs

     total energy              =   -2972.69040845 Ry
     estimated scf accuracy    <       0.00777212 Ry

     iteration # 50     ecut=    29.40 Ry     beta= 0.05
     Davidson diagonalization with overlap
     ethr =  1.93E-06,  avg # of iterations =  4.6

     negative rho (up, down):  1.179E-02 0.000E+00
 
     Adding external electric field

     Computed dipole along edir(3) : 
        Dipole                0.2399 Ry au,          0.6099 Debye
        Dipole field          0.0005 Ry au, 
 
        Potential amp.       -0.0420 Ry
        Total length         46.3494 bohr
 

     total cpu time spent up to now is      833.5 secs

     total energy              =   -2972.69024704 Ry
     estimated scf accuracy    <       0.00448481 Ry

     iteration # 51     ecut=    29.40 Ry     beta= 0.05
     Davidson diagonalization with overlap
     c_bands:  1 eigenvalues not converged
     c_bands:  1 eigenvalues not converged
     c_bands:  1 eigenvalues not converged
     c_bands:  1 eigenvalues not converged
     ethr =  1.12E-06,  avg # of iterations = 14.4

     negative rho (up, down):  1.342E-02 0.000E+00
 
     Adding external electric field

     Computed dipole along edir(3) : 
        Dipole                0.3308 Ry au,          0.8409 Debye
        Dipole field          0.0006 Ry au, 
 
        Potential amp.       -0.0579 Ry
        Total length         46.3494 bohr
 

     total cpu time spent up to now is      852.1 secs

     total energy              =   -2972.69050890 Ry
     estimated scf accuracy    <       0.00299062 Ry

     iteration # 52     ecut=    29.40 Ry     beta= 0.05
     Davidson diagonalization with overlap
     c_bands:  1 eigenvalues not converged
     ethr =  7.44E-07,  avg # of iterations =  8.7

     negative rho (up, down):  1.644E-02 0.000E+00
 
     Adding external electric field

     Computed dipole along edir(3) : 
        Dipole                0.3509 Ry au,          0.8920 Debye
        Dipole field          0.0007 Ry au, 
 
        Potential amp.       -0.0614 Ry
        Total length         46.3494 bohr
 

     total cpu time spent up to now is      867.0 secs

     total energy              =   -2972.69057700 Ry
     estimated scf accuracy    <       0.00375161 Ry

     iteration # 53     ecut=    29.40 Ry     beta= 0.05
     Davidson diagonalization with overlap
     ethr =  7.44E-07,  avg # of iterations =  6.0

     negative rho (up, down):  1.710E-02 0.000E+00
 
     Adding external electric field

     Computed dipole along edir(3) : 
        Dipole                0.3640 Ry au,          0.9252 Debye
        Dipole field          0.0007 Ry au, 
 
        Potential amp.       -0.0637 Ry
        Total length         46.3494 bohr
 

     total cpu time spent up to now is      879.6 secs

     total energy              =   -2972.69088471 Ry
     estimated scf accuracy    <       0.00072550 Ry

     iteration # 54     ecut=    29.40 Ry     beta= 0.05
     Davidson diagonalization with overlap
     ethr =  1.80E-07,  avg # of iterations =  5.7

     negative rho (up, down):  1.709E-02 0.000E+00
 
     Adding external electric field

     Computed dipole along edir(3) : 
        Dipole                0.3581 Ry au,          0.9102 Debye
        Dipole field          0.0007 Ry au, 
 
        Potential amp.       -0.0626 Ry
        Total length         46.3494 bohr
 

     total cpu time spent up to now is      893.4 secs

     total energy              =   -2972.69099028 Ry
     estimated scf accuracy    <       0.00025245 Ry

     iteration # 55     ecut=    29.40 Ry     beta= 0.05
     Davidson diagonalization with overlap
     ethr =  6.28E-08,  avg # of iterations =  5.4

     negative rho (up, down):  1.720E-02 0.000E+00
 
     Adding external electric field

     Computed dipole along edir(3) : 
        Dipole                0.3594 Ry au,          0.9134 Debye
        Dipole field          0.0007 Ry au, 
 
        Potential amp.       -0.0629 Ry
        Total length         46.3494 bohr
 

     total cpu time spent up to now is      905.4 secs

     total energy              =   -2972.69099639 Ry
     estimated scf accuracy    <       0.00017755 Ry

     iteration # 56     ecut=    29.40 Ry     beta= 0.05
     Davidson diagonalization with overlap
     ethr =  4.42E-08,  avg # of iterations =  6.4

     negative rho (up, down):  1.794E-02 0.000E+00
 
     Adding external electric field

     Computed dipole along edir(3) : 
        Dipole                0.3683 Ry au,          0.9361 Debye
        Dipole field          0.0007 Ry au, 
 
        Potential amp.       -0.0644 Ry
        Total length         46.3494 bohr
 

     total cpu time spent up to now is      924.7 secs

     total energy              =   -2972.69091209 Ry
     estimated scf accuracy    <       0.00073770 Ry

     iteration # 57     ecut=    29.40 Ry     beta= 0.05
     Davidson diagonalization with overlap
     ethr =  4.42E-08,  avg # of iterations =  6.9

     negative rho (up, down):  1.806E-02 0.000E+00
 
     Adding external electric field

     Computed dipole along edir(3) : 
        Dipole                0.3669 Ry au,          0.9325 Debye
        Dipole field          0.0007 Ry au, 
 
        Potential amp.       -0.0642 Ry
        Total length         46.3494 bohr
 

     total cpu time spent up to now is      944.1 secs

     total energy              =   -2972.69103565 Ry
     estimated scf accuracy    <       0.00011575 Ry

     iteration # 58     ecut=    29.40 Ry     beta= 0.05
     Davidson diagonalization with overlap
     ethr =  2.88E-08,  avg # of iterations =  3.4

     negative rho (up, down):  1.804E-02 0.000E+00
 
     Adding external electric field

     Computed dipole along edir(3) : 
        Dipole                0.3654 Ry au,          0.9287 Debye
        Dipole field          0.0007 Ry au, 
 
        Potential amp.       -0.0639 Ry
        Total length         46.3494 bohr
 

     total cpu time spent up to now is      955.3 secs

     total energy              =   -2972.69103187 Ry
     estimated scf accuracy    <       0.00007461 Ry

     iteration # 59     ecut=    29.40 Ry     beta= 0.05
     Davidson diagonalization with overlap
     ethr =  1.86E-08,  avg # of iterations =  6.1

     negative rho (up, down):  1.797E-02 0.000E+00
 
     Adding external electric field

     Computed dipole along edir(3) : 
        Dipole                0.3690 Ry au,          0.9379 Debye
        Dipole field          0.0007 Ry au, 
 
        Potential amp.       -0.0646 Ry
        Total length         46.3494 bohr
 

     total cpu time spent up to now is      970.3 secs

     total energy              =   -2972.69103671 Ry
     estimated scf accuracy    <       0.00007568 Ry

     iteration # 60     ecut=    29.40 Ry     beta= 0.05
     Davidson diagonalization with overlap
     ethr =  1.86E-08,  avg # of iterations =  6.2

     negative rho (up, down):  1.786E-02 0.000E+00
 
     Adding external electric field

     Computed dipole along edir(3) : 
        Dipole                0.3644 Ry au,          0.9263 Debye
        Dipole field          0.0007 Ry au, 
 
        Potential amp.       -0.0637 Ry
        Total length         46.3494 bohr
 

     total cpu time spent up to now is      983.4 secs

     total energy              =   -2972.69104850 Ry
     estimated scf accuracy    <       0.00005451 Ry

     iteration # 61     ecut=    29.40 Ry     beta= 0.05
     Davidson diagonalization with overlap
     ethr =  1.36E-08,  avg # of iterations =  5.4

     negative rho (up, down):  1.784E-02 0.000E+00
 
     Adding external electric field

     Computed dipole along edir(3) : 
        Dipole                0.3621 Ry au,          0.9203 Debye
        Dipole field          0.0007 Ry au, 
 
        Potential amp.       -0.0633 Ry
        Total length         46.3494 bohr
 

     total cpu time spent up to now is      996.6 secs

     total energy              =   -2972.69105441 Ry
     estimated scf accuracy    <       0.00004058 Ry

     iteration # 62     ecut=    29.40 Ry     beta= 0.05
     Davidson diagonalization with overlap
     ethr =  1.01E-08,  avg # of iterations =  4.2

     negative rho (up, down):  1.786E-02 0.000E+00
 
     Adding external electric field

     Computed dipole along edir(3) : 
        Dipole                0.3627 Ry au,          0.9218 Debye
        Dipole field          0.0007 Ry au, 
 
        Potential amp.       -0.0634 Ry
        Total length         46.3494 bohr
 

     total cpu time spent up to now is     1008.0 secs

     total energy              =   -2972.69105927 Ry
     estimated scf accuracy    <       0.00001572 Ry

     iteration # 63     ecut=    29.40 Ry     beta= 0.05
     Davidson diagonalization with overlap
     ethr =  3.91E-09,  avg # of iterations =  6.8

     negative rho (up, down):  1.795E-02 0.000E+00
 
     Adding external electric field

     Computed dipole along edir(3) : 
        Dipole                0.3632 Ry au,          0.9231 Debye
        Dipole field          0.0007 Ry au, 
 
        Potential amp.       -0.0635 Ry
        Total length         46.3494 bohr
 

     total cpu time spent up to now is     1022.8 secs

     total energy              =   -2972.69106712 Ry
     estimated scf accuracy    <       0.00001190 Ry

     iteration # 64     ecut=    29.40 Ry     beta= 0.05
     Davidson diagonalization with overlap
     ethr =  2.96E-09,  avg # of iterations =  1.3

     negative rho (up, down):  1.804E-02 0.000E+00
 
     Adding external electric field

     Computed dipole along edir(3) : 
        Dipole                0.3637 Ry au,          0.9245 Debye
        Dipole field          0.0007 Ry au, 
 
        Potential amp.       -0.0636 Ry
        Total length         46.3494 bohr
 

     total cpu time spent up to now is     1032.9 secs

     total energy              =   -2972.69107014 Ry
     estimated scf accuracy    <       0.00000788 Ry

     iteration # 65     ecut=    29.40 Ry     beta= 0.05
     Davidson diagonalization with overlap
     ethr =  1.96E-09,  avg # of iterations =  6.9

     negative rho (up, down):  1.794E-02 0.000E+00
 
     Adding external electric field

     Computed dipole along edir(3) : 
        Dipole                0.3623 Ry au,          0.9210 Debye
        Dipole field          0.0007 Ry au, 
 
        Potential amp.       -0.0634 Ry
        Total length         46.3494 bohr
 

     total cpu time spent up to now is     1047.2 secs

     total energy              =   -2972.69107503 Ry
     estimated scf accuracy    <       0.00000196 Ry

     iteration # 66     ecut=    29.40 Ry     beta= 0.05
     Davidson diagonalization with overlap
     ethr =  4.88E-10,  avg # of iterations =  6.8

     negative rho (up, down):  1.794E-02 0.000E+00
 
     Adding external electric field

     Computed dipole along edir(3) : 
        Dipole                0.3619 Ry au,          0.9199 Debye
        Dipole field          0.0007 Ry au, 
 
        Potential amp.       -0.0633 Ry
        Total length         46.3494 bohr
 

     total cpu time spent up to now is     1062.5 secs

     total energy              =   -2972.69107900 Ry
     estimated scf accuracy    <       0.00000135 Ry

     iteration # 67     ecut=    29.40 Ry     beta= 0.05
     Davidson diagonalization with overlap
     ethr =  3.35E-10,  avg # of iterations =  4.7

     negative rho (up, down):  1.790E-02 0.000E+00
 
     Adding external electric field

     Computed dipole along edir(3) : 
        Dipole                0.3608 Ry au,          0.9170 Debye
        Dipole field          0.0007 Ry au, 
 
        Potential amp.       -0.0631 Ry
        Total length         46.3494 bohr
 

     total cpu time spent up to now is     1074.0 secs

     total energy              =   -2972.69108227 Ry
     estimated scf accuracy    <       0.00000079 Ry

     iteration # 68     ecut=    29.40 Ry     beta= 0.05
     Davidson diagonalization with overlap
     ethr =  1.95E-10,  avg # of iterations =  9.1

     negative rho (up, down):  1.790E-02 0.000E+00
 
     Adding external electric field

     Computed dipole along edir(3) : 
        Dipole                0.3610 Ry au,          0.9176 Debye
        Dipole field          0.0007 Ry au, 
 
        Potential amp.       -0.0632 Ry
        Total length         46.3494 bohr
 

     total cpu time spent up to now is     1093.9 secs

     total energy              =   -2972.69108525 Ry
     estimated scf accuracy    <       0.00000177 Ry

     iteration # 69     ecut=    29.40 Ry     beta= 0.05
     Davidson diagonalization with overlap
     ethr =  1.95E-10,  avg # of iterations =  6.2

     negative rho (up, down):  1.790E-02 0.000E+00
 
     Adding external electric field

     Computed dipole along edir(3) : 
        Dipole                0.3610 Ry au,          0.9177 Debye
        Dipole field          0.0007 Ry au, 
 
        Potential amp.       -0.0632 Ry
        Total length         46.3494 bohr
 

     total cpu time spent up to now is     1108.9 secs

     total energy              =   -2972.69108812 Ry
     estimated scf accuracy    <       0.00000023 Ry

     iteration # 70     ecut=    29.40 Ry     beta= 0.05
     Davidson diagonalization with overlap
     ethr =  5.83E-11,  avg # of iterations =  4.9

     negative rho (up, down):  1.790E-02 0.000E+00
 
     Adding external electric field

     Computed dipole along edir(3) : 
        Dipole                0.3607 Ry au,          0.9169 Debye
        Dipole field          0.0007 Ry au, 
 
        Potential amp.       -0.0631 Ry
        Total length         46.3494 bohr
 

     total cpu time spent up to now is     1121.0 secs

     total energy              =   -2972.69109062 Ry
     estimated scf accuracy    <       0.00000020 Ry

     iteration # 71     ecut=    29.40 Ry     beta= 0.05
     Davidson diagonalization with overlap
     ethr =  5.00E-11,  avg # of iterations =  5.5

     negative rho (up, down):  1.788E-02 0.000E+00
 
     Adding external electric field

     Computed dipole along edir(3) : 
        Dipole                0.3604 Ry au,          0.9160 Debye
        Dipole field          0.0007 Ry au, 
 
        Potential amp.       -0.0630 Ry
        Total length         46.3494 bohr
 

     total cpu time spent up to now is     1134.6 secs

     total energy              =   -2972.69109293 Ry
     estimated scf accuracy    <       0.00000019 Ry

     iteration # 72     ecut=    29.40 Ry     beta= 0.05
     Davidson diagonalization with overlap
     ethr =  4.78E-11,  avg # of iterations =  3.9

     negative rho (up, down):  1.788E-02 0.000E+00
 
     Adding external electric field

     Computed dipole along edir(3) : 
        Dipole                0.3604 Ry au,          0.9160 Debye
        Dipole field          0.0007 Ry au, 
 
        Potential amp.       -0.0630 Ry
        Total length         46.3494 bohr
 

     total cpu time spent up to now is     1146.2 secs

     total energy              =   -2972.69109490 Ry
     estimated scf accuracy    <       0.00000021 Ry

     iteration # 73     ecut=    29.40 Ry     beta= 0.05
     Davidson diagonalization with overlap
     ethr =  4.78E-11,  avg # of iterations =  5.1

     negative rho (up, down):  1.787E-02 0.000E+00
 
     Adding external electric field

     Computed dipole along edir(3) : 
        Dipole                0.3604 Ry au,          0.9161 Debye
        Dipole field          0.0007 Ry au, 
 
        Potential amp.       -0.0630 Ry
        Total length         46.3494 bohr
 

     total cpu time spent up to now is     1157.9 secs

     total energy              =   -2972.69109668 Ry
     estimated scf accuracy    <       0.00000009 Ry

     iteration # 74     ecut=    29.40 Ry     beta= 0.05
     Davidson diagonalization with overlap
     ethr =  2.22E-11,  avg # of iterations =  4.6

     negative rho (up, down):  1.793E-02 0.000E+00
 
     Adding external electric field

     Computed dipole along edir(3) : 
        Dipole                0.3601 Ry au,          0.9153 Debye
        Dipole field          0.0007 Ry au, 
 
        Potential amp.       -0.0630 Ry
        Total length         46.3494 bohr
 

     total cpu time spent up to now is     1169.9 secs

     End of self-consistent calculation

          k = 0.0000 0.0000 0.0000 ( 18029 PWs)   bands (ev):

   -56.3449 -56.3110 -55.9425 -55.9087 -55.7543 -55.7178 -55.5620 -55.5562
   -55.5489 -55.5256 -55.5155 -55.4513 -55.2530 -55.2422 -55.1484 -55.1145
   -32.7983 -32.6374 -32.6106 -32.5030 -32.4222 -32.4176 -32.4101 -32.2431
   -32.1600 -32.1557 -32.0972 -32.0845 -32.0699 -32.0454 -32.0396 -31.9789
   -31.9770 -31.9686 -31.9353 -31.9115 -31.9089 -31.8682 -31.8528 -31.8437
   -31.8186 -31.7812 -31.7606 -31.7335 -31.7305 -31.7113 -31.7094 -31.7063
   -31.6897 -31.6714 -31.6544 -31.6389 -31.5526 -31.5471 -31.5139 -31.4988
   -31.4790 -31.4696 -31.4556 -31.4405 -31.3652 -31.3360 -31.2802 -31.1687
   -18.7416 -16.9374 -16.6617 -16.3493 -16.1467 -15.9642 -15.8997 -15.8424
   -15.7900 -15.6692 -15.6062 -15.5787 -15.5065 -15.4016 -15.3824 -15.3537
   -15.3038 -15.2854 -15.2689 -15.2393 -15.1861 -15.1510 -15.1343 -15.0586
   -15.0372 -15.0262 -14.8998 -14.8334 -14.8097 -14.7741 -14.5205 -13.6471
   -13.5341 -12.2768  -6.7086  -6.5204  -4.1634  -4.0787  -3.9078  -3.7624
    -3.6683  -3.6196  -3.4462  -3.4066  -3.3670  -3.2632  -3.1216  -3.0900
    -3.0175  -2.9670  -2.9232  -2.8655  -2.8057  -2.7614  -2.7177  -2.6357
    -2.6308  -2.6184  -2.6005  -2.5829  -2.5645  -2.4481  -2.3566  -2.3385
    -2.3160  -2.2735  -2.2543  -2.2415  -2.1920  -2.1618  -2.0786  -2.0692
    -2.0217  -1.9639  -1.9164  -1.8091  -1.7964  -1.7214  -1.7049  -1.6633
    -1.5305  -1.4072  -1.3769  -1.3231  -1.3088  -1.2257  -1.2064  -1.1777
    -1.0804  -1.0684  -1.0244  -1.0022  -0.8784  -0.8525  -0.8050  -0.7965
    -0.7664  -0.6694  -0.6325  -0.5213  -0.4765  -0.4316  -0.4223  -0.3474
    -0.3193  -0.2752  -0.2245  -0.1714  -0.1693  -0.1413  -0.0581  -0.0170
     0.0289   0.0778   0.1132   0.2008   0.2548   0.2918   0.3067   0.3946
     0.4369   0.4523   0.5178   0.5861   0.6376   0.7042   0.7475   0.8614
     0.8753   0.8927   0.9758   1.0974   1.4077   1.4285   1.4688   1.6626
     2.6458   2.8785   2.9994   3.1638   3.3087   3.3585   3.6295   3.6838
     3.7590   3.8357   3.8759

          k = 0.0000 0.0419 0.0000 ( 17933 PWs)   bands (ev):

   -56.3399 -56.3159 -55.9375 -55.9135 -55.7497 -55.7222 -55.5577 -55.5549
   -55.5440 -55.5306 -55.5202 -55.4505 -55.2536 -55.2426 -55.1434 -55.1194
   -32.7446 -32.6330 -32.6135 -32.4895 -32.4785 -32.4237 -32.3665 -32.1897
   -32.1479 -32.1464 -32.1157 -32.1050 -32.0790 -32.0188 -31.9873 -31.9713
   -31.9611 -31.9381 -31.9372 -31.9240 -31.9201 -31.8710 -31.8385 -31.8358
   -31.8115 -31.7848 -31.7588 -31.7558 -31.7411 -31.7259 -31.7161 -31.7071
   -31.7042 -31.7002 -31.6915 -31.6364 -31.5615 -31.5527 -31.4989 -31.4936
   -31.4859 -31.4754 -31.4669 -31.4588 -31.3528 -31.3360 -31.2926 -31.2256
   -18.7406 -16.9286 -16.5378 -16.2275 -16.0368 -15.9278 -15.8843 -15.7912
   -15.7368 -15.7303 -15.5879 -15.5337 -15.5060 -15.4421 -15.4417 -15.3753
   -15.3460 -15.2617 -15.2423 -15.2128 -15.2019 -15.1797 -15.1267 -15.1018
   -15.0807 -15.0621 -14.9515 -14.8952 -14.8375 -14.8219 -14.6050 -13.6529
   -13.5745 -12.2818  -6.7442  -6.4931  -4.0225  -3.9815  -3.7411  -3.7090
    -3.5118  -3.4616  -3.3911  -3.2751  -3.2497  -3.1282  -3.0700  -3.0483
    -3.0395  -2.9247  -2.8526  -2.8213  -2.7715  -2.7530  -2.7388  -2.6992
    -2.6858  -2.6544  -2.6185  -2.6107  -2.5756  -2.5503  -2.5164  -2.5031
    -2.4738  -2.4125  -2.3769  -2.3388  -2.2646  -2.2061  -2.1583  -2.1371
    -2.0499  -1.9557  -1.8443  -1.8068  -1.7586  -1.7120  -1.6071  -1.5193
    -1.4334  -1.4035  -1.2899  -1.2595  -1.1977  -1.1689  -1.0958  -1.0219
    -0.9893  -0.9624  -0.9416  -0.9021  -0.8658  -0.8184  -0.7881  -0.7448
    -0.7210  -0.6761  -0.6462  -0.5878  -0.5388  -0.5078  -0.4828  -0.4205
    -0.3627  -0.3428  -0.2720  -0.2585  -0.2205  -0.1419  -0.0858  -0.0657
    -0.0528   0.0193   0.0738   0.1282   0.1455   0.2058   0.2249   0.2445
     0.2777   0.3455   0.4287   0.5150   0.5365   0.5764   0.5870   0.6243
     0.7928   0.8589   1.0840   1.1985   1.2795   1.3812   1.4033   1.5826
     2.6438   3.1049   3.1512   3.2660   3.4544   3.5612   3.6035   3.6956
     3.7278   3.7674   3.8067

          k = 0.0000-0.0839 0.0000 ( 17884 PWs)   bands (ev):

   -56.3284 -56.3273 -55.9273 -55.9236 -55.7428 -55.7290 -55.5558 -55.5467
   -55.5405 -55.5337 -55.5302 -55.4498 -55.2543 -55.2429 -55.1314 -55.1313
   -32.6235 -32.6222 -32.6132 -32.6125 -32.4572 -32.4559 -32.2423 -32.2382
   -32.1260 -32.1241 -32.1197 -32.1125 -32.0649 -32.0522 -31.9707 -31.9491
   -31.9457 -31.9364 -31.8986 -31.8831 -31.8613 -31.8560 -31.8526 -31.8240
   -31.8156 -31.8009 -31.8003 -31.7979 -31.7745 -31.7501 -31.7463 -31.7163
   -31.7023 -31.6998 -31.6941 -31.6346 -31.6121 -31.5631 -31.5328 -31.4988
   -31.4718 -31.4669 -31.4669 -31.3615 -31.3613 -31.3361 -31.3229 -31.3227
   -18.7397 -16.9205 -16.2337 -16.2296 -15.9430 -15.9204 -15.8115 -15.7726
   -15.7083 -15.6663 -15.5863 -15.5861 -15.5412 -15.5111 -15.4582 -15.4471
   -15.3945 -15.2576 -15.2185 -15.2089 -15.1962 -15.1826 -15.0983 -15.0905
   -15.0626 -15.0513 -14.9882 -14.9859 -14.9722 -14.8217 -14.7446 -13.6375
   -13.6370 -12.2868  -6.7734  -6.4723  -3.9717  -3.7110  -3.5345  -3.5344
    -3.3117  -3.2998  -3.1919  -3.1753  -3.1340  -3.0949  -3.0910  -3.0673
    -3.0388  -3.0134  -2.9696  -2.9232  -2.9185  -2.8324  -2.8292  -2.8132
    -2.7909  -2.7239  -2.6853  -2.6308  -2.5954  -2.5600  -2.5141  -2.5061
    -2.4162  -2.3752  -2.3434  -2.3020  -2.2726  -2.1539  -2.0685  -2.0338
    -1.9808  -1.8216  -1.7945  -1.7522  -1.7137  -1.7036  -1.5697  -1.5390
    -1.4842  -1.3920  -1.3406  -1.3016  -1.2792  -1.2245  -1.1833  -1.1302
    -1.0658  -1.0423  -1.0289  -0.9699  -0.8031  -0.7832  -0.6990  -0.6654
    -0.6637  -0.6453  -0.5762  -0.5583  -0.4726  -0.4610  -0.4146  -0.4087
    -0.3602  -0.3549  -0.3211  -0.2827  -0.2084  -0.1949  -0.1604  -0.1322
    -0.1185  -0.0716  -0.0540   0.0248   0.0637   0.1015   0.1600   0.1992
     0.2044   0.2366   0.2561   0.3024   0.3466   0.3938   0.4273   0.7514
     0.7913   1.0025   1.0727   1.2286   1.2311   1.3212   1.3263   1.5456
     2.6328   3.3386   3.3405   3.4835   3.4853   3.5946   3.5960   3.6774
     3.7302   3.7379   3.7487

          k = 0.0380 0.0000 0.0000 ( 17913 PWs)   bands (ev):

   -56.3448 -56.3109 -55.9423 -55.9086 -55.7542 -55.7177 -55.5616 -55.5560
   -55.5492 -55.5255 -55.5154 -55.4512 -55.2528 -55.2422 -55.1483 -55.1144
   -32.7991 -32.6372 -32.6105 -32.5007 -32.4219 -32.4177 -32.4099 -32.2515
   -32.1597 -32.1418 -32.0873 -32.0844 -32.0701 -32.0468 -32.0416 -31.9830
   -31.9820 -31.9766 -31.9352 -31.9112 -31.9094 -31.8679 -31.8437 -31.8339
   -31.8079 -31.7804 -31.7606 -31.7304 -31.7301 -31.7261 -31.7099 -31.7077
   -31.6939 -31.6696 -31.6556 -31.6389 -31.5480 -31.5467 -31.5169 -31.5006
   -31.4818 -31.4698 -31.4537 -31.4406 -31.3650 -31.3363 -31.2801 -31.1684
   -18.7411 -16.9319 -16.5651 -16.2522 -16.0717 -16.0015 -15.9478 -15.8413
   -15.8095 -15.6791 -15.6261 -15.5753 -15.5125 -15.4954 -15.4188 -15.4132
   -15.3611 -15.3360 -15.2880 -15.2674 -15.1627 -15.1295 -15.0957 -15.0530
   -15.0023 -14.9492 -14.8979 -14.8550 -14.8280 -14.7953 -14.5204 -13.6441
   -13.5338 -12.2830  -6.6785  -6.4956  -4.0630  -3.8816  -3.7466  -3.6823
    -3.5822  -3.4684  -3.3626  -3.3560  -3.3325  -3.3055  -3.2577  -3.2051
    -3.1263  -2.9717  -2.9210  -2.8817  -2.8169  -2.7931  -2.7394  -2.6662
    -2.6242  -2.5871  -2.5512  -2.5441  -2.4768  -2.4030  -2.3550  -2.3201
    -2.3101  -2.2672  -2.2523  -2.1466  -2.1091  -2.0553  -2.0335  -1.9558
    -1.9427  -1.8550  -1.7916  -1.7546  -1.7393  -1.7001  -1.6859  -1.6791
    -1.6065  -1.5421  -1.4943  -1.3874  -1.3350  -1.2827  -1.2481  -1.1797
    -1.1645  -1.0937  -1.0331  -1.0185  -1.0097  -0.9414  -0.8507  -0.8178
    -0.7998  -0.7209  -0.6581  -0.6267  -0.4961  -0.4609  -0.4189  -0.3855
    -0.3603  -0.3164  -0.2868  -0.1767  -0.1217  -0.0832  -0.0638  -0.0278
     0.0085   0.0445   0.0750   0.1095   0.1677   0.2029   0.2360   0.2675
     0.3016   0.3949   0.4830   0.5530   0.5885   0.6748   0.7017   0.7371
     0.8517   0.8872   0.9101   1.0681   1.2883   1.3209   1.3874   1.6705
     2.6595   2.9745   2.9940   3.2983   3.3102   3.4387   3.5735   3.6264
     3.7482   3.8023   3.8613

          k = 0.0380 0.0419 0.0000 ( 17878 PWs)   bands (ev):

   -56.3398 -56.3159 -55.9374 -55.9135 -55.7497 -55.7221 -55.5574 -55.5546
   -55.5443 -55.5305 -55.5203 -55.4505 -55.2535 -55.2426 -55.1433 -55.1193
   -32.7453 -32.6328 -32.6135 -32.4876 -32.4784 -32.4234 -32.3667 -32.2013
   -32.1476 -32.1357 -32.1155 -32.0906 -32.0790 -32.0189 -31.9915 -31.9740
   -31.9708 -31.9412 -31.9375 -31.9227 -31.9218 -31.8718 -31.8358 -31.8214
   -31.8017 -31.7840 -31.7565 -31.7482 -31.7410 -31.7349 -31.7191 -31.7117
   -31.7067 -31.7024 -31.6951 -31.6363 -31.5655 -31.5457 -31.5028 -31.4932
   -31.4856 -31.4776 -31.4675 -31.4578 -31.3526 -31.3365 -31.2926 -31.2254
   -18.7402 -16.9248 -16.4479 -16.1369 -15.9787 -15.9506 -15.9070 -15.8553
   -15.7071 -15.6304 -15.5992 -15.5763 -15.5523 -15.5031 -15.4458 -15.4389
   -15.3619 -15.2901 -15.2677 -15.2434 -15.1928 -15.1784 -15.1333 -15.1002
   -15.0817 -15.0078 -14.9563 -14.9104 -14.8890 -14.8096 -14.6057 -13.6508
   -13.5747 -12.2877  -6.7006  -6.4832  -4.0174  -3.7263  -3.7036  -3.5549
    -3.4299  -3.3392  -3.2210  -3.2176  -3.1875  -3.1519  -3.1077  -3.0212
    -2.9493  -2.9088  -2.8657  -2.8274  -2.7974  -2.7689  -2.7374  -2.6983
    -2.6832  -2.6239  -2.6069  -2.5631  -2.5360  -2.5247  -2.5078  -2.4784
    -2.4022  -2.3843  -2.2899  -2.2764  -2.2171  -2.1942  -2.1473  -2.1046
    -2.0320  -1.9774  -1.8178  -1.7686  -1.7297  -1.6850  -1.5813  -1.5191
    -1.4876  -1.4671  -1.3762  -1.3452  -1.2780  -1.1924  -1.1649  -1.0982
    -1.0780  -1.0202  -0.9993  -0.9489  -0.9369  -0.9005  -0.8454  -0.8045
    -0.7669  -0.7424  -0.6825  -0.6687  -0.6199  -0.5873  -0.5345  -0.5158
    -0.4848  -0.4360  -0.4122  -0.3737  -0.2842  -0.2177  -0.1729  -0.1287
    -0.0646  -0.0394  -0.0035   0.0510   0.1389   0.1743   0.2132   0.2600
     0.2946   0.3294   0.4562   0.4901   0.5165   0.5784   0.6494   0.6730
     0.7381   0.8568   1.0945   1.1877   1.2375   1.3051   1.3623   1.6089
     2.6528   3.0928   3.2118   3.3779   3.5026   3.5079   3.6075   3.6834
     3.7475   3.8183   3.8691

          k = 0.0380-0.0839 0.0000 ( 17916 PWs)   bands (ev):

   -56.3284 -56.3273 -55.9273 -55.9237 -55.7428 -55.7291 -55.5558 -55.5465
   -55.5402 -55.5341 -55.5304 -55.4498 -55.2542 -55.2431 -55.1314 -55.1313
   -32.6235 -32.6223 -32.6138 -32.6132 -32.4563 -32.4550 -32.2426 -32.2385
   -32.1293 -32.1271 -32.1197 -32.1125 -32.0542 -32.0432 -31.9708 -31.9526
   -31.9493 -31.9431 -31.8991 -31.8859 -31.8643 -31.8622 -31.8570 -31.8266
   -31.8134 -31.7921 -31.7843 -31.7811 -31.7734 -31.7496 -31.7468 -31.7168
   -31.7129 -31.7100 -31.6986 -31.6350 -31.6124 -31.5595 -31.5305 -31.5034
   -31.4731 -31.4677 -31.4677 -31.3614 -31.3613 -31.3368 -31.3229 -31.3227
   -18.7395 -16.9181 -16.1715 -16.1662 -15.9012 -15.8818 -15.7952 -15.7890
   -15.7064 -15.6467 -15.6180 -15.5986 -15.5070 -15.4703 -15.4575 -15.4411
   -15.4139 -15.3203 -15.2811 -15.2458 -15.2003 -15.1770 -15.1639 -15.1308
   -15.0831 -15.0599 -15.0119 -15.0079 -14.9594 -14.8160 -14.7412 -13.6373
   -13.6368 -12.2924  -6.7340  -6.4566  -3.9828  -3.7481  -3.3285  -3.3273
    -3.2248  -3.1755  -3.1554  -3.0768  -3.0635  -2.9922  -2.9859  -2.9452
    -2.9231  -2.8923  -2.8564  -2.8373  -2.7905  -2.7834  -2.7666  -2.7247
    -2.7076  -2.6883  -2.6573  -2.6357  -2.6160  -2.5654  -2.5191  -2.5021
    -2.4322  -2.3950  -2.3678  -2.2254  -2.1267  -2.0726  -2.0400  -2.0066
    -1.9661  -1.9439  -1.8810  -1.8536  -1.7035  -1.6656  -1.6475  -1.6222
    -1.5643  -1.5348  -1.5083  -1.4844  -1.4175  -1.3745  -1.3555  -1.2696
    -1.1256  -1.0730  -1.0363  -0.9982  -0.9573  -0.8661  -0.8223  -0.8148
    -0.7438  -0.7086  -0.6645  -0.6387  -0.6005  -0.5824  -0.5577  -0.5249
    -0.5047  -0.4736  -0.4100  -0.3768  -0.3506  -0.2981  -0.2370  -0.1331
    -0.1196  -0.0724  -0.0320  -0.0133   0.0044   0.0980   0.1214   0.1656
     0.2667   0.3211   0.3396   0.4191   0.4472   0.5477   0.5701   0.7120
     0.7672   0.9652   1.0593   1.2399   1.2425   1.3078   1.3109   1.5804
     2.6273   3.3403   3.3426   3.5136   3.5160   3.6807   3.7016   3.7154
     3.7488   3.7813   3.7940

          k = 0.0380-0.0419 0.0000 ( 17876 PWs)   bands (ev):

   -56.3398 -56.3159 -55.9374 -55.9135 -55.7497 -55.7221 -55.5574 -55.5547
   -55.5443 -55.5305 -55.5203 -55.4505 -55.2535 -55.2426 -55.1433 -55.1193
   -32.7453 -32.6328 -32.6135 -32.4875 -32.4785 -32.4234 -32.3667 -32.2013
   -32.1476 -32.1357 -32.1156 -32.0905 -32.0790 -32.0190 -31.9915 -31.9740
   -31.9707 -31.9408 -31.9375 -31.9225 -31.9220 -31.8721 -31.8357 -31.8214
   -31.8025 -31.7839 -31.7566 -31.7474 -31.7408 -31.7351 -31.7211 -31.7116
   -31.7080 -31.7003 -31.6950 -31.6363 -31.5595 -31.5504 -31.5039 -31.4932
   -31.4858 -31.4776 -31.4670 -31.4578 -31.3526 -31.3365 -31.2926 -31.2254
   -18.7402 -16.9249 -16.4478 -16.1370 -15.9789 -15.9514 -15.9074 -15.8552
   -15.7085 -15.6298 -15.5992 -15.5758 -15.5525 -15.5030 -15.4425 -15.4377
   -15.3562 -15.3013 -15.2667 -15.2431 -15.1920 -15.1771 -15.1371 -15.0977
   -15.0779 -15.0088 -14.9609 -14.9095 -14.8871 -14.8095 -14.6060 -13.6508
   -13.5748 -12.2877  -6.7162  -6.4648  -4.0213  -3.7424  -3.7030  -3.5549
    -3.4253  -3.3201  -3.2184  -3.2048  -3.1890  -3.1704  -3.1189  -3.0229
    -2.9484  -2.9079  -2.8607  -2.8278  -2.7978  -2.7792  -2.7365  -2.7037
    -2.6822  -2.6242  -2.6015  -2.5607  -2.5494  -2.5154  -2.5037  -2.4683
    -2.4203  -2.3841  -2.3023  -2.2649  -2.2248  -2.2030  -2.1460  -2.1002
    -2.0211  -1.9710  -1.8601  -1.7656  -1.7267  -1.6783  -1.5701  -1.5148
    -1.4844  -1.4337  -1.3705  -1.3468  -1.2749  -1.2002  -1.1273  -1.0926
    -1.0760  -1.0263  -1.0023  -0.9441  -0.9336  -0.9110  -0.8482  -0.8245
    -0.7583  -0.7092  -0.7035  -0.6621  -0.6392  -0.5869  -0.5454  -0.5035
    -0.4602  -0.4299  -0.4027  -0.3788  -0.2601  -0.2440  -0.1999  -0.1274
    -0.0909  -0.0285   0.0161   0.0833   0.1387   0.1622   0.2140   0.2522
     0.2838   0.3183   0.4332   0.4739   0.5100   0.5751   0.6609   0.6877
     0.7302   0.8399   1.0946   1.1879   1.2398   1.3049   1.3629   1.6046
     2.6398   3.0935   3.2120   3.3777   3.5021   3.5088   3.6111   3.6872
     3.7520   3.8140   3.8835

          k =-0.0760-0.0000 0.0000 ( 17886 PWs)   bands (ev):

   -56.3447 -56.3109 -55.9422 -55.9086 -55.7542 -55.7177 -55.5611 -55.5559
   -55.5497 -55.5255 -55.5154 -55.4512 -55.2527 -55.2422 -55.1483 -55.1143
   -32.7998 -32.6371 -32.6104 -32.4983 -32.4219 -32.4179 -32.4102 -32.2591
   -32.1596 -32.1249 -32.0845 -32.0790 -32.0704 -32.0496 -32.0425 -32.0002
   -31.9852 -31.9766 -31.9351 -31.9115 -31.9100 -31.8679 -31.8432 -31.8035
   -31.7969 -31.7787 -31.7607 -31.7593 -31.7303 -31.7224 -31.7107 -31.7091
   -31.6991 -31.6676 -31.6575 -31.6390 -31.5464 -31.5420 -31.5234 -31.5013
   -31.4846 -31.4700 -31.4525 -31.4409 -31.3649 -31.3367 -31.2800 -31.1685
   -18.7406 -16.9267 -16.4168 -16.1510 -16.0740 -16.0309 -15.9128 -15.8396
   -15.8138 -15.7548 -15.6530 -15.6287 -15.5144 -15.4903 -15.4571 -15.4195
   -15.4137 -15.4115 -15.3044 -15.2885 -15.2486 -15.1093 -15.0568 -15.0406
   -14.9920 -14.9224 -14.9181 -14.8289 -14.8157 -14.7923 -14.5208 -13.6413
   -13.5334 -12.2892  -6.6532  -6.4632  -4.0752  -3.7574  -3.6748  -3.5039
    -3.4965  -3.4897  -3.3735  -3.2897  -3.2820  -3.1739  -3.1421  -3.1399
    -3.0702  -3.0146  -2.8790  -2.8351  -2.7984  -2.7702  -2.7009  -2.6068
    -2.5552  -2.5207  -2.5026  -2.4960  -2.4408  -2.3684  -2.3462  -2.2815
    -2.2668  -2.2448  -2.2223  -2.1569  -2.1095  -2.0670  -2.0362  -2.0043
    -1.9762  -1.8774  -1.8606  -1.8260  -1.8238  -1.7219  -1.6933  -1.6734
    -1.5720  -1.5607  -1.5205  -1.4689  -1.3998  -1.3101  -1.2888  -1.2363
    -1.2122  -1.1284  -1.0757  -1.0617  -1.0031  -0.9849  -0.9193  -0.8364
    -0.8211  -0.7619  -0.6954  -0.6457  -0.5789  -0.5286  -0.5171  -0.4661
    -0.3895  -0.3630  -0.2735  -0.2630  -0.1958  -0.1741  -0.1340  -0.0773
    -0.0582  -0.0070   0.0195   0.1016   0.1459   0.1869   0.2542   0.3191
     0.3425   0.3849   0.4874   0.5187   0.5512   0.5692   0.6433   0.7205
     0.8993   0.9074   1.0036   1.0281   1.0515   1.1976   1.3270   1.6781
     2.6764   2.9525   3.0248   3.1975   3.3087   3.3769   3.4409   3.6521
     3.7392   3.7644   3.8045

          k =-0.0760 0.0419 0.0000 ( 17914 PWs)   bands (ev):

   -56.3398 -56.3159 -55.9374 -55.9135 -55.7497 -55.7222 -55.5573 -55.5544
   -55.5447 -55.5305 -55.5204 -55.4505 -55.2534 -55.2427 -55.1433 -55.1194
   -32.7462 -32.6328 -32.6136 -32.4858 -32.4788 -32.4233 -32.3670 -32.2108
   -32.1476 -32.1232 -32.1158 -32.0794 -32.0782 -32.0193 -31.9958 -31.9875
   -31.9712 -31.9442 -31.9375 -31.9244 -31.9216 -31.8729 -31.8354 -31.7934
   -31.7915 -31.7817 -31.7656 -31.7561 -31.7409 -31.7305 -31.7222 -31.7162
   -31.7130 -31.7038 -31.6995 -31.6365 -31.5611 -31.5459 -31.5081 -31.4930
   -31.4858 -31.4800 -31.4677 -31.4571 -31.3527 -31.3370 -31.2927 -31.2255
   -18.7399 -16.9212 -16.3081 -16.0553 -15.9887 -15.9743 -15.8775 -15.8349
   -15.7358 -15.6929 -15.5985 -15.5563 -15.5280 -15.5155 -15.4643 -15.4225
   -15.4011 -15.3921 -15.3180 -15.2830 -15.2665 -15.1561 -15.1299 -15.0975
   -15.0388 -15.0059 -14.9695 -14.9188 -14.8911 -14.8009 -14.6073 -13.6488
   -13.5751 -12.2936  -6.6762  -6.4487  -4.0296  -3.7779  -3.5370  -3.3617
    -3.2854  -3.1977  -3.1769  -3.1223  -3.1203  -2.9973  -2.9661  -2.9043
    -2.8866  -2.8653  -2.8552  -2.8387  -2.8258  -2.7350  -2.6968  -2.6807
    -2.6674  -2.6184  -2.5757  -2.5414  -2.5143  -2.4816  -2.4561  -2.4269
    -2.3711  -2.3509  -2.3109  -2.2558  -2.2252  -2.1492  -2.0356  -2.0269
    -2.0154  -1.9495  -1.9067  -1.8492  -1.7740  -1.6621  -1.6123  -1.5764
    -1.4912  -1.4706  -1.4138  -1.3659  -1.3104  -1.2978  -1.2698  -1.2300
    -1.1915  -1.1262  -1.1112  -1.0634  -1.0293  -0.9827  -0.9522  -0.9071
    -0.8822  -0.8518  -0.7832  -0.7513  -0.7366  -0.6926  -0.6685  -0.6068
    -0.5682  -0.4849  -0.4463  -0.3849  -0.3488  -0.3133  -0.2651  -0.2078
    -0.1428  -0.0997  -0.0524   0.0189   0.1360   0.1978   0.2440   0.2982
     0.3767   0.3832   0.4288   0.4578   0.5830   0.6435   0.6891   0.7458
     0.7827   0.8965   1.0172   1.1066   1.2177   1.2321   1.3496   1.6309
     2.6484   3.0925   3.2204   3.2781   3.4012   3.5142   3.6392   3.7250
     3.7772   3.7928   3.8706

          k =-0.0760-0.0839 0.0000 ( 17948 PWs)   bands (ev):

   -56.3285 -56.3273 -55.9273 -55.9237 -55.7429 -55.7291 -55.5558 -55.5463
   -55.5397 -55.5346 -55.5306 -55.4498 -55.2541 -55.2432 -55.1314 -55.1314
   -32.6235 -32.6223 -32.6145 -32.6139 -32.4554 -32.4541 -32.2429 -32.2389
   -32.1326 -32.1293 -32.1198 -32.1125 -32.0431 -32.0330 -31.9709 -31.9610
   -31.9515 -31.9488 -31.8996 -31.8883 -31.8683 -31.8663 -31.8596 -31.8278
   -31.8132 -31.7820 -31.7760 -31.7596 -31.7569 -31.7486 -31.7474 -31.7323
   -31.7274 -31.7174 -31.7053 -31.6356 -31.6102 -31.5570 -31.5262 -31.5105
   -31.4742 -31.4685 -31.4684 -31.3614 -31.3613 -31.3374 -31.3229 -31.3228
   -18.7392 -16.9158 -16.0661 -16.0538 -15.9359 -15.9309 -15.7523 -15.7340
   -15.6998 -15.6743 -15.6369 -15.5509 -15.4864 -15.4789 -15.4720 -15.4078
   -15.3629 -15.3541 -15.3350 -15.3067 -15.2798 -15.2538 -15.1624 -15.1367
   -15.1324 -15.1029 -15.0217 -15.0091 -14.9484 -14.8124 -14.7385 -13.6371
   -13.6366 -12.2979  -6.6961  -6.4367  -3.9905  -3.8043  -3.2364  -3.1800
    -3.1762  -3.0672  -3.0406  -2.9660  -2.8693  -2.8508  -2.8378  -2.8039
    -2.7793  -2.7709  -2.7541  -2.7090  -2.6622  -2.6404  -2.6245  -2.6159
    -2.6108  -2.5961  -2.5666  -2.5381  -2.4798  -2.4702  -2.4365  -2.4189
    -2.3896  -2.3132  -2.3050  -2.2913  -2.2895  -2.2317  -2.1337  -2.1189
    -2.1100  -2.0667  -2.0007  -1.9315  -1.8434  -1.8013  -1.7351  -1.6793
    -1.6236  -1.5948  -1.5824  -1.4838  -1.4246  -1.4137  -1.3672  -1.3137
    -1.2343  -1.1988  -1.1613  -1.1502  -1.1379  -1.0956  -1.0438  -0.9856
    -0.8707  -0.8466  -0.8367  -0.7742  -0.7699  -0.7597  -0.6493  -0.6184
    -0.5684  -0.5429  -0.5236  -0.4846  -0.4564  -0.3815  -0.2901  -0.2435
    -0.1151  -0.0984  -0.0451   0.0016   0.0138   0.1060   0.1931   0.2170
     0.3563   0.3706   0.4032   0.5365   0.6053   0.6570   0.6742   0.7968
     0.8161   0.8518   1.0182   1.2618   1.2662   1.2851   1.2862   1.6129
     2.6228   3.4177   3.4199   3.4500   3.4521   3.6622   3.6757   3.7538
     3.7923   3.8834   3.9054

     the Fermi energy is     2.8198 ev

!    total energy              =   -2972.69111322 Ry
     estimated scf accuracy    <       0.00000005 Ry
     smearing contrib. (-TS)   =      -0.01344366 Ry
     internal energy E=F+TS    =   -2972.67766956 Ry

     The total energy is F=E-TS. E is the sum of the following terms:
     one-electron contribution =  -24586.18312295 Ry
     hartree contribution      =   12385.09905899 Ry
     xc contribution           =    -493.16950371 Ry
     ewald contribution        =    9721.57565339 Ry
     electric field correction =       0.00024471 Ry

     convergence has been achieved in  74 iterations

     Forces acting on atoms (cartesian axes, Ry/au):

     atom    1 type  1   force =    -0.00000901   -0.00028577    0.10605466
     atom    2 type  1   force =    -0.00022257   -0.00076586   -0.16693148
     atom    3 type  2   force =    -0.00002406   -0.00013673   -0.03890810
     atom    4 type  2   force =    -0.00009908   -0.00037723    0.03646513
     atom    5 type  2   force =    -0.00755576   -0.00012969   -0.00577945
     atom    6 type  2   force =     0.00856968    0.00077886   -0.00746856
     atom    7 type  1   force =    -0.00079536   -0.00146205    0.01976377
     atom    8 type  1   force =     0.00110386    0.01828007    0.06313776
     atom    9 type  2   force =    -0.00008336   -0.00020182    0.00030543
     atom   10 type  2   force =    -0.00265105    0.00203316   -0.04766937
     atom   11 type  2   force =    -0.00022652   -0.00001784    0.00009961
     atom   12 type  2   force =     0.00036572   -0.00013619    0.00006679
     atom   13 type  1   force =     0.00006044   -0.00010855   -0.00034115
     atom   14 type  1   force =    -0.00048356   -0.00001841    0.00006926
     atom   15 type  2   force =     0.00027978    0.00010031   -0.00035476
     atom   16 type  2   force =    -0.00012259   -0.00028522    0.00052334
     atom   17 type  2   force =     0.00002822   -0.00020945    0.00031915
     atom   18 type  2   force =     0.00016171    0.00014261   -0.00024607
     atom   19 type  1   force =     0.00019008    0.00009680    0.00143620
     atom   20 type  1   force =     0.00016999    0.00027099    0.00009306
     atom   21 type  2   force =     0.00004915   -0.00001895    0.10087755
     atom   22 type  2   force =     0.00031218    0.00026923    0.00050425
     atom   23 type  2   force =    -0.07580204   -0.00011670   -0.02987826
     atom   24 type  2   force =     0.07569128    0.00033775   -0.02988707
     atom   25 type  1   force =     0.00020091   -0.00055904    0.10641826
     atom   26 type  1   force =    -0.00006670   -0.00026438   -0.16736967
     atom   27 type  2   force =    -0.00006303   -0.00032068   -0.03756002
     atom   28 type  2   force =     0.00007086   -0.00045633    0.03692326
     atom   29 type  2   force =    -0.00852789    0.00126281   -0.00517447
     atom   30 type  2   force =     0.00948235    0.00122398   -0.00689126
     atom   31 type  1   force =    -0.00129676   -0.00008503    0.02608942
     atom   32 type  1   force =     0.00115956   -0.02137953    0.06370814
     atom   33 type  2   force =    -0.00002820    0.00024872   -0.00007045
     atom   34 type  2   force =    -0.00008370    0.00090950   -0.05945482
     atom   35 type  2   force =    -0.00007897    0.00009229   -0.00015036
     atom   36 type  2   force =    -0.00012000    0.00036954   -0.00016867
     atom   37 type  1   force =     0.00002333   -0.00031635    0.00009252
     atom   38 type  1   force =    -0.00042238   -0.00006798   -0.00011074
     atom   39 type  2   force =    -0.00021068    0.00037328    0.00045538
     atom   40 type  2   force =     0.00048614    0.00012689   -0.00036155
     atom   41 type  2   force =    -0.00008571    0.00036394   -0.00016208
     atom   42 type  2   force =     0.00049119    0.00015817    0.00006681
     atom   43 type  1   force =    -0.00038588   -0.00003677    0.00004768
     atom   44 type  1   force =     0.00037104    0.00001526   -0.00023168
     atom   45 type  2   force =     0.00002675   -0.00000228    0.10091438
     atom   46 type  2   force =    -0.07581332   -0.00010656   -0.02983282
     atom   47 type  2   force =     0.07568292    0.00032125   -0.02987060
     atom   48 type  3   force =    -0.00039466    0.00013207   -0.00022792
     atom   49 type  4   force =     0.00597091    0.00193203    0.00800356
     atom   50 type  5   force =    -0.00500190   -0.00242877   -0.00710145
     atom   51 type  3   force =     0.00006136    0.00013307   -0.00041985
     atom   52 type  5   force =    -0.00002859    0.00029148    0.00024493
     atom   53 type  2   force =    -0.00058162    0.00005115   -0.00091590
     atom   54 type  5   force =    -0.00027944    0.00011655    0.00046200
     atom   55 type  5   force =     0.00053497   -0.00013758    0.00039628

     Total force =     0.383846     Total SCF correction =     0.000443
  @ DRIVER MODE: Message from server: STATUS
  @ DRIVER MODE: Message from server: GETFORCE
  @ DRIVER MODE: Returning v,forces,stress,ensemble 

     Writing output data file ./calc.save/
  @ DRIVER MODE: Message from server: EXIT
  @ DRIVE MODE: Exiting  
 
     init_run     :     10.79s CPU     10.99s WALL (       1 calls)
     electrons    :   1142.16s CPU   1158.66s WALL (       1 calls)
     forces       :      2.37s CPU      2.45s WALL (       1 calls)

     Called by init_run:
     wfcinit      :      4.81s CPU      4.87s WALL (       1 calls)
     potinit      :      5.33s CPU      5.39s WALL (       1 calls)
     hinit0       :      0.29s CPU      0.30s WALL (       1 calls)

     Called by electrons:
     c_bands      :    968.49s CPU    975.16s WALL (      74 calls)
     sum_band     :    118.42s CPU    122.47s WALL (      74 calls)
     v_of_rho     :     41.26s CPU     43.29s WALL (      75 calls)
     newd         :     17.01s CPU     20.77s WALL (      75 calls)
     mix_rho      :      1.52s CPU      1.54s WALL (      74 calls)
     vdW_kernel   :      4.54s CPU      4.56s WALL (       1 calls)

     Called by c_bands:
     init_us_2    :      6.97s CPU      7.00s WALL (    1500 calls)
     cegterg      :    948.50s CPU    954.89s WALL (     755 calls)

     Called by *egterg:
     cdiaghg      :    137.29s CPU    137.90s WALL (    6404 calls)
     h_psi        :    520.99s CPU    525.49s WALL (    6419 calls)
     s_psi        :     67.13s CPU     67.33s WALL (    6419 calls)
     g_psi        :      1.92s CPU      1.93s WALL (    5654 calls)

     Called by h_psi:
     h_psi:calbec :     63.27s CPU     63.56s WALL (    6419 calls)
     vloc_psi     :    386.72s CPU    390.39s WALL (    6419 calls)
     add_vuspsi   :     67.53s CPU     67.84s WALL (    6419 calls)

     General routines
     calbec       :     84.06s CPU     84.41s WALL (    7199 calls)
     fft          :     21.07s CPU     21.22s WALL (    4725 calls)
     ffts         :      0.13s CPU      0.13s WALL (     149 calls)
     fftw         :    433.16s CPU    437.30s WALL ( 1033456 calls)
     interpolate  :      0.43s CPU      0.43s WALL (      75 calls)
     davcio       :      0.00s CPU      3.42s WALL (      10 calls)
 
     Parallel routines
 
     PWSCF        :  19m15.61s CPU  19m38.77s WALL

 
   This run was terminated on:  21:25:50  15Sep2021            

=------------------------------------------------------------------------------=
   JOB DONE.
=------------------------------------------------------------------------------=
