
     Program PWSCF v.6.7GPU starts on 22Sep2021 at 16:41:59 

     This program is part of the open-source Quantum ESPRESSO suite
     for quantum simulation of materials; please cite
         "P. Giannozzi et al., J. Phys.:Condens. Matter 21 395502 (2009);
         "P. Giannozzi et al., J. Phys.:Condens. Matter 29 465901 (2017);
         "P. Giannozzi et al., J. Chem. Phys. 152 154105 (2020);
          URL http://www.quantum-espresso.org", 
     in publications or presentations arising from this work. More details at
     http://www.quantum-espresso.org/quote

     Parallel version (MPI), running on    10 processors

     MPI processes distributed on     1 nodes
     R & G space division:  proc/nbgrp/npool/nimage =      10
     Reading input from /storage/home/hcoda1/3/ntian30/research/carbon/CxH_vib/H2O_calc/ads_slab/CH3NHO_a/out_0001/pw.inp
Warning: card &CELL ignored
Warning: card   CELL_DYNAMICS='IPI', ignored
Warning: card / ignored

     Current dimensions of program PWSCF are:
     Max number of different atomic species (ntypx) = 10
     Max number of k-points (npk) =  40000
     Max angular momentum in pseudopotentials (lmaxx) =  3
     Presently no symmetry can be used with electric field

     Message from routine cell_base_init:
     DEPRECATED: use true lattice parameter, not A to a.u. conversion factor

     **************************************************************************
     Initializing libbeef V0.1.2 with the BEEF-vdW functional.
     Citation: Wellendorff et al., PRB 85, 235149 (2012).
     **************************************************************************


     IMPORTANT: XC functional enforced from input :
     Exchange-correlation= BEEF-VDW
                           (   1   4  43  14   2   0   0)
     Any further DFT definition will be discarded
     Please, verify this is what you really want


     Subspace diagonalization in iterative solution of the eigenvalue problem:
     one sub-group per band group will be used
     scalapack distributed-memory algorithm (size of sub-group:  3*  3 procs)

  @ DRIVER MODE: Connecting to 
 qe_1139763_2937319.sched-torque.pace.gatech.edun46lk_f__scratch
  using UNIX socket
  @ DRIVER MODE: Message from server: STATUS
  @ DRIVER MODE: Message from server: INIT
  @ DRIVER MODE: Receiving replica           0          -1
  @ DRIVER MODE: Receiving encoded integer          25
  @ DRIVER MODE:  SCF:  T  FORCE:  T  STRESS:  F  VC:  F  ENSEMBLE:  F
  @ DRIVER MODE:  SCF:  T  FORCE:  T  STRESS:  F  VC:  F  ENSEMBLE:  F
 
     Parallelization info
     --------------------
     sticks:   dense  smooth     PW     G-vecs:    dense   smooth      PW
     Min         327     131     37                56683    14340    2191
     Max         328     133     38                56694    14346    2206
     Sum        3275    1317    379               566857   143421   21985
 
     Using Slab Decomposition
 


     bravais-lattice index     =            0
     lattice parameter (alat)  =       1.8897  a.u.
     unit-cell volume          =    6658.9804 (a.u.)^3
     number of atoms/cell      =           54
     number of atomic types    =            5
     number of electrons       =       397.00
     number of Kohn-Sham states=          208
     kinetic-energy cutoff     =      29.3995  Ry
     charge density cutoff     =     293.9946  Ry
     scf convergence threshold =      7.3E-08
     mixing beta               =       0.0500
     number of iterations used =            8  plain     mixing
     Exchange-correlation= BEEF-VDW
                           (   1   4  43  14   2   0   0)

     celldm(1)=   1.889726  celldm(2)=   0.000000  celldm(3)=   0.000000
     celldm(4)=   0.000000  celldm(5)=   0.000000  celldm(6)=   0.000000

     crystal axes: (cart. coord. in units of alat)
               a(1) = (   6.579727   0.000000   0.000000 )  
               a(2) = (  -0.000775   5.961596   0.000000 )  
               a(3) = (   0.000000   0.000000  25.155947 )  

     reciprocal axes: (cart. coord. in units 2 pi/alat)
               b(1) = (  0.151982  0.000020  0.000000 )  
               b(2) = (  0.000000  0.167740  0.000000 )  
               b(3) = (  0.000000  0.000000  0.039752 )  


     PseudoPot. # 1 for Ti read from file:
     /storage/coda1/p-amedford6/0/shared/rich_project_chbe-medford/medford-share/data/pseudos_module/espresso/nninc/pbe/van/Ti.UPF
     MD5 check sum: 8e4df49b7f0d34bbd5052bf3f5ea0213
     Pseudo is Ultrasoft, Zval = 12.0
     Generated by new atomic code, or converted to UPF format
     Using radial grid of  851 points,  6 beta functions with: 
                l(1) =   0
                l(2) =   0
                l(3) =   1
                l(4) =   1
                l(5) =   2
                l(6) =   2
     Q(r) pseudized with  8 coefficients,  rinner =    1.000   1.000   1.000
                                                       1.000   1.000

     PseudoPot. # 2 for O  read from file:
     /storage/coda1/p-amedford6/0/shared/rich_project_chbe-medford/medford-share/data/pseudos_module/espresso/nninc/pbe/van/O.UPF
     MD5 check sum: 78c19812648e8988a0fe644b0f25305e
     Pseudo is Ultrasoft, Zval =  6.0
     Generated by new atomic code, or converted to UPF format
     Using radial grid of  737 points,  4 beta functions with: 
                l(1) =   0
                l(2) =   0
                l(3) =   1
                l(4) =   1
     Q(r) pseudized with  8 coefficients,  rinner =    0.800   0.800   0.800


     PseudoPot. # 3 for N  read from file:
     /storage/coda1/p-amedford6/0/shared/rich_project_chbe-medford/medford-share/data/pseudos_module/espresso/nninc/pbe/van/N.UPF
     MD5 check sum: 90d10febe142ad51ac9d5be1deb811c4
     Pseudo is Ultrasoft, Zval =  5.0
     Generated by new atomic code, or converted to UPF format
     Using radial grid of  729 points,  4 beta functions with: 
                l(1) =   0
                l(2) =   0
                l(3) =   1
                l(4) =   1
     Q(r) pseudized with  8 coefficients,  rinner =    0.800   0.800   0.800


     PseudoPot. # 4 for C  read from file:
     /storage/coda1/p-amedford6/0/shared/rich_project_chbe-medford/medford-share/data/pseudos_module/espresso/nninc/pbe/van/C.UPF
     MD5 check sum: 1a69bf6b8db32088f5b2163dbdb77a27
     Pseudo is Ultrasoft, Zval =  4.0
     Generated by new atomic code, or converted to UPF format
     Using radial grid of  721 points,  4 beta functions with: 
                l(1) =   0
                l(2) =   0
                l(3) =   1
                l(4) =   1
     Q(r) pseudized with  8 coefficients,  rinner =    0.800   0.800   0.800


     PseudoPot. # 5 for H  read from file:
     /storage/coda1/p-amedford6/0/shared/rich_project_chbe-medford/medford-share/data/pseudos_module/espresso/nninc/pbe/van/H.UPF
     MD5 check sum: b5ee9d7bfd3a09ee7748110bda690ff7
     Pseudo is Ultrasoft, Zval =  1.0
     Generated by new atomic code, or converted to UPF format
     Using radial grid of  615 points,  1 beta functions with: 
                l(1) =   0
     Q(r) pseudized with  8 coefficients,  rinner =    0.800

     atomic species   valence    mass     pseudopotential
        Ti1           12.00    47.86700     Ti( 1.00)
        O1             6.00    15.99900     O ( 1.00)
        N1             5.00    14.00700     N ( 1.00)
        C1             4.00    12.01100     C ( 1.00)
        H1             1.00     1.00800     H ( 1.00)

     No symmetry found



   Cartesian axes

     site n.     atom                  positions (alat units)
         1           Ti1 tau(   1) = (   0.0004258   2.9801865   6.0000000  )
         2           Ti1 tau(   2) = (   3.2906075   1.4906267   6.0002472  )
         3           O1  tau(   3) = (   0.0006271   0.0005054   7.9858123  )
         4           O1  tau(   4) = (   3.2906025   0.0005020   7.3038282  )
         5           O1  tau(   5) = (   4.5942328   1.4918067   9.2879030  )
         6           O1  tau(   6) = (   1.9868534   1.4903216   9.2879459  )
         7           Ti1 tau(   7) = (   3.2907910   2.8959150   9.1758416  )
         8           Ti1 tau(   8) = (   0.0015273   1.4827037   9.2680791  )
         9           O1  tau(   9) = (   3.2880966   5.9442215  11.2779904  )
        10           O1  tau(  10) = (   0.0116148   5.9584955  10.6183126  )
        11           O1  tau(  11) = (   1.2901275   1.4920942  12.6240107  )
        12           O1  tau(  12) = (   5.2966278   1.4852543  12.6143030  )
        13           Ti1 tau(  13) = (   0.0031916   3.1007002  12.7073671  )
        14           Ti1 tau(  14) = (   3.2978183   1.3116672  12.6600973  )
        15           O1  tau(  15) = (   6.5743189   0.0224225  14.6379036  )
        16           O1  tau(  16) = (   3.2931419   0.0435670  13.8892854  )
        17           O1  tau(  17) = (   4.5409235   1.5821231  16.0748620  )
        18           O1  tau(  18) = (   2.0417342   1.5698890  16.0900686  )
        19           Ti1 tau(  19) = (   3.2746960   3.0378214  15.6558348  )
        20           Ti1 tau(  20) = (   6.4705883   1.5381531  15.9030332  )
        21           O1  tau(  21) = (   3.2904802   0.0005063   4.7018136  )
        22           O1  tau(  22) = (   6.5584422   0.0457650  17.1906971  )
        23           O1  tau(  23) = (   1.3043587   1.4918075   6.0039043  )
        24           O1  tau(  24) = (   5.2767064   1.4903225   6.0039473  )
        25           Ti1 tau(  25) = (   0.0000382   5.9609847   6.0000000  )
        26           Ti1 tau(  26) = (   3.2902200   4.4714249   6.0002472  )
        27           O1  tau(  27) = (   0.0002396   2.9813036   7.9858123  )
        28           O1  tau(  28) = (   3.2902150   2.9813002   7.3038282  )
        29           O1  tau(  29) = (   4.5938453   4.4726049   9.2879030  )
        30           O1  tau(  30) = (   1.9864658   4.4711199   9.2879459  )
        31           Ti1 tau(  31) = (   3.2891106   5.8743827   9.1763621  )
        32           Ti1 tau(  32) = (   0.0006254   4.4649316   9.2693709  )
        33           O1  tau(  33) = (   3.2918970   3.0256722  11.2465752  )
        34           O1  tau(  34) = (   0.0092240   2.9805883  10.6323155  )
        35           O1  tau(  35) = (   1.2932338   4.4650182  12.6342030  )
        36           O1  tau(  36) = (   5.2897350   4.4662865  12.6224893  )
        37           Ti1 tau(  37) = (   0.0112454   0.1207271  12.6557084  )
        38           Ti1 tau(  38) = (   3.2993242   4.4067673  12.4119285  )
        39           O1  tau(  39) = (   6.5542949   2.9732608  14.6543823  )
        40           O1  tau(  40) = (   3.2957262   2.9928748  13.8751945  )
        41           O1  tau(  41) = (   4.5169628   4.4726675  16.1294972  )
        42           O1  tau(  42) = (   2.0179035   4.4711894  16.0655614  )
        43           Ti1 tau(  43) = (   3.1791666   0.0518155  16.3463265  )
        44           Ti1 tau(  44) = (   6.5235282   4.6410908  16.0777984  )
        45           O1  tau(  45) = (   3.2900926   2.9813045   4.7018136  )
        46           O1  tau(  46) = (   1.3039711   4.4726057   6.0039043  )
        47           O1  tau(  47) = (   5.2763189   4.4711207   6.0039473  )
        48           N1  tau(  48) = (   0.0579940   2.9882472  17.3287890  )
        49           C1  tau(  49) = (   0.3445104   2.8919884  18.7043053  )
        50           H1  tau(  50) = (   0.5935414   3.8503421  19.1719745  )
        51           H1  tau(  51) = (   6.0379261   2.4644003  19.2136804  )
        52           H1  tau(  52) = (   1.1315070   2.1426081  18.8955932  )
        53           O1  tau(  53) = (   3.2362511   0.0690349  18.1809703  )
        54           H1  tau(  54) = (   3.8186072   5.4079590  18.6400750  )

     number of k points=    10  Fermi-Dirac smearing, width (Ry)=  0.0073
                       cart. coord. in units 2pi/alat
        k(    1) = (   0.0000000   0.0000000   0.0000000), wk =   0.1250000
        k(    2) = (   0.0000000   0.0419351   0.0000000), wk =   0.2500000
        k(    3) = (   0.0000000  -0.0838702   0.0000000), wk =   0.1250000
        k(    4) = (   0.0379955   0.0000049   0.0000000), wk =   0.2500000
        k(    5) = (   0.0379955   0.0419400   0.0000000), wk =   0.2500000
        k(    6) = (   0.0379955  -0.0838652   0.0000000), wk =   0.2500000
        k(    7) = (   0.0379955  -0.0419301   0.0000000), wk =   0.2500000
        k(    8) = (  -0.0759910  -0.0000099   0.0000000), wk =   0.1250000
        k(    9) = (  -0.0759910   0.0419252   0.0000000), wk =   0.2500000
        k(   10) = (  -0.0759910  -0.0838800   0.0000000), wk =   0.1250000

     Dense  grid:   566857 G-vectors     FFT dimensions: (  72,  64, 270)

     Smooth grid:   143421 G-vectors     FFT dimensions: (  45,  40, 180)

     Estimated max dynamical RAM per process >     366.33 MB

     Estimated total dynamical RAM >       3.58 GB
     Cannot read rho : file not found

     Initial potential from superposition of free atoms

     starting charge  380.99916, renormalised to  397.00000

     negative rho (up, down):  1.676E-02 0.000E+00


     %%%%%%%%%%%%%%%%%%%%%%%%%%%%%%%%%%%%%%%%%%%%%%%%%%%%%%%%%%%%%%%%%%%%%%%%
     %                                                                      %
     % You are using vdW-DF, which was implemented by the Thonhauser group. %
     % Please cite the following two papers that made this development      %
     % possible and the two reviews that describe the various versions:     %
     %                                                                      %
     %   T. Thonhauser et al., PRL 115, 136402 (2015).                      %
     %   T. Thonhauser et al., PRB 76, 125112 (2007).                       %
     %   K. Berland et al., Rep. Prog. Phys. 78, 066501 (2015).             %
     %   D.C. Langreth et al., J. Phys.: Condens. Matter 21, 084203 (2009). %
     %                                                                      %
     %                                                                      %
     % If you are calculating the stress with vdW-DF, please also cite:     %
     %                                                                      %
     %   R. Sabatini et al., J. Phys.: Condens. Matter 24, 424209 (2012).   %
     %                                                                      %
     %%%%%%%%%%%%%%%%%%%%%%%%%%%%%%%%%%%%%%%%%%%%%%%%%%%%%%%%%%%%%%%%%%%%%%%%


 
     Adding external electric field

     Computed dipole along edir(3) : 
        Dipole               -8.2921 Ry au,        -21.0764 Debye
        Dipole field         -0.0156 Ry au, 
 
        Potential amp.        1.4506 Ry
        Total length         46.3494 bohr
 
     Starting wfcs are  300 atomic wfcs
  @ DRIVER MODE: Message from server: STATUS
  @ DRIVER MODE: Message from server: POSDATA
  @ DRIVER MODE: Reading and sharing cell 
  @ DRIVER MODE: Reading and sharing positions 
  @ DRIVER MODE: Received positions 

     total cpu time spent up to now is       11.4 secs

     Self-consistent Calculation

     iteration #  1     ecut=    29.40 Ry     beta= 0.05
     Davidson diagonalization with overlap
     c_bands:  1 eigenvalues not converged
     c_bands:  1 eigenvalues not converged
     c_bands:  1 eigenvalues not converged
     c_bands:  3 eigenvalues not converged
     c_bands:  2 eigenvalues not converged
     c_bands:  1 eigenvalues not converged
     c_bands:  1 eigenvalues not converged
     ethr =  1.00E-05,  avg # of iterations = 19.2

     negative rho (up, down):  1.382E-02 0.000E+00
 
     Adding external electric field

     Computed dipole along edir(3) : 
        Dipole               39.9628 Ry au,        101.5753 Debye
        Dipole field          0.0754 Ry au, 
 
        Potential amp.       -6.9909 Ry
        Total length         46.3494 bohr
 

     total cpu time spent up to now is       51.9 secs

     total energy              =   -2606.43868011 Ry
     estimated scf accuracy    <    3820.92922066 Ry

     iteration #  2     ecut=    29.40 Ry     beta= 0.05
     Davidson diagonalization with overlap
     ethr =  1.00E-02,  avg # of iterations = 24.5

     negative rho (up, down):  4.688E-03 0.000E+00
 
     Adding external electric field

     Computed dipole along edir(3) : 
        Dipole               -2.1219 Ry au,         -5.3933 Debye
        Dipole field         -0.0040 Ry au, 
 
        Potential amp.        0.3712 Ry
        Total length         46.3494 bohr
 

     total cpu time spent up to now is      122.3 secs

     total energy              =   -2474.89716298 Ry
     estimated scf accuracy    <   65773.28914446 Ry

     iteration #  3     ecut=    29.40 Ry     beta= 0.05
     Davidson diagonalization with overlap
     ethr =  1.00E-02,  avg # of iterations = 13.5

     negative rho (up, down):  4.761E-03 0.000E+00
 
     Adding external electric field

     Computed dipole along edir(3) : 
        Dipole               -4.2794 Ry au,        -10.8770 Debye
        Dipole field         -0.0081 Ry au, 
 
        Potential amp.        0.7486 Ry
        Total length         46.3494 bohr
 

     total cpu time spent up to now is      167.5 secs

     total energy              =   -2930.24772890 Ry
     estimated scf accuracy    <    4098.70115248 Ry

     iteration #  4     ecut=    29.40 Ry     beta= 0.05
     Davidson diagonalization with overlap
     c_bands:  3 eigenvalues not converged
     c_bands:  3 eigenvalues not converged
     c_bands:  4 eigenvalues not converged
     ethr =  1.00E-02,  avg # of iterations = 16.4

     negative rho (up, down):  4.806E-03 0.000E+00
 
     Adding external electric field

     Computed dipole along edir(3) : 
        Dipole               -5.2814 Ry au,        -13.4241 Debye
        Dipole field         -0.0100 Ry au, 
 
        Potential amp.        0.9239 Ry
        Total length         46.3494 bohr
 

     total cpu time spent up to now is      188.6 secs

     total energy              =   -2947.36572621 Ry
     estimated scf accuracy    <     542.87180598 Ry

     iteration #  5     ecut=    29.40 Ry     beta= 0.05
     Davidson diagonalization with overlap
     ethr =  1.00E-02,  avg # of iterations =  3.4

     negative rho (up, down):  4.798E-03 0.000E+00
 
     Adding external electric field

     Computed dipole along edir(3) : 
        Dipole               -5.5829 Ry au,        -14.1903 Debye
        Dipole field         -0.0105 Ry au, 
 
        Potential amp.        0.9766 Ry
        Total length         46.3494 bohr
 

     total cpu time spent up to now is      199.7 secs

     total energy              =   -2946.99741792 Ry
     estimated scf accuracy    <     393.62314966 Ry

     iteration #  6     ecut=    29.40 Ry     beta= 0.05
     Davidson diagonalization with overlap
     ethr =  1.00E-02,  avg # of iterations =  2.1

     negative rho (up, down):  5.159E-03 0.000E+00
 
     Adding external electric field

     Computed dipole along edir(3) : 
        Dipole               -8.8960 Ry au,        -22.6115 Debye
        Dipole field         -0.0168 Ry au, 
 
        Potential amp.        1.5562 Ry
        Total length         46.3494 bohr
 

     total cpu time spent up to now is      210.1 secs

     total energy              =   -2930.77123564 Ry
     estimated scf accuracy    <     370.69500964 Ry

     iteration #  7     ecut=    29.40 Ry     beta= 0.05
     Davidson diagonalization with overlap
     ethr =  1.00E-02,  avg # of iterations =  9.7

     negative rho (up, down):  2.942E-03 0.000E+00
 
     Adding external electric field

     Computed dipole along edir(3) : 
        Dipole               -7.9149 Ry au,        -20.1175 Debye
        Dipole field         -0.0149 Ry au, 
 
        Potential amp.        1.3846 Ry
        Total length         46.3494 bohr
 

     total cpu time spent up to now is      234.0 secs

     total energy              =   -2959.32701532 Ry
     estimated scf accuracy    <    1386.77621653 Ry

     iteration #  8     ecut=    29.40 Ry     beta= 0.05
     Davidson diagonalization with overlap
     ethr =  1.00E-02,  avg # of iterations =  1.8

     negative rho (up, down):  2.979E-03 0.000E+00
 
     Adding external electric field

     Computed dipole along edir(3) : 
        Dipole               -7.9044 Ry au,        -20.0910 Debye
        Dipole field         -0.0149 Ry au, 
 
        Potential amp.        1.3828 Ry
        Total length         46.3494 bohr
 

     total cpu time spent up to now is      244.6 secs

     total energy              =   -2960.23844054 Ry
     estimated scf accuracy    <     776.85877997 Ry

     iteration #  9     ecut=    29.40 Ry     beta= 0.05
     Davidson diagonalization with overlap
     ethr =  1.00E-02,  avg # of iterations =  1.0

     negative rho (up, down):  3.134E-03 0.000E+00
 
     Adding external electric field

     Computed dipole along edir(3) : 
        Dipole               -7.8934 Ry au,        -20.0631 Debye
        Dipole field         -0.0149 Ry au, 
 
        Potential amp.        1.3808 Ry
        Total length         46.3494 bohr
 

     total cpu time spent up to now is      254.5 secs

     total energy              =   -2960.27823435 Ry
     estimated scf accuracy    <     787.13923183 Ry

     iteration # 10     ecut=    29.40 Ry     beta= 0.05
     Davidson diagonalization with overlap
     ethr =  1.00E-02,  avg # of iterations =  1.0

     negative rho (up, down):  1.465E-03 0.000E+00
 
     Adding external electric field

     Computed dipole along edir(3) : 
        Dipole               -8.3412 Ry au,        -21.2013 Debye
        Dipole field         -0.0157 Ry au, 
 
        Potential amp.        1.4592 Ry
        Total length         46.3494 bohr
 

     total cpu time spent up to now is      264.5 secs

     total energy              =   -2963.35014150 Ry
     estimated scf accuracy    <     793.61313875 Ry

     iteration # 11     ecut=    29.40 Ry     beta= 0.05
     Davidson diagonalization with overlap
     ethr =  1.00E-02,  avg # of iterations =  1.0

     negative rho (up, down):  5.584E-03 0.000E+00
 
     Adding external electric field

     Computed dipole along edir(3) : 
        Dipole               -6.4302 Ry au,        -16.3438 Debye
        Dipole field         -0.0121 Ry au, 
 
        Potential amp.        1.1249 Ry
        Total length         46.3494 bohr
 

     total cpu time spent up to now is      274.5 secs

     total energy              =   -2951.32572117 Ry
     estimated scf accuracy    <    1401.44724844 Ry

     iteration # 12     ecut=    29.40 Ry     beta= 0.05
     Davidson diagonalization with overlap
     ethr =  1.00E-02,  avg # of iterations =  2.0

     negative rho (up, down):  7.710E-03 0.000E+00
 
     Adding external electric field

     Computed dipole along edir(3) : 
        Dipole               -5.3177 Ry au,        -13.5162 Debye
        Dipole field         -0.0100 Ry au, 
 
        Potential amp.        0.9302 Ry
        Total length         46.3494 bohr
 

     total cpu time spent up to now is      285.2 secs

     total energy              =   -2952.18305789 Ry
     estimated scf accuracy    <     347.58093574 Ry

     iteration # 13     ecut=    29.40 Ry     beta= 0.05
     Davidson diagonalization with overlap
     ethr =  1.00E-02,  avg # of iterations =  1.8

     negative rho (up, down):  2.828E-02 0.000E+00
 
     Adding external electric field

     Computed dipole along edir(3) : 
        Dipole               -3.0465 Ry au,         -7.7435 Debye
        Dipole field         -0.0057 Ry au, 
 
        Potential amp.        0.5329 Ry
        Total length         46.3494 bohr
 

     total cpu time spent up to now is      295.6 secs

     total energy              =   -2945.48566816 Ry
     estimated scf accuracy    <     316.45891943 Ry

     iteration # 14     ecut=    29.40 Ry     beta= 0.05
     Davidson diagonalization with overlap
     c_bands:  3 eigenvalues not converged
     c_bands:  5 eigenvalues not converged
     ethr =  1.00E-02,  avg # of iterations = 15.9

     negative rho (up, down):  2.786E-02 0.000E+00
 
     Adding external electric field

     Computed dipole along edir(3) : 
        Dipole               -3.0079 Ry au,         -7.6453 Debye
        Dipole field         -0.0057 Ry au, 
 
        Potential amp.        0.5262 Ry
        Total length         46.3494 bohr
 

     total cpu time spent up to now is      312.7 secs

     total energy              =   -2956.52300148 Ry
     estimated scf accuracy    <      14.49716939 Ry

     iteration # 15     ecut=    29.40 Ry     beta= 0.05
     Davidson diagonalization with overlap
     ethr =  3.65E-03,  avg # of iterations =  2.7

     negative rho (up, down):  6.649E-02 0.000E+00
 
     Adding external electric field

     Computed dipole along edir(3) : 
        Dipole               -1.9562 Ry au,         -4.9722 Debye
        Dipole field         -0.0037 Ry au, 
 
        Potential amp.        0.3422 Ry
        Total length         46.3494 bohr
 

     total cpu time spent up to now is      323.7 secs

     total energy              =   -2955.67862056 Ry
     estimated scf accuracy    <      14.52981008 Ry

     iteration # 16     ecut=    29.40 Ry     beta= 0.05
     Davidson diagonalization with overlap
     ethr =  3.65E-03,  avg # of iterations =  8.6

     negative rho (up, down):  3.951E-02 0.000E+00
 
     Adding external electric field

     Computed dipole along edir(3) : 
        Dipole               -2.9998 Ry au,         -7.6246 Debye
        Dipole field         -0.0057 Ry au, 
 
        Potential amp.        0.5248 Ry
        Total length         46.3494 bohr
 

     total cpu time spent up to now is      336.7 secs

     total energy              =   -2953.34286899 Ry
     estimated scf accuracy    <      70.02562333 Ry

     iteration # 17     ecut=    29.40 Ry     beta= 0.05
     Davidson diagonalization with overlap
     ethr =  3.65E-03,  avg # of iterations =  2.7

     negative rho (up, down):  4.572E-02 0.000E+00
 
     Adding external electric field

     Computed dipole along edir(3) : 
        Dipole               -3.7027 Ry au,         -9.4114 Debye
        Dipole field         -0.0070 Ry au, 
 
        Potential amp.        0.6477 Ry
        Total length         46.3494 bohr
 

     total cpu time spent up to now is      347.6 secs

     total energy              =   -2953.46507730 Ry
     estimated scf accuracy    <      12.12042594 Ry

     iteration # 18     ecut=    29.40 Ry     beta= 0.05
     Davidson diagonalization with overlap
     ethr =  3.05E-03,  avg # of iterations =  6.4

     negative rho (up, down):  1.133E-02 0.000E+00
 
     Adding external electric field

     Computed dipole along edir(3) : 
        Dipole               -4.2661 Ry au,        -10.8432 Debye
        Dipole field         -0.0081 Ry au, 
 
        Potential amp.        0.7463 Ry
        Total length         46.3494 bohr
 

     total cpu time spent up to now is      359.9 secs

     total energy              =   -2953.37897026 Ry
     estimated scf accuracy    <       7.69189473 Ry

     iteration # 19     ecut=    29.40 Ry     beta= 0.05
     Davidson diagonalization with overlap
     ethr =  1.94E-03,  avg # of iterations = 12.6

     negative rho (up, down):  7.340E-03 0.000E+00
 
     Adding external electric field

     Computed dipole along edir(3) : 
        Dipole               -3.3347 Ry au,         -8.4760 Debye
        Dipole field         -0.0063 Ry au, 
 
        Potential amp.        0.5834 Ry
        Total length         46.3494 bohr
 

     total cpu time spent up to now is      375.6 secs

     total energy              =   -2953.69304556 Ry
     estimated scf accuracy    <       9.57807277 Ry

     iteration # 20     ecut=    29.40 Ry     beta= 0.05
     Davidson diagonalization with overlap
     ethr =  1.94E-03,  avg # of iterations =  3.6

     negative rho (up, down):  8.144E-03 0.000E+00
 
     Adding external electric field

     Computed dipole along edir(3) : 
        Dipole               -2.7959 Ry au,         -7.1065 Debye
        Dipole field         -0.0053 Ry au, 
 
        Potential amp.        0.4891 Ry
        Total length         46.3494 bohr
 

     total cpu time spent up to now is      386.7 secs

     total energy              =   -2953.53908710 Ry
     estimated scf accuracy    <       7.73446345 Ry

     iteration # 21     ecut=    29.40 Ry     beta= 0.05
     Davidson diagonalization with overlap
     ethr =  1.94E-03,  avg # of iterations =  1.0

     negative rho (up, down):  5.670E-03 0.000E+00
 
     Adding external electric field

     Computed dipole along edir(3) : 
        Dipole               -0.8085 Ry au,         -2.0551 Debye
        Dipole field         -0.0015 Ry au, 
 
        Potential amp.        0.1414 Ry
        Total length         46.3494 bohr
 

     total cpu time spent up to now is      396.7 secs

     total energy              =   -2952.54627711 Ry
     estimated scf accuracy    <       6.68441371 Ry

     iteration # 22     ecut=    29.40 Ry     beta= 0.05
     Davidson diagonalization with overlap
     ethr =  1.68E-03,  avg # of iterations =  7.4

     negative rho (up, down):  2.900E-02 0.000E+00
 
     Adding external electric field

     Computed dipole along edir(3) : 
        Dipole               -1.0293 Ry au,         -2.6162 Debye
        Dipole field         -0.0019 Ry au, 
 
        Potential amp.        0.1801 Ry
        Total length         46.3494 bohr
 

     total cpu time spent up to now is      409.0 secs

     total energy              =   -2952.81884527 Ry
     estimated scf accuracy    <       2.17661809 Ry

     iteration # 23     ecut=    29.40 Ry     beta= 0.05
     Davidson diagonalization with overlap
     ethr =  5.48E-04,  avg # of iterations = 14.3

     negative rho (up, down):  1.239E-02 0.000E+00
 
     Adding external electric field

     Computed dipole along edir(3) : 
        Dipole               -1.5476 Ry au,         -3.9337 Debye
        Dipole field         -0.0029 Ry au, 
 
        Potential amp.        0.2707 Ry
        Total length         46.3494 bohr
 

     total cpu time spent up to now is      433.3 secs

     total energy              =   -2948.87004828 Ry
     estimated scf accuracy    <     335.31494411 Ry

     iteration # 24     ecut=    29.40 Ry     beta= 0.05
     Davidson diagonalization with overlap
     c_bands:  4 eigenvalues not converged
     c_bands:  1 eigenvalues not converged
     c_bands:  1 eigenvalues not converged
     c_bands:  2 eigenvalues not converged
     c_bands:  3 eigenvalues not converged
     c_bands:  2 eigenvalues not converged
     c_bands:  3 eigenvalues not converged
     c_bands:  3 eigenvalues not converged
     c_bands:  2 eigenvalues not converged
     ethr =  5.48E-04,  avg # of iterations = 19.6

     negative rho (up, down):  6.377E-03 0.000E+00
 
     Adding external electric field

     Computed dipole along edir(3) : 
        Dipole               -1.6972 Ry au,         -4.3138 Debye
        Dipole field         -0.0032 Ry au, 
 
        Potential amp.        0.2969 Ry
        Total length         46.3494 bohr
 

     total cpu time spent up to now is      455.5 secs

     total energy              =   -2952.99729367 Ry
     estimated scf accuracy    <       3.81104845 Ry

     iteration # 25     ecut=    29.40 Ry     beta= 0.05
     Davidson diagonalization with overlap
     ethr =  5.48E-04,  avg # of iterations =  1.3

     negative rho (up, down):  9.526E-03 0.000E+00
 
     Adding external electric field

     Computed dipole along edir(3) : 
        Dipole                0.7325 Ry au,          1.8618 Debye
        Dipole field          0.0014 Ry au, 
 
        Potential amp.       -0.1281 Ry
        Total length         46.3494 bohr
 

     total cpu time spent up to now is      465.8 secs

     total energy              =   -2952.15761144 Ry
     estimated scf accuracy    <       2.67265229 Ry

     iteration # 26     ecut=    29.40 Ry     beta= 0.05
     Davidson diagonalization with overlap
     ethr =  5.48E-04,  avg # of iterations = 14.6

     negative rho (up, down):  6.013E-03 0.000E+00
 
     Adding external electric field

     Computed dipole along edir(3) : 
        Dipole                0.3168 Ry au,          0.8053 Debye
        Dipole field          0.0006 Ry au, 
 
        Potential amp.       -0.0554 Ry
        Total length         46.3494 bohr
 

     total cpu time spent up to now is      485.8 secs

     total energy              =   -2952.52497228 Ry
     estimated scf accuracy    <       2.18794641 Ry

     iteration # 27     ecut=    29.40 Ry     beta= 0.05
     Davidson diagonalization with overlap
     ethr =  5.48E-04,  avg # of iterations =  2.3

     negative rho (up, down):  3.822E-03 0.000E+00
 
     Adding external electric field

     Computed dipole along edir(3) : 
        Dipole               -0.0021 Ry au,         -0.0054 Debye
        Dipole field         -0.0000 Ry au, 
 
        Potential amp.        0.0004 Ry
        Total length         46.3494 bohr
 

     total cpu time spent up to now is      496.8 secs

     total energy              =   -2952.59709034 Ry
     estimated scf accuracy    <       1.69645351 Ry

     iteration # 28     ecut=    29.40 Ry     beta= 0.05
     Davidson diagonalization with overlap
     c_bands:  1 eigenvalues not converged
     ethr =  4.27E-04,  avg # of iterations =  8.8

     negative rho (up, down):  4.506E-03 0.000E+00
 
     Adding external electric field

     Computed dipole along edir(3) : 
        Dipole               -0.0127 Ry au,         -0.0323 Debye
        Dipole field         -0.0000 Ry au, 
 
        Potential amp.        0.0022 Ry
        Total length         46.3494 bohr
 

     total cpu time spent up to now is      509.5 secs

     total energy              =   -2952.65944415 Ry
     estimated scf accuracy    <       0.65494948 Ry

     iteration # 29     ecut=    29.40 Ry     beta= 0.05
     Davidson diagonalization with overlap
     c_bands:  1 eigenvalues not converged
     c_bands:  1 eigenvalues not converged
     c_bands:  1 eigenvalues not converged
     ethr =  1.65E-04,  avg # of iterations = 10.6

     negative rho (up, down):  3.567E-03 0.000E+00
 
     Adding external electric field

     Computed dipole along edir(3) : 
        Dipole               -0.1844 Ry au,         -0.4686 Debye
        Dipole field         -0.0003 Ry au, 
 
        Potential amp.        0.0322 Ry
        Total length         46.3494 bohr
 

     total cpu time spent up to now is      523.1 secs

     total energy              =   -2952.67821394 Ry
     estimated scf accuracy    <       0.45469918 Ry

     iteration # 30     ecut=    29.40 Ry     beta= 0.05
     Davidson diagonalization with overlap
     c_bands:  1 eigenvalues not converged
     c_bands:  1 eigenvalues not converged
     ethr =  1.15E-04,  avg # of iterations =  8.7

     negative rho (up, down):  4.966E-03 0.000E+00
 
     Adding external electric field

     Computed dipole along edir(3) : 
        Dipole               -0.0689 Ry au,         -0.1751 Debye
        Dipole field         -0.0001 Ry au, 
 
        Potential amp.        0.0120 Ry
        Total length         46.3494 bohr
 

     total cpu time spent up to now is      536.0 secs

     total energy              =   -2952.68327047 Ry
     estimated scf accuracy    <       0.36516067 Ry

     iteration # 31     ecut=    29.40 Ry     beta= 0.05
     Davidson diagonalization with overlap
     ethr =  9.20E-05,  avg # of iterations =  6.6

     negative rho (up, down):  8.180E-03 0.000E+00
 
     Adding external electric field

     Computed dipole along edir(3) : 
        Dipole                0.4339 Ry au,          1.1027 Debye
        Dipole field          0.0008 Ry au, 
 
        Potential amp.       -0.0759 Ry
        Total length         46.3494 bohr
 

     total cpu time spent up to now is      548.1 secs

     total energy              =   -2952.67091547 Ry
     estimated scf accuracy    <       0.35148019 Ry

     iteration # 32     ecut=    29.40 Ry     beta= 0.05
     Davidson diagonalization with overlap
     c_bands:  1 eigenvalues not converged
     ethr =  8.85E-05,  avg # of iterations = 12.0

     negative rho (up, down):  1.014E-02 0.000E+00
 
     Adding external electric field

     Computed dipole along edir(3) : 
        Dipole                0.4724 Ry au,          1.2008 Debye
        Dipole field          0.0009 Ry au, 
 
        Potential amp.       -0.0826 Ry
        Total length         46.3494 bohr
 

     total cpu time spent up to now is      563.0 secs

     total energy              =   -2952.72296479 Ry
     estimated scf accuracy    <       3.16208293 Ry

     iteration # 33     ecut=    29.40 Ry     beta= 0.05
     Davidson diagonalization with overlap
     ethr =  8.85E-05,  avg # of iterations =  1.8

     negative rho (up, down):  1.093E-02 0.000E+00
 
     Adding external electric field

     Computed dipole along edir(3) : 
        Dipole                0.6294 Ry au,          1.5998 Debye
        Dipole field          0.0012 Ry au, 
 
        Potential amp.       -0.1101 Ry
        Total length         46.3494 bohr
 

     total cpu time spent up to now is      573.7 secs

     total energy              =   -2952.69747496 Ry
     estimated scf accuracy    <       3.06420703 Ry

     iteration # 34     ecut=    29.40 Ry     beta= 0.05
     Davidson diagonalization with overlap
     ethr =  8.85E-05,  avg # of iterations =  2.7

     negative rho (up, down):  9.393E-03 0.000E+00
 
     Adding external electric field

     Computed dipole along edir(3) : 
        Dipole                0.5237 Ry au,          1.3311 Debye
        Dipole field          0.0010 Ry au, 
 
        Potential amp.       -0.0916 Ry
        Total length         46.3494 bohr
 

     total cpu time spent up to now is      584.8 secs

     total energy              =   -2952.60617893 Ry
     estimated scf accuracy    <       2.98083019 Ry

     iteration # 35     ecut=    29.40 Ry     beta= 0.05
     Davidson diagonalization with overlap
     c_bands:  1 eigenvalues not converged
     c_bands:  1 eigenvalues not converged
     c_bands:  1 eigenvalues not converged
     ethr =  8.85E-05,  avg # of iterations = 11.2

     negative rho (up, down):  1.136E-02 0.000E+00
 
     Adding external electric field

     Computed dipole along edir(3) : 
        Dipole                0.7507 Ry au,          1.9080 Debye
        Dipole field          0.0014 Ry au, 
 
        Potential amp.       -0.1313 Ry
        Total length         46.3494 bohr
 

     total cpu time spent up to now is      598.9 secs

     total energy              =   -2952.65776031 Ry
     estimated scf accuracy    <       0.15774106 Ry

     iteration # 36     ecut=    29.40 Ry     beta= 0.05
     Davidson diagonalization with overlap
     c_bands:  1 eigenvalues not converged
     ethr =  3.97E-05,  avg # of iterations =  7.9

     negative rho (up, down):  1.111E-02 0.000E+00
 
     Adding external electric field

     Computed dipole along edir(3) : 
        Dipole                0.4335 Ry au,          1.1019 Debye
        Dipole field          0.0008 Ry au, 
 
        Potential amp.       -0.0758 Ry
        Total length         46.3494 bohr
 

     total cpu time spent up to now is      611.9 secs

     total energy              =   -2952.63880221 Ry
     estimated scf accuracy    <       1.92100684 Ry

     iteration # 37     ecut=    29.40 Ry     beta= 0.05
     Davidson diagonalization with overlap
     c_bands:  1 eigenvalues not converged
     c_bands:  4 eigenvalues not converged
     ethr =  3.97E-05,  avg # of iterations = 13.0

     negative rho (up, down):  6.785E-03 0.000E+00
 
     Adding external electric field

     Computed dipole along edir(3) : 
        Dipole                0.3893 Ry au,          0.9896 Debye
        Dipole field          0.0007 Ry au, 
 
        Potential amp.       -0.0681 Ry
        Total length         46.3494 bohr
 

     total cpu time spent up to now is      627.2 secs

     total energy              =   -2952.63792227 Ry
     estimated scf accuracy    <       0.36158104 Ry

     iteration # 38     ecut=    29.40 Ry     beta= 0.05
     Davidson diagonalization with overlap
     c_bands:  3 eigenvalues not converged
     c_bands:  5 eigenvalues not converged
     c_bands:  2 eigenvalues not converged
     c_bands:  1 eigenvalues not converged
     ethr =  3.97E-05,  avg # of iterations = 15.2

     negative rho (up, down):  1.007E-02 0.000E+00
 
     Adding external electric field

     Computed dipole along edir(3) : 
        Dipole                0.3804 Ry au,          0.9670 Debye
        Dipole field          0.0007 Ry au, 
 
        Potential amp.       -0.0666 Ry
        Total length         46.3494 bohr
 

     total cpu time spent up to now is      643.9 secs

     total energy              =   -2952.63282749 Ry
     estimated scf accuracy    <       0.29880441 Ry

     iteration # 39     ecut=    29.40 Ry     beta= 0.05
     Davidson diagonalization with overlap
     c_bands:  2 eigenvalues not converged
     c_bands:  2 eigenvalues not converged
     c_bands:  1 eigenvalues not converged
     c_bands:  2 eigenvalues not converged
     c_bands:  2 eigenvalues not converged
     ethr =  3.97E-05,  avg # of iterations = 15.3

     negative rho (up, down):  1.014E-02 0.000E+00
 
     Adding external electric field

     Computed dipole along edir(3) : 
        Dipole                0.3777 Ry au,          0.9599 Debye
        Dipole field          0.0007 Ry au, 
 
        Potential amp.       -0.0661 Ry
        Total length         46.3494 bohr
 

     total cpu time spent up to now is      659.4 secs

     total energy              =   -2952.64178051 Ry
     estimated scf accuracy    <       0.05715555 Ry

     iteration # 40     ecut=    29.40 Ry     beta= 0.05
     Davidson diagonalization with overlap
     c_bands:  4 eigenvalues not converged
     c_bands:  3 eigenvalues not converged
     c_bands:  2 eigenvalues not converged
     ethr =  1.44E-05,  avg # of iterations = 13.9

     negative rho (up, down):  8.811E-03 0.000E+00
 
     Adding external electric field

     Computed dipole along edir(3) : 
        Dipole                0.3144 Ry au,          0.7991 Debye
        Dipole field          0.0006 Ry au, 
 
        Potential amp.       -0.0550 Ry
        Total length         46.3494 bohr
 

     total cpu time spent up to now is      675.1 secs

     total energy              =   -2952.64343940 Ry
     estimated scf accuracy    <       0.03077176 Ry

     iteration # 41     ecut=    29.40 Ry     beta= 0.05
     Davidson diagonalization with overlap
     ethr =  7.75E-06,  avg # of iterations = 10.0

     negative rho (up, down):  9.443E-03 0.000E+00
 
     Adding external electric field

     Computed dipole along edir(3) : 
        Dipole                0.2970 Ry au,          0.7549 Debye
        Dipole field          0.0006 Ry au, 
 
        Potential amp.       -0.0520 Ry
        Total length         46.3494 bohr
 

     total cpu time spent up to now is      689.2 secs

     total energy              =   -2952.64508386 Ry
     estimated scf accuracy    <       0.02525440 Ry

     iteration # 42     ecut=    29.40 Ry     beta= 0.05
     Davidson diagonalization with overlap
     ethr =  6.36E-06,  avg # of iterations =  5.0

     negative rho (up, down):  1.062E-02 0.000E+00
 
     Adding external electric field

     Computed dipole along edir(3) : 
        Dipole                0.2208 Ry au,          0.5613 Debye
        Dipole field          0.0004 Ry au, 
 
        Potential amp.       -0.0386 Ry
        Total length         46.3494 bohr
 

     total cpu time spent up to now is      700.7 secs

     total energy              =   -2952.64536882 Ry
     estimated scf accuracy    <       0.01897188 Ry

     iteration # 43     ecut=    29.40 Ry     beta= 0.05
     Davidson diagonalization with overlap
     c_bands:  2 eigenvalues not converged
     c_bands:  1 eigenvalues not converged
     ethr =  4.78E-06,  avg # of iterations = 13.4

     negative rho (up, down):  1.371E-02 0.000E+00
 
     Adding external electric field

     Computed dipole along edir(3) : 
        Dipole                0.1997 Ry au,          0.5077 Debye
        Dipole field          0.0004 Ry au, 
 
        Potential amp.       -0.0349 Ry
        Total length         46.3494 bohr
 

     total cpu time spent up to now is      719.6 secs

     total energy              =   -2952.64039950 Ry
     estimated scf accuracy    <       0.04293992 Ry

     iteration # 44     ecut=    29.40 Ry     beta= 0.05
     Davidson diagonalization with overlap
     c_bands:  3 eigenvalues not converged
     c_bands:  1 eigenvalues not converged
     ethr =  4.78E-06,  avg # of iterations = 13.4

     negative rho (up, down):  1.138E-02 0.000E+00
 
     Adding external electric field

     Computed dipole along edir(3) : 
        Dipole                0.2040 Ry au,          0.5184 Debye
        Dipole field          0.0004 Ry au, 
 
        Potential amp.       -0.0357 Ry
        Total length         46.3494 bohr
 

     total cpu time spent up to now is      738.7 secs

     total energy              =   -2952.64502816 Ry
     estimated scf accuracy    <       0.06310985 Ry

     iteration # 45     ecut=    29.40 Ry     beta= 0.05
     Davidson diagonalization with overlap
     c_bands:  1 eigenvalues not converged
     ethr =  4.78E-06,  avg # of iterations =  8.5

     negative rho (up, down):  1.173E-02 0.000E+00
 
     Adding external electric field

     Computed dipole along edir(3) : 
        Dipole                0.2158 Ry au,          0.5485 Debye
        Dipole field          0.0004 Ry au, 
 
        Potential amp.       -0.0378 Ry
        Total length         46.3494 bohr
 

     total cpu time spent up to now is      751.3 secs

     total energy              =   -2952.64631449 Ry
     estimated scf accuracy    <       0.00995284 Ry

     iteration # 46     ecut=    29.40 Ry     beta= 0.05
     Davidson diagonalization with overlap
     c_bands:  1 eigenvalues not converged
     ethr =  2.51E-06,  avg # of iterations =  5.9

     negative rho (up, down):  1.394E-02 0.000E+00
 
     Adding external electric field

     Computed dipole along edir(3) : 
        Dipole                0.2511 Ry au,          0.6382 Debye
        Dipole field          0.0005 Ry au, 
 
        Potential amp.       -0.0439 Ry
        Total length         46.3494 bohr
 

     total cpu time spent up to now is      763.0 secs

     total energy              =   -2952.64636024 Ry
     estimated scf accuracy    <       0.00761965 Ry

     iteration # 47     ecut=    29.40 Ry     beta= 0.05
     Davidson diagonalization with overlap
     ethr =  1.92E-06,  avg # of iterations =  7.8

     negative rho (up, down):  1.278E-02 0.000E+00
 
     Adding external electric field

     Computed dipole along edir(3) : 
        Dipole                0.2416 Ry au,          0.6141 Debye
        Dipole field          0.0005 Ry au, 
 
        Potential amp.       -0.0423 Ry
        Total length         46.3494 bohr
 

     total cpu time spent up to now is      777.5 secs

     total energy              =   -2952.64665484 Ry
     estimated scf accuracy    <       0.00671161 Ry

     iteration # 48     ecut=    29.40 Ry     beta= 0.05
     Davidson diagonalization with overlap
     ethr =  1.69E-06,  avg # of iterations =  6.6

     negative rho (up, down):  1.262E-02 0.000E+00
 
     Adding external electric field

     Computed dipole along edir(3) : 
        Dipole                0.2514 Ry au,          0.6389 Debye
        Dipole field          0.0005 Ry au, 
 
        Potential amp.       -0.0440 Ry
        Total length         46.3494 bohr
 

     total cpu time spent up to now is      789.8 secs

     total energy              =   -2952.64719494 Ry
     estimated scf accuracy    <       0.00415501 Ry

     iteration # 49     ecut=    29.40 Ry     beta= 0.05
     Davidson diagonalization with overlap
     ethr =  1.05E-06,  avg # of iterations =  1.9

     negative rho (up, down):  1.390E-02 0.000E+00
 
     Adding external electric field

     Computed dipole along edir(3) : 
        Dipole                0.3508 Ry au,          0.8917 Debye
        Dipole field          0.0007 Ry au, 
 
        Potential amp.       -0.0614 Ry
        Total length         46.3494 bohr
 

     total cpu time spent up to now is      800.3 secs

     total energy              =   -2952.64658101 Ry
     estimated scf accuracy    <       0.00394371 Ry

     iteration # 50     ecut=    29.40 Ry     beta= 0.05
     Davidson diagonalization with overlap
     ethr =  9.93E-07,  avg # of iterations =  6.0

     negative rho (up, down):  1.465E-02 0.000E+00
 
     Adding external electric field

     Computed dipole along edir(3) : 
        Dipole                0.3551 Ry au,          0.9026 Debye
        Dipole field          0.0007 Ry au, 
 
        Potential amp.       -0.0621 Ry
        Total length         46.3494 bohr
 

     total cpu time spent up to now is      814.3 secs

     total energy              =   -2952.64729359 Ry
     estimated scf accuracy    <       0.00133490 Ry

     iteration # 51     ecut=    29.40 Ry     beta= 0.05
     Davidson diagonalization with overlap
     ethr =  3.36E-07,  avg # of iterations =  4.1

     negative rho (up, down):  1.567E-02 0.000E+00
 
     Adding external electric field

     Computed dipole along edir(3) : 
        Dipole                0.3336 Ry au,          0.8479 Debye
        Dipole field          0.0006 Ry au, 
 
        Potential amp.       -0.0584 Ry
        Total length         46.3494 bohr
 

     total cpu time spent up to now is      826.1 secs

     total energy              =   -2952.64722513 Ry
     estimated scf accuracy    <       0.00113505 Ry

     iteration # 52     ecut=    29.40 Ry     beta= 0.05
     Davidson diagonalization with overlap
     ethr =  2.86E-07,  avg # of iterations =  5.3

     negative rho (up, down):  1.608E-02 0.000E+00
 
     Adding external electric field

     Computed dipole along edir(3) : 
        Dipole                0.3288 Ry au,          0.8357 Debye
        Dipole field          0.0006 Ry au, 
 
        Potential amp.       -0.0575 Ry
        Total length         46.3494 bohr
 

     total cpu time spent up to now is      838.2 secs

     total energy              =   -2952.64729123 Ry
     estimated scf accuracy    <       0.00023828 Ry

     iteration # 53     ecut=    29.40 Ry     beta= 0.05
     Davidson diagonalization with overlap
     ethr =  6.00E-08,  avg # of iterations =  6.1

     negative rho (up, down):  1.606E-02 0.000E+00
 
     Adding external electric field

     Computed dipole along edir(3) : 
        Dipole                0.3508 Ry au,          0.8918 Debye
        Dipole field          0.0007 Ry au, 
 
        Potential amp.       -0.0614 Ry
        Total length         46.3494 bohr
 

     total cpu time spent up to now is      853.0 secs

     total energy              =   -2952.64730673 Ry
     estimated scf accuracy    <       0.00027316 Ry

     iteration # 54     ecut=    29.40 Ry     beta= 0.05
     Davidson diagonalization with overlap
     ethr =  6.00E-08,  avg # of iterations =  5.3

     negative rho (up, down):  1.607E-02 0.000E+00
 
     Adding external electric field

     Computed dipole along edir(3) : 
        Dipole                0.3448 Ry au,          0.8764 Debye
        Dipole field          0.0007 Ry au, 
 
        Potential amp.       -0.0603 Ry
        Total length         46.3494 bohr
 

     total cpu time spent up to now is      867.7 secs

     total energy              =   -2952.64733986 Ry
     estimated scf accuracy    <       0.00014673 Ry

     iteration # 55     ecut=    29.40 Ry     beta= 0.05
     Davidson diagonalization with overlap
     ethr =  3.70E-08,  avg # of iterations =  2.0

     negative rho (up, down):  1.614E-02 0.000E+00
 
     Adding external electric field

     Computed dipole along edir(3) : 
        Dipole                0.3449 Ry au,          0.8767 Debye
        Dipole field          0.0007 Ry au, 
 
        Potential amp.       -0.0603 Ry
        Total length         46.3494 bohr
 

     total cpu time spent up to now is      878.9 secs

     total energy              =   -2952.64734385 Ry
     estimated scf accuracy    <       0.00007728 Ry

     iteration # 56     ecut=    29.40 Ry     beta= 0.05
     Davidson diagonalization with overlap
     ethr =  1.95E-08,  avg # of iterations =  5.2

     negative rho (up, down):  1.634E-02 0.000E+00
 
     Adding external electric field

     Computed dipole along edir(3) : 
        Dipole                0.3521 Ry au,          0.8950 Debye
        Dipole field          0.0007 Ry au, 
 
        Potential amp.       -0.0616 Ry
        Total length         46.3494 bohr
 

     total cpu time spent up to now is      894.3 secs

     total energy              =   -2952.64736959 Ry
     estimated scf accuracy    <       0.00006816 Ry

     iteration # 57     ecut=    29.40 Ry     beta= 0.05
     Davidson diagonalization with overlap
     ethr =  1.72E-08,  avg # of iterations =  3.1

     negative rho (up, down):  1.647E-02 0.000E+00
 
     Adding external electric field

     Computed dipole along edir(3) : 
        Dipole                0.3561 Ry au,          0.9051 Debye
        Dipole field          0.0007 Ry au, 
 
        Potential amp.       -0.0623 Ry
        Total length         46.3494 bohr
 

     total cpu time spent up to now is      905.9 secs

     total energy              =   -2952.64738055 Ry
     estimated scf accuracy    <       0.00003001 Ry

     iteration # 58     ecut=    29.40 Ry     beta= 0.05
     Davidson diagonalization with overlap
     ethr =  7.56E-09,  avg # of iterations =  5.0

     negative rho (up, down):  1.649E-02 0.000E+00
 
     Adding external electric field

     Computed dipole along edir(3) : 
        Dipole                0.3537 Ry au,          0.8991 Debye
        Dipole field          0.0007 Ry au, 
 
        Potential amp.       -0.0619 Ry
        Total length         46.3494 bohr
 

     total cpu time spent up to now is      920.7 secs

     total energy              =   -2952.64738727 Ry
     estimated scf accuracy    <       0.00003331 Ry

     iteration # 59     ecut=    29.40 Ry     beta= 0.05
     Davidson diagonalization with overlap
     ethr =  7.56E-09,  avg # of iterations =  5.0

     negative rho (up, down):  1.671E-02 0.000E+00
 
     Adding external electric field

     Computed dipole along edir(3) : 
        Dipole                0.3562 Ry au,          0.9053 Debye
        Dipole field          0.0007 Ry au, 
 
        Potential amp.       -0.0623 Ry
        Total length         46.3494 bohr
 

     total cpu time spent up to now is      933.6 secs

     total energy              =   -2952.64739842 Ry
     estimated scf accuracy    <       0.00001373 Ry

     iteration # 60     ecut=    29.40 Ry     beta= 0.05
     Davidson diagonalization with overlap
     ethr =  3.46E-09,  avg # of iterations =  6.2

     negative rho (up, down):  1.683E-02 0.000E+00
 
     Adding external electric field

     Computed dipole along edir(3) : 
        Dipole                0.3585 Ry au,          0.9112 Debye
        Dipole field          0.0007 Ry au, 
 
        Potential amp.       -0.0627 Ry
        Total length         46.3494 bohr
 

     total cpu time spent up to now is      951.0 secs

     total energy              =   -2952.64740960 Ry
     estimated scf accuracy    <       0.00002762 Ry

     iteration # 61     ecut=    29.40 Ry     beta= 0.05
     Davidson diagonalization with overlap
     ethr =  3.46E-09,  avg # of iterations =  1.5

     negative rho (up, down):  1.683E-02 0.000E+00
 
     Adding external electric field

     Computed dipole along edir(3) : 
        Dipole                0.3598 Ry au,          0.9146 Debye
        Dipole field          0.0007 Ry au, 
 
        Potential amp.       -0.0629 Ry
        Total length         46.3494 bohr
 

     total cpu time spent up to now is      961.4 secs

     total energy              =   -2952.64741144 Ry
     estimated scf accuracy    <       0.00002590 Ry

     iteration # 62     ecut=    29.40 Ry     beta= 0.05
     Davidson diagonalization with overlap
     ethr =  3.46E-09,  avg # of iterations =  2.3

     negative rho (up, down):  1.682E-02 0.000E+00
 
     Adding external electric field

     Computed dipole along edir(3) : 
        Dipole                0.3598 Ry au,          0.9146 Debye
        Dipole field          0.0007 Ry au, 
 
        Potential amp.       -0.0629 Ry
        Total length         46.3494 bohr
 

     total cpu time spent up to now is      972.5 secs

     total energy              =   -2952.64741554 Ry
     estimated scf accuracy    <       0.00001589 Ry

     iteration # 63     ecut=    29.40 Ry     beta= 0.05
     Davidson diagonalization with overlap
     ethr =  3.46E-09,  avg # of iterations =  1.4

     negative rho (up, down):  1.686E-02 0.000E+00
 
     Adding external electric field

     Computed dipole along edir(3) : 
        Dipole                0.3609 Ry au,          0.9174 Debye
        Dipole field          0.0007 Ry au, 
 
        Potential amp.       -0.0631 Ry
        Total length         46.3494 bohr
 

     total cpu time spent up to now is      982.8 secs

     total energy              =   -2952.64741757 Ry
     estimated scf accuracy    <       0.00001214 Ry

     iteration # 64     ecut=    29.40 Ry     beta= 0.05
     Davidson diagonalization with overlap
     ethr =  3.06E-09,  avg # of iterations =  4.8

     negative rho (up, down):  1.687E-02 0.000E+00
 
     Adding external electric field

     Computed dipole along edir(3) : 
        Dipole                0.3611 Ry au,          0.9179 Debye
        Dipole field          0.0007 Ry au, 
 
        Potential amp.       -0.0632 Ry
        Total length         46.3494 bohr
 

     total cpu time spent up to now is      995.8 secs

     total energy              =   -2952.64742185 Ry
     estimated scf accuracy    <       0.00000333 Ry

     iteration # 65     ecut=    29.40 Ry     beta= 0.05
     Davidson diagonalization with overlap
     ethr =  8.39E-10,  avg # of iterations =  5.4

     negative rho (up, down):  1.688E-02 0.000E+00
 
     Adding external electric field

     Computed dipole along edir(3) : 
        Dipole                0.3610 Ry au,          0.9176 Debye
        Dipole field          0.0007 Ry au, 
 
        Potential amp.       -0.0632 Ry
        Total length         46.3494 bohr
 

     total cpu time spent up to now is     1012.1 secs

     total energy              =   -2952.64742581 Ry
     estimated scf accuracy    <       0.00000235 Ry

     iteration # 66     ecut=    29.40 Ry     beta= 0.05
     Davidson diagonalization with overlap
     ethr =  5.92E-10,  avg # of iterations =  1.1

     negative rho (up, down):  1.690E-02 0.000E+00
 
     Adding external electric field

     Computed dipole along edir(3) : 
        Dipole                0.3602 Ry au,          0.9157 Debye
        Dipole field          0.0007 Ry au, 
 
        Potential amp.       -0.0630 Ry
        Total length         46.3494 bohr
 

     total cpu time spent up to now is     1022.2 secs

     total energy              =   -2952.64742841 Ry
     estimated scf accuracy    <       0.00000146 Ry

     iteration # 67     ecut=    29.40 Ry     beta= 0.05
     Davidson diagonalization with overlap
     ethr =  3.67E-10,  avg # of iterations =  6.7

     negative rho (up, down):  1.691E-02 0.000E+00
 
     Adding external electric field

     Computed dipole along edir(3) : 
        Dipole                0.3609 Ry au,          0.9173 Debye
        Dipole field          0.0007 Ry au, 
 
        Potential amp.       -0.0631 Ry
        Total length         46.3494 bohr
 

     total cpu time spent up to now is     1040.9 secs

     total energy              =   -2952.64743103 Ry
     estimated scf accuracy    <       0.00000345 Ry

     iteration # 68     ecut=    29.40 Ry     beta= 0.05
     Davidson diagonalization with overlap
     ethr =  3.67E-10,  avg # of iterations =  5.0

     negative rho (up, down):  1.691E-02 0.000E+00
 
     Adding external electric field

     Computed dipole along edir(3) : 
        Dipole                0.3608 Ry au,          0.9171 Debye
        Dipole field          0.0007 Ry au, 
 
        Potential amp.       -0.0631 Ry
        Total length         46.3494 bohr
 

     total cpu time spent up to now is     1055.5 secs

     total energy              =   -2952.64743363 Ry
     estimated scf accuracy    <       0.00000039 Ry

     iteration # 69     ecut=    29.40 Ry     beta= 0.05
     Davidson diagonalization with overlap
     ethr =  9.70E-11,  avg # of iterations =  5.0

     negative rho (up, down):  1.691E-02 0.000E+00
 
     Adding external electric field

     Computed dipole along edir(3) : 
        Dipole                0.3607 Ry au,          0.9167 Debye
        Dipole field          0.0007 Ry au, 
 
        Potential amp.       -0.0631 Ry
        Total length         46.3494 bohr
 

     total cpu time spent up to now is     1073.1 secs

     total energy              =   -2952.64743593 Ry
     estimated scf accuracy    <       0.00000050 Ry

     iteration # 70     ecut=    29.40 Ry     beta= 0.05
     Davidson diagonalization with overlap
     ethr =  9.70E-11,  avg # of iterations =  1.6

     negative rho (up, down):  1.691E-02 0.000E+00
 
     Adding external electric field

     Computed dipole along edir(3) : 
        Dipole                0.3604 Ry au,          0.9160 Debye
        Dipole field          0.0007 Ry au, 
 
        Potential amp.       -0.0630 Ry
        Total length         46.3494 bohr
 

     total cpu time spent up to now is     1083.6 secs

     total energy              =   -2952.64743771 Ry
     estimated scf accuracy    <       0.00000047 Ry

     iteration # 71     ecut=    29.40 Ry     beta= 0.05
     Davidson diagonalization with overlap
     ethr =  9.70E-11,  avg # of iterations =  5.0

     negative rho (up, down):  1.692E-02 0.000E+00
 
     Adding external electric field

     Computed dipole along edir(3) : 
        Dipole                0.3604 Ry au,          0.9161 Debye
        Dipole field          0.0007 Ry au, 
 
        Potential amp.       -0.0631 Ry
        Total length         46.3494 bohr
 

     total cpu time spent up to now is     1097.8 secs

     total energy              =   -2952.64743950 Ry
     estimated scf accuracy    <       0.00000008 Ry

     iteration # 72     ecut=    29.40 Ry     beta= 0.05
     Davidson diagonalization with overlap
     ethr =  1.98E-11,  avg # of iterations =  4.9

     negative rho (up, down):  1.696E-02 0.000E+00
 
     Adding external electric field

     Computed dipole along edir(3) : 
        Dipole                0.3600 Ry au,          0.9151 Debye
        Dipole field          0.0007 Ry au, 
 
        Potential amp.       -0.0630 Ry
        Total length         46.3494 bohr
 

     total cpu time spent up to now is     1111.0 secs

     End of self-consistent calculation

          k = 0.0000 0.0000 0.0000 ( 18029 PWs)   bands (ev):

   -56.8769 -56.8433 -55.9464 -55.9108 -55.7359 -55.6711 -55.5491 -55.4280
   -55.3941 -55.3130 -55.3107 -55.2403 -55.2189 -55.1146 -55.0465 -54.9183
   -33.2956 -33.1471 -33.1190 -33.0566 -32.9664 -32.9227 -32.4276 -32.2111
   -32.1666 -32.1463 -32.0909 -32.0824 -32.0569 -31.9697 -31.9482 -31.9060
   -31.8904 -31.8736 -31.8333 -31.8058 -31.7949 -31.7930 -31.7804 -31.7750
   -31.7505 -31.7298 -31.6650 -31.6321 -31.5900 -31.5818 -31.5518 -31.5280
   -31.5155 -31.5075 -31.4746 -31.4654 -31.4404 -31.4300 -31.4079 -31.3939
   -31.3554 -31.3053 -31.2979 -31.2822 -31.2502 -31.1903 -31.1549 -31.1017
   -16.9794 -16.4631 -16.4171 -16.1930 -16.0704 -16.0642 -16.0189 -15.9562
   -15.7840 -15.7289 -15.6897 -15.6263 -15.4744 -15.3646 -15.2676 -15.0709
   -15.0359 -15.0045 -15.0021 -14.9895 -14.9582 -14.9459 -14.8701 -14.8196
   -14.7887 -14.7066 -14.6992 -14.5386 -14.3092 -14.2865 -13.9256 -13.8186
   -13.7800  -8.0369  -4.5552  -4.0901  -3.8855  -3.7104  -3.5611  -3.4878
    -3.4616  -3.3951  -3.3805  -3.2384  -3.2356  -3.2251  -3.2228  -3.1388
    -3.0720  -3.0163  -2.9268  -2.9112  -2.8203  -2.7698  -2.6109  -2.5757
    -2.4883  -2.4097  -2.4042  -2.3383  -2.3186  -2.2771  -2.2410  -2.2098
    -2.1809  -2.1381  -2.0833  -2.0744  -1.9780  -1.9717  -1.8907  -1.8745
    -1.8670  -1.7469  -1.7078  -1.6484  -1.5086  -1.4875  -1.4700  -1.4395
    -1.4004  -1.3405  -1.2349  -1.1777  -1.1490  -1.0958  -1.0253  -0.9684
    -0.9483  -0.8740  -0.8475  -0.7729  -0.7289  -0.7152  -0.6945  -0.6693
    -0.5315  -0.4495  -0.4143  -0.3623  -0.3473  -0.3083  -0.2834  -0.2278
    -0.1700  -0.1479  -0.0490  -0.0468   0.0907   0.1570   0.1597   0.2586
     0.3029   0.3096   0.3664   0.4347   0.4467   0.5103   0.5302   0.5884
     0.5933   0.6368   0.7200   0.7973   0.8406   0.8700   0.9110   0.9314
     1.0433   1.0680   1.1306   1.1871   1.4955   1.5702   2.1752   2.4178
     2.5897   2.8671   3.0630   3.3628   3.4037   3.4219   3.4221   3.7326

          k = 0.0000 0.0419 0.0000 ( 17933 PWs)   bands (ev):

   -56.8719 -56.8482 -55.9418 -55.9153 -55.7335 -55.6733 -55.5487 -55.4230
   -55.3990 -55.3133 -55.3085 -55.2424 -55.2180 -55.1138 -55.0472 -54.9190
   -33.2423 -33.1428 -33.1228 -33.0434 -32.9796 -32.9784 -32.3752 -32.1583
   -32.1550 -32.1378 -32.1158 -32.0981 -32.0900 -31.9665 -31.9421 -31.9018
   -31.8884 -31.8807 -31.8637 -31.7927 -31.7776 -31.7713 -31.7584 -31.7539
   -31.7395 -31.7075 -31.6419 -31.6204 -31.5690 -31.5635 -31.5540 -31.5483
   -31.5282 -31.5039 -31.4969 -31.4802 -31.4711 -31.4639 -31.4313 -31.3922
   -31.3548 -31.3360 -31.3003 -31.2934 -31.2495 -31.2168 -31.1552 -31.1228
   -16.8590 -16.4584 -16.3141 -16.2389 -16.1331 -16.0004 -15.9869 -15.8491
   -15.8440 -15.6613 -15.6493 -15.6041 -15.4187 -15.3779 -15.3095 -15.1548
   -15.0782 -15.0440 -15.0268 -14.9820 -14.9678 -14.8865 -14.8845 -14.8204
   -14.7670 -14.7482 -14.7160 -14.5983 -14.3853 -14.3425 -13.9342 -13.8604
   -13.7939  -8.0370  -4.3732  -4.0882  -3.7104  -3.5677  -3.5209  -3.4784
    -3.3447  -3.3399  -3.3043  -3.2909  -3.2376  -3.2110  -3.1186  -3.0789
    -2.9859  -2.9544  -2.9169  -2.8579  -2.7804  -2.7686  -2.7345  -2.6094
    -2.5359  -2.5280  -2.4975  -2.4410  -2.3764  -2.3516  -2.3297  -2.2296
    -2.2097  -2.1844  -2.1147  -2.0461  -2.0170  -1.9926  -1.9164  -1.8686
    -1.7293  -1.7086  -1.6367  -1.6179  -1.5629  -1.4929  -1.4339  -1.4039
    -1.3443  -1.2506  -1.2187  -1.2021  -1.1076  -1.0742  -1.0418  -0.9787
    -0.9377  -0.8564  -0.7541  -0.7312  -0.6732  -0.6307  -0.5835  -0.4948
    -0.4753  -0.4577  -0.4432  -0.3952  -0.3465  -0.2792  -0.2589  -0.2393
    -0.2192  -0.1975  -0.1420  -0.0874  -0.0165   0.0437   0.0747   0.1613
     0.1926   0.2383   0.2701   0.2864   0.3243   0.3830   0.4242   0.4485
     0.4800   0.5801   0.6506   0.6927   0.7495   0.8660   0.8987   0.9360
     0.9854   0.9980   1.0810   1.0904   1.4208   1.4844   2.1541   2.6885
     2.6917   2.8829   3.2473   3.2560   3.2891   3.3700   3.5786   3.7325

          k = 0.0000-0.0839 0.0000 ( 17884 PWs)   bands (ev):

   -56.8607 -56.8593 -55.9344 -55.9226 -55.7310 -55.6757 -55.5483 -55.4117
   -55.4102 -55.3136 -55.3061 -55.2446 -55.2172 -55.1130 -55.0480 -54.9196
   -33.1335 -33.1320 -33.1124 -33.1110 -33.0121 -33.0109 -32.2521 -32.2418
   -32.1289 -32.1213 -32.1164 -32.1130 -32.0494 -32.0012 -31.9627 -31.9341
   -31.8997 -31.8896 -31.8330 -31.7908 -31.7735 -31.7629 -31.7619 -31.6858
   -31.6319 -31.6310 -31.6303 -31.6021 -31.5937 -31.5916 -31.5891 -31.5753
   -31.5496 -31.5330 -31.5107 -31.5010 -31.4847 -31.4672 -31.4339 -31.3945
   -31.3908 -31.3542 -31.3072 -31.2922 -31.2591 -31.2488 -31.1553 -31.1395
   -16.5607 -16.5592 -16.4548 -16.1065 -16.0985 -15.9887 -15.9885 -15.8226
   -15.7958 -15.6491 -15.5519 -15.5186 -15.4604 -15.3674 -15.3300 -15.2062
   -15.1869 -15.1660 -15.1071 -14.9278 -14.8837 -14.8711 -14.8504 -14.8242
   -14.7446 -14.7402 -14.7239 -14.6866 -14.4959 -14.4225 -13.9235 -13.9227
   -13.8071  -8.0371  -4.0864  -3.9183  -3.9180  -3.4766  -3.4097  -3.4072
    -3.3487  -3.3390  -3.2670  -3.2649  -3.2362  -3.0895  -3.0072  -2.9914
    -2.9206  -2.8626  -2.8433  -2.8367  -2.8203  -2.7325  -2.7213  -2.6841
    -2.6253  -2.5228  -2.5154  -2.5014  -2.4246  -2.3839  -2.2980  -2.2464
    -2.2140  -2.1540  -2.1483  -2.1173  -2.1017  -2.0887  -1.9910  -1.9831
    -1.7601  -1.6646  -1.6130  -1.5754  -1.4874  -1.4072  -1.3711  -1.2987
    -1.2435  -1.1761  -1.1304  -1.1034  -1.0816  -1.0254  -0.9641  -0.9525
    -0.9386  -0.8998  -0.8453  -0.8159  -0.7121  -0.6953  -0.6415  -0.6268
    -0.5966  -0.5196  -0.4958  -0.4066  -0.3717  -0.3389  -0.2821  -0.2527
    -0.2312  -0.1987  -0.1205  -0.0444  -0.0026   0.0443   0.0742   0.1151
     0.1408   0.1606   0.1977   0.2310   0.2372   0.2612   0.2956   0.3573
     0.3874   0.4593   0.5628   0.6062   0.6158   0.7480   0.9078   0.9756
     0.9853   1.0172   1.0466   1.1655   1.3074   1.3979   2.1318   2.9437
     2.9451   3.0649   3.0658   3.1260   3.1269   3.5041   3.5125   3.7601

          k = 0.0380 0.0000 0.0000 ( 17913 PWs)   bands (ev):

   -56.8768 -56.8432 -55.9462 -55.9107 -55.7358 -55.6710 -55.5490 -55.4279
   -55.3940 -55.3129 -55.3106 -55.2401 -55.2189 -55.1145 -55.0464 -54.9182
   -33.2961 -33.1469 -33.1189 -33.0548 -32.9661 -32.9224 -32.4277 -32.2211
   -32.1663 -32.1338 -32.0825 -32.0791 -32.0566 -31.9696 -31.9604 -31.9058
   -31.8916 -31.8741 -31.8330 -31.8055 -31.7956 -31.7942 -31.7787 -31.7773
   -31.7488 -31.7299 -31.6652 -31.6319 -31.5911 -31.5714 -31.5517 -31.5241
   -31.5148 -31.5071 -31.4746 -31.4595 -31.4401 -31.4300 -31.4129 -31.3977
   -31.3577 -31.3052 -31.2978 -31.2822 -31.2528 -31.1902 -31.1552 -31.1015
   -16.8773 -16.4596 -16.3502 -16.3490 -16.1335 -16.0166 -15.9208 -15.9077
   -15.8466 -15.6501 -15.6396 -15.6122 -15.5292 -15.5062 -15.1614 -15.1222
   -15.1163 -15.1075 -15.0701 -14.9954 -14.9623 -14.8844 -14.8749 -14.8242
   -14.7392 -14.7015 -14.6479 -14.5955 -14.3046 -14.2853 -13.9230 -13.8182
   -13.7769  -8.0351  -4.2709  -4.0832  -3.7835  -3.7130  -3.5469  -3.5217
    -3.4870  -3.3836  -3.2888  -3.2381  -3.2109  -3.2072  -3.0907  -3.0474
    -2.9939  -2.9779  -2.9428  -2.8212  -2.7602  -2.7443  -2.7113  -2.6450
    -2.5871  -2.5259  -2.3602  -2.3343  -2.2324  -2.2212  -2.1527  -2.1188
    -2.0912  -2.0817  -2.0583  -2.0245  -1.9625  -1.9102  -1.9004  -1.8866
    -1.8134  -1.7155  -1.7010  -1.6585  -1.5913  -1.5874  -1.4825  -1.3988
    -1.3363  -1.2769  -1.2333  -1.1559  -1.1312  -1.1175  -1.0561  -1.0179
    -0.9568  -0.9201  -0.8886  -0.8675  -0.8099  -0.8000  -0.7794  -0.6808
    -0.6467  -0.5727  -0.5558  -0.5059  -0.3529  -0.3024  -0.2750  -0.1927
    -0.1308  -0.1092  -0.0558   0.0121   0.0597   0.1179   0.1409   0.2046
     0.2464   0.2760   0.3013   0.3262   0.3762   0.4313   0.4661   0.5270
     0.6032   0.6218   0.6492   0.7601   0.7848   0.8179   0.8402   0.9013
     0.9206   0.9377   1.0308   1.0830   1.4402   1.5284   2.0849   2.5650
     2.5870   2.8663   3.0662   3.1366   3.4183   3.5049   3.5922   3.6276

          k = 0.0380 0.0419 0.0000 ( 17878 PWs)   bands (ev):

   -56.8718 -56.8481 -55.9417 -55.9152 -55.7335 -55.6732 -55.5486 -55.4229
   -55.3990 -55.3133 -55.3084 -55.2422 -55.2181 -55.1137 -55.0472 -54.9189
   -33.2429 -33.1426 -33.1228 -33.0419 -32.9793 -32.9784 -32.3754 -32.1731
   -32.1548 -32.1281 -32.1156 -32.0901 -32.0806 -31.9664 -31.9525 -31.9017
   -31.8873 -31.8830 -31.8645 -31.7927 -31.7761 -31.7731 -31.7581 -31.7529
   -31.7421 -31.7076 -31.6424 -31.6202 -31.5636 -31.5599 -31.5541 -31.5506
   -31.5228 -31.5036 -31.4968 -31.4759 -31.4707 -31.4631 -31.4313 -31.4001
   -31.3567 -31.3357 -31.3003 -31.2933 -31.2525 -31.2168 -31.1559 -31.1227
   -16.7625 -16.4564 -16.3298 -16.2594 -16.0955 -16.0808 -15.9422 -15.8906
   -15.7745 -15.6591 -15.6024 -15.5321 -15.4969 -15.4352 -15.2109 -15.1703
   -15.1541 -15.0978 -15.0553 -15.0002 -14.9779 -14.9599 -14.8643 -14.8043
   -14.7797 -14.7259 -14.6950 -14.6415 -14.3802 -14.3423 -13.9324 -13.8606
   -13.7917  -8.0358  -4.0933  -4.0918  -3.6330  -3.5434  -3.4739  -3.4336
    -3.3947  -3.3135  -3.2344  -3.2005  -3.1561  -3.1346  -3.0572  -2.9800
    -2.9469  -2.9025  -2.8741  -2.8473  -2.7632  -2.7209  -2.6674  -2.6004
    -2.5465  -2.5110  -2.4586  -2.4215  -2.3874  -2.3079  -2.2746  -2.2242
    -2.1544  -2.1287  -2.0916  -2.0280  -1.9944  -1.9640  -1.9074  -1.8761
    -1.7331  -1.7121  -1.6708  -1.6206  -1.5471  -1.5210  -1.5017  -1.4672
    -1.3589  -1.3282  -1.3127  -1.2562  -1.1595  -1.1141  -1.0015  -0.9749
    -0.9134  -0.8869  -0.8657  -0.7971  -0.7436  -0.7326  -0.6938  -0.6406
    -0.5916  -0.5741  -0.5310  -0.4837  -0.4413  -0.4100  -0.3307  -0.2976
    -0.2578  -0.2418  -0.2149  -0.0920  -0.0368   0.0026   0.0469   0.1378
     0.1672   0.2102   0.2356   0.2600   0.3015   0.3355   0.3690   0.4102
     0.4874   0.5703   0.6216   0.7565   0.8114   0.8363   0.8736   0.9223
     0.9484   1.0077   1.0129   1.0638   1.3728   1.4726   2.0731   2.6814
     2.8294   2.9290   3.1121   3.2738   3.3645   3.4069   3.6467   3.7587

          k = 0.0380-0.0839 0.0000 ( 17916 PWs)   bands (ev):

   -56.8607 -56.8593 -55.9344 -55.9226 -55.7310 -55.6757 -55.5483 -55.4117
   -55.4103 -55.3136 -55.3061 -55.2446 -55.2173 -55.1130 -55.0480 -54.9197
   -33.1335 -33.1320 -33.1130 -33.1115 -33.0114 -33.0102 -32.2523 -32.2421
   -32.1289 -32.1224 -32.1167 -32.1153 -32.0393 -31.9958 -31.9628 -31.9407
   -31.8998 -31.8952 -31.8335 -31.7912 -31.7725 -31.7635 -31.7625 -31.6859
   -31.6334 -31.6319 -31.6302 -31.6034 -31.5942 -31.5916 -31.5902 -31.5798
   -31.5419 -31.5300 -31.5104 -31.4907 -31.4845 -31.4666 -31.4341 -31.4011
   -31.3923 -31.3562 -31.3073 -31.2921 -31.2589 -31.2524 -31.1563 -31.1395
   -16.4916 -16.4899 -16.4536 -16.1366 -16.1334 -16.0319 -16.0273 -15.7969
   -15.7696 -15.6126 -15.5250 -15.4939 -15.4003 -15.3156 -15.2820 -15.2624
   -15.2444 -15.1907 -15.1149 -14.9811 -14.9495 -14.9163 -14.8716 -14.8407
   -14.7841 -14.7480 -14.7138 -14.6777 -14.4870 -14.4208 -13.9234 -13.9226
   -13.8051  -8.0364  -4.0901  -3.7072  -3.7058  -3.4726  -3.3511  -3.3428
    -3.3092  -3.3054  -3.2779  -3.0865  -3.0561  -3.0440  -2.9826  -2.9683
    -2.8707  -2.8264  -2.8053  -2.7485  -2.6907  -2.6537  -2.6246  -2.5554
    -2.5464  -2.5093  -2.4769  -2.3852  -2.3689  -2.3582  -2.3406  -2.2632
    -2.2343  -2.1858  -2.1522  -2.1242  -2.0653  -2.0387  -1.9699  -1.9210
    -1.8188  -1.7070  -1.6761  -1.6333  -1.5665  -1.4688  -1.3811  -1.3497
    -1.3327  -1.2955  -1.2785  -1.2404  -1.2153  -1.1799  -1.1534  -1.1281
    -1.0450  -0.9951  -0.9705  -0.8478  -0.8143  -0.7441  -0.7254  -0.6871
    -0.6652  -0.5866  -0.5170  -0.4807  -0.4347  -0.3948  -0.3294  -0.2958
    -0.2808  -0.2546  -0.2217  -0.2062  -0.1369  -0.0839  -0.0632  -0.0098
     0.0588   0.1068   0.2003   0.2169   0.3085   0.3455   0.3598   0.4009
     0.4547   0.5515   0.6099   0.7429   0.7863   0.8087   0.8641   0.9745
     0.9791   1.0111   1.0274   1.1637   1.2278   1.4482   2.0518   2.9513
     2.9536   3.0994   3.1014   3.2926   3.2936   3.4759   3.4838   3.8015

          k = 0.0380-0.0419 0.0000 ( 17876 PWs)   bands (ev):

   -56.8718 -56.8481 -55.9417 -55.9152 -55.7334 -55.6732 -55.5486 -55.4229
   -55.3990 -55.3133 -55.3084 -55.2422 -55.2181 -55.1137 -55.0472 -54.9189
   -33.2429 -33.1426 -33.1228 -33.0419 -32.9793 -32.9784 -32.3754 -32.1731
   -32.1548 -32.1281 -32.1155 -32.0901 -32.0805 -31.9664 -31.9526 -31.9017
   -31.8873 -31.8830 -31.8648 -31.7923 -31.7762 -31.7731 -31.7581 -31.7529
   -31.7421 -31.7076 -31.6424 -31.6202 -31.5636 -31.5599 -31.5558 -31.5488
   -31.5230 -31.5036 -31.4968 -31.4744 -31.4710 -31.4645 -31.4313 -31.3999
   -31.3570 -31.3358 -31.3003 -31.2933 -31.2525 -31.2167 -31.1558 -31.1227
   -16.7623 -16.4563 -16.3305 -16.2593 -16.0949 -16.0809 -15.9419 -15.8907
   -15.7732 -15.6591 -15.6020 -15.5294 -15.4974 -15.4369 -15.2111 -15.1770
   -15.1568 -15.1040 -15.0512 -15.0053 -14.9765 -14.9460 -14.8620 -14.8037
   -14.7841 -14.7262 -14.6936 -14.6412 -14.3810 -14.3429 -13.9324 -13.8607
   -13.7911  -8.0357  -4.0925  -4.0810  -3.6330  -3.5444  -3.4788  -3.4336
    -3.3942  -3.3248  -3.2345  -3.2007  -3.1585  -3.1346  -3.0574  -2.9804
    -2.9469  -2.9001  -2.8696  -2.8334  -2.7636  -2.7200  -2.6685  -2.6024
    -2.5482  -2.5112  -2.4592  -2.4329  -2.3973  -2.3154  -2.2781  -2.2406
    -2.1726  -2.1374  -2.0764  -2.0248  -1.9977  -1.9638  -1.9033  -1.8751
    -1.7299  -1.7129  -1.6609  -1.6167  -1.5416  -1.5245  -1.4951  -1.4282
    -1.3586  -1.3252  -1.3158  -1.2548  -1.1596  -1.1063  -1.0067  -0.9740
    -0.9181  -0.9001  -0.8688  -0.8058  -0.7367  -0.7176  -0.6955  -0.6696
    -0.5903  -0.5768  -0.5119  -0.4641  -0.4412  -0.4211  -0.3250  -0.2915
    -0.2405  -0.2240  -0.1694  -0.0847  -0.0457  -0.0246   0.0367   0.0902
     0.1529   0.2160   0.2233   0.2549   0.2895   0.3153   0.3833   0.4303
     0.4592   0.5689   0.6410   0.7600   0.8188   0.8424   0.8682   0.9117
     0.9511   1.0068   1.0125   1.0631   1.3889   1.4787   2.0710   2.6818
     2.8297   2.9291   3.1112   3.2737   3.3653   3.4066   3.6458   3.7581

          k =-0.0760-0.0000 0.0000 ( 17886 PWs)   bands (ev):

   -56.8767 -56.8432 -55.9461 -55.9107 -55.7358 -55.6710 -55.5490 -55.4279
   -55.3940 -55.3129 -55.3105 -55.2400 -55.2189 -55.1144 -55.0464 -54.9182
   -33.2968 -33.1467 -33.1188 -33.0529 -32.9663 -32.9224 -32.4279 -32.2297
   -32.1662 -32.1192 -32.0823 -32.0698 -32.0566 -31.9751 -31.9694 -31.9056
   -31.8929 -31.8749 -31.8330 -31.8052 -31.7981 -31.7937 -31.7795 -31.7772
   -31.7477 -31.7301 -31.6655 -31.6318 -31.5921 -31.5600 -31.5516 -31.5212
   -31.5137 -31.5068 -31.4745 -31.4512 -31.4402 -31.4314 -31.4235 -31.3997
   -31.3607 -31.3052 -31.2977 -31.2822 -31.2554 -31.1902 -31.1558 -31.1015
   -16.7256 -16.4568 -16.4331 -16.2868 -16.2632 -16.0143 -15.9532 -15.8201
   -15.7511 -15.6310 -15.6113 -15.5900 -15.5801 -15.5010 -15.2633 -15.2150
   -15.1989 -15.1640 -15.0088 -14.9998 -14.9656 -14.9132 -14.8392 -14.8241
   -14.7556 -14.6966 -14.6451 -14.5651 -14.3004 -14.2860 -13.9206 -13.8179
   -13.7741  -8.0333  -4.0761  -3.8785  -3.8744  -3.7716  -3.4892  -3.4674
    -3.3690  -3.3618  -3.3127  -3.2361  -3.1894  -3.1604  -3.0795  -2.9370
    -2.8978  -2.8864  -2.7845  -2.7580  -2.7202  -2.6750  -2.6246  -2.5588
    -2.5467  -2.4928  -2.4736  -2.4655  -2.3440  -2.2043  -2.1266  -2.1175
    -2.1088  -2.0206  -1.9783  -1.9499  -1.9233  -1.8905  -1.8825  -1.8544
    -1.8101  -1.7598  -1.7510  -1.7441  -1.6724  -1.5165  -1.4398  -1.3904
    -1.3787  -1.3327  -1.2683  -1.2275  -1.1650  -1.1442  -1.0744  -1.0307
    -0.9804  -0.9658  -0.9114  -0.9068  -0.8824  -0.8402  -0.7790  -0.7048
    -0.6734  -0.6627  -0.6006  -0.5916  -0.5355  -0.3687  -0.2914  -0.2252
    -0.2080  -0.1182  -0.0481  -0.0373  -0.0251   0.0363   0.1543   0.1747
     0.2146   0.2606   0.2696   0.3160   0.3839   0.3919   0.4750   0.4960
     0.5422   0.6201   0.6229   0.6650   0.7207   0.7803   0.8028   0.8404
     0.8594   0.9186   1.0111   1.1616   1.2003   1.5431   2.0203   2.5444
     2.6757   2.8127   2.8655   3.2248   3.4018   3.4299   3.6067   3.7913

          k =-0.0760 0.0419 0.0000 ( 17914 PWs)   bands (ev):

   -56.8718 -56.8481 -55.9416 -55.9153 -55.7335 -55.6733 -55.5486 -55.4229
   -55.3990 -55.3133 -55.3084 -55.2422 -55.2182 -55.1137 -55.0472 -54.9189
   -33.2436 -33.1426 -33.1229 -33.0407 -32.9793 -32.9786 -32.3757 -32.1841
   -32.1548 -32.1171 -32.1159 -32.0901 -32.0672 -31.9664 -31.9644 -31.9017
   -31.8863 -31.8859 -31.8659 -31.7924 -31.7750 -31.7748 -31.7579 -31.7524
   -31.7448 -31.7078 -31.6430 -31.6202 -31.5636 -31.5564 -31.5510 -31.5495
   -31.5185 -31.5033 -31.4968 -31.4725 -31.4711 -31.4611 -31.4314 -31.4094
   -31.3594 -31.3358 -31.3003 -31.2934 -31.2557 -31.2168 -31.1567 -31.1227
   -16.6116 -16.4545 -16.3864 -16.2614 -16.1861 -16.0843 -15.9002 -15.8916
   -15.6827 -15.6512 -15.5626 -15.5353 -15.4891 -15.4128 -15.2899 -15.1884
   -15.1853 -15.1497 -15.1008 -15.0149 -15.0090 -14.9346 -14.8837 -14.8371
   -14.7945 -14.7130 -14.6715 -14.6443 -14.3759 -14.3446 -13.9307 -13.8609
   -13.7892  -8.0346  -4.0850  -3.6712  -3.6296  -3.5664  -3.4745  -3.3533
    -3.3214  -3.3200  -3.2875  -3.1172  -3.1112  -3.0964  -3.0101  -2.9907
    -2.8613  -2.8044  -2.7328  -2.6451  -2.6427  -2.5989  -2.5825  -2.5399
    -2.5314  -2.5010  -2.4305  -2.4107  -2.3808  -2.3397  -2.2348  -2.1925
    -2.1700  -2.0835  -2.0598  -2.0419  -1.9900  -1.9282  -1.8955  -1.8465
    -1.8010  -1.7776  -1.7596  -1.7415  -1.6638  -1.5500  -1.5136  -1.4294
    -1.3327  -1.3208  -1.2980  -1.2372  -1.2052  -1.1645  -1.1299  -1.1019
    -1.0674  -0.9773  -0.9348  -0.9166  -0.8549  -0.7828  -0.7565  -0.7429
    -0.6811  -0.6165  -0.6008  -0.5842  -0.5660  -0.5217  -0.4791  -0.4302
    -0.4037  -0.3048  -0.1895  -0.1591  -0.0652  -0.0451   0.0152   0.0406
     0.1357   0.2062   0.2189   0.2763   0.3346   0.3436   0.3603   0.4790
     0.5052   0.5559   0.7011   0.7358   0.7557   0.8700   0.8878   0.9423
     0.9635   0.9975   1.0260   1.1454   1.1958   1.5005   2.0031   2.6973
     2.8684   2.9008   2.9754   3.3722   3.4472   3.4743   3.5483   3.8297

          k =-0.0760-0.0839 0.0000 ( 17948 PWs)   bands (ev):

   -56.8607 -56.8593 -55.9344 -55.9226 -55.7311 -55.6758 -55.5483 -55.4117
   -55.4103 -55.3137 -55.3061 -55.2445 -55.2175 -55.1131 -55.0480 -54.9197
   -33.1336 -33.1321 -33.1135 -33.1121 -33.0107 -33.0095 -32.2526 -32.2424
   -32.1289 -32.1248 -32.1169 -32.1158 -32.0292 -31.9886 -31.9629 -31.9491
   -31.9014 -31.8998 -31.8340 -31.7917 -31.7714 -31.7641 -31.7631 -31.6859
   -31.6357 -31.6319 -31.6303 -31.6046 -31.5947 -31.5916 -31.5904 -31.5837
   -31.5349 -31.5271 -31.5101 -31.4844 -31.4800 -31.4646 -31.4344 -31.4103
   -31.3932 -31.3582 -31.3074 -31.2920 -31.2588 -31.2560 -31.1574 -31.1395
   -16.4524 -16.3372 -16.3353 -16.2928 -16.2913 -16.0276 -16.0231 -15.7749
   -15.7458 -15.5694 -15.4579 -15.4358 -15.3942 -15.3537 -15.2755 -15.2248
   -15.2113 -15.1835 -15.1571 -15.0845 -15.0505 -14.9498 -14.9143 -14.8522
   -14.8173 -14.7444 -14.7041 -14.6756 -14.4797 -14.4197 -13.9232 -13.9225
   -13.8032  -8.0358  -4.0937  -3.4698  -3.4142  -3.4099  -3.3743  -3.3672
    -3.2861  -3.1630  -3.1595  -3.0353  -2.9583  -2.9316  -2.9018  -2.8478
    -2.8335  -2.7380  -2.6887  -2.6838  -2.6679  -2.6335  -2.6025  -2.5954
    -2.5376  -2.4104  -2.3659  -2.3286  -2.2878  -2.2184  -2.1896  -2.1822
    -2.1493  -2.1098  -2.0911  -2.0627  -2.0504  -2.0434  -2.0324  -1.9486
    -1.7989  -1.7715  -1.6787  -1.6763  -1.6659  -1.6263  -1.5966  -1.5825
    -1.5627  -1.5286  -1.4524  -1.4264  -1.3620  -1.2244  -1.2129  -1.1783
    -1.1251  -1.0217  -1.0072  -0.9115  -0.8936  -0.8838  -0.8189  -0.7972
    -0.7802  -0.7174  -0.6807  -0.5603  -0.4891  -0.4800  -0.4629  -0.4536
    -0.4029  -0.3561  -0.2829  -0.2794  -0.2630  -0.1547  -0.0588   0.0364
     0.0419   0.1101   0.1259   0.1808   0.3384   0.3485   0.3904   0.4520
     0.5688   0.6605   0.7138   0.8135   0.8468   0.9522   0.9701   0.9753
     0.9947   1.0035   1.0474   1.1036   1.1670   1.4768   1.9746   3.0105
     3.0137   3.0721   3.0776   3.3889   3.3911   3.5033   3.5082   3.8408

     the Fermi energy is     2.0724 ev

!    total energy              =   -2952.64745547 Ry
     estimated scf accuracy    <       0.00000007 Ry
     smearing contrib. (-TS)   =      -0.01067808 Ry
     internal energy E=F+TS    =   -2952.63677739 Ry

     The total energy is F=E-TS. E is the sum of the following terms:
     one-electron contribution =  -24061.16619802 Ry
     hartree contribution      =   12121.03245270 Ry
     xc contribution           =    -487.77572883 Ry
     ewald contribution        =    9475.27245212 Ry
     electric field correction =       0.00024463 Ry

     convergence has been achieved in  72 iterations

     Forces acting on atoms (cartesian axes, Ry/au):

     atom    1 type  1   force =     0.00005984   -0.00036675    0.12635153
     atom    2 type  1   force =    -0.00006705    0.00039618   -0.15471420
     atom    3 type  2   force =     0.00003687    0.00022797   -0.06870001
     atom    4 type  2   force =     0.00004374    0.00000970    0.01720640
     atom    5 type  2   force =    -0.00542733   -0.00183026   -0.01282506
     atom    6 type  2   force =     0.00701071   -0.00106887   -0.01372705
     atom    7 type  1   force =    -0.00029578   -0.00639730    0.05898269
     atom    8 type  1   force =     0.00058622    0.00674399    0.10102560
     atom    9 type  2   force =     0.00031700    0.00037721    0.00012582
     atom   10 type  2   force =    -0.00198616    0.00132212   -0.06338672
     atom   11 type  2   force =    -0.00015612   -0.00065906    0.00022452
     atom   12 type  2   force =    -0.00038335   -0.00038608    0.00004504
     atom   13 type  1   force =     0.00058429   -0.00075688    0.00029551
     atom   14 type  1   force =    -0.00002200   -0.00053360    0.00120078
     atom   15 type  2   force =    -0.00013442   -0.00006168    0.00007495
     atom   16 type  2   force =     0.00005240   -0.00020220   -0.00085863
     atom   17 type  2   force =    -0.00070527   -0.00071100   -0.00065028
     atom   18 type  2   force =    -0.00071682   -0.00041621   -0.00045329
     atom   19 type  1   force =     0.00133394    0.00036380   -0.00075921
     atom   20 type  1   force =    -0.00101590    0.00074125   -0.00076565
     atom   21 type  2   force =     0.00009588    0.00015089    0.09782399
     atom   22 type  2   force =     0.00000368   -0.00004029   -0.00034643
     atom   23 type  2   force =    -0.08272737    0.00003406   -0.03315256
     atom   24 type  2   force =     0.08269712    0.00046416   -0.03321551
     atom   25 type  1   force =     0.00005324   -0.00040389    0.12672449
     atom   26 type  1   force =    -0.00004692   -0.00140538   -0.15487252
     atom   27 type  2   force =     0.00012102   -0.00036895   -0.06710510
     atom   28 type  2   force =     0.00007076    0.00177466    0.01242465
     atom   29 type  2   force =    -0.00384749    0.00476448   -0.01597064
     atom   30 type  2   force =     0.00537793    0.00500468   -0.01689950
     atom   31 type  1   force =    -0.00029342    0.00188054    0.04207578
     atom   32 type  1   force =     0.00075238   -0.00886696    0.10194842
     atom   33 type  2   force =    -0.00005051   -0.00035048   -0.00059405
     atom   34 type  2   force =    -0.00187586    0.00205915   -0.07569866
     atom   35 type  2   force =     0.00013481   -0.00013234   -0.00048904
     atom   36 type  2   force =    -0.00030579    0.00005458   -0.00021364
     atom   37 type  1   force =     0.00046869    0.00055632    0.00045604
     atom   38 type  1   force =    -0.00032720   -0.00075417   -0.00035268
     atom   39 type  2   force =     0.00009134   -0.00049611    0.00053387
     atom   40 type  2   force =    -0.00009144   -0.00058029   -0.00048114
     atom   41 type  2   force =     0.00011961   -0.00015987   -0.00087457
     atom   42 type  2   force =    -0.00172625   -0.00001891    0.00016386
     atom   43 type  1   force =     0.00090356   -0.00068035   -0.00067209
     atom   44 type  1   force =    -0.00146039   -0.00046744   -0.00016782
     atom   45 type  2   force =     0.00008342   -0.00002843    0.09770250
     atom   46 type  2   force =    -0.08275902    0.00001389   -0.03316971
     atom   47 type  2   force =     0.08272291    0.00042811   -0.03321460
     atom   48 type  3   force =     0.00395009   -0.00086587    0.00166564
     atom   49 type  4   force =    -0.00258303   -0.00056297   -0.00196233
     atom   50 type  5   force =    -0.00014865   -0.00005229    0.00030061
     atom   51 type  5   force =     0.00069906    0.00020516    0.00047486
     atom   52 type  5   force =    -0.00076813    0.00083535   -0.00072507
     atom   53 type  2   force =     0.00032025    0.00028565   -0.00087934
     atom   54 type  5   force =     0.00123088    0.00093097    0.00006953

     Total force =     0.421223     Total SCF correction =     0.001065
  @ DRIVER MODE: Message from server: STATUS
  @ DRIVER MODE: Message from server: GETFORCE
  @ DRIVER MODE: Returning v,forces,stress,ensemble 

     Writing output data file ./calc.save/
  @ DRIVER MODE: Message from server: EXIT
  @ DRIVE MODE: Exiting  
 
     init_run     :     10.84s CPU     11.07s WALL (       1 calls)
     electrons    :   1083.03s CPU   1099.60s WALL (       1 calls)
     forces       :      2.40s CPU      2.49s WALL (       1 calls)

     Called by init_run:
     wfcinit      :      4.81s CPU      4.87s WALL (       1 calls)
     potinit      :      5.38s CPU      5.44s WALL (       1 calls)
     hinit0       :      0.29s CPU      0.31s WALL (       1 calls)

     Called by electrons:
     c_bands      :    909.94s CPU    916.56s WALL (      72 calls)
     sum_band     :    116.51s CPU    120.50s WALL (      72 calls)
     v_of_rho     :     42.25s CPU     44.32s WALL (      73 calls)
     newd         :     17.31s CPU     21.19s WALL (      73 calls)
     mix_rho      :      1.60s CPU      1.63s WALL (      72 calls)
     vdW_kernel   :      4.54s CPU      4.56s WALL (       1 calls)

     Called by c_bands:
     init_us_2    :      8.11s CPU      8.15s WALL (    1460 calls)
     cegterg      :    889.35s CPU    895.63s WALL (     730 calls)

     Called by *egterg:
     cdiaghg      :    122.38s CPU    122.98s WALL (    5816 calls)
     h_psi        :    491.92s CPU    496.31s WALL (    5826 calls)
     s_psi        :     63.59s CPU     63.78s WALL (    5826 calls)
     g_psi        :      1.93s CPU      1.94s WALL (    5086 calls)

     Called by h_psi:
     h_psi:calbec :     60.49s CPU     60.78s WALL (    5826 calls)
     vloc_psi     :    363.32s CPU    366.85s WALL (    5826 calls)
     add_vuspsi   :     64.20s CPU     64.53s WALL (    5826 calls)

     General routines
     calbec       :     80.88s CPU     81.23s WALL (    6586 calls)
     fft          :     21.90s CPU     22.09s WALL (    4599 calls)
     ffts         :      0.15s CPU      0.15s WALL (     145 calls)
     fftw         :    408.28s CPU    412.24s WALL (  966902 calls)
     interpolate  :      0.45s CPU      0.45s WALL (      73 calls)
     davcio       :      0.00s CPU      2.50s WALL (      10 calls)
 
     Parallel routines
 
     PWSCF        :  18m16.89s CPU  18m37.16s WALL

 
   This run was terminated on:  17: 0:36  22Sep2021            

=------------------------------------------------------------------------------=
   JOB DONE.
=------------------------------------------------------------------------------=
