
     Program PWSCF v.6.7GPU starts on  5Aug2021 at 17:35: 2 

     This program is part of the open-source Quantum ESPRESSO suite
     for quantum simulation of materials; please cite
         "P. Giannozzi et al., J. Phys.:Condens. Matter 21 395502 (2009);
         "P. Giannozzi et al., J. Phys.:Condens. Matter 29 465901 (2017);
         "P. Giannozzi et al., J. Chem. Phys. 152 154105 (2020);
          URL http://www.quantum-espresso.org", 
     in publications or presentations arising from this work. More details at
     http://www.quantum-espresso.org/quote

     Parallel version (MPI), running on    16 processors

     MPI processes distributed on     1 nodes
     R & G space division:  proc/nbgrp/npool/nimage =      16
     Reading input from /storage/home/hcoda1/3/ntian30/research/carbon/15Jul_vib/reference/CH3NH2/out_0010/pw.inp
Warning: card &CELL ignored
Warning: card   CELL_DYNAMICS='IPI', ignored
Warning: card / ignored

     Current dimensions of program PWSCF are:
     Max number of different atomic species (ntypx) = 10
     Max number of k-points (npk) =  40000
     Max angular momentum in pseudopotentials (lmaxx) =  3
     Presently no symmetry can be used with electric field

     Message from routine cell_base_init:
     DEPRECATED: use true lattice parameter, not A to a.u. conversion factor

     **************************************************************************
     Initializing libbeef V0.1.2 with the BEEF-vdW functional.
     Citation: Wellendorff et al., PRB 85, 235149 (2012).
     **************************************************************************


     IMPORTANT: XC functional enforced from input :
     Exchange-correlation= BEEF-VDW
                           (   1   4  43  14   2   0   0)
     Any further DFT definition will be discarded
     Please, verify this is what you really want


     Subspace diagonalization in iterative solution of the eigenvalue problem:
     one sub-group per band group will be used
     scalapack distributed-memory algorithm (size of sub-group:  4*  4 procs)

  @ DRIVER MODE: Connecting to 
 qe_1139763_2507389.sched-torque.pace.gatech.edu15nfhbrf_scratch
  using UNIX socket
  @ DRIVER MODE: Message from server: STATUS
  @ DRIVER MODE: Message from server: INIT
  @ DRIVER MODE: Receiving replica           0          -1
  @ DRIVER MODE: Receiving encoded integer          25
  @ DRIVER MODE:  SCF:  T  FORCE:  T  STRESS:  F  VC:  F  ENSEMBLE:  F
  @ DRIVER MODE:  SCF:  T  FORCE:  T  STRESS:  F  VC:  F  ENSEMBLE:  F
 
     Parallelization info
     --------------------
     sticks:   dense  smooth     PW     G-vecs:    dense   smooth      PW
     Min        1062     425    112               171772    43439    5938
     Max        1063     426    113               171779    43444    5943
     Sum       17001    6805   1803              2748395   695069   95053
 
     Using Slab Decomposition
 


     bravais-lattice index     =            0
     lattice parameter (alat)  =       1.8897  a.u.
     unit-cell volume          =   32287.0036 (a.u.)^3
     number of atoms/cell      =            7
     number of atomic types    =            3
     number of electrons       =        14.00
     number of Kohn-Sham states=           17
     kinetic-energy cutoff     =      29.3995  Ry
     charge density cutoff     =     293.9946  Ry
     scf convergence threshold =      7.3E-08
     mixing beta               =       0.0500
     number of iterations used =            8  plain     mixing
     Exchange-correlation= BEEF-VDW
                           (   1   4  43  14   2   0   0)

     celldm(1)=   1.889726  celldm(2)=   0.000000  celldm(3)=   0.000000
     celldm(4)=   0.000000  celldm(5)=   0.000000  celldm(6)=   0.000000

     crystal axes: (cart. coord. in units of alat)
               a(1) = (  14.395730   0.000000   0.000000 )  
               a(2) = (   0.000000  14.141645   0.000000 )  
               a(3) = (   0.000000   0.000000  23.501605 )  

     reciprocal axes: (cart. coord. in units 2 pi/alat)
               b(1) = (  0.069465  0.000000  0.000000 )  
               b(2) = (  0.000000  0.070713  0.000000 )  
               b(3) = (  0.000000  0.000000  0.042550 )  


     PseudoPot. # 1 for N  read from file:
     /storage/coda1/p-amedford6/0/shared/rich_project_chbe-medford/medford-share/data/pseudos_module/espresso/nninc/pbe/van/N.UPF
     MD5 check sum: 90d10febe142ad51ac9d5be1deb811c4
     Pseudo is Ultrasoft, Zval =  5.0
     Generated by new atomic code, or converted to UPF format
     Using radial grid of  729 points,  4 beta functions with: 
                l(1) =   0
                l(2) =   0
                l(3) =   1
                l(4) =   1
     Q(r) pseudized with  8 coefficients,  rinner =    0.800   0.800   0.800


     PseudoPot. # 2 for C  read from file:
     /storage/coda1/p-amedford6/0/shared/rich_project_chbe-medford/medford-share/data/pseudos_module/espresso/nninc/pbe/van/C.UPF
     MD5 check sum: 1a69bf6b8db32088f5b2163dbdb77a27
     Pseudo is Ultrasoft, Zval =  4.0
     Generated by new atomic code, or converted to UPF format
     Using radial grid of  721 points,  4 beta functions with: 
                l(1) =   0
                l(2) =   0
                l(3) =   1
                l(4) =   1
     Q(r) pseudized with  8 coefficients,  rinner =    0.800   0.800   0.800


     PseudoPot. # 3 for H  read from file:
     /storage/coda1/p-amedford6/0/shared/rich_project_chbe-medford/medford-share/data/pseudos_module/espresso/nninc/pbe/van/H.UPF
     MD5 check sum: b5ee9d7bfd3a09ee7748110bda690ff7
     Pseudo is Ultrasoft, Zval =  1.0
     Generated by new atomic code, or converted to UPF format
     Using radial grid of  615 points,  1 beta functions with: 
                l(1) =   0
     Q(r) pseudized with  8 coefficients,  rinner =    0.800

     atomic species   valence    mass     pseudopotential
        N1             5.00    14.00700     N ( 1.00)
        C1             4.00    12.01100     C ( 1.00)
        H1             1.00     1.00800     H ( 1.00)

     Starting magnetic structure 
     atomic species   magnetization
        N1           0.120
        C1           0.150
        H1           0.000

     No symmetry found



   Cartesian axes

     site n.     atom                  positions (alat units)
         1           N1  tau(   1) = (   6.7511123   7.9556906  11.5580743  )
         2           C1  tau(   2) = (   7.6069274   6.8105383  11.8731450  )
         3           H1  tau(   3) = (   8.2039306   6.5521124  11.0085873  )
         4           H1  tau(   4) = (   8.2994094   7.0949983  12.6745064  )
         5           H1  tau(   5) = (   7.0721505   5.9087306  12.2051506  )
         6           H1  tau(   6) = (   6.0913834   7.7073417  10.8307834  )
         7           H1  tau(   7) = (   6.2003135   8.2288288  12.3635786  )

     number of k points=    10  Fermi-Dirac smearing, width (Ry)=  0.0073
                       cart. coord. in units 2pi/alat
        k(    1) = (   0.0000000   0.0000000   0.0000000), wk =   0.0625000
        k(    2) = (   0.0000000   0.0176783   0.0000000), wk =   0.1250000
        k(    3) = (   0.0000000  -0.0353566   0.0000000), wk =   0.0625000
        k(    4) = (   0.0173663   0.0000000   0.0000000), wk =   0.1250000
        k(    5) = (   0.0173663   0.0176783   0.0000000), wk =   0.1250000
        k(    6) = (   0.0173663  -0.0353566   0.0000000), wk =   0.1250000
        k(    7) = (   0.0173663  -0.0176783   0.0000000), wk =   0.1250000
        k(    8) = (  -0.0347325   0.0000000   0.0000000), wk =   0.0625000
        k(    9) = (  -0.0347325   0.0176783   0.0000000), wk =   0.1250000
        k(   10) = (  -0.0347325  -0.0353566   0.0000000), wk =   0.0625000

     Dense  grid:  2748395 G-vectors     FFT dimensions: ( 150, 150, 243)

     Smooth grid:   695069 G-vectors     FFT dimensions: (  96,  96, 160)

     Estimated max dynamical RAM per process >     353.72 MB

     Estimated total dynamical RAM >       5.53 GB
     Generating pointlists ...
     new r_m :   0.4178 (alat units)  0.7895 (a.u.) for type    1
     new r_m :   0.4463 (alat units)  0.8434 (a.u.) for type    2
     new r_m :   0.4178 (alat units)  0.7895 (a.u.) for type    3
     Cannot read rho : file not found

     Initial potential from superposition of free atoms

     starting charge   13.99991, renormalised to   14.00000

     negative rho (up, down):  6.389E-03 4.980E-03


     %%%%%%%%%%%%%%%%%%%%%%%%%%%%%%%%%%%%%%%%%%%%%%%%%%%%%%%%%%%%%%%%%%%%%%%%
     %                                                                      %
     % You are using vdW-DF, which was implemented by the Thonhauser group. %
     % Please cite the following two papers that made this development      %
     % possible and the two reviews that describe the various versions:     %
     %                                                                      %
     %   T. Thonhauser et al., PRL 115, 136402 (2015).                      %
     %   T. Thonhauser et al., PRB 76, 125112 (2007).                       %
     %   K. Berland et al., Rep. Prog. Phys. 78, 066501 (2015).             %
     %   D.C. Langreth et al., J. Phys.: Condens. Matter 21, 084203 (2009). %
     %                                                                      %
     %                                                                      %
     % If you are calculating the stress with vdW-DF, please also cite:     %
     %                                                                      %
     %   R. Sabatini et al., J. Phys.: Condens. Matter 24, 424209 (2012).   %
     %                                                                      %
     %%%%%%%%%%%%%%%%%%%%%%%%%%%%%%%%%%%%%%%%%%%%%%%%%%%%%%%%%%%%%%%%%%%%%%%%


 
     Adding external electric field

     Computed dipole along edir(3) : 
        Dipole                0.0000 Ry au,          0.0000 Debye
        Dipole field          0.0000 Ry au, 
 
        Potential amp.       -0.0000 Ry
        Total length         43.3013 bohr
 
 
     Adding external electric field

     Computed dipole along edir(3) : 
        Dipole                0.0000 Ry au,          0.0000 Debye
        Dipole field          0.0000 Ry au, 
 
        Potential amp.       -0.0000 Ry
        Total length         43.3013 bohr
 
     Starting wfcs are   13 atomic +    4 random wfcs
  @ DRIVER MODE: Message from server: STATUS
  @ DRIVER MODE: Message from server: POSDATA
  @ DRIVER MODE: Reading and sharing cell 
  @ DRIVER MODE: Reading and sharing positions 
  @ DRIVER MODE: Received positions 

     total cpu time spent up to now is       71.1 secs

     Self-consistent Calculation

     iteration #  1     ecut=    29.40 Ry     beta= 0.05
     Davidson diagonalization with overlap
     c_bands:  5 eigenvalues not converged
     c_bands:  5 eigenvalues not converged
     c_bands:  5 eigenvalues not converged
     c_bands:  1 eigenvalues not converged
     c_bands:  1 eigenvalues not converged
     c_bands:  5 eigenvalues not converged
     c_bands:  3 eigenvalues not converged
     c_bands:  4 eigenvalues not converged
     c_bands:  3 eigenvalues not converged
     c_bands:  3 eigenvalues not converged
     c_bands:  1 eigenvalues not converged
     c_bands:  1 eigenvalues not converged
     c_bands:  3 eigenvalues not converged
     c_bands:  4 eigenvalues not converged
     c_bands:  3 eigenvalues not converged
     c_bands:  4 eigenvalues not converged
     c_bands:  1 eigenvalues not converged
     c_bands:  5 eigenvalues not converged
     c_bands:  2 eigenvalues not converged
     c_bands:  2 eigenvalues not converged
     ethr =  1.00E-05,  avg # of iterations = 36.0

     negative rho (up, down):  5.354E-03 4.059E-03
 
     Adding external electric field

     Computed dipole along edir(3) : 
        Dipole                0.0131 Ry au,          0.0333 Debye
        Dipole field          0.0000 Ry au, 
 
        Potential amp.       -0.0004 Ry
        Total length         43.3013 bohr
 
 
     Adding external electric field

     Computed dipole along edir(3) : 
        Dipole                0.0131 Ry au,          0.0333 Debye
        Dipole field          0.0000 Ry au, 
 
        Potential amp.       -0.0004 Ry
        Total length         43.3013 bohr
 

     total cpu time spent up to now is      164.9 secs

     total energy              =     -37.97166672 Ry
     estimated scf accuracy    <       1.01470879 Ry

     total magnetization       =    -0.00 Bohr mag/cell
     absolute magnetization    =     0.22 Bohr mag/cell

     iteration #  2     ecut=    29.40 Ry     beta= 0.05
     Davidson diagonalization with overlap
     ethr =  7.25E-03,  avg # of iterations =  1.0

     negative rho (up, down):  8.219E-03 6.969E-03
 
     Adding external electric field

     Computed dipole along edir(3) : 
        Dipole                0.1202 Ry au,          0.3055 Debye
        Dipole field          0.0000 Ry au, 
 
        Potential amp.       -0.0041 Ry
        Total length         43.3013 bohr
 
 
     Adding external electric field

     Computed dipole along edir(3) : 
        Dipole                0.1202 Ry au,          0.3055 Debye
        Dipole field          0.0000 Ry au, 
 
        Potential amp.       -0.0041 Ry
        Total length         43.3013 bohr
 

     total cpu time spent up to now is      184.1 secs

     total energy              =     -37.56300202 Ry
     estimated scf accuracy    <       0.82369265 Ry

     total magnetization       =    -0.00 Bohr mag/cell
     absolute magnetization    =     0.21 Bohr mag/cell

     iteration #  3     ecut=    29.40 Ry     beta= 0.05
     Davidson diagonalization with overlap
     ethr =  5.88E-03,  avg # of iterations =  2.0

     negative rho (up, down):  6.908E-03 5.803E-03
 
     Adding external electric field

     Computed dipole along edir(3) : 
        Dipole                0.0952 Ry au,          0.2420 Debye
        Dipole field          0.0000 Ry au, 
 
        Potential amp.       -0.0032 Ry
        Total length         43.3013 bohr
 
 
     Adding external electric field

     Computed dipole along edir(3) : 
        Dipole                0.0952 Ry au,          0.2420 Debye
        Dipole field          0.0000 Ry au, 
 
        Potential amp.       -0.0032 Ry
        Total length         43.3013 bohr
 

     total cpu time spent up to now is      196.8 secs

     total energy              =     -37.71020762 Ry
     estimated scf accuracy    <       0.07725175 Ry

     total magnetization       =     0.00 Bohr mag/cell
     absolute magnetization    =     0.15 Bohr mag/cell

     iteration #  4     ecut=    29.40 Ry     beta= 0.05
     Davidson diagonalization with overlap
     ethr =  5.52E-04,  avg # of iterations =  3.8

     negative rho (up, down):  1.341E-02 1.169E-02
 
     Adding external electric field

     Computed dipole along edir(3) : 
        Dipole                0.1181 Ry au,          0.3003 Debye
        Dipole field          0.0000 Ry au, 
 
        Potential amp.       -0.0040 Ry
        Total length         43.3013 bohr
 
 
     Adding external electric field

     Computed dipole along edir(3) : 
        Dipole                0.1181 Ry au,          0.3003 Debye
        Dipole field          0.0000 Ry au, 
 
        Potential amp.       -0.0040 Ry
        Total length         43.3013 bohr
 

     total cpu time spent up to now is      273.7 secs

     total energy              =     -37.69210379 Ry
     estimated scf accuracy    <       0.08221953 Ry

     total magnetization       =     0.00 Bohr mag/cell
     absolute magnetization    =     0.15 Bohr mag/cell

     iteration #  5     ecut=    29.40 Ry     beta= 0.05
     Davidson diagonalization with overlap
     ethr =  5.52E-04,  avg # of iterations =  5.0

     negative rho (up, down):  1.098E-02 9.612E-03
 
     Adding external electric field

     Computed dipole along edir(3) : 
        Dipole                0.1276 Ry au,          0.3242 Debye
        Dipole field          0.0000 Ry au, 
 
        Potential amp.       -0.0043 Ry
        Total length         43.3013 bohr
 
 
     Adding external electric field

     Computed dipole along edir(3) : 
        Dipole                0.1276 Ry au,          0.3242 Debye
        Dipole field          0.0000 Ry au, 
 
        Potential amp.       -0.0043 Ry
        Total length         43.3013 bohr
 

     total cpu time spent up to now is      299.0 secs

     total energy              =     -37.69373105 Ry
     estimated scf accuracy    <       0.01791009 Ry

     total magnetization       =     0.00 Bohr mag/cell
     absolute magnetization    =     0.07 Bohr mag/cell

     iteration #  6     ecut=    29.40 Ry     beta= 0.05
     Davidson diagonalization with overlap
     ethr =  1.28E-04,  avg # of iterations =  6.7

     negative rho (up, down):  1.074E-02 9.491E-03
 
     Adding external electric field

     Computed dipole along edir(3) : 
        Dipole                0.1355 Ry au,          0.3443 Debye
        Dipole field          0.0001 Ry au, 
 
        Potential amp.       -0.0046 Ry
        Total length         43.3013 bohr
 
 
     Adding external electric field

     Computed dipole along edir(3) : 
        Dipole                0.1355 Ry au,          0.3443 Debye
        Dipole field          0.0001 Ry au, 
 
        Potential amp.       -0.0046 Ry
        Total length         43.3013 bohr
 

     total cpu time spent up to now is      330.1 secs

     total energy              =     -37.69658016 Ry
     estimated scf accuracy    <       0.00365090 Ry

     total magnetization       =     0.00 Bohr mag/cell
     absolute magnetization    =     0.08 Bohr mag/cell

     iteration #  7     ecut=    29.40 Ry     beta= 0.05
     Davidson diagonalization with overlap
     c_bands:  1 eigenvalues not converged
     ethr =  2.61E-05,  avg # of iterations = 11.5

     negative rho (up, down):  1.134E-02 1.006E-02
 
     Adding external electric field

     Computed dipole along edir(3) : 
        Dipole                0.1389 Ry au,          0.3531 Debye
        Dipole field          0.0001 Ry au, 
 
        Potential amp.       -0.0047 Ry
        Total length         43.3013 bohr
 
 
     Adding external electric field

     Computed dipole along edir(3) : 
        Dipole                0.1389 Ry au,          0.3531 Debye
        Dipole field          0.0001 Ry au, 
 
        Potential amp.       -0.0047 Ry
        Total length         43.3013 bohr
 

     total cpu time spent up to now is      387.8 secs

     total energy              =     -37.69673538 Ry
     estimated scf accuracy    <       0.00187046 Ry

     total magnetization       =     0.00 Bohr mag/cell
     absolute magnetization    =     0.06 Bohr mag/cell

     iteration #  8     ecut=    29.40 Ry     beta= 0.05
     Davidson diagonalization with overlap
     c_bands:  1 eigenvalues not converged
     ethr =  1.34E-05,  avg # of iterations =  6.3

     negative rho (up, down):  1.070E-02 9.580E-03
 
     Adding external electric field

     Computed dipole along edir(3) : 
        Dipole                0.1371 Ry au,          0.3484 Debye
        Dipole field          0.0001 Ry au, 
 
        Potential amp.       -0.0046 Ry
        Total length         43.3013 bohr
 
 
     Adding external electric field

     Computed dipole along edir(3) : 
        Dipole                0.1371 Ry au,          0.3484 Debye
        Dipole field          0.0001 Ry au, 
 
        Potential amp.       -0.0046 Ry
        Total length         43.3013 bohr
 

     total cpu time spent up to now is      409.6 secs

     total energy              =     -37.69697539 Ry
     estimated scf accuracy    <       0.00023726 Ry

     total magnetization       =     0.00 Bohr mag/cell
     absolute magnetization    =     0.05 Bohr mag/cell

     iteration #  9     ecut=    29.40 Ry     beta= 0.05
     Davidson diagonalization with overlap
     c_bands:  1 eigenvalues not converged
     c_bands:  2 eigenvalues not converged
     c_bands:  1 eigenvalues not converged
     c_bands:  1 eigenvalues not converged
     c_bands:  3 eigenvalues not converged
     c_bands:  1 eigenvalues not converged
     c_bands:  2 eigenvalues not converged
     ethr =  1.69E-06,  avg # of iterations = 14.9

     negative rho (up, down):  1.075E-02 9.715E-03
 
     Adding external electric field

     Computed dipole along edir(3) : 
        Dipole                0.1438 Ry au,          0.3654 Debye
        Dipole field          0.0001 Ry au, 
 
        Potential amp.       -0.0048 Ry
        Total length         43.3013 bohr
 
 
     Adding external electric field

     Computed dipole along edir(3) : 
        Dipole                0.1438 Ry au,          0.3654 Debye
        Dipole field          0.0001 Ry au, 
 
        Potential amp.       -0.0048 Ry
        Total length         43.3013 bohr
 

     total cpu time spent up to now is      463.9 secs

     total energy              =     -37.69693460 Ry
     estimated scf accuracy    <       0.00065799 Ry

     total magnetization       =     0.00 Bohr mag/cell
     absolute magnetization    =     0.04 Bohr mag/cell

     iteration # 10     ecut=    29.40 Ry     beta= 0.05
     Davidson diagonalization with overlap
     c_bands:  1 eigenvalues not converged
     c_bands:  1 eigenvalues not converged
     ethr =  1.69E-06,  avg # of iterations =  5.5

     negative rho (up, down):  1.024E-02 9.309E-03
 
     Adding external electric field

     Computed dipole along edir(3) : 
        Dipole                0.1441 Ry au,          0.3662 Debye
        Dipole field          0.0001 Ry au, 
 
        Potential amp.       -0.0049 Ry
        Total length         43.3013 bohr
 
 
     Adding external electric field

     Computed dipole along edir(3) : 
        Dipole                0.1441 Ry au,          0.3662 Debye
        Dipole field          0.0001 Ry au, 
 
        Potential amp.       -0.0049 Ry
        Total length         43.3013 bohr
 

     total cpu time spent up to now is      502.7 secs

     total energy              =     -37.69703511 Ry
     estimated scf accuracy    <       0.00004667 Ry

     total magnetization       =     0.00 Bohr mag/cell
     absolute magnetization    =     0.02 Bohr mag/cell

     iteration # 11     ecut=    29.40 Ry     beta= 0.05
     Davidson diagonalization with overlap
     ethr =  3.33E-07,  avg # of iterations =  2.7

     negative rho (up, down):  9.730E-03 9.006E-03
 
     Adding external electric field

     Computed dipole along edir(3) : 
        Dipole                0.1442 Ry au,          0.3665 Debye
        Dipole field          0.0001 Ry au, 
 
        Potential amp.       -0.0049 Ry
        Total length         43.3013 bohr
 
 
     Adding external electric field

     Computed dipole along edir(3) : 
        Dipole                0.1442 Ry au,          0.3665 Debye
        Dipole field          0.0001 Ry au, 
 
        Potential amp.       -0.0049 Ry
        Total length         43.3013 bohr
 

     total cpu time spent up to now is      520.1 secs

     total energy              =     -37.69705308 Ry
     estimated scf accuracy    <       0.00004974 Ry

     total magnetization       =     0.00 Bohr mag/cell
     absolute magnetization    =     0.02 Bohr mag/cell

     iteration # 12     ecut=    29.40 Ry     beta= 0.05
     Davidson diagonalization with overlap
     ethr =  3.33E-07,  avg # of iterations =  2.5

     negative rho (up, down):  9.353E-03 8.709E-03
 
     Adding external electric field

     Computed dipole along edir(3) : 
        Dipole                0.1437 Ry au,          0.3652 Debye
        Dipole field          0.0001 Ry au, 
 
        Potential amp.       -0.0048 Ry
        Total length         43.3013 bohr
 
 
     Adding external electric field

     Computed dipole along edir(3) : 
        Dipole                0.1437 Ry au,          0.3652 Debye
        Dipole field          0.0001 Ry au, 
 
        Potential amp.       -0.0048 Ry
        Total length         43.3013 bohr
 

     total cpu time spent up to now is      573.2 secs

     total energy              =     -37.69706193 Ry
     estimated scf accuracy    <       0.00003398 Ry

     total magnetization       =     0.00 Bohr mag/cell
     absolute magnetization    =     0.01 Bohr mag/cell

     iteration # 13     ecut=    29.40 Ry     beta= 0.05
     Davidson diagonalization with overlap
     ethr =  2.43E-07,  avg # of iterations =  2.0

     negative rho (up, down):  9.019E-03 8.458E-03
 
     Adding external electric field

     Computed dipole along edir(3) : 
        Dipole                0.1439 Ry au,          0.3659 Debye
        Dipole field          0.0001 Ry au, 
 
        Potential amp.       -0.0049 Ry
        Total length         43.3013 bohr
 
 
     Adding external electric field

     Computed dipole along edir(3) : 
        Dipole                0.1439 Ry au,          0.3659 Debye
        Dipole field          0.0001 Ry au, 
 
        Potential amp.       -0.0049 Ry
        Total length         43.3013 bohr
 

     total cpu time spent up to now is      609.4 secs

     total energy              =     -37.69706899 Ry
     estimated scf accuracy    <       0.00000152 Ry

     total magnetization       =     0.00 Bohr mag/cell
     absolute magnetization    =     0.01 Bohr mag/cell

     iteration # 14     ecut=    29.40 Ry     beta= 0.05
     Davidson diagonalization with overlap
     ethr =  1.08E-08,  avg # of iterations =  2.0

     negative rho (up, down):  8.703E-03 8.270E-03
 
     Adding external electric field

     Computed dipole along edir(3) : 
        Dipole                0.1432 Ry au,          0.3640 Debye
        Dipole field          0.0001 Ry au, 
 
        Potential amp.       -0.0048 Ry
        Total length         43.3013 bohr
 
 
     Adding external electric field

     Computed dipole along edir(3) : 
        Dipole                0.1432 Ry au,          0.3640 Debye
        Dipole field          0.0001 Ry au, 
 
        Potential amp.       -0.0048 Ry
        Total length         43.3013 bohr
 

     total cpu time spent up to now is      626.5 secs

     total energy              =     -37.69707367 Ry
     estimated scf accuracy    <       0.00000489 Ry

     total magnetization       =     0.00 Bohr mag/cell
     absolute magnetization    =     0.01 Bohr mag/cell

     iteration # 15     ecut=    29.40 Ry     beta= 0.05
     Davidson diagonalization with overlap
     ethr =  1.08E-08,  avg # of iterations =  3.5

     negative rho (up, down):  8.478E-03 8.132E-03
 
     Adding external electric field

     Computed dipole along edir(3) : 
        Dipole                0.1432 Ry au,          0.3639 Debye
        Dipole field          0.0001 Ry au, 
 
        Potential amp.       -0.0048 Ry
        Total length         43.3013 bohr
 
 
     Adding external electric field

     Computed dipole along edir(3) : 
        Dipole                0.1432 Ry au,          0.3639 Debye
        Dipole field          0.0001 Ry au, 
 
        Potential amp.       -0.0048 Ry
        Total length         43.3013 bohr
 

     total cpu time spent up to now is      656.1 secs

     total energy              =     -37.69707977 Ry
     estimated scf accuracy    <       0.00000121 Ry

     total magnetization       =     0.00 Bohr mag/cell
     absolute magnetization    =     0.00 Bohr mag/cell

     iteration # 16     ecut=    29.40 Ry     beta= 0.05
     Davidson diagonalization with overlap
     ethr =  8.65E-09,  avg # of iterations =  1.5

     negative rho (up, down):  8.308E-03 8.040E-03
 
     Adding external electric field

     Computed dipole along edir(3) : 
        Dipole                0.1432 Ry au,          0.3640 Debye
        Dipole field          0.0001 Ry au, 
 
        Potential amp.       -0.0048 Ry
        Total length         43.3013 bohr
 
 
     Adding external electric field

     Computed dipole along edir(3) : 
        Dipole                0.1432 Ry au,          0.3640 Debye
        Dipole field          0.0001 Ry au, 
 
        Potential amp.       -0.0048 Ry
        Total length         43.3013 bohr
 

     total cpu time spent up to now is      683.1 secs

     total energy              =     -37.69708246 Ry
     estimated scf accuracy    <       0.00000073 Ry

     total magnetization       =     0.00 Bohr mag/cell
     absolute magnetization    =     0.00 Bohr mag/cell

     iteration # 17     ecut=    29.40 Ry     beta= 0.05
     Davidson diagonalization with overlap
     ethr =  5.24E-09,  avg # of iterations =  1.5

     negative rho (up, down):  8.186E-03 7.984E-03
 
     Adding external electric field

     Computed dipole along edir(3) : 
        Dipole                0.1433 Ry au,          0.3642 Debye
        Dipole field          0.0001 Ry au, 
 
        Potential amp.       -0.0048 Ry
        Total length         43.3013 bohr
 
 
     Adding external electric field

     Computed dipole along edir(3) : 
        Dipole                0.1433 Ry au,          0.3642 Debye
        Dipole field          0.0001 Ry au, 
 
        Potential amp.       -0.0048 Ry
        Total length         43.3013 bohr
 

     total cpu time spent up to now is      719.7 secs

     total energy              =     -37.69708857 Ry
     estimated scf accuracy    <       0.00000037 Ry

     total magnetization       =     0.00 Bohr mag/cell
     absolute magnetization    =     0.00 Bohr mag/cell

     iteration # 18     ecut=    29.40 Ry     beta= 0.05
     Davidson diagonalization with overlap
     ethr =  2.63E-09,  avg # of iterations =  2.5

     negative rho (up, down):  8.105E-03 7.967E-03
 
     Adding external electric field

     Computed dipole along edir(3) : 
        Dipole                0.1434 Ry au,          0.3646 Debye
        Dipole field          0.0001 Ry au, 
 
        Potential amp.       -0.0048 Ry
        Total length         43.3013 bohr
 
 
     Adding external electric field

     Computed dipole along edir(3) : 
        Dipole                0.1434 Ry au,          0.3646 Debye
        Dipole field          0.0001 Ry au, 
 
        Potential amp.       -0.0048 Ry
        Total length         43.3013 bohr
 

     total cpu time spent up to now is      729.6 secs

     total energy              =     -37.69709621 Ry
     estimated scf accuracy    <       0.00000011 Ry

     total magnetization       =     0.00 Bohr mag/cell
     absolute magnetization    =     0.00 Bohr mag/cell

     iteration # 19     ecut=    29.40 Ry     beta= 0.05
     Davidson diagonalization with overlap
     ethr =  7.95E-10,  avg # of iterations =  3.0

     negative rho (up, down):  8.057E-03 7.983E-03
 
     Adding external electric field

     Computed dipole along edir(3) : 
        Dipole                0.1434 Ry au,          0.3646 Debye
        Dipole field          0.0001 Ry au, 
 
        Potential amp.       -0.0048 Ry
        Total length         43.3013 bohr
 
 
     Adding external electric field

     Computed dipole along edir(3) : 
        Dipole                0.1434 Ry au,          0.3646 Debye
        Dipole field          0.0001 Ry au, 
 
        Potential amp.       -0.0048 Ry
        Total length         43.3013 bohr
 

     total cpu time spent up to now is      748.1 secs

     total energy              =     -37.69710307 Ry
     estimated scf accuracy    <       0.00000065 Ry

     total magnetization       =     0.00 Bohr mag/cell
     absolute magnetization    =     0.00 Bohr mag/cell

     iteration # 20     ecut=    29.40 Ry     beta= 0.05
     Davidson diagonalization with overlap
     ethr =  7.95E-10,  avg # of iterations =  3.5

     negative rho (up, down):  1.249E-02 1.249E-02
 
     Adding external electric field

     Computed dipole along edir(3) : 
        Dipole                0.1435 Ry au,          0.3647 Debye
        Dipole field          0.0001 Ry au, 
 
        Potential amp.       -0.0048 Ry
        Total length         43.3013 bohr
 
 
     Adding external electric field

     Computed dipole along edir(3) : 
        Dipole                0.1435 Ry au,          0.3647 Debye
        Dipole field          0.0001 Ry au, 
 
        Potential amp.       -0.0048 Ry
        Total length         43.3013 bohr
 
 
     Magnetic moment per site  (integrated on atomic sphere of radius R)
     atom   1 (R=0.418)  charge=  1.3247  magn= -0.0000
     atom   2 (R=0.446)  charge=  0.8314  magn=  0.0000
     atom   3 (R=0.418)  charge=  0.4481  magn= -0.0000
     atom   4 (R=0.418)  charge=  0.4392  magn= -0.0000
     atom   5 (R=0.418)  charge=  0.4414  magn= -0.0000
     atom   6 (R=0.418)  charge=  0.4571  magn=  0.0000
     atom   7 (R=0.418)  charge=  0.4560  magn=  0.0000

     total cpu time spent up to now is      781.2 secs

     End of self-consistent calculation

 ------ SPIN UP ------------


          k = 0.0000 0.0000 0.0000 ( 86913 PWs)   bands (ev):

   -22.0627 -16.5329 -12.2757 -10.9845 -10.0366  -9.1692  -5.6913  -1.0528
    -0.3995  -0.3008  -0.2936  -0.0047   0.0570   0.2014   0.2561   0.3984
     0.4286

          k = 0.0000 0.0177 0.0000 ( 86920 PWs)   bands (ev):

   -22.0627 -16.5329 -12.2757 -10.9845 -10.0366  -9.1692  -5.6913  -1.0441
    -0.4163  -0.2868  -0.2520  -0.0775   0.1006   0.1237   0.1707   0.3690
     0.3967

          k = 0.0000-0.0354 0.0000 ( 86898 PWs)   bands (ev):

   -22.0627 -16.5329 -12.2757 -10.9845 -10.0366  -9.1692  -5.6913  -1.0349
    -0.4442  -0.2494  -0.1661  -0.1228  -0.0052   0.0176   0.2175   0.3394
     0.3730

          k = 0.0174 0.0000 0.0000 ( 86911 PWs)   bands (ev):

   -22.0627 -16.5329 -12.2757 -10.9845 -10.0366  -9.1692  -5.6913  -1.0444
    -0.4321  -0.2755  -0.2541  -0.0525   0.0850   0.1166   0.1677   0.3505
     0.3984

          k = 0.0174 0.0177 0.0000 ( 86907 PWs)   bands (ev):

   -22.0628 -16.5329 -12.2757 -10.9844 -10.0366  -9.1692  -5.6913  -1.0363
    -0.4212  -0.2811  -0.2326  -0.1002   0.1064   0.1381   0.1589   0.2501
     0.2822

          k = 0.0174-0.0354 0.0000 ( 86970 PWs)   bands (ev):

   -22.0628 -16.5329 -12.2757 -10.9845 -10.0367  -9.1692  -5.6913  -1.0278
    -0.4439  -0.2425  -0.1660  -0.0784  -0.0067   0.0617   0.1211   0.2455
     0.2780

          k = 0.0174-0.0177 0.0000 ( 86907 PWs)   bands (ev):

   -22.0628 -16.5329 -12.2757 -10.9845 -10.0366  -9.1692  -5.6913  -1.0364
    -0.4430  -0.2483  -0.2030  -0.1057   0.0729   0.1149   0.2010   0.2193
     0.2664

          k =-0.0347 0.0000 0.0000 ( 86830 PWs)   bands (ev):

   -22.0627 -16.5329 -12.2757 -10.9844 -10.0366  -9.1691  -5.6913  -1.0353
    -0.4682  -0.2190  -0.1649  -0.1288  -0.0024   0.0097   0.2302   0.3211
     0.3889

          k =-0.0347 0.0177 0.0000 ( 86940 PWs)   bands (ev):

   -22.0628 -16.5329 -12.2758 -10.9845 -10.0366  -9.1692  -5.6913  -1.0281
    -0.4579  -0.2084  -0.1787  -0.0841  -0.0099   0.0446   0.1221   0.2697
     0.2889

          k =-0.0347-0.0354 0.0000 ( 86924 PWs)   bands (ev):

   -22.0628 -16.5329 -12.2758 -10.9844 -10.0367  -9.1692  -5.6913  -1.0204
    -0.4527  -0.2135  -0.1358  -0.0720   0.0437   0.0669   0.1228   0.1577
     0.1861

 ------ SPIN DOWN ----------


          k = 0.0000 0.0000 0.0000 ( 86913 PWs)   bands (ev):

   -22.0631 -16.5328 -12.2758 -10.9846 -10.0368  -9.1692  -5.6918  -1.0522
    -0.3991  -0.3005  -0.2932  -0.0044   0.0574   0.2019   0.2567   0.3981
     0.4264

          k = 0.0000 0.0177 0.0000 ( 86920 PWs)   bands (ev):

   -22.0631 -16.5328 -12.2758 -10.9846 -10.0368  -9.1692  -5.6918  -1.0435
    -0.4160  -0.2864  -0.2515  -0.0771   0.1009   0.1241   0.1711   0.3702
     0.3982

          k = 0.0000-0.0354 0.0000 ( 86898 PWs)   bands (ev):

   -22.0631 -16.5328 -12.2758 -10.9846 -10.0368  -9.1692  -5.6918  -1.0343
    -0.4439  -0.2489  -0.1657  -0.1224  -0.0048   0.0181   0.2179   0.3396
     0.3733

          k = 0.0174 0.0000 0.0000 ( 86911 PWs)   bands (ev):

   -22.0631 -16.5328 -12.2758 -10.9846 -10.0368  -9.1692  -5.6918  -1.0438
    -0.4317  -0.2751  -0.2536  -0.0521   0.0854   0.1170   0.1680   0.3509
     0.3986

          k = 0.0174 0.0177 0.0000 ( 86907 PWs)   bands (ev):

   -22.0631 -16.5328 -12.2758 -10.9846 -10.0368  -9.1692  -5.6918  -1.0357
    -0.4209  -0.2807  -0.2321  -0.0998   0.1069   0.1385   0.1594   0.2502
     0.2824

          k = 0.0174-0.0354 0.0000 ( 86970 PWs)   bands (ev):

   -22.0631 -16.5328 -12.2758 -10.9846 -10.0368  -9.1692  -5.6918  -1.0272
    -0.4436  -0.2420  -0.1656  -0.0780  -0.0063   0.0622   0.1215   0.2462
     0.2784

          k = 0.0174-0.0177 0.0000 ( 86907 PWs)   bands (ev):

   -22.0631 -16.5328 -12.2758 -10.9846 -10.0368  -9.1692  -5.6918  -1.0358
    -0.4427  -0.2478  -0.2026  -0.1053   0.0732   0.1154   0.2009   0.2196
     0.2669

          k =-0.0347 0.0000 0.0000 ( 86830 PWs)   bands (ev):

   -22.0630 -16.5328 -12.2758 -10.9846 -10.0368  -9.1692  -5.6918  -1.0347
    -0.4679  -0.2185  -0.1645  -0.1284  -0.0020   0.0102   0.2307   0.3220
     0.3887

          k =-0.0347 0.0177 0.0000 ( 86940 PWs)   bands (ev):

   -22.0631 -16.5328 -12.2758 -10.9846 -10.0368  -9.1692  -5.6918  -1.0275
    -0.4576  -0.2079  -0.1782  -0.0836  -0.0095   0.0451   0.1224   0.2700
     0.2889

          k =-0.0347-0.0354 0.0000 ( 86924 PWs)   bands (ev):

   -22.0631 -16.5328 -12.2758 -10.9846 -10.0368  -9.1692  -5.6918  -1.0198
    -0.4524  -0.2131  -0.1353  -0.0714   0.0446   0.0673   0.1236   0.1581
     0.1850

     the Fermi energy is    -3.3550 ev

!    total energy              =     -37.69712183 Ry
     estimated scf accuracy    <       0.00000006 Ry
     smearing contrib. (-TS)   =      -0.00000000 Ry
     internal energy E=F+TS    =     -37.69712183 Ry

     The total energy is F=E-TS. E is the sum of the following terms:
     one-electron contribution =    -128.31939054 Ry
     hartree contribution      =      65.98527667 Ry
     xc contribution           =     -12.74094335 Ry
     ewald contribution        =      37.37792737 Ry
     electric field correction =       0.00000801 Ry

     total magnetization       =     0.00 Bohr mag/cell
     absolute magnetization    =     0.00 Bohr mag/cell

     convergence has been achieved in  20 iterations

     Forces acting on atoms (cartesian axes, Ry/au):

     atom    1 type  1   force =    -0.00028335    0.00112990   -0.00352848
     atom    2 type  2   force =    -0.00009357    0.00094545    0.02061008
     atom    3 type  3   force =     0.00400811   -0.00147971   -0.00865965
     atom    4 type  3   force =    -0.00412938   -0.00194275   -0.00604967
     atom    5 type  3   force =     0.00133750    0.00102183   -0.00180070
     atom    6 type  3   force =    -0.00145609    0.00119755   -0.00163931
     atom    7 type  3   force =     0.00061677   -0.00087226    0.00106773

     Total force =     0.024592     Total SCF correction =     0.000276
  @ DRIVER MODE: Message from server: STATUS
  @ DRIVER MODE: Message from server: GETFORCE
  @ DRIVER MODE: Returning v,forces,stress,ensemble 

     Writing output data file ./calc.save/
  @ DRIVER MODE: Message from server: EXIT
  @ DRIVE MODE: Exiting  
 
     init_run     :     20.34s CPU     21.47s WALL (       1 calls)
     electrons    :    647.97s CPU    710.14s WALL (       1 calls)
     forces       :      3.31s CPU      3.59s WALL (       1 calls)

     Called by init_run:
     wfcinit      :      9.73s CPU     10.46s WALL (       1 calls)
     potinit      :      8.26s CPU      8.39s WALL (       1 calls)
     hinit0       :      0.75s CPU      0.77s WALL (       1 calls)

     Called by electrons:
     c_bands      :    519.36s CPU    568.16s WALL (      20 calls)
     sum_band     :     36.51s CPU     39.23s WALL (      20 calls)
     v_of_rho     :     80.58s CPU     87.96s WALL (      21 calls)
     newd         :      7.58s CPU      8.93s WALL (      21 calls)
     mix_rho      :      9.06s CPU     10.69s WALL (      20 calls)
     vdW_kernel   :      3.13s CPU      3.14s WALL (       1 calls)

     Called by c_bands:
     init_us_2    :      1.06s CPU      1.10s WALL (     840 calls)
     cegterg      :    516.82s CPU    565.27s WALL (     416 calls)

     Called by *egterg:
     cdiaghg      :    216.34s CPU    238.84s WALL (    2750 calls)
     h_psi        :    129.75s CPU    135.77s WALL (    2786 calls)
     s_psi        :      1.26s CPU      1.27s WALL (    2786 calls)
     g_psi        :      0.36s CPU      0.37s WALL (    2350 calls)

     Called by h_psi:
     h_psi:calbec :      9.92s CPU     11.03s WALL (    2786 calls)
     vloc_psi     :    117.48s CPU    122.37s WALL (    2786 calls)
     add_vuspsi   :      1.85s CPU      1.86s WALL (    2786 calls)

     General routines
     calbec       :     13.95s CPU     15.43s WALL (    3266 calls)
     fft          :     62.76s CPU     66.64s WALL (    1866 calls)
     ffts         :      0.61s CPU      0.65s WALL (      82 calls)
     fftw         :    127.94s CPU    133.63s WALL (   55916 calls)
     interpolate  :      1.75s CPU      1.86s WALL (      42 calls)
     davcio       :      0.00s CPU      0.35s WALL (      20 calls)
 
     Parallel routines
 
     PWSCF        :  11m12.61s CPU  13m 6.78s WALL

 
   This run was terminated on:  17:48: 9   5Aug2021            

=------------------------------------------------------------------------------=
   JOB DONE.
=------------------------------------------------------------------------------=
