
     Program PWSCF v.6.7GPU starts on 18Oct2021 at 12:20:11 

     This program is part of the open-source Quantum ESPRESSO suite
     for quantum simulation of materials; please cite
         "P. Giannozzi et al., J. Phys.:Condens. Matter 21 395502 (2009);
         "P. Giannozzi et al., J. Phys.:Condens. Matter 29 465901 (2017);
         "P. Giannozzi et al., J. Chem. Phys. 152 154105 (2020);
          URL http://www.quantum-espresso.org", 
     in publications or presentations arising from this work. More details at
     http://www.quantum-espresso.org/quote

     Parallel version (MPI), running on     8 processors

     MPI processes distributed on     1 nodes
     R & G space division:  proc/nbgrp/npool/nimage =       8
     Reading input from /storage/home/hcoda1/3/ntian30/research/carbon/CxH_vib/Thiel_calc/ads_slab/NNH2HH_perslab/out_0002/pw.inp
Warning: card &CELL ignored
Warning: card   CELL_DYNAMICS='IPI', ignored
Warning: card / ignored

     Current dimensions of program PWSCF are:
     Max number of different atomic species (ntypx) = 10
     Max number of k-points (npk) =  40000
     Max angular momentum in pseudopotentials (lmaxx) =  3
     Presently no symmetry can be used with electric field

     Message from routine cell_base_init:
     DEPRECATED: use true lattice parameter, not A to a.u. conversion factor

     **************************************************************************
     Initializing libbeef V0.1.2 with the BEEF-vdW functional.
     Citation: Wellendorff et al., PRB 85, 235149 (2012).
     **************************************************************************


     IMPORTANT: XC functional enforced from input :
     Exchange-correlation= BEEF-VDW
                           (   1   4  43  14   2   0   0)
     Any further DFT definition will be discarded
     Please, verify this is what you really want


     Subspace diagonalization in iterative solution of the eigenvalue problem:
     one sub-group per band group will be used
     scalapack distributed-memory algorithm (size of sub-group:  2*  2 procs)

  @ DRIVER MODE: Connecting to 
 qe_1139763_3255133.sched-torque.pace.gatech.edugpmmrn5e_scratch
  using UNIX socket
  @ DRIVER MODE: Message from server: STATUS
  @ DRIVER MODE: Message from server: INIT
  @ DRIVER MODE: Receiving replica           0          -1
  @ DRIVER MODE: Receiving encoded integer          25
  @ DRIVER MODE:  SCF:  T  FORCE:  T  STRESS:  F  VC:  F  ENSEMBLE:  F
  @ DRIVER MODE:  SCF:  T  FORCE:  T  STRESS:  F  VC:  F  ENSEMBLE:  F
 
     Parallelization info
     --------------------
     sticks:   dense  smooth     PW     G-vecs:    dense   smooth      PW
     Min         614     246     69               106272    26887    3981
     Max         615     248     70               106275    26893    3990
     Sum        4915    1977    553               850181   215109   31863
 
     Using Slab Decomposition
 


     bravais-lattice index     =            0
     lattice parameter (alat)  =       1.8897  a.u.
     unit-cell volume          =    9988.4706 (a.u.)^3
     number of atoms/cell      =           59
     number of atomic types    =            4
     number of electrons       =       440.00
     number of Kohn-Sham states=          230
     kinetic-energy cutoff     =      29.3995  Ry
     charge density cutoff     =     293.9946  Ry
     scf convergence threshold =      7.3E-08
     mixing beta               =       0.0500
     number of iterations used =            8  plain     mixing
     Exchange-correlation= BEEF-VDW
                           (   1   4  43  14   2   0   0)

     celldm(1)=   1.889726  celldm(2)=   0.000000  celldm(3)=   0.000000
     celldm(4)=   0.000000  celldm(5)=   0.000000  celldm(6)=   0.000000

     crystal axes: (cart. coord. in units of alat)
               a(1) = (   6.579727   0.000000   0.000000 )  
               a(2) = (  -0.001163   8.942395   0.000000 )  
               a(3) = (   0.000000   0.000000  25.155947 )  

     reciprocal axes: (cart. coord. in units 2 pi/alat)
               b(1) = (  0.151982  0.000020  0.000000 )  
               b(2) = (  0.000000  0.111827  0.000000 )  
               b(3) = (  0.000000  0.000000  0.039752 )  


     PseudoPot. # 1 for O  read from file:
     /storage/coda1/p-amedford6/0/shared/rich_project_chbe-medford/medford-share/data/pseudos_module/espresso/nninc/pbe/van/O.UPF
     MD5 check sum: 78c19812648e8988a0fe644b0f25305e
     Pseudo is Ultrasoft, Zval =  6.0
     Generated by new atomic code, or converted to UPF format
     Using radial grid of  737 points,  4 beta functions with: 
                l(1) =   0
                l(2) =   0
                l(3) =   1
                l(4) =   1
     Q(r) pseudized with  8 coefficients,  rinner =    0.800   0.800   0.800


     PseudoPot. # 2 for Ti read from file:
     /storage/coda1/p-amedford6/0/shared/rich_project_chbe-medford/medford-share/data/pseudos_module/espresso/nninc/pbe/van/Ti.UPF
     MD5 check sum: 8e4df49b7f0d34bbd5052bf3f5ea0213
     Pseudo is Ultrasoft, Zval = 12.0
     Generated by new atomic code, or converted to UPF format
     Using radial grid of  851 points,  6 beta functions with: 
                l(1) =   0
                l(2) =   0
                l(3) =   1
                l(4) =   1
                l(5) =   2
                l(6) =   2
     Q(r) pseudized with  8 coefficients,  rinner =    1.000   1.000   1.000
                                                       1.000   1.000

     PseudoPot. # 3 for H  read from file:
     /storage/coda1/p-amedford6/0/shared/rich_project_chbe-medford/medford-share/data/pseudos_module/espresso/nninc/pbe/van/H.UPF
     MD5 check sum: b5ee9d7bfd3a09ee7748110bda690ff7
     Pseudo is Ultrasoft, Zval =  1.0
     Generated by new atomic code, or converted to UPF format
     Using radial grid of  615 points,  1 beta functions with: 
                l(1) =   0
     Q(r) pseudized with  8 coefficients,  rinner =    0.800

     PseudoPot. # 4 for N  read from file:
     /storage/coda1/p-amedford6/0/shared/rich_project_chbe-medford/medford-share/data/pseudos_module/espresso/nninc/pbe/van/N.UPF
     MD5 check sum: 90d10febe142ad51ac9d5be1deb811c4
     Pseudo is Ultrasoft, Zval =  5.0
     Generated by new atomic code, or converted to UPF format
     Using radial grid of  729 points,  4 beta functions with: 
                l(1) =   0
                l(2) =   0
                l(3) =   1
                l(4) =   1
     Q(r) pseudized with  8 coefficients,  rinner =    0.800   0.800   0.800


     atomic species   valence    mass     pseudopotential
        O1             6.00    15.99900     O ( 1.00)
        Ti1           12.00    47.86700     Ti( 1.00)
        H1             1.00     1.00800     H ( 1.00)
        N1             5.00    14.00700     N ( 1.00)

     No symmetry found



   Cartesian axes

     site n.     atom                  positions (alat units)
         1           O1  tau(   1) = (   0.0007354   0.0005023  10.5931620  )
         2           O1  tau(   2) = (   3.3122003   8.9411730  13.9078397  )
         3           O1  tau(   3) = (   0.0119464   0.1585559  17.3480684  )
         4           O1  tau(   4) = (   0.0006271   0.0005054   7.9858123  )
         5           O1  tau(   5) = (   3.2844644   8.9346379  11.1901754  )
         6           O1  tau(   6) = (   6.5618141   0.0157575  14.6617184  )
         7           O1  tau(   7) = (   1.9868534   1.4903216   9.2879459  )
         8           O1  tau(   8) = (   5.2413352   1.5994427  12.5710249  )
         9           O1  tau(   9) = (   2.0249271   1.5994163  16.0383581  )
        10           Ti1 tau(  10) = (   0.0007404   1.4906270   9.2895810  )
        11           Ti1 tau(  11) = (   3.2875257   1.3541315  12.5031546  )
        12           Ti1 tau(  12) = (   0.1037617   1.4803996  15.8781706  )
        13           O1  tau(  13) = (   4.5942328   1.4918067   9.2879030  )
        14           O1  tau(  14) = (   1.3445879   1.6225681  12.6047105  )
        15           O1  tau(  15) = (   4.5270247   1.5277052  16.0690704  )
        16           Ti1 tau(  16) = (   3.2902859   2.9801868   9.2893338  )
        17           Ti1 tau(  17) = (   6.5717848   2.8351652  12.4611715  )
        18           Ti1 tau(  18) = (   3.3615503   2.9380122  15.7113248  )
        19           O1  tau(  19) = (   0.0003479   2.9813005  10.5931620  )
        20           O1  tau(  20) = (   3.3257229   2.9884659  13.9122956  )
        21           O1  tau(  21) = (   0.0002396   2.9813036   7.9858123  )
        22           O1  tau(  22) = (   3.2846765   2.9682620  11.1924388  )
        23           O1  tau(  23) = (   6.5193973   3.0012958  14.6893217  )
        24           O1  tau(  24) = (   1.9864658   4.4711199   9.2879459  )
        25           O1  tau(  25) = (   5.2358842   4.5821056  12.5715879  )
        26           O1  tau(  26) = (   1.9668816   4.5963109  15.9958849  )
        27           Ti1 tau(  27) = (   0.0003529   4.4714252   9.2895810  )
        28           Ti1 tau(  28) = (   3.2817300   4.3379106  12.5030846  )
        29           Ti1 tau(  29) = (   6.5286400   4.3105241  16.0387364  )
        30           O1  tau(  30) = (   4.5938453   4.4726049   9.2879030  )
        31           O1  tau(  31) = (   1.3350840   4.5883300  12.6034823  )
        32           O1  tau(  32) = (   4.4768606   4.5746599  16.1328061  )
        33           Ti1 tau(  33) = (   3.2898983   5.9609850   9.2893338  )
        34           Ti1 tau(  34) = (   6.5687693   5.8095266  12.4696282  )
        35           Ti1 tau(  35) = (   3.1936624   5.9077503  15.7132784  )
        36           O1  tau(  36) = (  -0.0000397   5.9620987  10.5931620  )
        37           O1  tau(  37) = (   3.2950800   5.9615338  13.9080848  )
        38           O1  tau(  38) = (   6.5705097   6.0321180  17.3127682  )
        39           O1  tau(  39) = (  -0.0001480   5.9621018   7.9858123  )
        40           O1  tau(  40) = (   3.2829949   5.9473389  11.1919414  )
        41           O1  tau(  41) = (   6.5313079   6.0695169  14.6234680  )
        42           O1  tau(  42) = (   1.9860782   7.4519181   9.2879459  )
        43           O1  tau(  43) = (   5.2305909   7.5696458  12.5615615  )
        44           O1  tau(  44) = (   1.9930026   7.5537276  16.0441964  )
        45           Ti1 tau(  45) = (  -0.0000347   7.4522234   9.2895810  )
        46           Ti1 tau(  46) = (   3.2809715   7.3153274  12.5063831  )
        47           Ti1 tau(  47) = (  -0.0000777   7.3827053  15.8005402  )
        48           O1  tau(  48) = (   4.5934577   7.4534031   9.2879030  )
        49           O1  tau(  49) = (   1.3440923   7.5800077  12.5804573  )
        50           O1  tau(  50) = (   4.5564015   7.5743432  16.1458831  )
        51           Ti1 tau(  51) = (   3.2895107   8.9417832   9.2893338  )
        52           Ti1 tau(  52) = (   6.5681474   8.7932977  12.4619754  )
        53           Ti1 tau(  53) = (   3.3227810   8.9003220  15.7121742  )
        54           H1  tau(  54) = (   5.8475475   6.1301351  17.9339333  )
        55           H1  tau(  55) = (   5.7673184   0.1799947  17.8523786  )
        56           H1  tau(  56) = (   0.0490247   3.6154164  19.2291769  )
        57           N1  tau(  57) = (   6.4107751   2.7916545  18.6713363  )
        58           N1  tau(  58) = (   6.5444414   3.0434393  17.3342366  )
        59           H1  tau(  59) = (   0.3957958   1.9971216  18.9670883  )

     number of k points=    10  Fermi-Dirac smearing, width (Ry)=  0.0073
                       cart. coord. in units 2pi/alat
        k(    1) = (   0.0000000   0.0000000   0.0000000), wk =   0.1250000
        k(    2) = (   0.0000000   0.0279567   0.0000000), wk =   0.2500000
        k(    3) = (   0.0000000  -0.0559134   0.0000000), wk =   0.1250000
        k(    4) = (   0.0379955   0.0000049   0.0000000), wk =   0.2500000
        k(    5) = (   0.0379955   0.0279617   0.0000000), wk =   0.2500000
        k(    6) = (   0.0379955  -0.0559085   0.0000000), wk =   0.2500000
        k(    7) = (   0.0379955  -0.0279518   0.0000000), wk =   0.2500000
        k(    8) = (  -0.0759910  -0.0000099   0.0000000), wk =   0.1250000
        k(    9) = (  -0.0759910   0.0279468   0.0000000), wk =   0.2500000
        k(   10) = (  -0.0759910  -0.0559233   0.0000000), wk =   0.1250000

     Dense  grid:   850181 G-vectors     FFT dimensions: (  72,  96, 270)

     Smooth grid:   215109 G-vectors     FFT dimensions: (  45,  60, 180)

     Estimated max dynamical RAM per process >     706.31 MB

     Estimated total dynamical RAM >       5.52 GB
     Cannot read rho : file not found

     Initial potential from superposition of free atoms

     starting charge  421.99910, renormalised to  440.00000

     negative rho (up, down):  3.725E-02 0.000E+00


     %%%%%%%%%%%%%%%%%%%%%%%%%%%%%%%%%%%%%%%%%%%%%%%%%%%%%%%%%%%%%%%%%%%%%%%%
     %                                                                      %
     % You are using vdW-DF, which was implemented by the Thonhauser group. %
     % Please cite the following two papers that made this development      %
     % possible and the two reviews that describe the various versions:     %
     %                                                                      %
     %   T. Thonhauser et al., PRL 115, 136402 (2015).                      %
     %   T. Thonhauser et al., PRB 76, 125112 (2007).                       %
     %   K. Berland et al., Rep. Prog. Phys. 78, 066501 (2015).             %
     %   D.C. Langreth et al., J. Phys.: Condens. Matter 21, 084203 (2009). %
     %                                                                      %
     %                                                                      %
     % If you are calculating the stress with vdW-DF, please also cite:     %
     %                                                                      %
     %   R. Sabatini et al., J. Phys.: Condens. Matter 24, 424209 (2012).   %
     %                                                                      %
     %%%%%%%%%%%%%%%%%%%%%%%%%%%%%%%%%%%%%%%%%%%%%%%%%%%%%%%%%%%%%%%%%%%%%%%%


 
     Adding external electric field

     Computed dipole along edir(3) : 
        Dipole               -5.7841 Ry au,        -14.7017 Debye
        Dipole field         -0.0073 Ry au, 
 
        Potential amp.        0.6746 Ry
        Total length         46.3494 bohr
 
     Starting wfcs are  332 atomic wfcs
  @ DRIVER MODE: Message from server: STATUS
  @ DRIVER MODE: Message from server: POSDATA
  @ DRIVER MODE: Reading and sharing cell 
  @ DRIVER MODE: Reading and sharing positions 
  @ DRIVER MODE: Received positions 

     total cpu time spent up to now is       18.6 secs

     Self-consistent Calculation

     iteration #  1     ecut=    29.40 Ry     beta= 0.05
     Davidson diagonalization with overlap
     c_bands:  1 eigenvalues not converged
     c_bands:  2 eigenvalues not converged
     c_bands:  2 eigenvalues not converged
     c_bands:  1 eigenvalues not converged
     c_bands:  1 eigenvalues not converged
     c_bands:  3 eigenvalues not converged
     c_bands:  1 eigenvalues not converged
     c_bands:  4 eigenvalues not converged
     c_bands:  4 eigenvalues not converged
     c_bands:  4 eigenvalues not converged
     ethr =  1.00E-05,  avg # of iterations = 20.0

     negative rho (up, down):  3.675E-02 0.000E+00
 
     Adding external electric field

     Computed dipole along edir(3) : 
        Dipole                6.3501 Ry au,         16.1405 Debye
        Dipole field          0.0080 Ry au, 
 
        Potential amp.       -0.7406 Ry
        Total length         46.3494 bohr
 

     total cpu time spent up to now is       97.1 secs

     total energy              =   -3276.54965197 Ry
     estimated scf accuracy    <     227.98407683 Ry

     iteration #  2     ecut=    29.40 Ry     beta= 0.05
     Davidson diagonalization with overlap
     ethr =  1.00E-02,  avg # of iterations = 16.4

     negative rho (up, down):  3.509E-02 0.000E+00
 
     Adding external electric field

     Computed dipole along edir(3) : 
        Dipole               -1.5342 Ry au,         -3.8996 Debye
        Dipole field         -0.0019 Ry au, 
 
        Potential amp.        0.1789 Ry
        Total length         46.3494 bohr
 

     total cpu time spent up to now is      140.0 secs

     total energy              =   -3273.87312089 Ry
     estimated scf accuracy    <     968.45321319 Ry

     iteration #  3     ecut=    29.40 Ry     beta= 0.05
     Davidson diagonalization with overlap
     ethr =  1.00E-02,  avg # of iterations = 13.1

     negative rho (up, down):  3.473E-02 0.000E+00
 
     Adding external electric field

     Computed dipole along edir(3) : 
        Dipole               -1.5086 Ry au,         -3.8345 Debye
        Dipole field         -0.0019 Ry au, 
 
        Potential amp.        0.1759 Ry
        Total length         46.3494 bohr
 

     total cpu time spent up to now is      171.7 secs

     total energy              =   -3294.46046785 Ry
     estimated scf accuracy    <      10.47949941 Ry

     iteration #  4     ecut=    29.40 Ry     beta= 0.05
     Davidson diagonalization with overlap
     ethr =  2.38E-03,  avg # of iterations =  3.3

     negative rho (up, down):  3.495E-02 0.000E+00
 
     Adding external electric field

     Computed dipole along edir(3) : 
        Dipole               -0.9607 Ry au,         -2.4418 Debye
        Dipole field         -0.0012 Ry au, 
 
        Potential amp.        0.1120 Ry
        Total length         46.3494 bohr
 

     total cpu time spent up to now is      194.6 secs

     total energy              =   -3292.50816889 Ry
     estimated scf accuracy    <       9.17554087 Ry

     iteration #  5     ecut=    29.40 Ry     beta= 0.05
     Davidson diagonalization with overlap
     ethr =  2.09E-03,  avg # of iterations =  4.3

     negative rho (up, down):  3.619E-02 0.000E+00
 
     Adding external electric field

     Computed dipole along edir(3) : 
        Dipole               -0.1711 Ry au,         -0.4348 Debye
        Dipole field         -0.0002 Ry au, 
 
        Potential amp.        0.0199 Ry
        Total length         46.3494 bohr
 

     total cpu time spent up to now is      217.7 secs

     total energy              =   -3291.78709081 Ry
     estimated scf accuracy    <       3.04412015 Ry

     iteration #  6     ecut=    29.40 Ry     beta= 0.05
     Davidson diagonalization with overlap
     ethr =  6.92E-04,  avg # of iterations = 17.4

     negative rho (up, down):  3.561E-02 0.000E+00
 
     Adding external electric field

     Computed dipole along edir(3) : 
        Dipole               -0.1733 Ry au,         -0.4404 Debye
        Dipole field         -0.0002 Ry au, 
 
        Potential amp.        0.0202 Ry
        Total length         46.3494 bohr
 

     total cpu time spent up to now is      268.4 secs

     total energy              =   -3294.37506985 Ry
     estimated scf accuracy    <      29.69420054 Ry

     iteration #  7     ecut=    29.40 Ry     beta= 0.05
     Davidson diagonalization with overlap
     ethr =  6.92E-04,  avg # of iterations =  2.5

     negative rho (up, down):  3.515E-02 0.000E+00
 
     Adding external electric field

     Computed dipole along edir(3) : 
        Dipole               -0.1923 Ry au,         -0.4888 Debye
        Dipole field         -0.0002 Ry au, 
 
        Potential amp.        0.0224 Ry
        Total length         46.3494 bohr
 

     total cpu time spent up to now is      289.9 secs

     total energy              =   -3294.25967116 Ry
     estimated scf accuracy    <      23.77580144 Ry

     iteration #  8     ecut=    29.40 Ry     beta= 0.05
     Davidson diagonalization with overlap
     ethr =  6.92E-04,  avg # of iterations =  1.0

     negative rho (up, down):  3.484E-02 0.000E+00
 
     Adding external electric field

     Computed dipole along edir(3) : 
        Dipole               -0.1800 Ry au,         -0.4574 Debye
        Dipole field         -0.0002 Ry au, 
 
        Potential amp.        0.0210 Ry
        Total length         46.3494 bohr
 

     total cpu time spent up to now is      310.2 secs

     total energy              =   -3294.22901121 Ry
     estimated scf accuracy    <      20.85230021 Ry

     iteration #  9     ecut=    29.40 Ry     beta= 0.05
     Davidson diagonalization with overlap
     ethr =  6.92E-04,  avg # of iterations =  1.0

     negative rho (up, down):  3.469E-02 0.000E+00
 
     Adding external electric field

     Computed dipole along edir(3) : 
        Dipole               -0.0663 Ry au,         -0.1684 Debye
        Dipole field         -0.0001 Ry au, 
 
        Potential amp.        0.0077 Ry
        Total length         46.3494 bohr
 

     total cpu time spent up to now is      330.4 secs

     total energy              =   -3294.06161348 Ry
     estimated scf accuracy    <      20.35790504 Ry

     iteration # 10     ecut=    29.40 Ry     beta= 0.05
     Davidson diagonalization with overlap
     ethr =  6.92E-04,  avg # of iterations =  1.0

     negative rho (up, down):  3.506E-02 0.000E+00
 
     Adding external electric field

     Computed dipole along edir(3) : 
        Dipole                0.4081 Ry au,          1.0372 Debye
        Dipole field          0.0005 Ry au, 
 
        Potential amp.       -0.0476 Ry
        Total length         46.3494 bohr
 

     total cpu time spent up to now is      350.6 secs

     total energy              =   -3293.58478896 Ry
     estimated scf accuracy    <      19.07614309 Ry

     iteration # 11     ecut=    29.40 Ry     beta= 0.05
     Davidson diagonalization with overlap
     ethr =  6.92E-04,  avg # of iterations =  3.7

     negative rho (up, down):  3.569E-02 0.000E+00
 
     Adding external electric field

     Computed dipole along edir(3) : 
        Dipole                0.6099 Ry au,          1.5503 Debye
        Dipole field          0.0008 Ry au, 
 
        Potential amp.       -0.0711 Ry
        Total length         46.3494 bohr
 

     total cpu time spent up to now is      373.1 secs

     total energy              =   -3293.62835616 Ry
     estimated scf accuracy    <      17.63273051 Ry

     iteration # 12     ecut=    29.40 Ry     beta= 0.05
     Davidson diagonalization with overlap
     ethr =  6.92E-04,  avg # of iterations =  1.1

     negative rho (up, down):  3.598E-02 0.000E+00
 
     Adding external electric field

     Computed dipole along edir(3) : 
        Dipole                0.8504 Ry au,          2.1616 Debye
        Dipole field          0.0011 Ry au, 
 
        Potential amp.       -0.0992 Ry
        Total length         46.3494 bohr
 

     total cpu time spent up to now is      393.4 secs

     total energy              =   -3293.10572231 Ry
     estimated scf accuracy    <      22.23556333 Ry

     iteration # 13     ecut=    29.40 Ry     beta= 0.05
     Davidson diagonalization with overlap
     ethr =  6.92E-04,  avg # of iterations =  7.4

     negative rho (up, down):  3.561E-02 0.000E+00
 
     Adding external electric field

     Computed dipole along edir(3) : 
        Dipole                0.9292 Ry au,          2.3617 Debye
        Dipole field          0.0012 Ry au, 
 
        Potential amp.       -0.1084 Ry
        Total length         46.3494 bohr
 

     total cpu time spent up to now is      418.4 secs

     total energy              =   -3293.14537353 Ry
     estimated scf accuracy    <       7.00500818 Ry

     iteration # 14     ecut=    29.40 Ry     beta= 0.05
     Davidson diagonalization with overlap
     ethr =  6.92E-04,  avg # of iterations =  8.7

     negative rho (up, down):  3.487E-02 0.000E+00
 
     Adding external electric field

     Computed dipole along edir(3) : 
        Dipole                0.7410 Ry au,          1.8833 Debye
        Dipole field          0.0009 Ry au, 
 
        Potential amp.       -0.0864 Ry
        Total length         46.3494 bohr
 

     total cpu time spent up to now is      445.9 secs

     total energy              =   -3293.38103422 Ry
     estimated scf accuracy    <       2.30893244 Ry

     iteration # 15     ecut=    29.40 Ry     beta= 0.05
     Davidson diagonalization with overlap
     ethr =  5.25E-04,  avg # of iterations =  1.0

     negative rho (up, down):  3.401E-02 0.000E+00
 
     Adding external electric field

     Computed dipole along edir(3) : 
        Dipole                0.3252 Ry au,          0.8265 Debye
        Dipole field          0.0004 Ry au, 
 
        Potential amp.       -0.0379 Ry
        Total length         46.3494 bohr
 

     total cpu time spent up to now is      466.2 secs

     total energy              =   -3293.21755648 Ry
     estimated scf accuracy    <       1.55877279 Ry

     iteration # 16     ecut=    29.40 Ry     beta= 0.05
     Davidson diagonalization with overlap
     ethr =  3.54E-04,  avg # of iterations =  3.5

     negative rho (up, down):  3.391E-02 0.000E+00
 
     Adding external electric field

     Computed dipole along edir(3) : 
        Dipole                0.3661 Ry au,          0.9305 Debye
        Dipole field          0.0005 Ry au, 
 
        Potential amp.       -0.0427 Ry
        Total length         46.3494 bohr
 

     total cpu time spent up to now is      488.4 secs

     total energy              =   -3293.27035488 Ry
     estimated scf accuracy    <       1.34545388 Ry

     iteration # 17     ecut=    29.40 Ry     beta= 0.05
     Davidson diagonalization with overlap
     ethr =  3.06E-04,  avg # of iterations =  2.4

     negative rho (up, down):  3.381E-02 0.000E+00
 
     Adding external electric field

     Computed dipole along edir(3) : 
        Dipole                0.3134 Ry au,          0.7965 Debye
        Dipole field          0.0004 Ry au, 
 
        Potential amp.       -0.0365 Ry
        Total length         46.3494 bohr
 

     total cpu time spent up to now is      509.8 secs

     total energy              =   -3293.22537960 Ry
     estimated scf accuracy    <       1.62401655 Ry

     iteration # 18     ecut=    29.40 Ry     beta= 0.05
     Davidson diagonalization with overlap
     ethr =  3.06E-04,  avg # of iterations =  4.4

     negative rho (up, down):  3.494E-02 0.000E+00
 
     Adding external electric field

     Computed dipole along edir(3) : 
        Dipole                1.3947 Ry au,          3.5449 Debye
        Dipole field          0.0018 Ry au, 
 
        Potential amp.       -0.1627 Ry
        Total length         46.3494 bohr
 

     total cpu time spent up to now is      532.5 secs

     total energy              =   -3293.15810985 Ry
     estimated scf accuracy    <       1.46568958 Ry

     iteration # 19     ecut=    29.40 Ry     beta= 0.05
     Davidson diagonalization with overlap
     c_bands:  3 eigenvalues not converged
     c_bands:  2 eigenvalues not converged
     c_bands:  5 eigenvalues not converged
     c_bands:  2 eigenvalues not converged
     ethr =  3.06E-04,  avg # of iterations = 15.0

     negative rho (up, down):  3.498E-02 0.000E+00
 
     Adding external electric field

     Computed dipole along edir(3) : 
        Dipole                1.7328 Ry au,          4.4044 Debye
        Dipole field          0.0022 Ry au, 
 
        Potential amp.       -0.2021 Ry
        Total length         46.3494 bohr
 

     total cpu time spent up to now is      561.2 secs

     total energy              =   -3293.19677686 Ry
     estimated scf accuracy    <       0.23226367 Ry

     iteration # 20     ecut=    29.40 Ry     beta= 0.05
     Davidson diagonalization with overlap
     c_bands:  5 eigenvalues not converged
     c_bands:  2 eigenvalues not converged
     c_bands:  2 eigenvalues not converged
     c_bands:  5 eigenvalues not converged
     ethr =  5.28E-05,  avg # of iterations = 23.5

     negative rho (up, down):  3.466E-02 0.000E+00
 
     Adding external electric field

     Computed dipole along edir(3) : 
        Dipole                1.6076 Ry au,          4.0862 Debye
        Dipole field          0.0020 Ry au, 
 
        Potential amp.       -0.1875 Ry
        Total length         46.3494 bohr
 

     total cpu time spent up to now is      613.7 secs

     total energy              =   -3293.22744379 Ry
     estimated scf accuracy    <       0.39406174 Ry

     iteration # 21     ecut=    29.40 Ry     beta= 0.05
     Davidson diagonalization with overlap
     ethr =  5.28E-05,  avg # of iterations = 11.0

     negative rho (up, down):  3.445E-02 0.000E+00
 
     Adding external electric field

     Computed dipole along edir(3) : 
        Dipole                1.5297 Ry au,          3.8881 Debye
        Dipole field          0.0019 Ry au, 
 
        Potential amp.       -0.1784 Ry
        Total length         46.3494 bohr
 

     total cpu time spent up to now is      639.6 secs

     total energy              =   -3293.22921805 Ry
     estimated scf accuracy    <       0.15819088 Ry

     iteration # 22     ecut=    29.40 Ry     beta= 0.05
     Davidson diagonalization with overlap
     ethr =  3.60E-05,  avg # of iterations =  3.1

     negative rho (up, down):  3.503E-02 0.000E+00
 
     Adding external electric field

     Computed dipole along edir(3) : 
        Dipole                1.6647 Ry au,          4.2312 Debye
        Dipole field          0.0021 Ry au, 
 
        Potential amp.       -0.1941 Ry
        Total length         46.3494 bohr
 

     total cpu time spent up to now is      661.9 secs

     total energy              =   -3293.23033726 Ry
     estimated scf accuracy    <       0.12451959 Ry

     iteration # 23     ecut=    29.40 Ry     beta= 0.05
     Davidson diagonalization with overlap
     ethr =  2.83E-05,  avg # of iterations = 12.8

     negative rho (up, down):  3.534E-02 0.000E+00
 
     Adding external electric field

     Computed dipole along edir(3) : 
        Dipole                1.6173 Ry au,          4.1108 Debye
        Dipole field          0.0020 Ry au, 
 
        Potential amp.       -0.1886 Ry
        Total length         46.3494 bohr
 

     total cpu time spent up to now is      690.1 secs

     total energy              =   -3293.22214937 Ry
     estimated scf accuracy    <       0.24569262 Ry

     iteration # 24     ecut=    29.40 Ry     beta= 0.05
     Davidson diagonalization with overlap
     ethr =  2.83E-05,  avg # of iterations = 13.3

     negative rho (up, down):  3.538E-02 0.000E+00
 
     Adding external electric field

     Computed dipole along edir(3) : 
        Dipole                1.6286 Ry au,          4.1395 Debye
        Dipole field          0.0020 Ry au, 
 
        Potential amp.       -0.1899 Ry
        Total length         46.3494 bohr
 

     total cpu time spent up to now is      719.4 secs

     total energy              =   -3293.23607964 Ry
     estimated scf accuracy    <       0.03304796 Ry

     iteration # 25     ecut=    29.40 Ry     beta= 0.05
     Davidson diagonalization with overlap
     c_bands:  1 eigenvalues not converged
     c_bands:  2 eigenvalues not converged
     c_bands:  3 eigenvalues not converged
     ethr =  7.51E-06,  avg # of iterations = 14.4

     negative rho (up, down):  3.538E-02 0.000E+00
 
     Adding external electric field

     Computed dipole along edir(3) : 
        Dipole                1.5915 Ry au,          4.0452 Debye
        Dipole field          0.0020 Ry au, 
 
        Potential amp.       -0.1856 Ry
        Total length         46.3494 bohr
 

     total cpu time spent up to now is      750.0 secs

     total energy              =   -3293.23792791 Ry
     estimated scf accuracy    <       0.02647562 Ry

     iteration # 26     ecut=    29.40 Ry     beta= 0.05
     Davidson diagonalization with overlap
     c_bands:  1 eigenvalues not converged
     ethr =  6.02E-06,  avg # of iterations = 12.7

     negative rho (up, down):  3.583E-02 0.000E+00
 
     Adding external electric field

     Computed dipole along edir(3) : 
        Dipole                1.5808 Ry au,          4.0181 Debye
        Dipole field          0.0020 Ry au, 
 
        Potential amp.       -0.1844 Ry
        Total length         46.3494 bohr
 

     total cpu time spent up to now is      777.8 secs

     total energy              =   -3293.23980108 Ry
     estimated scf accuracy    <       0.01852229 Ry

     iteration # 27     ecut=    29.40 Ry     beta= 0.05
     Davidson diagonalization with overlap
     c_bands:  2 eigenvalues not converged
     ethr =  4.21E-06,  avg # of iterations = 13.0

     negative rho (up, down):  3.621E-02 0.000E+00
 
     Adding external electric field

     Computed dipole along edir(3) : 
        Dipole                1.5685 Ry au,          3.9867 Debye
        Dipole field          0.0020 Ry au, 
 
        Potential amp.       -0.1829 Ry
        Total length         46.3494 bohr
 

     total cpu time spent up to now is      805.0 secs

     total energy              =   -3293.24138653 Ry
     estimated scf accuracy    <       0.00790887 Ry

     iteration # 28     ecut=    29.40 Ry     beta= 0.05
     Davidson diagonalization with overlap
     c_bands:  1 eigenvalues not converged
     c_bands:  1 eigenvalues not converged
     c_bands:  1 eigenvalues not converged
     c_bands:  2 eigenvalues not converged
     c_bands:  1 eigenvalues not converged
     c_bands:  1 eigenvalues not converged
     c_bands:  1 eigenvalues not converged
     c_bands:  1 eigenvalues not converged
     ethr =  1.80E-06,  avg # of iterations = 19.9

     negative rho (up, down):  3.606E-02 0.000E+00
 
     Adding external electric field

     Computed dipole along edir(3) : 
        Dipole                1.5782 Ry au,          4.0113 Debye
        Dipole field          0.0020 Ry au, 
 
        Potential amp.       -0.1840 Ry
        Total length         46.3494 bohr
 

     total cpu time spent up to now is      848.6 secs

     total energy              =   -3293.24276244 Ry
     estimated scf accuracy    <       0.00585992 Ry

     iteration # 29     ecut=    29.40 Ry     beta= 0.05
     Davidson diagonalization with overlap
     ethr =  1.33E-06,  avg # of iterations =  1.2

     negative rho (up, down):  3.599E-02 0.000E+00
 
     Adding external electric field

     Computed dipole along edir(3) : 
        Dipole                1.6040 Ry au,          4.0769 Debye
        Dipole field          0.0020 Ry au, 
 
        Potential amp.       -0.1871 Ry
        Total length         46.3494 bohr
 

     total cpu time spent up to now is      869.1 secs

     total energy              =   -3293.24255590 Ry
     estimated scf accuracy    <       0.00519942 Ry

     iteration # 30     ecut=    29.40 Ry     beta= 0.05
     Davidson diagonalization with overlap
     ethr =  1.18E-06,  avg # of iterations =  9.3

     negative rho (up, down):  3.611E-02 0.000E+00
 
     Adding external electric field

     Computed dipole along edir(3) : 
        Dipole                1.6183 Ry au,          4.1134 Debye
        Dipole field          0.0020 Ry au, 
 
        Potential amp.       -0.1887 Ry
        Total length         46.3494 bohr
 

     total cpu time spent up to now is      894.8 secs

     total energy              =   -3293.24295189 Ry
     estimated scf accuracy    <       0.00288349 Ry

     iteration # 31     ecut=    29.40 Ry     beta= 0.05
     Davidson diagonalization with overlap
     ethr =  6.55E-07,  avg # of iterations = 12.8

     negative rho (up, down):  3.604E-02 0.000E+00
 
     Adding external electric field

     Computed dipole along edir(3) : 
        Dipole                1.5605 Ry au,          3.9664 Debye
        Dipole field          0.0020 Ry au, 
 
        Potential amp.       -0.1820 Ry
        Total length         46.3494 bohr
 

     total cpu time spent up to now is      933.0 secs

     total energy              =   -3293.24294407 Ry
     estimated scf accuracy    <       0.00376366 Ry

     iteration # 32     ecut=    29.40 Ry     beta= 0.05
     Davidson diagonalization with overlap
     ethr =  6.55E-07,  avg # of iterations = 13.5

     negative rho (up, down):  3.595E-02 0.000E+00
 
     Adding external electric field

     Computed dipole along edir(3) : 
        Dipole                1.5459 Ry au,          3.9292 Debye
        Dipole field          0.0019 Ry au, 
 
        Potential amp.       -0.1803 Ry
        Total length         46.3494 bohr
 

     total cpu time spent up to now is      966.7 secs

     total energy              =   -3293.24331999 Ry
     estimated scf accuracy    <       0.00096064 Ry

     iteration # 33     ecut=    29.40 Ry     beta= 0.05
     Davidson diagonalization with overlap
     ethr =  2.18E-07,  avg # of iterations = 14.0

     negative rho (up, down):  3.589E-02 0.000E+00
 
     Adding external electric field

     Computed dipole along edir(3) : 
        Dipole                1.5586 Ry au,          3.9616 Debye
        Dipole field          0.0020 Ry au, 
 
        Potential amp.       -0.1818 Ry
        Total length         46.3494 bohr
 

     total cpu time spent up to now is     1006.0 secs

     total energy              =   -3293.24349768 Ry
     estimated scf accuracy    <       0.00134640 Ry

     iteration # 34     ecut=    29.40 Ry     beta= 0.05
     Davidson diagonalization with overlap
     ethr =  2.18E-07,  avg # of iterations =  9.4

     negative rho (up, down):  3.590E-02 0.000E+00
 
     Adding external electric field

     Computed dipole along edir(3) : 
        Dipole                1.5698 Ry au,          3.9902 Debye
        Dipole field          0.0020 Ry au, 
 
        Potential amp.       -0.1831 Ry
        Total length         46.3494 bohr
 

     total cpu time spent up to now is     1031.6 secs

     total energy              =   -3293.24359127 Ry
     estimated scf accuracy    <       0.00060769 Ry

     iteration # 35     ecut=    29.40 Ry     beta= 0.05
     Davidson diagonalization with overlap
     ethr =  1.38E-07,  avg # of iterations = 13.6

     negative rho (up, down):  3.588E-02 0.000E+00
 
     Adding external electric field

     Computed dipole along edir(3) : 
        Dipole                1.5765 Ry au,          4.0070 Debye
        Dipole field          0.0020 Ry au, 
 
        Potential amp.       -0.1839 Ry
        Total length         46.3494 bohr
 

     total cpu time spent up to now is     1070.5 secs

     total energy              =   -3293.24388510 Ry
     estimated scf accuracy    <       0.00046824 Ry

     iteration # 36     ecut=    29.40 Ry     beta= 0.05
     Davidson diagonalization with overlap
     ethr =  1.06E-07,  avg # of iterations =  3.3

     negative rho (up, down):  3.586E-02 0.000E+00
 
     Adding external electric field

     Computed dipole along edir(3) : 
        Dipole                1.5666 Ry au,          3.9819 Debye
        Dipole field          0.0020 Ry au, 
 
        Potential amp.       -0.1827 Ry
        Total length         46.3494 bohr
 

     total cpu time spent up to now is     1093.0 secs

     total energy              =   -3293.24386442 Ry
     estimated scf accuracy    <       0.00056245 Ry

     iteration # 37     ecut=    29.40 Ry     beta= 0.05
     Davidson diagonalization with overlap
     ethr =  1.06E-07,  avg # of iterations =  4.9

     negative rho (up, down):  3.582E-02 0.000E+00
 
     Adding external electric field

     Computed dipole along edir(3) : 
        Dipole                1.5610 Ry au,          3.9676 Debye
        Dipole field          0.0020 Ry au, 
 
        Potential amp.       -0.1820 Ry
        Total length         46.3494 bohr
 

     total cpu time spent up to now is     1116.1 secs

     total energy              =   -3293.24388771 Ry
     estimated scf accuracy    <       0.00024592 Ry

     iteration # 38     ecut=    29.40 Ry     beta= 0.05
     Davidson diagonalization with overlap
     ethr =  5.59E-08,  avg # of iterations = 12.9

     negative rho (up, down):  3.578E-02 0.000E+00
 
     Adding external electric field

     Computed dipole along edir(3) : 
        Dipole                1.5611 Ry au,          3.9680 Debye
        Dipole field          0.0020 Ry au, 
 
        Potential amp.       -0.1821 Ry
        Total length         46.3494 bohr
 

     total cpu time spent up to now is     1149.7 secs

     total energy              =   -3293.24396068 Ry
     estimated scf accuracy    <       0.00005821 Ry

     iteration # 39     ecut=    29.40 Ry     beta= 0.05
     Davidson diagonalization with overlap
     ethr =  1.32E-08,  avg # of iterations =  3.4

     negative rho (up, down):  3.574E-02 0.000E+00
 
     Adding external electric field

     Computed dipole along edir(3) : 
        Dipole                1.5635 Ry au,          3.9741 Debye
        Dipole field          0.0020 Ry au, 
 
        Potential amp.       -0.1823 Ry
        Total length         46.3494 bohr
 

     total cpu time spent up to now is     1172.6 secs

     total energy              =   -3293.24399510 Ry
     estimated scf accuracy    <       0.00005419 Ry

     iteration # 40     ecut=    29.40 Ry     beta= 0.05
     Davidson diagonalization with overlap
     ethr =  1.23E-08,  avg # of iterations =  4.6

     negative rho (up, down):  3.570E-02 0.000E+00
 
     Adding external electric field

     Computed dipole along edir(3) : 
        Dipole                1.5690 Ry au,          3.9880 Debye
        Dipole field          0.0020 Ry au, 
 
        Potential amp.       -0.1830 Ry
        Total length         46.3494 bohr
 

     total cpu time spent up to now is     1195.4 secs

     total energy              =   -3293.24401909 Ry
     estimated scf accuracy    <       0.00004856 Ry

     iteration # 41     ecut=    29.40 Ry     beta= 0.05
     Davidson diagonalization with overlap
     ethr =  1.10E-08,  avg # of iterations = 11.4

     negative rho (up, down):  3.569E-02 0.000E+00
 
     Adding external electric field

     Computed dipole along edir(3) : 
        Dipole                1.5637 Ry au,          3.9746 Debye
        Dipole field          0.0020 Ry au, 
 
        Potential amp.       -0.1824 Ry
        Total length         46.3494 bohr
 

     total cpu time spent up to now is     1230.9 secs

     total energy              =   -3293.24404847 Ry
     estimated scf accuracy    <       0.00004403 Ry

     iteration # 42     ecut=    29.40 Ry     beta= 0.05
     Davidson diagonalization with overlap
     ethr =  1.00E-08,  avg # of iterations = 10.7

     negative rho (up, down):  3.566E-02 0.000E+00
 
     Adding external electric field

     Computed dipole along edir(3) : 
        Dipole                1.5643 Ry au,          3.9761 Debye
        Dipole field          0.0020 Ry au, 
 
        Potential amp.       -0.1824 Ry
        Total length         46.3494 bohr
 

     total cpu time spent up to now is     1263.5 secs

     total energy              =   -3293.24408110 Ry
     estimated scf accuracy    <       0.00001066 Ry

     iteration # 43     ecut=    29.40 Ry     beta= 0.05
     Davidson diagonalization with overlap
     ethr =  2.42E-09,  avg # of iterations = 11.5

     negative rho (up, down):  3.564E-02 0.000E+00
 
     Adding external electric field

     Computed dipole along edir(3) : 
        Dipole                1.5647 Ry au,          3.9771 Debye
        Dipole field          0.0020 Ry au, 
 
        Potential amp.       -0.1825 Ry
        Total length         46.3494 bohr
 

     total cpu time spent up to now is     1299.7 secs

     total energy              =   -3293.24410548 Ry
     estimated scf accuracy    <       0.00001232 Ry

     iteration # 44     ecut=    29.40 Ry     beta= 0.05
     Davidson diagonalization with overlap
     ethr =  2.42E-09,  avg # of iterations =  1.3

     negative rho (up, down):  3.562E-02 0.000E+00
 
     Adding external electric field

     Computed dipole along edir(3) : 
        Dipole                1.5648 Ry au,          3.9773 Debye
        Dipole field          0.0020 Ry au, 
 
        Potential amp.       -0.1825 Ry
        Total length         46.3494 bohr
 

     total cpu time spent up to now is     1320.3 secs

     total energy              =   -3293.24412555 Ry
     estimated scf accuracy    <       0.00000894 Ry

     iteration # 45     ecut=    29.40 Ry     beta= 0.05
     Davidson diagonalization with overlap
     ethr =  2.03E-09,  avg # of iterations =  6.9

     negative rho (up, down):  3.560E-02 0.000E+00
 
     Adding external electric field

     Computed dipole along edir(3) : 
        Dipole                1.5640 Ry au,          3.9753 Debye
        Dipole field          0.0020 Ry au, 
 
        Potential amp.       -0.1824 Ry
        Total length         46.3494 bohr
 

     total cpu time spent up to now is     1346.1 secs

     total energy              =   -3293.24414637 Ry
     estimated scf accuracy    <       0.00000370 Ry

     iteration # 46     ecut=    29.40 Ry     beta= 0.05
     Davidson diagonalization with overlap
     ethr =  8.42E-10,  avg # of iterations = 10.1

     negative rho (up, down):  3.559E-02 0.000E+00
 
     Adding external electric field

     Computed dipole along edir(3) : 
        Dipole                1.5641 Ry au,          3.9756 Debye
        Dipole field          0.0020 Ry au, 
 
        Potential amp.       -0.1824 Ry
        Total length         46.3494 bohr
 

     total cpu time spent up to now is     1380.6 secs

     total energy              =   -3293.24416415 Ry
     estimated scf accuracy    <       0.00000277 Ry

     iteration # 47     ecut=    29.40 Ry     beta= 0.05
     Davidson diagonalization with overlap
     ethr =  6.30E-10,  avg # of iterations =  4.1

     negative rho (up, down):  3.559E-02 0.000E+00
 
     Adding external electric field

     Computed dipole along edir(3) : 
        Dipole                1.5627 Ry au,          3.9720 Debye
        Dipole field          0.0020 Ry au, 
 
        Potential amp.       -0.1822 Ry
        Total length         46.3494 bohr
 

     total cpu time spent up to now is     1403.4 secs

     total energy              =   -3293.24417983 Ry
     estimated scf accuracy    <       0.00000196 Ry

     iteration # 48     ecut=    29.40 Ry     beta= 0.05
     Davidson diagonalization with overlap
     c_bands:  1 eigenvalues not converged
     c_bands:  1 eigenvalues not converged
     c_bands:  1 eigenvalues not converged
     ethr =  4.45E-10,  avg # of iterations = 18.7

     negative rho (up, down):  3.558E-02 0.000E+00
 
     Adding external electric field

     Computed dipole along edir(3) : 
        Dipole                1.5631 Ry au,          3.9730 Debye
        Dipole field          0.0020 Ry au, 
 
        Potential amp.       -0.1823 Ry
        Total length         46.3494 bohr
 

     total cpu time spent up to now is     1450.9 secs

     total energy              =   -3293.24419388 Ry
     estimated scf accuracy    <       0.00000410 Ry

     iteration # 49     ecut=    29.40 Ry     beta= 0.05
     Davidson diagonalization with overlap
     c_bands:  1 eigenvalues not converged
     ethr =  4.45E-10,  avg # of iterations = 17.4

     negative rho (up, down):  3.558E-02 0.000E+00
 
     Adding external electric field

     Computed dipole along edir(3) : 
        Dipole                1.5629 Ry au,          3.9724 Debye
        Dipole field          0.0020 Ry au, 
 
        Potential amp.       -0.1823 Ry
        Total length         46.3494 bohr
 

     total cpu time spent up to now is     1496.5 secs

     total energy              =   -3293.24420756 Ry
     estimated scf accuracy    <       0.00000127 Ry

     iteration # 50     ecut=    29.40 Ry     beta= 0.05
     Davidson diagonalization with overlap
     ethr =  2.89E-10,  avg # of iterations = 10.4

     negative rho (up, down):  3.557E-02 0.000E+00
 
     Adding external electric field

     Computed dipole along edir(3) : 
        Dipole                1.5627 Ry au,          3.9720 Debye
        Dipole field          0.0020 Ry au, 
 
        Potential amp.       -0.1822 Ry
        Total length         46.3494 bohr
 

     total cpu time spent up to now is     1522.9 secs

     total energy              =   -3293.24421928 Ry
     estimated scf accuracy    <       0.00000041 Ry

     iteration # 51     ecut=    29.40 Ry     beta= 0.05
     Davidson diagonalization with overlap
     ethr =  9.33E-11,  avg # of iterations = 12.6

     negative rho (up, down):  3.557E-02 0.000E+00
 
     Adding external electric field

     Computed dipole along edir(3) : 
        Dipole                1.5627 Ry au,          3.9720 Debye
        Dipole field          0.0020 Ry au, 
 
        Potential amp.       -0.1822 Ry
        Total length         46.3494 bohr
 

     total cpu time spent up to now is     1559.3 secs

     total energy              =   -3293.24422969 Ry
     estimated scf accuracy    <       0.00000024 Ry

     iteration # 52     ecut=    29.40 Ry     beta= 0.05
     Davidson diagonalization with overlap
     ethr =  5.56E-11,  avg # of iterations =  2.0

     negative rho (up, down):  3.557E-02 0.000E+00
 
     Adding external electric field

     Computed dipole along edir(3) : 
        Dipole                1.5627 Ry au,          3.9720 Debye
        Dipole field          0.0020 Ry au, 
 
        Potential amp.       -0.1822 Ry
        Total length         46.3494 bohr
 

     total cpu time spent up to now is     1581.5 secs

     total energy              =   -3293.24423908 Ry
     estimated scf accuracy    <       0.00000018 Ry

     iteration # 53     ecut=    29.40 Ry     beta= 0.05
     Davidson diagonalization with overlap
     ethr =  4.16E-11,  avg # of iterations = 13.6

     negative rho (up, down):  3.557E-02 0.000E+00
 
     Adding external electric field

     Computed dipole along edir(3) : 
        Dipole                1.5627 Ry au,          3.9721 Debye
        Dipole field          0.0020 Ry au, 
 
        Potential amp.       -0.1823 Ry
        Total length         46.3494 bohr
 

     total cpu time spent up to now is     1612.9 secs

     total energy              =   -3293.24424767 Ry
     estimated scf accuracy    <       0.00000015 Ry

     iteration # 54     ecut=    29.40 Ry     beta= 0.05
     Davidson diagonalization with overlap
     ethr =  3.39E-11,  avg # of iterations = 10.4

     negative rho (up, down):  3.557E-02 0.000E+00
 
     Adding external electric field

     Computed dipole along edir(3) : 
        Dipole                1.5629 Ry au,          3.9725 Debye
        Dipole field          0.0020 Ry au, 
 
        Potential amp.       -0.1823 Ry
        Total length         46.3494 bohr
 

     total cpu time spent up to now is     1639.4 secs

     total energy              =   -3293.24425541 Ry
     estimated scf accuracy    <       0.00000009 Ry

     iteration # 55     ecut=    29.40 Ry     beta= 0.05
     Davidson diagonalization with overlap
     ethr =  1.98E-11,  avg # of iterations = 14.7

     negative rho (up, down):  3.572E-02 0.000E+00
 
     Adding external electric field

     Computed dipole along edir(3) : 
        Dipole                1.5632 Ry au,          3.9733 Debye
        Dipole field          0.0020 Ry au, 
 
        Potential amp.       -0.1823 Ry
        Total length         46.3494 bohr
 

     total cpu time spent up to now is     1676.6 secs

     End of self-consistent calculation

          k = 0.0000 0.0000 0.0000 ( 26871 PWs)   bands (ev):

   -57.7042 -57.6969 -57.6793 -57.6775 -57.6536 -57.6120 -57.5664 -57.5269
   -57.5030 -57.4998 -57.4992 -57.4943 -57.4660 -57.4559 -56.7860 -56.7251
   -56.7009 -56.6974 -34.1011 -34.0866 -34.0848 -34.0829 -34.0588 -34.0407
   -34.0351 -34.0209 -34.0162 -33.9972 -33.9653 -33.9613 -33.9512 -33.9455
   -33.9005 -33.8978 -33.8914 -33.8843 -33.8712 -33.8491 -33.8421 -33.8303
   -33.8267 -33.8222 -33.8007 -33.7995 -33.7972 -33.7804 -33.7657 -33.7435
   -33.7386 -33.7343 -33.7229 -33.7151 -33.7066 -33.6920 -33.6875 -33.6862
   -33.6831 -33.6779 -33.6717 -33.6430 -33.2422 -33.0398 -33.0396 -33.0355
   -33.0239 -33.0207 -32.9950 -32.9805 -32.9512 -32.8885 -32.8845 -32.7508
   -19.2007 -19.0343 -18.8612 -18.5627 -18.1597 -17.9918 -17.9692 -17.9513
   -17.9116 -17.8118 -17.8106 -17.6317 -17.5728 -17.5405 -17.5112 -17.5052
   -17.4340 -17.3962 -17.3808 -17.3627 -17.3561 -17.3502 -17.3331 -17.2893
   -17.2529 -17.1980 -17.1829 -17.1469 -17.1358 -17.1341 -17.1330 -17.0644
   -16.8289 -15.1916 -15.1339 -15.1322 -12.1134  -7.8969  -6.8192  -6.5450
    -6.3364  -5.8910  -5.6740  -5.6218  -5.5406  -5.1843  -5.1704  -5.1024
    -5.0904  -5.0637  -4.9971  -4.9829  -4.9792  -4.9642  -4.8827  -4.8467
    -4.8345  -4.7865  -4.7682  -4.7108  -4.6457  -4.6358  -4.5764  -4.5396
    -4.5041  -4.4985  -4.4932  -4.4845  -4.4689  -4.4350  -4.3606  -4.3102
    -4.1760  -4.1694  -4.1170  -4.0516  -4.0235  -4.0154  -3.9549  -3.8799
    -3.8377  -3.8296  -3.7881  -3.7585  -3.7231  -3.7018  -3.6766  -3.5859
    -3.4929  -3.4581  -3.4533  -3.4120  -3.3989  -3.3459  -3.2308  -3.1782
    -3.1103  -3.0485  -2.9864  -2.9637  -2.9227  -2.8687  -2.8459  -2.7954
    -2.7749  -2.7219  -2.6775  -2.6270  -2.5340  -2.4761  -2.4706  -2.4590
    -2.4028  -2.3868  -2.3727  -2.3499  -2.3248  -2.2699  -2.2373  -2.2059
    -2.1726  -2.1417  -2.0969  -2.0616  -2.0506  -1.9424  -1.9090  -1.8806
    -1.7550  -1.7292  -1.6847  -1.6538  -1.5605  -1.5455  -1.5445  -1.4297
    -1.4141  -1.0969  -1.0003  -0.7458  -0.4748  -0.4295  -0.4287  -0.1649
    -0.1621  -0.0327   0.5249   1.2671   1.5223   1.6686   1.7268   1.7441
     1.7913   1.8757   1.8924   1.9223   1.9412   1.9782

          k = 0.0000 0.0280 0.0000 ( 26907 PWs)   bands (ev):

   -57.7018 -57.6966 -57.6870 -57.6722 -57.6544 -57.6118 -57.5664 -57.5247
   -57.5096 -57.4998 -57.4949 -57.4932 -57.4693 -57.4538 -56.7861 -56.7228
   -56.7078 -56.6929 -34.1529 -34.1447 -34.0853 -34.0542 -34.0364 -34.0287
   -34.0266 -34.0165 -34.0000 -33.9863 -33.9766 -33.9725 -33.9462 -33.9416
   -33.8947 -33.8858 -33.8670 -33.8648 -33.8495 -33.8414 -33.8371 -33.8239
   -33.8230 -33.8211 -33.8186 -33.8130 -33.8023 -33.7829 -33.7668 -33.7436
   -33.7345 -33.7325 -33.7232 -33.7186 -33.7102 -33.7047 -33.7023 -33.6911
   -33.6773 -33.6723 -33.6705 -33.6667 -33.2454 -33.1056 -33.0382 -33.0280
   -33.0184 -32.9955 -32.9806 -32.9459 -32.9433 -32.9081 -32.8708 -32.7767
   -19.1808 -19.0582 -18.8566 -18.5108 -18.1613 -18.1143 -17.9475 -17.9207
   -17.8783 -17.8676 -17.7286 -17.6780 -17.6426 -17.5502 -17.4957 -17.4874
   -17.4558 -17.4358 -17.4134 -17.3476 -17.3268 -17.2994 -17.2894 -17.2716
   -17.2312 -17.2097 -17.2017 -17.1771 -17.1671 -17.1451 -17.0645 -17.0330
   -16.8563 -15.1934 -15.1729 -15.0901 -12.1133  -7.8987  -6.8125  -6.5468
    -6.3232  -5.8182  -5.6091  -5.5417  -5.4710  -5.3601  -5.3367  -5.1442
    -5.0916  -5.0735  -5.0441  -5.0275  -5.0206  -4.9708  -4.9235  -4.9111
    -4.8019  -4.7777  -4.7267  -4.6901  -4.6669  -4.6473  -4.5964  -4.5794
    -4.5682  -4.5184  -4.4939  -4.4548  -4.4238  -4.3868  -4.3474  -4.3267
    -4.2601  -4.2099  -4.1340  -4.1154  -4.0957  -4.0716  -3.9689  -3.9241
    -3.8369  -3.7626  -3.7098  -3.6891  -3.6528  -3.5894  -3.5630  -3.4996
    -3.4547  -3.4375  -3.4109  -3.3687  -3.3004  -3.2417  -3.1893  -3.1251
    -3.0670  -3.0061  -2.9838  -2.9253  -2.8920  -2.8872  -2.8652  -2.8323
    -2.7594  -2.7139  -2.6907  -2.6576  -2.6035  -2.5787  -2.5266  -2.4488
    -2.4103  -2.3681  -2.3493  -2.3356  -2.3253  -2.3045  -2.2181  -2.1815
    -2.1420  -2.0993  -2.0646  -2.0169  -1.9956  -1.9607  -1.9523  -1.9365
    -1.8946  -1.8549  -1.7791  -1.6078  -1.5710  -1.5350  -1.5118  -1.3641
    -1.3110  -1.1701  -1.0629  -0.8999  -0.5794  -0.4477  -0.3442  -0.2000
    -0.1042  -0.0793   0.5219   1.3475   1.5876   1.6336   1.6689   1.7129
     1.8007   1.8506   1.9168   1.9408   1.9659   1.9791

          k = 0.0000-0.0559 0.0000 ( 26942 PWs)   bands (ev):

   -57.6964 -57.6962 -57.6947 -57.6700 -57.6551 -57.6114 -57.5664 -57.5205
   -57.5160 -57.4999 -57.4928 -57.4920 -57.4721 -57.4523 -56.7861 -56.7181
   -56.7147 -56.6907 -34.1774 -34.1675 -34.0861 -34.0602 -34.0406 -34.0346
   -34.0305 -34.0283 -33.9969 -33.9855 -33.9522 -33.9433 -33.9114 -33.8946
   -33.8925 -33.8823 -33.8742 -33.8720 -33.8694 -33.8483 -33.8471 -33.8356
   -33.8225 -33.8144 -33.8078 -33.7827 -33.7764 -33.7733 -33.7677 -33.7435
   -33.7367 -33.7358 -33.7310 -33.7226 -33.7213 -33.7186 -33.7140 -33.7034
   -33.6924 -33.6754 -33.6695 -33.6671 -33.2489 -33.1301 -33.0354 -33.0324
   -33.0170 -32.9960 -32.9807 -32.9319 -32.9278 -32.8651 -32.8497 -32.8459
   -19.1479 -19.0947 -18.8526 -18.3744 -18.3560 -18.0360 -17.9679 -17.9264
   -17.8471 -17.8184 -17.7873 -17.7745 -17.5978 -17.5611 -17.5518 -17.4923
   -17.4559 -17.4215 -17.3844 -17.3391 -17.3011 -17.2711 -17.2500 -17.2473
   -17.2377 -17.2369 -17.2327 -17.2056 -17.1857 -17.1158 -17.0699 -16.9318
   -16.9301 -15.1929 -15.1907 -15.0715 -12.1133  -7.9003  -6.8058  -6.5484
    -6.3099  -5.6245  -5.6153  -5.4815  -5.4401  -5.3402  -5.3213  -5.3201
    -5.2836  -5.2757  -5.0989  -5.0643  -4.9529  -4.9114  -4.8924  -4.7985
    -4.7851  -4.7693  -4.7662  -4.7587  -4.7419  -4.7133  -4.6763  -4.6235
    -4.5905  -4.5600  -4.5074  -4.4758  -4.4249  -4.3753  -4.3502  -4.3274
    -4.1968  -4.1909  -4.1630  -4.1164  -4.0577  -3.9855  -3.9674  -3.9350
    -3.8431  -3.7655  -3.7292  -3.7110  -3.5813  -3.5546  -3.5319  -3.5070
    -3.4307  -3.3682  -3.3216  -3.2602  -3.2166  -3.1657  -3.1159  -3.0955
    -3.0475  -3.0115  -2.9525  -2.9123  -2.8851  -2.8604  -2.7720  -2.7332
    -2.7230  -2.7150  -2.6683  -2.6266  -2.6092  -2.5768  -2.5719  -2.5555
    -2.4885  -2.4441  -2.3802  -2.3301  -2.3174  -2.2848  -2.2570  -2.2175
    -2.1771  -2.1534  -2.1368  -2.0687  -2.0148  -1.9914  -1.9243  -1.9112
    -1.8550  -1.7889  -1.7850  -1.7009  -1.6047  -1.5647  -1.3084  -1.2546
    -1.2462  -1.2260  -1.2115  -1.1430  -0.6745  -0.3729  -0.3651  -0.1637
    -0.1623  -0.0805   0.5187   1.4968   1.5177   1.5299   1.7453   1.7780
     1.8323   1.8631   1.8971   1.9040   1.9048   1.9919

          k = 0.0380 0.0000 0.0000 ( 26897 PWs)   bands (ev):

   -57.7041 -57.6969 -57.6793 -57.6775 -57.6537 -57.6121 -57.5664 -57.5266
   -57.5029 -57.4998 -57.4993 -57.4945 -57.4661 -57.4560 -56.7860 -56.7250
   -56.7010 -56.6975 -34.1030 -34.0878 -34.0859 -34.0832 -34.0605 -34.0413
   -34.0352 -34.0212 -34.0164 -33.9974 -33.9693 -33.9659 -33.9533 -33.9433
   -33.9022 -33.8996 -33.8783 -33.8721 -33.8665 -33.8498 -33.8390 -33.8222
   -33.8131 -33.8106 -33.8002 -33.7989 -33.7969 -33.7802 -33.7727 -33.7570
   -33.7471 -33.7377 -33.7243 -33.7227 -33.7145 -33.6916 -33.6867 -33.6858
   -33.6829 -33.6779 -33.6719 -33.6433 -33.2421 -33.0432 -33.0397 -33.0356
   -33.0236 -33.0204 -32.9951 -32.9810 -32.9510 -32.8886 -32.8846 -32.7506
   -19.1935 -19.0339 -18.8594 -18.4981 -18.0938 -17.9618 -17.9449 -17.9330
   -17.8970 -17.8032 -17.8015 -17.6416 -17.5796 -17.5389 -17.5250 -17.5177
   -17.4612 -17.4542 -17.4315 -17.3816 -17.3652 -17.3468 -17.3414 -17.3362
   -17.2503 -17.2314 -17.2032 -17.1648 -17.1422 -17.0866 -17.0813 -17.0629
   -16.9094 -15.1882 -15.1343 -15.1326 -12.1128  -7.8967  -6.8232  -6.5497
    -6.3255  -5.8030  -5.4788  -5.4335  -5.3477  -5.2111  -5.1933  -5.1021
    -5.0776  -5.0461  -5.0222  -4.9592  -4.9182  -4.9062  -4.8622  -4.7873
    -4.7659  -4.7614  -4.7304  -4.6854  -4.6730  -4.6101  -4.5664  -4.5465
    -4.5187  -4.4885  -4.4759  -4.4361  -4.3612  -4.3344  -4.3123  -4.3026
    -4.2013  -4.1876  -4.1171  -4.0792  -4.0592  -4.0192  -3.9830  -3.9501
    -3.9268  -3.8424  -3.8171  -3.8027  -3.7303  -3.6914  -3.5979  -3.5669
    -3.5438  -3.4693  -3.4411  -3.3912  -3.3792  -3.3159  -3.2467  -3.2077
    -3.1422  -3.0814  -3.0181  -2.9583  -2.9281  -2.9029  -2.8357  -2.8118
    -2.7936  -2.7370  -2.7081  -2.6890  -2.6216  -2.6142  -2.5688  -2.5410
    -2.5251  -2.4945  -2.4236  -2.3497  -2.3002  -2.2914  -2.2745  -2.2490
    -2.2130  -2.1534  -2.1126  -2.0774  -2.0313  -1.9225  -1.8670  -1.8421
    -1.8236  -1.7738  -1.7306  -1.7009  -1.6526  -1.5941  -1.5868  -1.3711
    -1.3617  -1.1600  -1.0675  -0.7379  -0.5046  -0.4183  -0.4173  -0.2128
    -0.2105  -0.1238   0.4956   1.2717   1.5997   1.6540   1.6728   1.6975
     1.7495   1.7660   1.7708   1.8640   1.8897   1.9171

          k = 0.0380 0.0280 0.0000 ( 26880 PWs)   bands (ev):

   -57.7018 -57.6965 -57.6870 -57.6721 -57.6543 -57.6117 -57.5664 -57.5245
   -57.5095 -57.4998 -57.4948 -57.4934 -57.4694 -57.4538 -56.7860 -56.7228
   -56.7078 -56.6928 -34.1537 -34.1467 -34.0854 -34.0543 -34.0364 -34.0288
   -34.0268 -34.0224 -34.0002 -33.9871 -33.9773 -33.9735 -33.9425 -33.9399
   -33.8871 -33.8816 -33.8674 -33.8613 -33.8423 -33.8358 -33.8279 -33.8232
   -33.8228 -33.8194 -33.8153 -33.8033 -33.8016 -33.7826 -33.7713 -33.7559
   -33.7473 -33.7335 -33.7313 -33.7226 -33.7101 -33.7062 -33.7022 -33.6913
   -33.6771 -33.6721 -33.6707 -33.6670 -33.2454 -33.1051 -33.0414 -33.0290
   -33.0168 -32.9956 -32.9810 -32.9459 -32.9433 -32.9081 -32.8706 -32.7769
   -19.1749 -19.0569 -18.8549 -18.4490 -18.1235 -18.0494 -17.9202 -17.8966
   -17.8605 -17.8342 -17.7159 -17.7070 -17.6325 -17.5791 -17.5432 -17.5284
   -17.4841 -17.4268 -17.4007 -17.3781 -17.3660 -17.3264 -17.3211 -17.3089
   -17.2620 -17.2339 -17.2140 -17.1814 -17.1634 -17.0914 -17.0613 -16.9918
   -16.9340 -15.1905 -15.1727 -15.0901 -12.1127  -7.8985  -6.8143  -6.5553
    -6.3141  -5.7329  -5.4154  -5.3738  -5.3504  -5.3034  -5.2675  -5.2629
    -5.1011  -5.0243  -4.9990  -4.9813  -4.9441  -4.9172  -4.8655  -4.8016
    -4.7941  -4.7570  -4.7330  -4.6896  -4.6688  -4.6383  -4.5940  -4.5697
    -4.5525  -4.5159  -4.5025  -4.4604  -4.4000  -4.3708  -4.3471  -4.2932
    -4.2589  -4.1886  -4.1193  -4.0915  -4.0698  -3.9899  -3.9392  -3.9145
    -3.8426  -3.8199  -3.7331  -3.6969  -3.6242  -3.6064  -3.5420  -3.5035
    -3.4643  -3.4483  -3.3880  -3.3622  -3.3256  -3.2960  -3.2703  -3.1777
    -3.1195  -3.0910  -3.0541  -2.9788  -2.9317  -2.8782  -2.8578  -2.8207
    -2.8014  -2.7601  -2.7179  -2.6729  -2.6306  -2.6067  -2.5841  -2.5267
    -2.4963  -2.4829  -2.4471  -2.3811  -2.2962  -2.2790  -2.2627  -2.2545
    -2.2152  -2.1416  -2.1177  -2.0820  -2.0594  -2.0123  -1.9398  -1.9046
    -1.8693  -1.8044  -1.7784  -1.7059  -1.6304  -1.6064  -1.5333  -1.3532
    -1.2259  -1.1931  -1.1242  -0.9133  -0.5698  -0.4496  -0.3311  -0.2044
    -0.1998  -0.1303   0.4947   1.3480   1.5553   1.6392   1.6794   1.7038
     1.7334   1.7606   1.8114   1.8659   1.9088   1.9573

          k = 0.0380-0.0559 0.0000 ( 26850 PWs)   bands (ev):

   -57.6964 -57.6962 -57.6947 -57.6699 -57.6550 -57.6114 -57.5663 -57.5204
   -57.5158 -57.4998 -57.4926 -57.4921 -57.4722 -57.4522 -56.7860 -56.7181
   -56.7147 -56.6906 -34.1783 -34.1695 -34.0861 -34.0602 -34.0454 -34.0354
   -34.0306 -34.0284 -33.9969 -33.9866 -33.9526 -33.9367 -33.9071 -33.8949
   -33.8929 -33.8805 -33.8741 -33.8578 -33.8572 -33.8459 -33.8447 -33.8356
   -33.8223 -33.8139 -33.7979 -33.7809 -33.7762 -33.7744 -33.7724 -33.7490
   -33.7464 -33.7427 -33.7326 -33.7298 -33.7216 -33.7177 -33.7144 -33.7059
   -33.6925 -33.6753 -33.6693 -33.6671 -33.2487 -33.1296 -33.0375 -33.0345
   -33.0150 -32.9960 -32.9810 -32.9319 -32.9278 -32.8650 -32.8496 -32.8458
   -19.1443 -19.0913 -18.8509 -18.3207 -18.3028 -17.9722 -17.9273 -17.9101
   -17.8180 -17.7849 -17.7670 -17.7454 -17.6690 -17.5994 -17.5444 -17.5368
   -17.5311 -17.4136 -17.4007 -17.3638 -17.3299 -17.3099 -17.3008 -17.2775
   -17.2661 -17.2477 -17.2302 -17.2189 -17.1720 -17.0722 -17.0029 -16.9957
   -16.9519 -15.1913 -15.1891 -15.0712 -12.1125  -7.9001  -6.8092  -6.5580
    -6.3011  -5.5490  -5.5383  -5.4392  -5.3607  -5.2795  -5.2279  -5.2208
    -5.1413  -5.0559  -5.0529  -5.0237  -4.9961  -4.8720  -4.8519  -4.8328
    -4.8253  -4.7976  -4.7840  -4.7347  -4.7046  -4.6907  -4.6339  -4.6148
    -4.6036  -4.5072  -4.5000  -4.4876  -4.4136  -4.3956  -4.3489  -4.2640
    -4.2069  -4.1896  -4.1503  -4.1022  -4.0065  -3.9783  -3.9026  -3.8022
    -3.7860  -3.7683  -3.6859  -3.6465  -3.5947  -3.5598  -3.5391  -3.4836
    -3.4067  -3.3974  -3.3573  -3.3254  -3.3026  -3.2174  -3.1847  -3.1584
    -3.1435  -3.0721  -3.0493  -3.0172  -2.9227  -2.8961  -2.8536  -2.7861
    -2.7652  -2.7307  -2.7036  -2.6594  -2.6450  -2.6180  -2.6086  -2.5767
    -2.5524  -2.4470  -2.3879  -2.3740  -2.3600  -2.3516  -2.3427  -2.2609
    -2.2242  -2.2120  -2.1048  -2.0802  -2.0475  -2.0147  -1.9770  -1.9628
    -1.8816  -1.7938  -1.7798  -1.7347  -1.6775  -1.6387  -1.3229  -1.3031
    -1.2382  -1.2114  -1.2022  -1.1018  -0.6623  -0.3634  -0.3560  -0.1932
    -0.1672  -0.1661   0.4931   1.4997   1.5066   1.5186   1.6901   1.7086
     1.7220   1.7784   1.7974   1.9008   1.9349   1.9559

          k = 0.0380-0.0280 0.0000 ( 26873 PWs)   bands (ev):

   -57.7018 -57.6965 -57.6870 -57.6721 -57.6543 -57.6117 -57.5664 -57.5245
   -57.5095 -57.4998 -57.4948 -57.4934 -57.4694 -57.4538 -56.7860 -56.7228
   -56.7078 -56.6928 -34.1537 -34.1466 -34.0854 -34.0543 -34.0364 -34.0288
   -34.0268 -34.0224 -34.0001 -33.9871 -33.9780 -33.9745 -33.9426 -33.9382
   -33.8879 -33.8812 -33.8674 -33.8612 -33.8406 -33.8361 -33.8294 -33.8232
   -33.8228 -33.8190 -33.8148 -33.8027 -33.8013 -33.7826 -33.7735 -33.7558
   -33.7465 -33.7335 -33.7303 -33.7226 -33.7099 -33.7070 -33.7022 -33.6912
   -33.6771 -33.6722 -33.6706 -33.6671 -33.2454 -33.1051 -33.0414 -33.0290
   -33.0168 -32.9955 -32.9810 -32.9459 -32.9433 -32.9081 -32.8706 -32.7769
   -19.1750 -19.0568 -18.8549 -18.4486 -18.1241 -18.0517 -17.9203 -17.8975
   -17.8585 -17.8338 -17.7118 -17.6956 -17.6346 -17.5970 -17.5427 -17.5291
   -17.4851 -17.4209 -17.4008 -17.3751 -17.3548 -17.3390 -17.3235 -17.3084
   -17.2616 -17.2373 -17.2116 -17.1812 -17.1596 -17.0915 -17.0623 -16.9921
   -16.9342 -15.1905 -15.1727 -15.0901 -12.1127  -7.8984  -6.8182  -6.5527
    -6.3124  -5.7322  -5.4114  -5.3693  -5.3463  -5.3160  -5.2709  -5.2669
    -5.0937  -5.0280  -5.0002  -4.9696  -4.9449  -4.9053  -4.8769  -4.8113
    -4.7938  -4.7438  -4.7261  -4.7051  -4.6802  -4.6161  -4.5923  -4.5826
    -4.5502  -4.5252  -4.5042  -4.4574  -4.3958  -4.3695  -4.3364  -4.3010
    -4.2570  -4.1848  -4.1305  -4.0875  -4.0645  -4.0122  -3.9447  -3.9074
    -3.8297  -3.7840  -3.7362  -3.6927  -3.6550  -3.6262  -3.5539  -3.5060
    -3.4796  -3.4411  -3.3906  -3.3619  -3.3279  -3.2700  -3.2321  -3.2003
    -3.1382  -3.0941  -3.0132  -2.9673  -2.9528  -2.9061  -2.8626  -2.8292
    -2.8002  -2.7699  -2.6940  -2.6570  -2.6436  -2.6128  -2.5800  -2.5340
    -2.5143  -2.4918  -2.4220  -2.3532  -2.3074  -2.2831  -2.2686  -2.2537
    -2.2231  -2.1221  -2.1023  -2.0797  -2.0396  -2.0014  -1.9707  -1.9018
    -1.8819  -1.8020  -1.7654  -1.6879  -1.6419  -1.6192  -1.5326  -1.3577
    -1.2266  -1.1837  -1.1435  -0.9139  -0.5699  -0.4497  -0.3311  -0.2049
    -0.1998  -0.1296   0.4942   1.3450   1.5528   1.6337   1.6773   1.6919
     1.7338   1.7831   1.8191   1.8589   1.9119   1.9511

          k =-0.0760-0.0000 0.0000 ( 26902 PWs)   bands (ev):

   -57.7040 -57.6968 -57.6794 -57.6776 -57.6536 -57.6121 -57.5664 -57.5264
   -57.5028 -57.4998 -57.4992 -57.4947 -57.4661 -57.4561 -56.7860 -56.7249
   -56.7010 -56.6975 -34.1048 -34.0888 -34.0869 -34.0833 -34.0621 -34.0418
   -34.0353 -34.0213 -34.0165 -33.9976 -33.9751 -33.9677 -33.9599 -33.9352
   -33.9034 -33.9009 -33.8711 -33.8659 -33.8509 -33.8358 -33.8317 -33.8217
   -33.8001 -33.7989 -33.7972 -33.7967 -33.7932 -33.7918 -33.7834 -33.7778
   -33.7505 -33.7372 -33.7357 -33.7250 -33.7231 -33.6911 -33.6871 -33.6846
   -33.6827 -33.6779 -33.6721 -33.6439 -33.2421 -33.0465 -33.0395 -33.0354
   -33.0233 -33.0202 -32.9952 -32.9815 -32.9510 -32.8887 -32.8847 -32.7507
   -19.1867 -19.0335 -18.8576 -18.4189 -18.0028 -17.9756 -17.9534 -17.9343
   -17.7935 -17.7911 -17.7700 -17.6593 -17.5819 -17.5400 -17.5287 -17.5042
   -17.4900 -17.4834 -17.4623 -17.4516 -17.4365 -17.3695 -17.3621 -17.3521
   -17.3447 -17.2173 -17.1917 -17.1521 -17.1438 -17.0680 -17.0508 -17.0499
   -16.9822 -15.1851 -15.1347 -15.1331 -12.1122  -7.8965  -6.8266  -6.5529
    -6.3180  -5.7551  -5.2396  -5.1727  -5.1688  -5.1561  -5.1265  -5.1254
    -5.0443  -5.0320  -4.9754  -4.9194  -4.9072  -4.8444  -4.7770  -4.7735
    -4.7586  -4.7375  -4.7212  -4.6986  -4.6902  -4.6447  -4.5830  -4.5354
    -4.5071  -4.4755  -4.4689  -4.4626  -4.3877  -4.3455  -4.3128  -4.2910
    -4.2633  -4.1307  -4.0896  -4.0252  -4.0021  -3.9695  -3.9427  -3.9280
    -3.8981  -3.8635  -3.7602  -3.7002  -3.6913  -3.6904  -3.6575  -3.5671
    -3.5363  -3.4908  -3.4638  -3.3929  -3.3628  -3.3377  -3.2988  -3.2921
    -3.2145  -3.1558  -3.0982  -3.0627  -3.0223  -3.0101  -2.9858  -2.8902
    -2.8449  -2.8171  -2.7831  -2.7388  -2.6902  -2.6753  -2.5917  -2.5670
    -2.5137  -2.4703  -2.4538  -2.4354  -2.4213  -2.4090  -2.3806  -2.2000
    -2.1443  -2.1040  -2.0763  -2.0168  -1.9500  -1.9281  -1.9207  -1.9167
    -1.9013  -1.8651  -1.8252  -1.7929  -1.5640  -1.5571  -1.4579  -1.3785
    -1.3352  -1.3325  -1.0616  -0.7326  -0.5272  -0.4020  -0.4006  -0.2589
    -0.2571  -0.1872   0.4730   1.2731   1.4639   1.6159   1.6284   1.6852
     1.6965   1.7269   1.8282   1.8487   1.8635   1.8799

          k =-0.0760 0.0279 0.0000 ( 26908 PWs)   bands (ev):

   -57.7018 -57.6965 -57.6870 -57.6722 -57.6543 -57.6117 -57.5664 -57.5244
   -57.5094 -57.4998 -57.4947 -57.4936 -57.4694 -57.4538 -56.7860 -56.7228
   -56.7078 -56.6928 -34.1548 -34.1487 -34.0855 -34.0544 -34.0363 -34.0286
   -34.0286 -34.0268 -34.0005 -33.9878 -33.9787 -33.9756 -33.9432 -33.9320
   -33.8886 -33.8788 -33.8602 -33.8423 -33.8347 -33.8321 -33.8261 -33.8233
   -33.8217 -33.8192 -33.8043 -33.7928 -33.7916 -33.7895 -33.7826 -33.7787
   -33.7503 -33.7493 -33.7328 -33.7228 -33.7150 -33.7054 -33.7021 -33.6915
   -33.6771 -33.6721 -33.6709 -33.6675 -33.2453 -33.1049 -33.0445 -33.0299
   -33.0158 -32.9957 -32.9816 -32.9459 -32.9433 -32.9081 -32.8707 -32.7769
   -19.1693 -19.0556 -18.8533 -18.3729 -18.0819 -17.9610 -17.9336 -17.9178
   -17.7956 -17.7527 -17.7469 -17.6881 -17.6521 -17.5656 -17.5464 -17.5160
   -17.4794 -17.4743 -17.4700 -17.4484 -17.4424 -17.3661 -17.3579 -17.3257
   -17.2825 -17.2269 -17.2228 -17.1768 -17.1484 -17.1254 -17.0653 -17.0026
   -16.9141 -15.1879 -15.1724 -15.0902 -12.1120  -7.8983  -6.8197  -6.5601
    -6.3058  -5.6855  -5.3854  -5.3367  -5.2754  -5.1706  -5.1086  -5.0518
    -4.9863  -4.9510  -4.9479  -4.8959  -4.8889  -4.8741  -4.8484  -4.8295
    -4.7932  -4.7427  -4.7278  -4.6780  -4.6346  -4.6276  -4.5854  -4.5689
    -4.5581  -4.5369  -4.4369  -4.3982  -4.3634  -4.3392  -4.3305  -4.2711
    -4.2518  -4.2399  -4.1265  -4.0952  -4.0574  -3.9702  -3.9321  -3.8911
    -3.8186  -3.7878  -3.7367  -3.7087  -3.6516  -3.6249  -3.5610  -3.5029
    -3.4538  -3.4231  -3.3931  -3.3603  -3.3473  -3.3267  -3.2409  -3.1897
    -3.1450  -3.1185  -3.1123  -3.0957  -3.0672  -3.0135  -2.9414  -2.9164
    -2.8631  -2.8185  -2.7805  -2.7325  -2.6958  -2.6638  -2.6388  -2.6160
    -2.5971  -2.5381  -2.5145  -2.4765  -2.4228  -2.3895  -2.3211  -2.2568
    -2.2462  -2.1831  -2.1002  -2.0392  -1.9869  -1.9713  -1.9486  -1.9165
    -1.8673  -1.8433  -1.8092  -1.7183  -1.6082  -1.4815  -1.4679  -1.4266
    -1.3428  -1.1521  -1.1335  -0.9309  -0.5554  -0.4512  -0.3158  -0.3007
    -0.2075  -0.1644   0.4740   1.3445   1.4863   1.5131   1.6479   1.6767
     1.6872   1.7135   1.7788   1.8241   1.8781   1.9150

          k =-0.0760-0.0559 0.0000 ( 26868 PWs)   bands (ev):

   -57.6964 -57.6961 -57.6947 -57.6699 -57.6550 -57.6113 -57.5664 -57.5203
   -57.5156 -57.4998 -57.4926 -57.4924 -57.4723 -57.4522 -56.7860 -56.7181
   -56.7147 -56.6906 -34.1792 -34.1715 -34.0861 -34.0600 -34.0507 -34.0358
   -34.0305 -34.0284 -33.9968 -33.9876 -33.9532 -33.9300 -33.9032 -33.8953
   -33.8933 -33.8797 -33.8732 -33.8453 -33.8444 -33.8402 -33.8363 -33.8351
   -33.8231 -33.8131 -33.7882 -33.7866 -33.7790 -33.7766 -33.7738 -33.7646
   -33.7553 -33.7496 -33.7342 -33.7326 -33.7204 -33.7181 -33.7150 -33.7094
   -33.6927 -33.6753 -33.6692 -33.6670 -33.2486 -33.1293 -33.0398 -33.0368
   -33.0137 -32.9961 -32.9817 -32.9318 -32.9277 -32.8649 -32.8497 -32.8458
   -19.1409 -19.0881 -18.8494 -18.2561 -18.2391 -17.9259 -17.8838 -17.8350
   -17.8311 -17.8072 -17.7367 -17.7198 -17.6860 -17.6222 -17.5390 -17.5097
   -17.4830 -17.4513 -17.4368 -17.4298 -17.4200 -17.3974 -17.3558 -17.3522
   -17.3019 -17.2550 -17.2200 -17.1701 -17.1396 -17.0897 -17.0640 -17.0369
   -16.8627 -15.1898 -15.1876 -15.0709 -12.1119  -7.9000  -6.8125  -6.5672
    -6.2939  -5.5041  -5.4948  -5.4869  -5.4382  -5.1493  -5.0390  -4.9916
    -4.9873  -4.9611  -4.9034  -4.8891  -4.8758  -4.8602  -4.8488  -4.8127
    -4.8079  -4.7645  -4.7523  -4.7382  -4.6882  -4.6304  -4.6249  -4.6005
    -4.5915  -4.5174  -4.5096  -4.4593  -4.3653  -4.3212  -4.3021  -4.2969
    -4.2588  -4.2259  -4.2180  -4.1470  -3.8988  -3.8897  -3.8668  -3.8487
    -3.8108  -3.7631  -3.7330  -3.7133  -3.6539  -3.5510  -3.4271  -3.3930
    -3.3798  -3.3631  -3.3379  -3.2984  -3.2866  -3.2764  -3.2325  -3.2010
    -3.1982  -3.1553  -3.1131  -3.0240  -2.9893  -2.9326  -2.8867  -2.8445
    -2.8329  -2.8206  -2.8141  -2.7974  -2.7682  -2.7538  -2.7393  -2.7015
    -2.6842  -2.6205  -2.5676  -2.5056  -2.4838  -2.4284  -2.3571  -2.2764
    -2.2529  -2.1908  -2.0980  -2.0410  -2.0010  -1.9676  -1.9486  -1.9280
    -1.8481  -1.8232  -1.7959  -1.7822  -1.5191  -1.5160  -1.3711  -1.3377
    -1.2868  -1.2785  -1.2111  -1.0519  -0.6411  -0.3555  -0.3485  -0.3201
    -0.1645  -0.1643   0.4752   1.4384   1.5032   1.5158   1.6072   1.6140
     1.6286   1.7253   1.7664   1.7700   1.9055   1.9861

     the Fermi energy is     1.3771 ev

!    total energy              =   -3293.24432606 Ry
     estimated scf accuracy    <       0.00000002 Ry
     smearing contrib. (-TS)   =      -0.03194469 Ry
     internal energy E=F+TS    =   -3293.21238137 Ry

     The total energy is F=E-TS. E is the sum of the following terms:
     one-electron contribution =  -34435.08963059 Ry
     hartree contribution      =   17282.70972581 Ry
     xc contribution           =    -542.30107619 Ry
     ewald contribution        =   14401.46552534 Ry
     electric field correction =       0.00307425 Ry

     convergence has been achieved in  55 iterations

     Forces acting on atoms (cartesian axes, Ry/au):

     atom    1 type  1   force =     0.00084947    0.00631790    0.05754048
     atom    2 type  1   force =    -0.00003866   -0.00070499   -0.00478571
     atom    3 type  1   force =    -0.00002769   -0.00175010   -0.00124728
     atom    4 type  1   force =     0.00006907    0.00076799    0.10713748
     atom    5 type  1   force =    -0.00015475   -0.00059075    0.00932168
     atom    6 type  1   force =     0.00136391   -0.00280457    0.00349292
     atom    7 type  1   force =     0.06706037   -0.00000383   -0.02954117
     atom    8 type  1   force =     0.00335560   -0.02853301    0.00245283
     atom    9 type  1   force =     0.01224869   -0.01755264    0.00143334
     atom   10 type  2   force =     0.00007428   -0.00241952   -0.18534593
     atom   11 type  2   force =     0.00015270    0.02112475   -0.00708945
     atom   12 type  2   force =    -0.00545975    0.01498067   -0.00304828
     atom   13 type  1   force =    -0.06727870   -0.00039674   -0.02893849
     atom   14 type  1   force =    -0.00361927   -0.02912277    0.00250727
     atom   15 type  1   force =    -0.00688959   -0.01133131    0.00262886
     atom   16 type  2   force =    -0.00021468   -0.00127967    0.06487992
     atom   17 type  2   force =     0.00030174    0.03526332    0.00390043
     atom   18 type  2   force =    -0.00262650    0.02268844    0.00151906
     atom   19 type  1   force =     0.00074716    0.00408557    0.06081673
     atom   20 type  1   force =     0.00002927   -0.00008453   -0.00396057
     atom   21 type  1   force =     0.00005656   -0.00004660    0.10731077
     atom   22 type  1   force =     0.00002966   -0.00085630    0.00936263
     atom   23 type  1   force =    -0.00004299   -0.00353208    0.00460147
     atom   24 type  1   force =     0.06733209   -0.00051999   -0.02945629
     atom   25 type  1   force =     0.00349476   -0.02947099    0.00312161
     atom   26 type  1   force =     0.00660297   -0.02216026    0.00384799
     atom   27 type  2   force =    -0.00000824    0.00171893   -0.18404626
     atom   28 type  2   force =    -0.00038873    0.02140226   -0.00707221
     atom   29 type  2   force =    -0.00118471    0.02329411   -0.00325275
     atom   30 type  1   force =    -0.06753397   -0.00098216   -0.02876656
     atom   31 type  1   force =    -0.00417855   -0.02931070    0.00228348
     atom   32 type  1   force =    -0.00650010   -0.01864931   -0.00042347
     atom   33 type  2   force =    -0.00033177   -0.00091820    0.06451307
     atom   34 type  2   force =     0.00044076    0.03629139    0.00376798
     atom   35 type  2   force =     0.00236659    0.02407218    0.00270387
     atom   36 type  1   force =     0.00068387    0.00483233    0.05917635
     atom   37 type  1   force =    -0.00015497    0.00147966   -0.00768834
     atom   38 type  1   force =     0.01124180   -0.00459269   -0.00944568
     atom   39 type  1   force =     0.00010839   -0.00016175    0.10689166
     atom   40 type  1   force =     0.00007679   -0.00088017    0.00974944
     atom   41 type  1   force =     0.00078032   -0.00211472    0.00149202
     atom   42 type  1   force =     0.06758170   -0.00028804   -0.02940952
     atom   43 type  1   force =     0.00371027   -0.02888566    0.00186282
     atom   44 type  1   force =     0.00879021   -0.01701326    0.00060344
     atom   45 type  2   force =     0.00023651   -0.00246337   -0.18294030
     atom   46 type  2   force =     0.00024219    0.01986205   -0.00664988
     atom   47 type  2   force =    -0.00013935    0.02230704    0.00174992
     atom   48 type  1   force =    -0.06773035   -0.00078595   -0.02866858
     atom   49 type  1   force =    -0.00362240   -0.02860480    0.00242997
     atom   50 type  1   force =    -0.00821284   -0.01834405   -0.00142785
     atom   51 type  2   force =    -0.00035870   -0.00110378    0.06450211
     atom   52 type  2   force =    -0.00016731    0.03595002    0.00434320
     atom   53 type  2   force =    -0.00164755    0.01460209   -0.00201486
     atom   54 type  3   force =    -0.01242443    0.00135064    0.01059455
     atom   55 type  3   force =    -0.00089441   -0.00080728    0.00173670
     atom   56 type  3   force =     0.00127655   -0.00144148   -0.00032420
     atom   57 type  4   force =     0.00056721    0.00167292    0.00164660
     atom   58 type  4   force =     0.00038948   -0.00304074   -0.00086251
     atom   59 type  3   force =    -0.00042996   -0.00051552    0.00048355

     Total force =     0.456191     Total SCF correction =     0.000334
  @ DRIVER MODE: Message from server: STATUS
  @ DRIVER MODE: Message from server: GETFORCE
  @ DRIVER MODE: Returning v,forces,stress,ensemble 

     Writing output data file ./calc.save/
  @ DRIVER MODE: Message from server: EXIT
  @ DRIVE MODE: Exiting  
 
     init_run     :     17.94s CPU     18.34s WALL (       1 calls)
     electrons    :   1623.51s CPU   1658.01s WALL (       1 calls)
     forces       :      4.38s CPU      4.57s WALL (       1 calls)

     Called by init_run:
     wfcinit      :      9.61s CPU      9.75s WALL (       1 calls)
     potinit      :      7.30s CPU      7.40s WALL (       1 calls)
     hinit0       :      0.42s CPU      0.44s WALL (       1 calls)

     Called by electrons:
     c_bands      :   1363.77s CPU   1382.20s WALL (      55 calls)
     sum_band     :    181.38s CPU    188.80s WALL (      55 calls)
     v_of_rho     :     60.64s CPU     63.19s WALL (      56 calls)
     newd         :     21.75s CPU     27.32s WALL (      56 calls)
     mix_rho      :      2.30s CPU      2.62s WALL (      55 calls)
     vdW_kernel   :      5.83s CPU      5.85s WALL (       1 calls)

     Called by c_bands:
     init_us_2    :      8.81s CPU      8.93s WALL (    1120 calls)
     cegterg      :   1334.99s CPU   1352.60s WALL (     555 calls)

     Called by *egterg:
     cdiaghg      :    192.23s CPU    193.52s WALL (    5651 calls)
     h_psi        :    746.39s CPU    756.68s WALL (    5661 calls)
     s_psi        :    101.87s CPU    102.18s WALL (    5661 calls)
     g_psi        :      2.44s CPU      2.45s WALL (    5096 calls)

     Called by h_psi:
     h_psi:calbec :     93.59s CPU     94.55s WALL (    5661 calls)
     vloc_psi     :    547.45s CPU    552.30s WALL (    5661 calls)
     add_vuspsi   :    101.98s CPU    103.61s WALL (    5661 calls)

     General routines
     calbec       :    126.34s CPU    127.39s WALL (    6251 calls)
     fft          :     33.31s CPU     33.49s WALL (    3528 calls)
     ffts         :      0.19s CPU      0.19s WALL (     111 calls)
     fftw         :    613.26s CPU    618.61s WALL (  776610 calls)
     interpolate  :      0.64s CPU      0.65s WALL (      56 calls)
     davcio       :      0.00s CPU      0.22s WALL (      10 calls)
 
     Parallel routines
 
     PWSCF        :  27m26.11s CPU  28m 1.81s WALL

 
   This run was terminated on:  12:48:13  18Oct2021            

=------------------------------------------------------------------------------=
   JOB DONE.
=------------------------------------------------------------------------------=
