
     Program PWSCF v.6.7GPU starts on 15Sep2021 at 20:49:12 

     This program is part of the open-source Quantum ESPRESSO suite
     for quantum simulation of materials; please cite
         "P. Giannozzi et al., J. Phys.:Condens. Matter 21 395502 (2009);
         "P. Giannozzi et al., J. Phys.:Condens. Matter 29 465901 (2017);
         "P. Giannozzi et al., J. Chem. Phys. 152 154105 (2020);
          URL http://www.quantum-espresso.org", 
     in publications or presentations arising from this work. More details at
     http://www.quantum-espresso.org/quote

     Parallel version (MPI), running on    10 processors

     MPI processes distributed on     1 nodes
     R & G space division:  proc/nbgrp/npool/nimage =      10
     Reading input from /storage/home/hcoda1/3/ntian30/research/carbon/CxH_vib/H2O_calc/ads_slab/CHH2O_a/out_0022/pw.inp
Warning: card &CELL ignored
Warning: card   CELL_DYNAMICS='IPI', ignored
Warning: card / ignored

     Current dimensions of program PWSCF are:
     Max number of different atomic species (ntypx) = 10
     Max number of k-points (npk) =  40000
     Max angular momentum in pseudopotentials (lmaxx) =  3
     Presently no symmetry can be used with electric field

     Message from routine cell_base_init:
     DEPRECATED: use true lattice parameter, not A to a.u. conversion factor

     **************************************************************************
     Initializing libbeef V0.1.2 with the BEEF-vdW functional.
     Citation: Wellendorff et al., PRB 85, 235149 (2012).
     **************************************************************************


     IMPORTANT: XC functional enforced from input :
     Exchange-correlation= BEEF-VDW
                           (   1   4  43  14   2   0   0)
     Any further DFT definition will be discarded
     Please, verify this is what you really want


     Subspace diagonalization in iterative solution of the eigenvalue problem:
     one sub-group per band group will be used
     scalapack distributed-memory algorithm (size of sub-group:  3*  3 procs)

  @ DRIVER MODE: Connecting to 
 qe_1139763_2852624.sched-torque.pace.gatech.edudsjj6z9z_scratch
  using UNIX socket
  @ DRIVER MODE: Message from server: STATUS
  @ DRIVER MODE: Message from server: INIT
  @ DRIVER MODE: Receiving replica           0          -1
  @ DRIVER MODE: Receiving encoded integer          25
  @ DRIVER MODE:  SCF:  T  FORCE:  T  STRESS:  F  VC:  F  ENSEMBLE:  F
  @ DRIVER MODE:  SCF:  T  FORCE:  T  STRESS:  F  VC:  F  ENSEMBLE:  F
 
     Parallelization info
     --------------------
     sticks:   dense  smooth     PW     G-vecs:    dense   smooth      PW
     Min         327     131     37                56683    14340    2191
     Max         328     133     38                56694    14346    2206
     Sum        3275    1317    379               566857   143421   21985
 
     Using Slab Decomposition
 


     bravais-lattice index     =            0
     lattice parameter (alat)  =       1.8897  a.u.
     unit-cell volume          =    6658.9804 (a.u.)^3
     number of atoms/cell      =           52
     number of atomic types    =            4
     number of electrons       =       391.00
     number of Kohn-Sham states=          205
     kinetic-energy cutoff     =      29.3995  Ry
     charge density cutoff     =     293.9946  Ry
     scf convergence threshold =      7.3E-08
     mixing beta               =       0.0500
     number of iterations used =            8  plain     mixing
     Exchange-correlation= BEEF-VDW
                           (   1   4  43  14   2   0   0)

     celldm(1)=   1.889726  celldm(2)=   0.000000  celldm(3)=   0.000000
     celldm(4)=   0.000000  celldm(5)=   0.000000  celldm(6)=   0.000000

     crystal axes: (cart. coord. in units of alat)
               a(1) = (   6.579727   0.000000   0.000000 )  
               a(2) = (  -0.000775   5.961596   0.000000 )  
               a(3) = (   0.000000   0.000000  25.155947 )  

     reciprocal axes: (cart. coord. in units 2 pi/alat)
               b(1) = (  0.151982  0.000020  0.000000 )  
               b(2) = (  0.000000  0.167740  0.000000 )  
               b(3) = (  0.000000  0.000000  0.039752 )  


     PseudoPot. # 1 for Ti read from file:
     /storage/coda1/p-amedford6/0/shared/rich_project_chbe-medford/medford-share/data/pseudos_module/espresso/nninc/pbe/van/Ti.UPF
     MD5 check sum: 8e4df49b7f0d34bbd5052bf3f5ea0213
     Pseudo is Ultrasoft, Zval = 12.0
     Generated by new atomic code, or converted to UPF format
     Using radial grid of  851 points,  6 beta functions with: 
                l(1) =   0
                l(2) =   0
                l(3) =   1
                l(4) =   1
                l(5) =   2
                l(6) =   2
     Q(r) pseudized with  8 coefficients,  rinner =    1.000   1.000   1.000
                                                       1.000   1.000

     PseudoPot. # 2 for O  read from file:
     /storage/coda1/p-amedford6/0/shared/rich_project_chbe-medford/medford-share/data/pseudos_module/espresso/nninc/pbe/van/O.UPF
     MD5 check sum: 78c19812648e8988a0fe644b0f25305e
     Pseudo is Ultrasoft, Zval =  6.0
     Generated by new atomic code, or converted to UPF format
     Using radial grid of  737 points,  4 beta functions with: 
                l(1) =   0
                l(2) =   0
                l(3) =   1
                l(4) =   1
     Q(r) pseudized with  8 coefficients,  rinner =    0.800   0.800   0.800


     PseudoPot. # 3 for C  read from file:
     /storage/coda1/p-amedford6/0/shared/rich_project_chbe-medford/medford-share/data/pseudos_module/espresso/nninc/pbe/van/C.UPF
     MD5 check sum: 1a69bf6b8db32088f5b2163dbdb77a27
     Pseudo is Ultrasoft, Zval =  4.0
     Generated by new atomic code, or converted to UPF format
     Using radial grid of  721 points,  4 beta functions with: 
                l(1) =   0
                l(2) =   0
                l(3) =   1
                l(4) =   1
     Q(r) pseudized with  8 coefficients,  rinner =    0.800   0.800   0.800


     PseudoPot. # 4 for H  read from file:
     /storage/coda1/p-amedford6/0/shared/rich_project_chbe-medford/medford-share/data/pseudos_module/espresso/nninc/pbe/van/H.UPF
     MD5 check sum: b5ee9d7bfd3a09ee7748110bda690ff7
     Pseudo is Ultrasoft, Zval =  1.0
     Generated by new atomic code, or converted to UPF format
     Using radial grid of  615 points,  1 beta functions with: 
                l(1) =   0
     Q(r) pseudized with  8 coefficients,  rinner =    0.800

     atomic species   valence    mass     pseudopotential
        Ti1           12.00    47.86700     Ti( 1.00)
        O1             6.00    15.99900     O ( 1.00)
        C1             4.00    12.01100     C ( 1.00)
        H1             1.00     1.00800     H ( 1.00)

     No symmetry found



   Cartesian axes

     site n.     atom                  positions (alat units)
         1           Ti1 tau(   1) = (   0.0004258   2.9801865   6.0000000  )
         2           Ti1 tau(   2) = (   3.2906075   1.4906267   6.0002472  )
         3           O1  tau(   3) = (   0.0006271   0.0005054   7.9858123  )
         4           O1  tau(   4) = (   3.2906025   0.0005020   7.3038282  )
         5           O1  tau(   5) = (   4.5942328   1.4918067   9.2879030  )
         6           O1  tau(   6) = (   1.9868534   1.4903216   9.2879459  )
         7           Ti1 tau(   7) = (   3.2871774   2.8648350   9.1721854  )
         8           Ti1 tau(   8) = (  -0.0000353   1.4301884   9.3769680  )
         9           O1  tau(   9) = (   3.2813214   0.0053726  11.3480220  )
        10           O1  tau(  10) = (  -0.0004909   5.9494466  10.5591019  )
        11           O1  tau(  11) = (   1.2709337   1.5062281  12.6398922  )
        12           O1  tau(  12) = (   5.2659652   1.5004022  12.6256763  )
        13           Ti1 tau(  13) = (   0.0747037   2.9811850  12.8215060  )
        14           Ti1 tau(  14) = (   3.3904977   1.4744036  12.5039750  )
        15           O1  tau(  15) = (   6.5763451   5.9564350  14.6046450  )
        16           O1  tau(  16) = (   3.2806839   0.0238217  13.9603601  )
        17           O1  tau(  17) = (   4.5226094   1.5694261  16.0518702  )
        18           O1  tau(  18) = (   2.0202940   1.5641231  16.0352509  )
        19           Ti1 tau(  19) = (   3.2640091   3.0260151  15.6942499  )
        20           Ti1 tau(  20) = (   6.5358820   1.5903963  16.1090211  )
        21           O1  tau(  21) = (   3.2904802   0.0005063   4.7018136  )
        22           O1  tau(  22) = (   6.5569505   0.0478586  17.2430089  )
        23           O1  tau(  23) = (   1.3043587   1.4918075   6.0039043  )
        24           O1  tau(  24) = (   5.2767064   1.4903225   6.0039473  )
        25           Ti1 tau(  25) = (   0.0000382   5.9609847   6.0000000  )
        26           Ti1 tau(  26) = (   3.2902200   4.4714249   6.0002472  )
        27           O1  tau(  27) = (   0.0002396   2.9813036   7.9858123  )
        28           O1  tau(  28) = (   3.2902150   2.9813002   7.3038282  )
        29           O1  tau(  29) = (   4.5938453   4.4726049   9.2879030  )
        30           O1  tau(  30) = (   1.9864658   4.4711199   9.2879459  )
        31           Ti1 tau(  31) = (   3.2859829   5.8469316   9.1661464  )
        32           Ti1 tau(  32) = (  -0.0001559   4.4089299   9.3799519  )
        33           O1  tau(  33) = (   3.2865236   2.9807090  11.3458169  )
        34           O1  tau(  34) = (   6.5781283   2.9667683  10.5610256  )
        35           O1  tau(  35) = (   1.2712900   4.4620179  12.6345536  )
        36           O1  tau(  36) = (   5.2651022   4.4720110  12.6184623  )
        37           Ti1 tau(  37) = (   0.0601624   5.9591143  12.7910897  )
        38           Ti1 tau(  38) = (   3.3902089   4.4660181  12.4873354  )
        39           O1  tau(  39) = (   6.5660314   2.9936061  14.6787526  )
        40           O1  tau(  40) = (   3.2777068   3.0094971  13.9036223  )
        41           O1  tau(  41) = (   4.5190982   4.4944638  16.0861991  )
        42           O1  tau(  42) = (   2.0255100   4.4980322  16.0740450  )
        43           Ti1 tau(  43) = (   3.2415938   0.0554625  15.8014791  )
        44           Ti1 tau(  44) = (   6.5310484   4.6110724  16.1360643  )
        45           O1  tau(  45) = (   3.2900926   2.9813045   4.7018136  )
        46           O1  tau(  46) = (   1.3039711   4.4726057   6.0039043  )
        47           O1  tau(  47) = (   5.2763189   4.4711207   6.0039473  )
        48           C1  tau(  48) = (   0.0160176   3.0093394  17.4896075  )
        49           H1  tau(  49) = (   0.0793418   3.1169436  18.5737113  )
        50           O1  tau(  50) = (   3.2580281   0.1500328  18.1801156  )
        51           H1  tau(  51) = (   4.0450954   5.6563884  18.5036456  )
        52           H1  tau(  52) = (   2.4770123   5.6427573  18.5175526  )

     number of k points=    10  Fermi-Dirac smearing, width (Ry)=  0.0073
                       cart. coord. in units 2pi/alat
        k(    1) = (   0.0000000   0.0000000   0.0000000), wk =   0.1250000
        k(    2) = (   0.0000000   0.0419351   0.0000000), wk =   0.2500000
        k(    3) = (   0.0000000  -0.0838702   0.0000000), wk =   0.1250000
        k(    4) = (   0.0379955   0.0000049   0.0000000), wk =   0.2500000
        k(    5) = (   0.0379955   0.0419400   0.0000000), wk =   0.2500000
        k(    6) = (   0.0379955  -0.0838652   0.0000000), wk =   0.2500000
        k(    7) = (   0.0379955  -0.0419301   0.0000000), wk =   0.2500000
        k(    8) = (  -0.0759910  -0.0000099   0.0000000), wk =   0.1250000
        k(    9) = (  -0.0759910   0.0419252   0.0000000), wk =   0.2500000
        k(   10) = (  -0.0759910  -0.0838800   0.0000000), wk =   0.1250000

     Dense  grid:   566857 G-vectors     FFT dimensions: (  72,  64, 270)

     Smooth grid:   143421 G-vectors     FFT dimensions: (  45,  40, 180)

     Estimated max dynamical RAM per process >     362.08 MB

     Estimated total dynamical RAM >       3.54 GB
     Cannot read rho : file not found

     Initial potential from superposition of free atoms

     starting charge  374.99918, renormalised to  391.00000

     negative rho (up, down):  1.887E-02 0.000E+00


     %%%%%%%%%%%%%%%%%%%%%%%%%%%%%%%%%%%%%%%%%%%%%%%%%%%%%%%%%%%%%%%%%%%%%%%%
     %                                                                      %
     % You are using vdW-DF, which was implemented by the Thonhauser group. %
     % Please cite the following two papers that made this development      %
     % possible and the two reviews that describe the various versions:     %
     %                                                                      %
     %   T. Thonhauser et al., PRL 115, 136402 (2015).                      %
     %   T. Thonhauser et al., PRB 76, 125112 (2007).                       %
     %   K. Berland et al., Rep. Prog. Phys. 78, 066501 (2015).             %
     %   D.C. Langreth et al., J. Phys.: Condens. Matter 21, 084203 (2009). %
     %                                                                      %
     %                                                                      %
     % If you are calculating the stress with vdW-DF, please also cite:     %
     %                                                                      %
     %   R. Sabatini et al., J. Phys.: Condens. Matter 24, 424209 (2012).   %
     %                                                                      %
     %%%%%%%%%%%%%%%%%%%%%%%%%%%%%%%%%%%%%%%%%%%%%%%%%%%%%%%%%%%%%%%%%%%%%%%%


 
     Adding external electric field

     Computed dipole along edir(3) : 
        Dipole               -4.6207 Ry au,        -11.7446 Debye
        Dipole field         -0.0087 Ry au, 
 
        Potential amp.        0.8083 Ry
        Total length         46.3494 bohr
 
     Starting wfcs are  295 atomic wfcs
  @ DRIVER MODE: Message from server: STATUS
  @ DRIVER MODE: Message from server: POSDATA
  @ DRIVER MODE: Reading and sharing cell 
  @ DRIVER MODE: Reading and sharing positions 
  @ DRIVER MODE: Received positions 

     total cpu time spent up to now is       10.9 secs

     Self-consistent Calculation

     iteration #  1     ecut=    29.40 Ry     beta= 0.05
     Davidson diagonalization with overlap
     c_bands:  4 eigenvalues not converged
     c_bands:  1 eigenvalues not converged
     c_bands:  1 eigenvalues not converged
     c_bands:  1 eigenvalues not converged
     c_bands:  2 eigenvalues not converged
     c_bands:  1 eigenvalues not converged
     c_bands:  3 eigenvalues not converged
     c_bands:  1 eigenvalues not converged
     c_bands:  1 eigenvalues not converged
     ethr =  1.00E-05,  avg # of iterations = 19.7

     negative rho (up, down):  1.833E-02 0.000E+00
 
     Adding external electric field

     Computed dipole along edir(3) : 
        Dipole               14.7944 Ry au,         37.6036 Debye
        Dipole field          0.0279 Ry au, 
 
        Potential amp.       -2.5881 Ry
        Total length         46.3494 bohr
 

     total cpu time spent up to now is       47.6 secs

     total energy              =   -2877.73273006 Ry
     estimated scf accuracy    <     610.05983812 Ry

     iteration #  2     ecut=    29.40 Ry     beta= 0.05
     Davidson diagonalization with overlap
     ethr =  1.00E-02,  avg # of iterations = 14.5

     negative rho (up, down):  8.715E-03 0.000E+00
 
     Adding external electric field

     Computed dipole along edir(3) : 
        Dipole               -1.9111 Ry au,         -4.8575 Debye
        Dipole field         -0.0036 Ry au, 
 
        Potential amp.        0.3343 Ry
        Total length         46.3494 bohr
 

     total cpu time spent up to now is       78.5 secs

     total energy              =   -2817.33559684 Ry
     estimated scf accuracy    <   13901.15655426 Ry

     iteration #  3     ecut=    29.40 Ry     beta= 0.05
     Davidson diagonalization with overlap
     ethr =  1.00E-02,  avg # of iterations = 19.1

     negative rho (up, down):  8.682E-03 0.000E+00
 
     Adding external electric field

     Computed dipole along edir(3) : 
        Dipole               -2.2775 Ry au,         -5.7887 Debye
        Dipole field         -0.0043 Ry au, 
 
        Potential amp.        0.3984 Ry
        Total length         46.3494 bohr
 

     total cpu time spent up to now is      110.1 secs

     total energy              =   -2932.39413901 Ry
     estimated scf accuracy    <      21.74086290 Ry

     iteration #  4     ecut=    29.40 Ry     beta= 0.05
     Davidson diagonalization with overlap
     ethr =  5.56E-03,  avg # of iterations =  4.7

     negative rho (up, down):  8.679E-03 0.000E+00
 
     Adding external electric field

     Computed dipole along edir(3) : 
        Dipole               -2.4990 Ry au,         -6.3519 Debye
        Dipole field         -0.0047 Ry au, 
 
        Potential amp.        0.4372 Ry
        Total length         46.3494 bohr
 

     total cpu time spent up to now is      121.1 secs

     total energy              =   -2932.11391427 Ry
     estimated scf accuracy    <      14.68114169 Ry

     iteration #  5     ecut=    29.40 Ry     beta= 0.05
     Davidson diagonalization with overlap
     ethr =  3.75E-03,  avg # of iterations =  3.4

     negative rho (up, down):  8.719E-03 0.000E+00
 
     Adding external electric field

     Computed dipole along edir(3) : 
        Dipole               -2.5753 Ry au,         -6.5457 Debye
        Dipole field         -0.0049 Ry au, 
 
        Potential amp.        0.4505 Ry
        Total length         46.3494 bohr
 

     total cpu time spent up to now is      131.5 secs

     total energy              =   -2931.10215320 Ry
     estimated scf accuracy    <       9.31572461 Ry

     iteration #  6     ecut=    29.40 Ry     beta= 0.05
     Davidson diagonalization with overlap
     ethr =  2.38E-03,  avg # of iterations =  4.1

     negative rho (up, down):  8.982E-03 0.000E+00
 
     Adding external electric field

     Computed dipole along edir(3) : 
        Dipole               -2.1080 Ry au,         -5.3580 Debye
        Dipole field         -0.0040 Ry au, 
 
        Potential amp.        0.3688 Ry
        Total length         46.3494 bohr
 

     total cpu time spent up to now is      142.3 secs

     total energy              =   -2930.03195370 Ry
     estimated scf accuracy    <       4.83802643 Ry

     iteration #  7     ecut=    29.40 Ry     beta= 0.05
     Davidson diagonalization with overlap
     ethr =  1.24E-03,  avg # of iterations = 12.2

     negative rho (up, down):  8.801E-03 0.000E+00
 
     Adding external electric field

     Computed dipole along edir(3) : 
        Dipole               -1.9995 Ry au,         -5.0821 Debye
        Dipole field         -0.0038 Ry au, 
 
        Potential amp.        0.3498 Ry
        Total length         46.3494 bohr
 

     total cpu time spent up to now is      160.8 secs

     total energy              =   -2931.27713394 Ry
     estimated scf accuracy    <      45.55155838 Ry

     iteration #  8     ecut=    29.40 Ry     beta= 0.05
     Davidson diagonalization with overlap
     ethr =  1.24E-03,  avg # of iterations =  1.4

     negative rho (up, down):  8.704E-03 0.000E+00
 
     Adding external electric field

     Computed dipole along edir(3) : 
        Dipole               -1.8310 Ry au,         -4.6540 Debye
        Dipole field         -0.0035 Ry au, 
 
        Potential amp.        0.3203 Ry
        Total length         46.3494 bohr
 

     total cpu time spent up to now is      170.7 secs

     total energy              =   -2931.29305724 Ry
     estimated scf accuracy    <      17.90532865 Ry

     iteration #  9     ecut=    29.40 Ry     beta= 0.05
     Davidson diagonalization with overlap
     ethr =  1.24E-03,  avg # of iterations =  1.0

     negative rho (up, down):  8.600E-03 0.000E+00
 
     Adding external electric field

     Computed dipole along edir(3) : 
        Dipole               -1.7325 Ry au,         -4.4036 Debye
        Dipole field         -0.0033 Ry au, 
 
        Potential amp.        0.3031 Ry
        Total length         46.3494 bohr
 

     total cpu time spent up to now is      180.2 secs

     total energy              =   -2931.23936051 Ry
     estimated scf accuracy    <       5.80337253 Ry

     iteration # 10     ecut=    29.40 Ry     beta= 0.05
     Davidson diagonalization with overlap
     ethr =  1.24E-03,  avg # of iterations =  1.0

     negative rho (up, down):  8.533E-03 0.000E+00
 
     Adding external electric field

     Computed dipole along edir(3) : 
        Dipole               -1.2715 Ry au,         -3.2319 Debye
        Dipole field         -0.0024 Ry au, 
 
        Potential amp.        0.2224 Ry
        Total length         46.3494 bohr
 

     total cpu time spent up to now is      189.7 secs

     total energy              =   -2931.19706256 Ry
     estimated scf accuracy    <       1.98857753 Ry

     iteration # 11     ecut=    29.40 Ry     beta= 0.05
     Davidson diagonalization with overlap
     c_bands:  1 eigenvalues not converged
     ethr =  5.09E-04,  avg # of iterations = 12.1

     negative rho (up, down):  9.043E-03 0.000E+00
 
     Adding external electric field

     Computed dipole along edir(3) : 
        Dipole                0.1879 Ry au,          0.4775 Debye
        Dipole field          0.0004 Ry au, 
 
        Potential amp.       -0.0329 Ry
        Total length         46.3494 bohr
 

     total cpu time spent up to now is      203.4 secs

     total energy              =   -2931.10752860 Ry
     estimated scf accuracy    <       0.72162846 Ry

     iteration # 12     ecut=    29.40 Ry     beta= 0.05
     Davidson diagonalization with overlap
     c_bands:  1 eigenvalues not converged
     c_bands:  3 eigenvalues not converged
     c_bands:  1 eigenvalues not converged
     c_bands:  1 eigenvalues not converged
     c_bands:  1 eigenvalues not converged
     ethr =  1.85E-04,  avg # of iterations = 16.6

     negative rho (up, down):  9.134E-03 0.000E+00
 
     Adding external electric field

     Computed dipole along edir(3) : 
        Dipole               -0.1963 Ry au,         -0.4990 Debye
        Dipole field         -0.0004 Ry au, 
 
        Potential amp.        0.0343 Ry
        Total length         46.3494 bohr
 

     total cpu time spent up to now is      223.5 secs

     total energy              =   -2931.21751058 Ry
     estimated scf accuracy    <       5.16482551 Ry

     iteration # 13     ecut=    29.40 Ry     beta= 0.05
     Davidson diagonalization with overlap
     c_bands:  1 eigenvalues not converged
     ethr =  1.85E-04,  avg # of iterations = 15.6

     negative rho (up, down):  9.038E-03 0.000E+00
 
     Adding external electric field

     Computed dipole along edir(3) : 
        Dipole               -0.0331 Ry au,         -0.0840 Debye
        Dipole field         -0.0001 Ry au, 
 
        Potential amp.        0.0058 Ry
        Total length         46.3494 bohr
 

     total cpu time spent up to now is      241.2 secs

     total energy              =   -2931.17622781 Ry
     estimated scf accuracy    <       1.33829412 Ry

     iteration # 14     ecut=    29.40 Ry     beta= 0.05
     Davidson diagonalization with overlap
     ethr =  1.85E-04,  avg # of iterations =  3.1

     negative rho (up, down):  9.202E-03 0.000E+00
 
     Adding external electric field

     Computed dipole along edir(3) : 
        Dipole                0.6141 Ry au,          1.5609 Debye
        Dipole field          0.0012 Ry au, 
 
        Potential amp.       -0.1074 Ry
        Total length         46.3494 bohr
 

     total cpu time spent up to now is      251.9 secs

     total energy              =   -2931.15392762 Ry
     estimated scf accuracy    <       0.62116277 Ry

     iteration # 15     ecut=    29.40 Ry     beta= 0.05
     Davidson diagonalization with overlap
     c_bands:  1 eigenvalues not converged
     c_bands:  1 eigenvalues not converged
     c_bands:  1 eigenvalues not converged
     c_bands:  1 eigenvalues not converged
     ethr =  1.59E-04,  avg # of iterations = 16.4

     negative rho (up, down):  9.368E-03 0.000E+00
 
     Adding external electric field

     Computed dipole along edir(3) : 
        Dipole                0.4280 Ry au,          1.0880 Debye
        Dipole field          0.0008 Ry au, 
 
        Potential amp.       -0.0749 Ry
        Total length         46.3494 bohr
 

     total cpu time spent up to now is      271.2 secs

     total energy              =   -2931.16114459 Ry
     estimated scf accuracy    <       3.86637286 Ry

     iteration # 16     ecut=    29.40 Ry     beta= 0.05
     Davidson diagonalization with overlap
     ethr =  1.59E-04,  avg # of iterations =  5.3

     negative rho (up, down):  9.187E-03 0.000E+00
 
     Adding external electric field

     Computed dipole along edir(3) : 
        Dipole                0.2779 Ry au,          0.7064 Debye
        Dipole field          0.0005 Ry au, 
 
        Potential amp.       -0.0486 Ry
        Total length         46.3494 bohr
 

     total cpu time spent up to now is      282.7 secs

     total energy              =   -2931.21011152 Ry
     estimated scf accuracy    <       0.29975170 Ry

     iteration # 17     ecut=    29.40 Ry     beta= 0.05
     Davidson diagonalization with overlap
     c_bands:  2 eigenvalues not converged
     c_bands:  1 eigenvalues not converged
     ethr =  7.67E-05,  avg # of iterations =  9.4

     negative rho (up, down):  9.298E-03 0.000E+00
 
     Adding external electric field

     Computed dipole along edir(3) : 
        Dipole                0.0628 Ry au,          0.1596 Debye
        Dipole field          0.0001 Ry au, 
 
        Potential amp.       -0.0110 Ry
        Total length         46.3494 bohr
 

     total cpu time spent up to now is      294.9 secs

     total energy              =   -2931.14742716 Ry
     estimated scf accuracy    <       0.18835125 Ry

     iteration # 18     ecut=    29.40 Ry     beta= 0.05
     Davidson diagonalization with overlap
     c_bands:  2 eigenvalues not converged
     c_bands:  3 eigenvalues not converged
     c_bands:  2 eigenvalues not converged
     c_bands:  1 eigenvalues not converged
     c_bands:  1 eigenvalues not converged
     ethr =  4.82E-05,  avg # of iterations = 18.3

     negative rho (up, down):  9.744E-03 0.000E+00
 
     Adding external electric field

     Computed dipole along edir(3) : 
        Dipole                0.6327 Ry au,          1.6082 Debye
        Dipole field          0.0012 Ry au, 
 
        Potential amp.       -0.1107 Ry
        Total length         46.3494 bohr
 

     total cpu time spent up to now is      320.1 secs

     total energy              =   -2931.09098391 Ry
     estimated scf accuracy    <       0.90371603 Ry

     iteration # 19     ecut=    29.40 Ry     beta= 0.05
     Davidson diagonalization with overlap
     c_bands:  2 eigenvalues not converged
     c_bands:  5 eigenvalues not converged
     c_bands:  2 eigenvalues not converged
     ethr =  4.82E-05,  avg # of iterations = 14.8

     negative rho (up, down):  9.809E-03 0.000E+00
 
     Adding external electric field

     Computed dipole along edir(3) : 
        Dipole                0.5688 Ry au,          1.4457 Debye
        Dipole field          0.0011 Ry au, 
 
        Potential amp.       -0.0995 Ry
        Total length         46.3494 bohr
 

     total cpu time spent up to now is      342.9 secs

     total energy              =   -2931.19492915 Ry
     estimated scf accuracy    <       0.11431010 Ry

     iteration # 20     ecut=    29.40 Ry     beta= 0.05
     Davidson diagonalization with overlap
     ethr =  2.92E-05,  avg # of iterations = 10.0

     negative rho (up, down):  1.049E-02 0.000E+00
 
     Adding external electric field

     Computed dipole along edir(3) : 
        Dipole                0.7288 Ry au,          1.8525 Debye
        Dipole field          0.0014 Ry au, 
 
        Potential amp.       -0.1275 Ry
        Total length         46.3494 bohr
 

     total cpu time spent up to now is      357.2 secs

     total energy              =   -2931.21071910 Ry
     estimated scf accuracy    <       0.02986327 Ry

     iteration # 21     ecut=    29.40 Ry     beta= 0.05
     Davidson diagonalization with overlap
     ethr =  7.64E-06,  avg # of iterations =  9.0

     negative rho (up, down):  1.168E-02 0.000E+00
 
     Adding external electric field

     Computed dipole along edir(3) : 
        Dipole                0.7817 Ry au,          1.9870 Debye
        Dipole field          0.0015 Ry au, 
 
        Potential amp.       -0.1368 Ry
        Total length         46.3494 bohr
 

     total cpu time spent up to now is      369.9 secs

     total energy              =   -2931.21288920 Ry
     estimated scf accuracy    <       0.02375731 Ry

     iteration # 22     ecut=    29.40 Ry     beta= 0.05
     Davidson diagonalization with overlap
     c_bands:  1 eigenvalues not converged
     ethr =  6.08E-06,  avg # of iterations = 11.1

     negative rho (up, down):  1.216E-02 0.000E+00
 
     Adding external electric field

     Computed dipole along edir(3) : 
        Dipole                0.8042 Ry au,          2.0440 Debye
        Dipole field          0.0015 Ry au, 
 
        Potential amp.       -0.1407 Ry
        Total length         46.3494 bohr
 

     total cpu time spent up to now is      383.3 secs

     total energy              =   -2931.21744634 Ry
     estimated scf accuracy    <       0.01831804 Ry

     iteration # 23     ecut=    29.40 Ry     beta= 0.05
     Davidson diagonalization with overlap
     c_bands:  2 eigenvalues not converged
     c_bands:  1 eigenvalues not converged
     c_bands:  4 eigenvalues not converged
     c_bands:  2 eigenvalues not converged
     c_bands:  3 eigenvalues not converged
     c_bands:  3 eigenvalues not converged
     c_bands:  2 eigenvalues not converged
     c_bands:  2 eigenvalues not converged
     c_bands:  1 eigenvalues not converged
     ethr =  4.68E-06,  avg # of iterations = 19.5

     negative rho (up, down):  1.325E-02 0.000E+00
 
     Adding external electric field

     Computed dipole along edir(3) : 
        Dipole                0.8747 Ry au,          2.2233 Debye
        Dipole field          0.0017 Ry au, 
 
        Potential amp.       -0.1530 Ry
        Total length         46.3494 bohr
 

     total cpu time spent up to now is      401.4 secs

     total energy              =   -2931.21463210 Ry
     estimated scf accuracy    <       0.03873414 Ry

     iteration # 24     ecut=    29.40 Ry     beta= 0.05
     Davidson diagonalization with overlap
     c_bands:  1 eigenvalues not converged
     c_bands:  1 eigenvalues not converged
     c_bands:  3 eigenvalues not converged
     c_bands:  1 eigenvalues not converged
     ethr =  4.68E-06,  avg # of iterations = 14.9

     negative rho (up, down):  1.403E-02 0.000E+00
 
     Adding external electric field

     Computed dipole along edir(3) : 
        Dipole                0.9125 Ry au,          2.3195 Debye
        Dipole field          0.0017 Ry au, 
 
        Potential amp.       -0.1596 Ry
        Total length         46.3494 bohr
 

     total cpu time spent up to now is      417.0 secs

     total energy              =   -2931.21634641 Ry
     estimated scf accuracy    <       0.02558950 Ry

     iteration # 25     ecut=    29.40 Ry     beta= 0.05
     Davidson diagonalization with overlap
     c_bands:  1 eigenvalues not converged
     ethr =  4.68E-06,  avg # of iterations =  6.7

     negative rho (up, down):  1.490E-02 0.000E+00
 
     Adding external electric field

     Computed dipole along edir(3) : 
        Dipole                0.8616 Ry au,          2.1899 Debye
        Dipole field          0.0016 Ry au, 
 
        Potential amp.       -0.1507 Ry
        Total length         46.3494 bohr
 

     total cpu time spent up to now is      428.4 secs

     total energy              =   -2931.21536905 Ry
     estimated scf accuracy    <       0.02492719 Ry

     iteration # 26     ecut=    29.40 Ry     beta= 0.05
     Davidson diagonalization with overlap
     c_bands:  3 eigenvalues not converged
     ethr =  4.68E-06,  avg # of iterations =  9.7

     negative rho (up, down):  1.530E-02 0.000E+00
 
     Adding external electric field

     Computed dipole along edir(3) : 
        Dipole                0.8367 Ry au,          2.1267 Debye
        Dipole field          0.0016 Ry au, 
 
        Potential amp.       -0.1464 Ry
        Total length         46.3494 bohr
 

     total cpu time spent up to now is      440.9 secs

     total energy              =   -2931.21538119 Ry
     estimated scf accuracy    <       0.01453864 Ry

     iteration # 27     ecut=    29.40 Ry     beta= 0.05
     Davidson diagonalization with overlap
     c_bands:  1 eigenvalues not converged
     c_bands:  1 eigenvalues not converged
     c_bands:  1 eigenvalues not converged
     c_bands:  2 eigenvalues not converged
     c_bands:  2 eigenvalues not converged
     ethr =  3.72E-06,  avg # of iterations = 13.0

     negative rho (up, down):  1.517E-02 0.000E+00
 
     Adding external electric field

     Computed dipole along edir(3) : 
        Dipole                0.7507 Ry au,          1.9082 Debye
        Dipole field          0.0014 Ry au, 
 
        Potential amp.       -0.1313 Ry
        Total length         46.3494 bohr
 

     total cpu time spent up to now is      454.5 secs

     total energy              =   -2931.21368031 Ry
     estimated scf accuracy    <       0.00885356 Ry

     iteration # 28     ecut=    29.40 Ry     beta= 0.05
     Davidson diagonalization with overlap
     c_bands:  4 eigenvalues not converged
     c_bands:  3 eigenvalues not converged
     c_bands:  1 eigenvalues not converged
     c_bands:  1 eigenvalues not converged
     c_bands:  1 eigenvalues not converged
     c_bands:  1 eigenvalues not converged
     c_bands:  1 eigenvalues not converged
     ethr =  2.26E-06,  avg # of iterations = 17.8

     negative rho (up, down):  1.575E-02 0.000E+00
 
     Adding external electric field

     Computed dipole along edir(3) : 
        Dipole                0.7773 Ry au,          1.9758 Debye
        Dipole field          0.0015 Ry au, 
 
        Potential amp.       -0.1360 Ry
        Total length         46.3494 bohr
 

     total cpu time spent up to now is      476.5 secs

     total energy              =   -2931.21716130 Ry
     estimated scf accuracy    <       0.01195607 Ry

     iteration # 29     ecut=    29.40 Ry     beta= 0.05
     Davidson diagonalization with overlap
     c_bands:  2 eigenvalues not converged
     c_bands:  1 eigenvalues not converged
     ethr =  2.26E-06,  avg # of iterations =  7.7

     negative rho (up, down):  1.771E-02 0.000E+00
 
     Adding external electric field

     Computed dipole along edir(3) : 
        Dipole                0.8137 Ry au,          2.0683 Debye
        Dipole field          0.0015 Ry au, 
 
        Potential amp.       -0.1423 Ry
        Total length         46.3494 bohr
 

     total cpu time spent up to now is      488.4 secs

     total energy              =   -2931.21455132 Ry
     estimated scf accuracy    <       0.01351152 Ry

     iteration # 30     ecut=    29.40 Ry     beta= 0.05
     Davidson diagonalization with overlap
     c_bands:  1 eigenvalues not converged
     ethr =  2.26E-06,  avg # of iterations =  8.2

     negative rho (up, down):  1.813E-02 0.000E+00
 
     Adding external electric field

     Computed dipole along edir(3) : 
        Dipole                0.8247 Ry au,          2.0961 Debye
        Dipole field          0.0016 Ry au, 
 
        Potential amp.       -0.1443 Ry
        Total length         46.3494 bohr
 

     total cpu time spent up to now is      501.8 secs

     total energy              =   -2931.21554521 Ry
     estimated scf accuracy    <       0.00433479 Ry

     iteration # 31     ecut=    29.40 Ry     beta= 0.05
     Davidson diagonalization with overlap
     ethr =  1.11E-06,  avg # of iterations =  2.1

     negative rho (up, down):  1.872E-02 0.000E+00
 
     Adding external electric field

     Computed dipole along edir(3) : 
        Dipole                0.8351 Ry au,          2.1226 Debye
        Dipole field          0.0016 Ry au, 
 
        Potential amp.       -0.1461 Ry
        Total length         46.3494 bohr
 

     total cpu time spent up to now is      512.2 secs

     total energy              =   -2931.21554921 Ry
     estimated scf accuracy    <       0.00370315 Ry

     iteration # 32     ecut=    29.40 Ry     beta= 0.05
     Davidson diagonalization with overlap
     c_bands:  1 eigenvalues not converged
     ethr =  9.47E-07,  avg # of iterations =  6.5

     negative rho (up, down):  1.866E-02 0.000E+00
 
     Adding external electric field

     Computed dipole along edir(3) : 
        Dipole                0.8250 Ry au,          2.0970 Debye
        Dipole field          0.0016 Ry au, 
 
        Potential amp.       -0.1443 Ry
        Total length         46.3494 bohr
 

     total cpu time spent up to now is      524.2 secs

     total energy              =   -2931.21537897 Ry
     estimated scf accuracy    <       0.00220313 Ry

     iteration # 33     ecut=    29.40 Ry     beta= 0.05
     Davidson diagonalization with overlap
     c_bands:  1 eigenvalues not converged
     c_bands:  1 eigenvalues not converged
     c_bands:  1 eigenvalues not converged
     ethr =  5.63E-07,  avg # of iterations = 15.4

     negative rho (up, down):  1.930E-02 0.000E+00
 
     Adding external electric field

     Computed dipole along edir(3) : 
        Dipole                0.8137 Ry au,          2.0681 Debye
        Dipole field          0.0015 Ry au, 
 
        Potential amp.       -0.1423 Ry
        Total length         46.3494 bohr
 

     total cpu time spent up to now is      543.8 secs

     total energy              =   -2931.21567374 Ry
     estimated scf accuracy    <       0.00122094 Ry

     iteration # 34     ecut=    29.40 Ry     beta= 0.05
     Davidson diagonalization with overlap
     c_bands:  1 eigenvalues not converged
     ethr =  3.12E-07,  avg # of iterations =  5.8

     negative rho (up, down):  1.933E-02 0.000E+00
 
     Adding external electric field

     Computed dipole along edir(3) : 
        Dipole                0.8002 Ry au,          2.0340 Debye
        Dipole field          0.0015 Ry au, 
 
        Potential amp.       -0.1400 Ry
        Total length         46.3494 bohr
 

     total cpu time spent up to now is      556.4 secs

     total energy              =   -2931.21575216 Ry
     estimated scf accuracy    <       0.00047928 Ry

     iteration # 35     ecut=    29.40 Ry     beta= 0.05
     Davidson diagonalization with overlap
     c_bands:  1 eigenvalues not converged
     c_bands:  1 eigenvalues not converged
     ethr =  1.23E-07,  avg # of iterations = 14.0

     negative rho (up, down):  1.847E-02 0.000E+00
 
     Adding external electric field

     Computed dipole along edir(3) : 
        Dipole                0.7923 Ry au,          2.0139 Debye
        Dipole field          0.0015 Ry au, 
 
        Potential amp.       -0.1386 Ry
        Total length         46.3494 bohr
 

     total cpu time spent up to now is      574.9 secs

     total energy              =   -2931.21577912 Ry
     estimated scf accuracy    <       0.00047202 Ry

     iteration # 36     ecut=    29.40 Ry     beta= 0.05
     Davidson diagonalization with overlap
     ethr =  1.21E-07,  avg # of iterations =  4.0

     negative rho (up, down):  1.840E-02 0.000E+00
 
     Adding external electric field

     Computed dipole along edir(3) : 
        Dipole                0.7866 Ry au,          1.9994 Debye
        Dipole field          0.0015 Ry au, 
 
        Potential amp.       -0.1376 Ry
        Total length         46.3494 bohr
 

     total cpu time spent up to now is      586.2 secs

     total energy              =   -2931.21584589 Ry
     estimated scf accuracy    <       0.00013800 Ry

     iteration # 37     ecut=    29.40 Ry     beta= 0.05
     Davidson diagonalization with overlap
     ethr =  3.53E-08,  avg # of iterations =  5.6

     negative rho (up, down):  1.864E-02 0.000E+00
 
     Adding external electric field

     Computed dipole along edir(3) : 
        Dipole                0.7926 Ry au,          2.0146 Debye
        Dipole field          0.0015 Ry au, 
 
        Potential amp.       -0.1387 Ry
        Total length         46.3494 bohr
 

     total cpu time spent up to now is      601.6 secs

     total energy              =   -2931.21591481 Ry
     estimated scf accuracy    <       0.00007244 Ry

     iteration # 38     ecut=    29.40 Ry     beta= 0.05
     Davidson diagonalization with overlap
     ethr =  1.85E-08,  avg # of iterations =  5.2

     negative rho (up, down):  1.874E-02 0.000E+00
 
     Adding external electric field

     Computed dipole along edir(3) : 
        Dipole                0.7994 Ry au,          2.0318 Debye
        Dipole field          0.0015 Ry au, 
 
        Potential amp.       -0.1398 Ry
        Total length         46.3494 bohr
 

     total cpu time spent up to now is      613.8 secs

     total energy              =   -2931.21595656 Ry
     estimated scf accuracy    <       0.00004578 Ry

     iteration # 39     ecut=    29.40 Ry     beta= 0.05
     Davidson diagonalization with overlap
     ethr =  1.17E-08,  avg # of iterations =  5.0

     negative rho (up, down):  1.873E-02 0.000E+00
 
     Adding external electric field

     Computed dipole along edir(3) : 
        Dipole                0.7980 Ry au,          2.0282 Debye
        Dipole field          0.0015 Ry au, 
 
        Potential amp.       -0.1396 Ry
        Total length         46.3494 bohr
 

     total cpu time spent up to now is      627.5 secs

     total energy              =   -2931.21598872 Ry
     estimated scf accuracy    <       0.00006538 Ry

     iteration # 40     ecut=    29.40 Ry     beta= 0.05
     Davidson diagonalization with overlap
     ethr =  1.17E-08,  avg # of iterations =  2.4

     negative rho (up, down):  1.869E-02 0.000E+00
 
     Adding external electric field

     Computed dipole along edir(3) : 
        Dipole                0.7964 Ry au,          2.0242 Debye
        Dipole field          0.0015 Ry au, 
 
        Potential amp.       -0.1393 Ry
        Total length         46.3494 bohr
 

     total cpu time spent up to now is      637.8 secs

     total energy              =   -2931.21601853 Ry
     estimated scf accuracy    <       0.00004447 Ry

     iteration # 41     ecut=    29.40 Ry     beta= 0.05
     Davidson diagonalization with overlap
     ethr =  1.14E-08,  avg # of iterations =  1.0

     negative rho (up, down):  1.868E-02 0.000E+00
 
     Adding external electric field

     Computed dipole along edir(3) : 
        Dipole                0.7976 Ry au,          2.0272 Debye
        Dipole field          0.0015 Ry au, 
 
        Potential amp.       -0.1395 Ry
        Total length         46.3494 bohr
 

     total cpu time spent up to now is      647.3 secs

     total energy              =   -2931.21604553 Ry
     estimated scf accuracy    <       0.00004659 Ry

     iteration # 42     ecut=    29.40 Ry     beta= 0.05
     Davidson diagonalization with overlap
     ethr =  1.14E-08,  avg # of iterations =  1.0

     negative rho (up, down):  1.869E-02 0.000E+00
 
     Adding external electric field

     Computed dipole along edir(3) : 
        Dipole                0.7971 Ry au,          2.0259 Debye
        Dipole field          0.0015 Ry au, 
 
        Potential amp.       -0.1394 Ry
        Total length         46.3494 bohr
 

     total cpu time spent up to now is      656.9 secs

     total energy              =   -2931.21606396 Ry
     estimated scf accuracy    <       0.00005040 Ry

     iteration # 43     ecut=    29.40 Ry     beta= 0.05
     Davidson diagonalization with overlap
     ethr =  1.14E-08,  avg # of iterations =  1.0

     negative rho (up, down):  1.868E-02 0.000E+00
 
     Adding external electric field

     Computed dipole along edir(3) : 
        Dipole                0.7977 Ry au,          2.0276 Debye
        Dipole field          0.0015 Ry au, 
 
        Potential amp.       -0.1396 Ry
        Total length         46.3494 bohr
 

     total cpu time spent up to now is      666.4 secs

     total energy              =   -2931.21608346 Ry
     estimated scf accuracy    <       0.00003733 Ry

     iteration # 44     ecut=    29.40 Ry     beta= 0.05
     Davidson diagonalization with overlap
     ethr =  9.55E-09,  avg # of iterations =  1.4

     negative rho (up, down):  1.843E-02 0.000E+00
 
     Adding external electric field

     Computed dipole along edir(3) : 
        Dipole                0.7896 Ry au,          2.0070 Debye
        Dipole field          0.0015 Ry au, 
 
        Potential amp.       -0.1381 Ry
        Total length         46.3494 bohr
 

     total cpu time spent up to now is      676.2 secs

     total energy              =   -2931.21611278 Ry
     estimated scf accuracy    <       0.00003187 Ry

     iteration # 45     ecut=    29.40 Ry     beta= 0.05
     Davidson diagonalization with overlap
     ethr =  8.15E-09,  avg # of iterations =  5.0

     negative rho (up, down):  1.876E-02 0.000E+00
 
     Adding external electric field

     Computed dipole along edir(3) : 
        Dipole                0.7940 Ry au,          2.0182 Debye
        Dipole field          0.0015 Ry au, 
 
        Potential amp.       -0.1389 Ry
        Total length         46.3494 bohr
 

     total cpu time spent up to now is      690.0 secs

     total energy              =   -2931.21609784 Ry
     estimated scf accuracy    <       0.00010610 Ry

     iteration # 46     ecut=    29.40 Ry     beta= 0.05
     Davidson diagonalization with overlap
     ethr =  8.15E-09,  avg # of iterations =  6.0

     negative rho (up, down):  1.864E-02 0.000E+00
 
     Adding external electric field

     Computed dipole along edir(3) : 
        Dipole                0.7947 Ry au,          2.0200 Debye
        Dipole field          0.0015 Ry au, 
 
        Potential amp.       -0.1390 Ry
        Total length         46.3494 bohr
 

     total cpu time spent up to now is      710.4 secs

     total energy              =   -2931.21612099 Ry
     estimated scf accuracy    <       0.00005732 Ry

     iteration # 47     ecut=    29.40 Ry     beta= 0.05
     Davidson diagonalization with overlap
     ethr =  8.15E-09,  avg # of iterations =  5.0

     negative rho (up, down):  1.863E-02 0.000E+00
 
     Adding external electric field

     Computed dipole along edir(3) : 
        Dipole                0.7935 Ry au,          2.0169 Debye
        Dipole field          0.0015 Ry au, 
 
        Potential amp.       -0.1388 Ry
        Total length         46.3494 bohr
 

     total cpu time spent up to now is      727.4 secs

     total energy              =   -2931.21614473 Ry
     estimated scf accuracy    <       0.00002172 Ry

     iteration # 48     ecut=    29.40 Ry     beta= 0.05
     Davidson diagonalization with overlap
     ethr =  5.56E-09,  avg # of iterations =  2.0

     negative rho (up, down):  1.856E-02 0.000E+00
 
     Adding external electric field

     Computed dipole along edir(3) : 
        Dipole                0.7895 Ry au,          2.0066 Debye
        Dipole field          0.0015 Ry au, 
 
        Potential amp.       -0.1381 Ry
        Total length         46.3494 bohr
 

     total cpu time spent up to now is      737.9 secs

     total energy              =   -2931.21615608 Ry
     estimated scf accuracy    <       0.00000836 Ry

     iteration # 49     ecut=    29.40 Ry     beta= 0.05
     Davidson diagonalization with overlap
     ethr =  2.14E-09,  avg # of iterations =  7.1

     negative rho (up, down):  1.847E-02 0.000E+00
 
     Adding external electric field

     Computed dipole along edir(3) : 
        Dipole                0.7903 Ry au,          2.0087 Debye
        Dipole field          0.0015 Ry au, 
 
        Potential amp.       -0.1383 Ry
        Total length         46.3494 bohr
 

     total cpu time spent up to now is      755.1 secs

     total energy              =   -2931.21616957 Ry
     estimated scf accuracy    <       0.00001678 Ry

     iteration # 50     ecut=    29.40 Ry     beta= 0.05
     Davidson diagonalization with overlap
     ethr =  2.14E-09,  avg # of iterations =  4.8

     negative rho (up, down):  1.838E-02 0.000E+00
 
     Adding external electric field

     Computed dipole along edir(3) : 
        Dipole                0.7894 Ry au,          2.0064 Debye
        Dipole field          0.0015 Ry au, 
 
        Potential amp.       -0.1381 Ry
        Total length         46.3494 bohr
 

     total cpu time spent up to now is      766.3 secs

     total energy              =   -2931.21617946 Ry
     estimated scf accuracy    <       0.00000734 Ry

     iteration # 51     ecut=    29.40 Ry     beta= 0.05
     Davidson diagonalization with overlap
     ethr =  1.88E-09,  avg # of iterations =  4.9

     negative rho (up, down):  1.839E-02 0.000E+00
 
     Adding external electric field

     Computed dipole along edir(3) : 
        Dipole                0.7893 Ry au,          2.0063 Debye
        Dipole field          0.0015 Ry au, 
 
        Potential amp.       -0.1381 Ry
        Total length         46.3494 bohr
 

     total cpu time spent up to now is      777.7 secs

     total energy              =   -2931.21618848 Ry
     estimated scf accuracy    <       0.00000297 Ry

     iteration # 52     ecut=    29.40 Ry     beta= 0.05
     Davidson diagonalization with overlap
     ethr =  7.59E-10,  avg # of iterations =  4.2

     negative rho (up, down):  1.832E-02 0.000E+00
 
     Adding external electric field

     Computed dipole along edir(3) : 
        Dipole                0.7888 Ry au,          2.0050 Debye
        Dipole field          0.0015 Ry au, 
 
        Potential amp.       -0.1380 Ry
        Total length         46.3494 bohr
 

     total cpu time spent up to now is      790.1 secs

     total energy              =   -2931.21619669 Ry
     estimated scf accuracy    <       0.00000112 Ry

     iteration # 53     ecut=    29.40 Ry     beta= 0.05
     Davidson diagonalization with overlap
     ethr =  2.86E-10,  avg # of iterations =  6.3

     negative rho (up, down):  1.831E-02 0.000E+00
 
     Adding external electric field

     Computed dipole along edir(3) : 
        Dipole                0.7883 Ry au,          2.0037 Debye
        Dipole field          0.0015 Ry au, 
 
        Potential amp.       -0.1379 Ry
        Total length         46.3494 bohr
 

     total cpu time spent up to now is      810.3 secs

     total energy              =   -2931.21620479 Ry
     estimated scf accuracy    <       0.00000414 Ry

     iteration # 54     ecut=    29.40 Ry     beta= 0.05
     Davidson diagonalization with overlap
     ethr =  2.86E-10,  avg # of iterations =  2.0

     negative rho (up, down):  1.832E-02 0.000E+00
 
     Adding external electric field

     Computed dipole along edir(3) : 
        Dipole                0.7883 Ry au,          2.0035 Debye
        Dipole field          0.0015 Ry au, 
 
        Potential amp.       -0.1379 Ry
        Total length         46.3494 bohr
 

     total cpu time spent up to now is      820.7 secs

     total energy              =   -2931.21621097 Ry
     estimated scf accuracy    <       0.00000282 Ry

     iteration # 55     ecut=    29.40 Ry     beta= 0.05
     Davidson diagonalization with overlap
     ethr =  2.86E-10,  avg # of iterations =  5.4

     negative rho (up, down):  1.832E-02 0.000E+00
 
     Adding external electric field

     Computed dipole along edir(3) : 
        Dipole                0.7882 Ry au,          2.0033 Debye
        Dipole field          0.0015 Ry au, 
 
        Potential amp.       -0.1379 Ry
        Total length         46.3494 bohr
 

     total cpu time spent up to now is      834.4 secs

     total energy              =   -2931.21621720 Ry
     estimated scf accuracy    <       0.00000053 Ry

     iteration # 56     ecut=    29.40 Ry     beta= 0.05
     Davidson diagonalization with overlap
     ethr =  1.36E-10,  avg # of iterations =  5.7

     negative rho (up, down):  1.831E-02 0.000E+00
 
     Adding external electric field

     Computed dipole along edir(3) : 
        Dipole                0.7882 Ry au,          2.0035 Debye
        Dipole field          0.0015 Ry au, 
 
        Potential amp.       -0.1379 Ry
        Total length         46.3494 bohr
 

     total cpu time spent up to now is      846.7 secs

     total energy              =   -2931.21622272 Ry
     estimated scf accuracy    <       0.00000030 Ry

     iteration # 57     ecut=    29.40 Ry     beta= 0.05
     Davidson diagonalization with overlap
     ethr =  7.58E-11,  avg # of iterations =  5.0

     negative rho (up, down):  1.828E-02 0.000E+00
 
     Adding external electric field

     Computed dipole along edir(3) : 
        Dipole                0.7880 Ry au,          2.0030 Debye
        Dipole field          0.0015 Ry au, 
 
        Potential amp.       -0.1379 Ry
        Total length         46.3494 bohr
 

     total cpu time spent up to now is      857.9 secs

     total energy              =   -2931.21622766 Ry
     estimated scf accuracy    <       0.00000019 Ry

     iteration # 58     ecut=    29.40 Ry     beta= 0.05
     Davidson diagonalization with overlap
     ethr =  4.86E-11,  avg # of iterations =  7.3

     negative rho (up, down):  1.828E-02 0.000E+00
 
     Adding external electric field

     Computed dipole along edir(3) : 
        Dipole                0.7880 Ry au,          2.0028 Debye
        Dipole field          0.0015 Ry au, 
 
        Potential amp.       -0.1378 Ry
        Total length         46.3494 bohr
 

     total cpu time spent up to now is      874.7 secs

     total energy              =   -2931.21623215 Ry
     estimated scf accuracy    <       0.00000010 Ry

     iteration # 59     ecut=    29.40 Ry     beta= 0.05
     Davidson diagonalization with overlap
     ethr =  2.54E-11,  avg # of iterations =  1.0

     negative rho (up, down):  1.828E-02 0.000E+00
 
     Adding external electric field

     Computed dipole along edir(3) : 
        Dipole                0.7879 Ry au,          2.0027 Debye
        Dipole field          0.0015 Ry au, 
 
        Potential amp.       -0.1378 Ry
        Total length         46.3494 bohr
 

     total cpu time spent up to now is      884.2 secs

     total energy              =   -2931.21623613 Ry
     estimated scf accuracy    <       0.00000009 Ry

     iteration # 60     ecut=    29.40 Ry     beta= 0.05
     Davidson diagonalization with overlap
     ethr =  2.42E-11,  avg # of iterations =  1.2

     negative rho (up, down):  1.826E-02 0.000E+00
 
     Adding external electric field

     Computed dipole along edir(3) : 
        Dipole                0.7879 Ry au,          2.0026 Debye
        Dipole field          0.0015 Ry au, 
 
        Potential amp.       -0.1378 Ry
        Total length         46.3494 bohr
 

     total cpu time spent up to now is      893.9 secs

     total energy              =   -2931.21623978 Ry
     estimated scf accuracy    <       0.00000008 Ry

     iteration # 61     ecut=    29.40 Ry     beta= 0.05
     Davidson diagonalization with overlap
     ethr =  2.07E-11,  avg # of iterations =  2.0

     negative rho (up, down):  1.826E-02 0.000E+00
 
     Adding external electric field

     Computed dipole along edir(3) : 
        Dipole                0.7859 Ry au,          1.9975 Debye
        Dipole field          0.0015 Ry au, 
 
        Potential amp.       -0.1375 Ry
        Total length         46.3494 bohr
 

     total cpu time spent up to now is      904.4 secs

     End of self-consistent calculation

          k = 0.0000 0.0000 0.0000 ( 18029 PWs)   bands (ev):

   -56.2771 -56.2434 -55.9067 -55.8877 -55.8682 -55.7079 -55.6563 -55.6490
   -55.6149 -55.5697 -55.5664 -55.5343 -55.0492 -55.0266 -55.0152 -54.9672
   -32.7040 -32.5253 -32.4971 -32.4681 -32.4428 -32.3770 -32.3309 -32.2999
   -32.2074 -32.1394 -32.1325 -32.1304 -32.1175 -32.1129 -32.0887 -32.0750
   -32.0718 -32.0636 -32.0284 -31.9237 -31.9031 -31.8923 -31.8866 -31.8814
   -31.8750 -31.8619 -31.8201 -31.8065 -31.7956 -31.7864 -31.7647 -31.7488
   -31.7447 -31.7337 -31.7276 -31.6735 -31.5625 -31.4486 -31.3765 -31.3526
   -31.2957 -31.2669 -31.2627 -31.2590 -31.1819 -31.1679 -31.0701 -31.0365
   -19.2568 -16.5778 -16.4277 -16.1892 -16.0538 -15.9594 -15.7838 -15.6414
   -15.6140 -15.5206 -15.5164 -15.4313 -15.4221 -15.3800 -15.3733 -15.3698
   -15.3528 -15.3230 -15.2836 -15.2742 -15.2671 -15.2360 -15.1745 -15.0822
   -15.0548 -15.0082 -14.9042 -14.8923 -14.8596 -14.6819 -13.5430 -13.4296
    -7.5485  -7.1030  -4.0216  -3.9381  -3.8206  -3.7787  -3.6904  -3.5791
    -3.3529  -3.3460  -3.0729  -3.0363  -2.9819  -2.9546  -2.9407  -2.8742
    -2.8003  -2.7571  -2.7187  -2.6996  -2.6811  -2.6578  -2.6530  -2.5869
    -2.5456  -2.4898  -2.4787  -2.4596  -2.3737  -2.3038  -2.2489  -2.2197
    -2.2126  -2.1732  -2.0957  -2.0779  -2.0648  -2.0122  -1.8978  -1.8148
    -1.7438  -1.7137  -1.6443  -1.6115  -1.5324  -1.4339  -1.3854  -1.3078
    -1.2892  -1.2845  -1.2221  -1.2045  -1.1285  -1.0386  -0.9800  -0.9268
    -0.8377  -0.8158  -0.7879  -0.7400  -0.7233  -0.6853  -0.6572  -0.6205
    -0.5665  -0.5561  -0.4709  -0.3229  -0.3060  -0.2810  -0.2650  -0.2233
    -0.1887  -0.1282  -0.1057  -0.0571  -0.0370   0.0066   0.0191   0.0581
     0.0869   0.1460   0.2626   0.2829   0.3014   0.3769   0.4908   0.5372
     0.5900   0.6922   0.7045   0.9059   0.9297   0.9783   1.1932   1.2343
     1.5634   1.6360   1.8900   2.6360   2.9949   3.1785   3.4677   3.4832
     3.5160   3.5889   3.7160   3.7501   3.8168

          k = 0.0000 0.0419 0.0000 ( 17933 PWs)   bands (ev):

   -56.2721 -56.2482 -55.9020 -55.8868 -55.8728 -55.7087 -55.6546 -55.6440
   -55.6198 -55.5682 -55.5644 -55.5393 -55.0441 -55.0240 -55.0201 -54.9697
   -32.6507 -32.5211 -32.5008 -32.4548 -32.3903 -32.3866 -32.3860 -32.2509
   -32.1943 -32.1350 -32.1204 -32.1110 -32.1065 -32.0866 -32.0816 -32.0744
   -32.0681 -32.0617 -32.0189 -31.9336 -31.9086 -31.9080 -31.8880 -31.8822
   -31.8711 -31.8649 -31.8278 -31.8210 -31.8149 -31.7966 -31.7908 -31.7861
   -31.7453 -31.7415 -31.7397 -31.7308 -31.5186 -31.3950 -31.3728 -31.3559
   -31.2935 -31.2792 -31.2613 -31.2545 -31.1942 -31.1774 -31.1270 -31.0566
   -19.2566 -16.4439 -16.3062 -16.0782 -15.9466 -15.8674 -15.7521 -15.7074
   -15.6582 -15.5820 -15.5376 -15.4683 -15.4239 -15.3933 -15.3727 -15.3478
   -15.3331 -15.3123 -15.2953 -15.2814 -15.2690 -15.2248 -15.2154 -15.1093
   -15.0772 -15.0605 -14.9592 -14.9586 -14.9161 -14.7476 -13.5485 -13.4698
    -7.5519  -7.1032  -3.8378  -3.7739  -3.6747  -3.6162  -3.5656  -3.4834
    -3.1783  -3.1353  -3.0485  -3.0245  -2.9289  -2.9153  -2.9037  -2.8471
    -2.8243  -2.7988  -2.7726  -2.7233  -2.7074  -2.6692  -2.6548  -2.6360
    -2.6150  -2.5924  -2.5465  -2.5363  -2.4296  -2.4254  -2.4122  -2.3981
    -2.3042  -2.2742  -2.2136  -2.1609  -2.0486  -1.9770  -1.8913  -1.8360
    -1.6784  -1.6438  -1.6187  -1.5604  -1.5204  -1.3634  -1.2653  -1.2465
    -1.1691  -1.1244  -1.0508  -1.0383  -1.0079  -0.9661  -0.9334  -0.9100
    -0.8555  -0.8255  -0.8042  -0.7533  -0.7263  -0.6944  -0.6863  -0.6541
    -0.6125  -0.5185  -0.4929  -0.4533  -0.4335  -0.4067  -0.3494  -0.2909
    -0.2123  -0.1707  -0.1507  -0.1048  -0.0461  -0.0178   0.0057   0.0260
     0.0387   0.0910   0.1499   0.2174   0.2856   0.3372   0.4015   0.4171
     0.5155   0.5305   0.5697   0.6288   0.8303   1.0954   1.1839   1.2683
     1.4990   1.5502   1.9637   2.5221   3.2626   3.2956   3.4731   3.4856
     3.5649   3.7202   3.7380   3.7485   3.8059

          k = 0.0000-0.0839 0.0000 ( 17884 PWs)   bands (ev):

   -56.2617 -56.2585 -55.8947 -55.8860 -55.8799 -55.7095 -55.6528 -55.6334
   -55.6304 -55.5699 -55.5541 -55.5495 -55.0321 -55.0321 -55.0211 -54.9724
   -32.5216 -32.5188 -32.5125 -32.5088 -32.4238 -32.4213 -32.2575 -32.2381
   -32.1753 -32.1671 -32.1514 -32.1050 -32.1024 -32.0949 -32.0828 -32.0586
   -32.0145 -31.9804 -31.9549 -31.9532 -31.9135 -31.9031 -31.8881 -31.8835
   -31.8800 -31.8711 -31.8705 -31.8696 -31.8635 -31.8585 -31.8077 -31.7993
   -31.7695 -31.7644 -31.7428 -31.7392 -31.4518 -31.3641 -31.3641 -31.3246
   -31.2908 -31.2635 -31.2630 -31.2627 -31.2245 -31.2243 -31.1830 -31.0759
   -19.2563 -16.1373 -16.0788 -16.0157 -15.9812 -15.8314 -15.8137 -15.7144
   -15.6649 -15.6195 -15.5906 -15.5210 -15.4617 -15.4388 -15.4386 -15.3866
   -15.3595 -15.2570 -15.2267 -15.1969 -15.1878 -15.1869 -15.1820 -15.1353
   -15.1145 -15.0943 -15.0890 -15.0397 -15.0381 -14.8325 -13.5324 -13.5323
    -7.5551  -7.1034  -3.6577  -3.3760  -3.3741  -3.3521  -3.2506  -3.2453
    -3.2084  -3.1812  -3.1776  -3.1677  -3.0748  -2.9592  -2.9430  -2.9391
    -2.9137  -2.9095  -2.8817  -2.8055  -2.7916  -2.6858  -2.6764  -2.6506
    -2.6328  -2.5686  -2.5496  -2.5218  -2.4821  -2.4494  -2.3769  -2.2814
    -2.2723  -2.2312  -2.1918  -1.9463  -1.9097  -1.8660  -1.8478  -1.8384
    -1.7036  -1.6592  -1.6208  -1.5068  -1.4638  -1.4521  -1.4012  -1.3947
    -1.3671  -1.3268  -1.2551  -1.2023  -1.1151  -1.0553  -1.0472  -0.9242
    -0.8675  -0.7219  -0.6207  -0.5854  -0.5659  -0.5233  -0.4934  -0.4621
    -0.4460  -0.4222  -0.4167  -0.3964  -0.3818  -0.3738  -0.3518  -0.2774
    -0.2651  -0.2602  -0.2221  -0.1931  -0.1866  -0.1598  -0.1553  -0.0887
    -0.0529  -0.0357   0.0032   0.0262   0.1394   0.2062   0.2755   0.3107
     0.3274   0.4034   0.6576   0.7808   0.8473   0.8512   1.3224   1.3255
     1.4551   1.4568   2.0688   2.3944   3.4812   3.4827   3.5723   3.5911
     3.6324   3.6330   3.6920   3.7027   3.7396

          k = 0.0380 0.0000 0.0000 ( 17913 PWs)   bands (ev):

   -56.2769 -56.2433 -55.9066 -55.8876 -55.8680 -55.7078 -55.6562 -55.6489
   -55.6148 -55.5697 -55.5663 -55.5342 -55.0491 -55.0265 -55.0151 -54.9671
   -32.7047 -32.5250 -32.4970 -32.4659 -32.4428 -32.3767 -32.3306 -32.3007
   -32.2072 -32.1471 -32.1422 -32.1299 -32.1139 -32.1058 -32.0888 -32.0755
   -32.0715 -32.0484 -32.0281 -31.9091 -31.9022 -31.8944 -31.8918 -31.8812
   -31.8754 -31.8618 -31.8200 -31.8036 -31.7955 -31.7866 -31.7685 -31.7569
   -31.7449 -31.7335 -31.7274 -31.6735 -31.5619 -31.4482 -31.3791 -31.3507
   -31.2978 -31.2666 -31.2624 -31.2580 -31.1818 -31.1677 -31.0699 -31.0363
   -19.2565 -16.5037 -16.3261 -16.0991 -15.9962 -15.9484 -15.7993 -15.7917
   -15.6868 -15.5507 -15.5271 -15.5236 -15.4659 -15.4512 -15.4367 -15.3654
   -15.3489 -15.3234 -15.2873 -15.2728 -15.2266 -15.1174 -15.1086 -15.0869
   -15.0614 -15.0141 -14.9757 -14.8936 -14.8541 -14.6806 -13.5400 -13.4293
    -7.5455  -7.0971  -3.8855  -3.7308  -3.6404  -3.5658  -3.5336  -3.4469
    -3.3436  -3.3310  -3.2883  -3.2048  -3.0461  -3.0215  -2.9790  -2.9364
    -2.8448  -2.7715  -2.7296  -2.7028  -2.6503  -2.6022  -2.5385  -2.5161
    -2.4810  -2.4547  -2.4206  -2.3816  -2.3742  -2.3180  -2.1809  -2.1617
    -2.1329  -2.0766  -2.0590  -1.9740  -1.9084  -1.8571  -1.8233  -1.7852
    -1.7278  -1.7155  -1.6959  -1.6097  -1.5526  -1.5071  -1.4386  -1.3802
    -1.3518  -1.3232  -1.2532  -1.2136  -1.1707  -1.1655  -1.1149  -1.0876
    -0.9940  -0.9211  -0.8235  -0.8101  -0.6919  -0.6611  -0.6224  -0.6138
    -0.5822  -0.5254  -0.4847  -0.4037  -0.3359  -0.3171  -0.2871  -0.2732
    -0.1951  -0.1739  -0.1399  -0.1067  -0.0818  -0.0562  -0.0254  -0.0032
     0.0402   0.1704   0.2171   0.2747   0.2869   0.3213   0.4142   0.4340
     0.4439   0.5247   0.7226   0.8209   0.9379   0.9902   1.1033   1.1655
     1.4460   1.5354   1.8983   2.5099   3.1790   3.1988   3.5094   3.5857
     3.6566   3.6954   3.7017   3.7112   3.7563

          k = 0.0380 0.0419 0.0000 ( 17878 PWs)   bands (ev):

   -56.2720 -56.2481 -55.9019 -55.8868 -55.8727 -55.7086 -55.6545 -55.6439
   -55.6198 -55.5682 -55.5644 -55.5392 -55.0440 -55.0239 -55.0201 -54.9696
   -32.6514 -32.5209 -32.5008 -32.4530 -32.3900 -32.3867 -32.3861 -32.2517
   -32.1942 -32.1348 -32.1205 -32.1096 -32.1078 -32.0985 -32.0889 -32.0753
   -32.0619 -32.0408 -32.0196 -31.9338 -31.9071 -31.8957 -31.8883 -31.8874
   -31.8719 -31.8650 -31.8233 -31.8210 -31.8152 -31.7977 -31.7907 -31.7859
   -31.7554 -31.7446 -31.7398 -31.7304 -31.5183 -31.3947 -31.3748 -31.3549
   -31.2950 -31.2791 -31.2610 -31.2543 -31.1943 -31.1772 -31.1269 -31.0566
   -19.2563 -16.3765 -16.2108 -15.9943 -15.8976 -15.8456 -15.7915 -15.7436
   -15.6954 -15.6146 -15.5336 -15.4990 -15.4744 -15.4247 -15.4105 -15.3769
   -15.3598 -15.3327 -15.3136 -15.3023 -15.2910 -15.1653 -15.1402 -15.1178
   -15.1010 -15.0634 -15.0215 -14.9613 -14.9102 -14.7468 -13.5464 -13.4701
    -7.5501  -7.0980  -3.7449  -3.5817  -3.5479  -3.3964  -3.3732  -3.2919
    -3.1673  -3.1402  -3.1239  -3.0331  -2.9973  -2.8792  -2.8613  -2.8330
    -2.7998  -2.7539  -2.7308  -2.7154  -2.6943  -2.6876  -2.6577  -2.6075
    -2.5813  -2.5696  -2.5225  -2.4668  -2.4299  -2.3978  -2.3680  -2.3384
    -2.2393  -2.2048  -2.1342  -2.1186  -2.0006  -1.9792  -1.9021  -1.7820
    -1.7126  -1.6791  -1.6230  -1.5192  -1.4318  -1.3536  -1.3248  -1.3065
    -1.2249  -1.1946  -1.1439  -1.1234  -1.1152  -1.0634  -1.0221  -0.9942
    -0.9742  -0.8910  -0.8568  -0.8138  -0.8054  -0.7636  -0.7332  -0.7219
    -0.6718  -0.6341  -0.6112  -0.5604  -0.5013  -0.4815  -0.4665  -0.3859
    -0.3236  -0.2904  -0.2376  -0.2040  -0.1607  -0.1289  -0.0448   0.0133
     0.0693   0.1299   0.2215   0.2862   0.3214   0.3707   0.3906   0.4370
     0.4811   0.5049   0.5837   0.5992   0.8135   1.0463   1.1987   1.2752
     1.4215   1.5131   1.9787   2.4999   3.2834   3.4410   3.5140   3.5669
     3.6178   3.6906   3.7243   3.7919   3.8058

          k = 0.0380-0.0839 0.0000 ( 17916 PWs)   bands (ev):

   -56.2617 -56.2585 -55.8947 -55.8860 -55.8799 -55.7095 -55.6528 -55.6333
   -55.6304 -55.5699 -55.5542 -55.5496 -55.0321 -55.0321 -55.0212 -54.9725
   -32.5222 -32.5195 -32.5125 -32.5088 -32.4230 -32.4205 -32.2576 -32.2383
   -32.1761 -32.1672 -32.1515 -32.1042 -32.1025 -32.0949 -32.0834 -32.0586
   -32.0153 -31.9748 -31.9588 -31.9570 -31.9124 -31.9022 -31.8902 -31.8856
   -31.8808 -31.8706 -31.8663 -31.8620 -31.8567 -31.8535 -31.8087 -31.8020
   -31.7694 -31.7643 -31.7505 -31.7465 -31.4519 -31.3648 -31.3648 -31.3245
   -31.2914 -31.2643 -31.2630 -31.2627 -31.2245 -31.2243 -31.1830 -31.0759
   -19.2562 -16.0990 -16.0256 -15.9496 -15.9191 -15.7805 -15.7599 -15.6739
   -15.6171 -15.6106 -15.6028 -15.5472 -15.5377 -15.5049 -15.4689 -15.3743
   -15.3524 -15.3394 -15.3121 -15.2624 -15.2574 -15.1851 -15.1786 -15.1373
   -15.1352 -15.0972 -15.0832 -15.0344 -15.0326 -14.8299 -13.5323 -13.5322
    -7.5545  -7.0990  -3.6502  -3.3493  -3.1842  -3.1622  -3.1401  -3.0635
    -3.0483  -3.0263  -3.0163  -2.9879  -2.9472  -2.8947  -2.8813  -2.8459
    -2.8315  -2.8053  -2.7940  -2.7741  -2.7558  -2.6645  -2.6556  -2.6250
    -2.6060  -2.5955  -2.5687  -2.5284  -2.4998  -2.4315  -2.4121  -2.3541
    -2.2944  -2.0234  -2.0011  -1.9461  -1.9193  -1.8815  -1.8528  -1.8233
    -1.7523  -1.7352  -1.6998  -1.6735  -1.6348  -1.5872  -1.5535  -1.4933
    -1.4529  -1.3892  -1.3663  -1.3208  -1.1878  -1.0238  -0.9929  -0.9404
    -0.8820  -0.8210  -0.7987  -0.7627  -0.7304  -0.7005  -0.6786  -0.6744
    -0.6041  -0.5983  -0.5700  -0.5646  -0.5472  -0.5096  -0.4959  -0.4589
    -0.4137  -0.4016  -0.3726  -0.3379  -0.2974  -0.1514  -0.1084   0.0024
     0.0294   0.0814   0.1488   0.2269   0.3143   0.3251   0.3399   0.4076
     0.4163   0.4358   0.6763   0.7374   0.8291   0.8359   1.3384   1.3411
     1.4411   1.4423   2.0867   2.4658   3.4759   3.4769   3.5735   3.6043
     3.6465   3.6539   3.6844   3.7169   3.8607

          k = 0.0380-0.0419 0.0000 ( 17876 PWs)   bands (ev):

   -56.2720 -56.2481 -55.9019 -55.8868 -55.8727 -55.7086 -55.6545 -55.6439
   -55.6198 -55.5682 -55.5644 -55.5392 -55.0440 -55.0239 -55.0201 -54.9696
   -32.6513 -32.5209 -32.5008 -32.4530 -32.3900 -32.3867 -32.3861 -32.2517
   -32.1942 -32.1349 -32.1204 -32.1101 -32.1081 -32.0979 -32.0889 -32.0753
   -32.0619 -32.0408 -32.0196 -31.9338 -31.9070 -31.8958 -31.8884 -31.8873
   -31.8719 -31.8650 -31.8230 -31.8211 -31.8152 -31.7978 -31.7908 -31.7858
   -31.7554 -31.7446 -31.7397 -31.7305 -31.5183 -31.3947 -31.3748 -31.3549
   -31.2949 -31.2792 -31.2610 -31.2543 -31.1943 -31.1772 -31.1269 -31.0566
   -19.2563 -16.3766 -16.2106 -15.9941 -15.8977 -15.8458 -15.7922 -15.7437
   -15.6951 -15.6146 -15.5336 -15.4981 -15.4742 -15.4242 -15.4115 -15.3769
   -15.3595 -15.3323 -15.3137 -15.3034 -15.2904 -15.1657 -15.1394 -15.1185
   -15.1002 -15.0635 -15.0217 -14.9615 -14.9102 -14.7467 -13.5464 -13.4701
    -7.5501  -7.0980  -3.7444  -3.5812  -3.5474  -3.3989  -3.3739  -3.2931
    -3.1713  -3.1554  -3.1091  -3.0309  -2.9911  -2.8812  -2.8578  -2.8292
    -2.8001  -2.7562  -2.7371  -2.7194  -2.6949  -2.6898  -2.6514  -2.6063
    -2.5806  -2.5715  -2.5257  -2.4651  -2.4353  -2.3971  -2.3716  -2.3417
    -2.2446  -2.2041  -2.1308  -2.1214  -2.0009  -1.9816  -1.8887  -1.8014
    -1.7008  -1.6760  -1.6087  -1.5195  -1.4255  -1.3595  -1.3232  -1.3153
    -1.2190  -1.1874  -1.1425  -1.1246  -1.1122  -1.0566  -1.0218  -0.9852
    -0.9706  -0.8873  -0.8501  -0.8124  -0.8035  -0.7602  -0.7353  -0.7094
    -0.6836  -0.6455  -0.6026  -0.5492  -0.5064  -0.4989  -0.4586  -0.4081
    -0.3291  -0.3073  -0.2225  -0.1880  -0.1623  -0.1485  -0.0407   0.0034
     0.0691   0.1207   0.2294   0.2905   0.3226   0.3588   0.3893   0.4324
     0.4900   0.5088   0.5835   0.5984   0.8124   1.0456   1.1988   1.2760
     1.4213   1.5138   1.9764   2.4982   3.2834   3.4416   3.5132   3.5666
     3.6205   3.6836   3.7374   3.7898   3.7929

          k =-0.0760-0.0000 0.0000 ( 17886 PWs)   bands (ev):

   -56.2769 -56.2433 -55.9065 -55.8876 -55.8680 -55.7078 -55.6562 -55.6487
   -55.6148 -55.5697 -55.5663 -55.5342 -55.0490 -55.0265 -55.0151 -54.9671
   -32.7054 -32.5249 -32.4969 -32.4638 -32.4429 -32.3770 -32.3305 -32.3015
   -32.2071 -32.1579 -32.1452 -32.1297 -32.1119 -32.0965 -32.0888 -32.0760
   -32.0713 -32.0373 -32.0280 -31.9034 -31.9017 -31.8921 -31.8903 -31.8812
   -31.8755 -31.8617 -31.8198 -31.8014 -31.7955 -31.7873 -31.7838 -31.7602
   -31.7432 -31.7335 -31.7274 -31.6738 -31.5615 -31.4479 -31.3816 -31.3496
   -31.3001 -31.2666 -31.2622 -31.2573 -31.1816 -31.1677 -31.0699 -31.0363
   -19.2563 -16.4094 -16.1604 -16.0096 -16.0016 -15.8989 -15.8825 -15.7875
   -15.7162 -15.6325 -15.6147 -15.6009 -15.5458 -15.5291 -15.5081 -15.3561
   -15.3122 -15.3121 -15.2884 -15.2627 -15.1770 -15.1626 -15.1238 -15.0712
   -15.0379 -15.0358 -14.9268 -14.8953 -14.8520 -14.6798 -13.5371 -13.4290
    -7.5427  -7.0912  -3.8695  -3.6170  -3.4366  -3.4040  -3.3639  -3.3477
    -3.3324  -3.2364  -3.2071  -3.1726  -3.1005  -3.0550  -2.9821  -2.9172
    -2.8231  -2.7664  -2.6785  -2.6376  -2.6092  -2.5282  -2.4847  -2.4559
    -2.4192  -2.4146  -2.3794  -2.3068  -2.2305  -2.2180  -2.1838  -2.1415
    -2.1049  -2.0886  -2.0780  -2.0449  -2.0351  -1.9799  -1.9737  -1.7118
    -1.6843  -1.6749  -1.6159  -1.6034  -1.5856  -1.5584  -1.5108  -1.4693
    -1.3369  -1.3286  -1.3138  -1.2865  -1.2584  -1.2202  -1.1414  -1.1239
    -1.1054  -1.0609  -1.0147  -0.8875  -0.7246  -0.6323  -0.6262  -0.5834
    -0.5612  -0.5479  -0.5195  -0.4820  -0.4298  -0.4195  -0.3867  -0.3164
    -0.2944  -0.2675  -0.1753  -0.1453  -0.1190  -0.1056  -0.0558  -0.0306
     0.0288   0.1448   0.1998   0.2522   0.2727   0.3015   0.3663   0.4654
     0.5665   0.6578   0.6692   0.7358   0.8600   0.9760   1.0125   1.1439
     1.3049   1.4499   1.9030   2.4030   3.1913   3.3263   3.3344   3.4981
     3.5119   3.6081   3.6881   3.7825   3.8496

          k =-0.0760 0.0419 0.0000 ( 17914 PWs)   bands (ev):

   -56.2720 -56.2482 -55.9019 -55.8868 -55.8727 -55.7086 -55.6546 -55.6438
   -55.6198 -55.5682 -55.5644 -55.5393 -55.0441 -55.0239 -55.0201 -54.9697
   -32.6522 -32.5209 -32.5009 -32.4515 -32.3900 -32.3869 -32.3864 -32.2527
   -32.1942 -32.1348 -32.1224 -32.1187 -32.1076 -32.0930 -32.0910 -32.0758
   -32.0620 -32.0268 -32.0204 -31.9342 -31.9063 -31.8954 -31.8880 -31.8783
   -31.8723 -31.8650 -31.8290 -31.8160 -31.8138 -31.7993 -31.7909 -31.7858
   -31.7668 -31.7474 -31.7398 -31.7307 -31.5181 -31.3946 -31.3770 -31.3542
   -31.2967 -31.2792 -31.2609 -31.2543 -31.1943 -31.1772 -31.1269 -31.0566
   -19.2561 -16.2930 -16.0392 -15.9257 -15.8916 -15.8445 -15.8131 -15.7475
   -15.6984 -15.6253 -15.5853 -15.5763 -15.5168 -15.4915 -15.4798 -15.4024
   -15.3777 -15.3347 -15.3117 -15.3005 -15.2680 -15.2240 -15.1415 -15.1210
   -15.0811 -15.0487 -15.0236 -14.9696 -14.9077 -14.7466 -13.5444 -13.4704
    -7.5485  -7.0930  -3.7365  -3.5635  -3.2512  -3.1801  -3.1424  -3.1250
    -3.0601  -3.0157  -3.0001  -2.9737  -2.9441  -2.9128  -2.8758  -2.8190
    -2.7910  -2.7803  -2.7475  -2.7395  -2.6624  -2.6064  -2.5818  -2.5739
    -2.5662  -2.5552  -2.5240  -2.5115  -2.4248  -2.3556  -2.3052  -2.2532
    -2.1813  -2.1568  -2.0084  -1.9629  -1.9431  -1.9112  -1.8962  -1.8819
    -1.8445  -1.6649  -1.5982  -1.5084  -1.4806  -1.4346  -1.3904  -1.3601
    -1.3247  -1.2813  -1.2425  -1.2072  -1.1851  -1.1614  -1.1380  -1.1041
    -1.0922  -1.0476  -1.0203  -0.9809  -0.8994  -0.8818  -0.8552  -0.7874
    -0.7385  -0.7048  -0.6686  -0.6361  -0.6107  -0.5841  -0.5635  -0.5208
    -0.4890  -0.3500  -0.3298  -0.2634  -0.2310  -0.1598  -0.0753   0.0324
     0.0693   0.2242   0.2413   0.2772   0.3694   0.3819   0.4641   0.5260
     0.5438   0.6104   0.6176   0.6961   0.7588   0.8875   1.2159   1.2810
     1.3528   1.4862   1.9919   2.4874   3.2736   3.4021   3.4948   3.5206
     3.5778   3.6036   3.6865   3.8112   3.8248

          k =-0.0760-0.0839 0.0000 ( 17948 PWs)   bands (ev):

   -56.2617 -56.2586 -55.8947 -55.8861 -55.8800 -55.7095 -55.6528 -55.6333
   -55.6304 -55.5699 -55.5542 -55.5496 -55.0321 -55.0321 -55.0212 -54.9725
   -32.5228 -32.5201 -32.5125 -32.5089 -32.4222 -32.4196 -32.2578 -32.2386
   -32.1768 -32.1673 -32.1516 -32.1035 -32.1026 -32.0953 -32.0833 -32.0586
   -32.0161 -31.9690 -31.9621 -31.9603 -31.9112 -31.9011 -31.8917 -31.8871
   -31.8810 -31.8706 -31.8690 -31.8608 -31.8437 -31.8410 -31.8108 -31.8035
   -31.7693 -31.7642 -31.7601 -31.7556 -31.4519 -31.3655 -31.3655 -31.3244
   -31.2921 -31.2652 -31.2630 -31.2627 -31.2245 -31.2244 -31.1830 -31.0760
   -19.2560 -16.0559 -15.9561 -15.8149 -15.7811 -15.7434 -15.7424 -15.6965
   -15.6625 -15.6335 -15.6290 -15.5409 -15.5114 -15.4865 -15.4813 -15.4158
   -15.4089 -15.4028 -15.3993 -15.3294 -15.3239 -15.2260 -15.2170 -15.1360
   -15.1288 -15.0938 -15.0752 -15.0317 -15.0293 -14.8279 -13.5321 -13.5320
    -7.5539  -7.0947  -3.6473  -3.3491  -3.1556  -3.0257  -2.9841  -2.8961
    -2.8707  -2.8614  -2.8609  -2.7978  -2.7538  -2.7429  -2.7026  -2.6765
    -2.6702  -2.6479  -2.6437  -2.6125  -2.6106  -2.6052  -2.6030  -2.5898
    -2.5549  -2.5057  -2.5029  -2.4909  -2.4838  -2.4353  -2.3663  -2.3301
    -2.2553  -2.1614  -2.1603  -2.0879  -2.0524  -1.9781  -1.9688  -1.9637
    -1.9449  -1.9182  -1.7802  -1.6735  -1.6491  -1.6330  -1.5813  -1.5734
    -1.5196  -1.3268  -1.3090  -1.2499  -1.1824  -1.1590  -1.1198  -1.1086
    -1.0476  -1.0434  -1.0233  -0.9876  -0.9794  -0.9338  -0.9060  -0.8186
    -0.7962  -0.7683  -0.7484  -0.6802  -0.6537  -0.6118  -0.5741  -0.5467
    -0.5288  -0.5041  -0.4334  -0.3903  -0.3252  -0.2811  -0.2161   0.0258
     0.0335   0.2229   0.2993   0.3889   0.4549   0.4750   0.4891   0.5514
     0.6203   0.6270   0.6429   0.6641   0.7386   0.7433   1.3644   1.3669
     1.4177   1.4182   2.1052   2.5293   3.5400   3.5447   3.5596   3.5805
     3.5885   3.6335   3.6492   3.6827   3.9506

     the Fermi energy is     2.4979 ev

!    total energy              =   -2931.21627310 Ry
     estimated scf accuracy    <       0.00000007 Ry
     smearing contrib. (-TS)   =      -0.01053829 Ry
     internal energy E=F+TS    =   -2931.20573481 Ry

     The total energy is F=E-TS. E is the sum of the following terms:
     one-electron contribution =  -24525.86655919 Ry
     hartree contribution      =   12349.41209934 Ry
     xc contribution           =    -481.85328863 Ry
     ewald contribution        =    9727.10084816 Ry
     electric field correction =       0.00116551 Ry

     convergence has been achieved in  61 iterations

     Forces acting on atoms (cartesian axes, Ry/au):

     atom    1 type  1   force =     0.00017050   -0.00009025    0.14781918
     atom    2 type  1   force =     0.00000901    0.00055774   -0.16851867
     atom    3 type  2   force =     0.00012259    0.00257486   -0.06040404
     atom    4 type  2   force =    -0.00023307   -0.00139867    0.04037563
     atom    5 type  2   force =    -0.02184357    0.00008830    0.00384712
     atom    6 type  2   force =     0.02069068   -0.00004049    0.00305648
     atom    7 type  1   force =     0.00105283    0.00043843    0.00003555
     atom    8 type  1   force =    -0.00060031    0.00113012   -0.00044376
     atom    9 type  2   force =    -0.00007481    0.00015449   -0.00040262
     atom   10 type  2   force =     0.00022857   -0.00015862    0.00045858
     atom   11 type  2   force =     0.00010257   -0.00022967    0.00007817
     atom   12 type  2   force =    -0.00026856   -0.00027069   -0.00008073
     atom   13 type  1   force =     0.00016979   -0.00046332   -0.00054626
     atom   14 type  1   force =     0.00021469   -0.00024944    0.00055390
     atom   15 type  2   force =     0.00005541   -0.00021648    0.00021534
     atom   16 type  2   force =    -0.00003482    0.00012027   -0.00001356
     atom   17 type  2   force =    -0.00014981    0.00011883   -0.00039795
     atom   18 type  2   force =    -0.00037647   -0.00012609   -0.00007029
     atom   19 type  1   force =     0.00052626    0.00091257   -0.00010605
     atom   20 type  1   force =    -0.00041203   -0.00065657    0.00114552
     atom   21 type  2   force =     0.00009146   -0.00009938    0.10208636
     atom   22 type  2   force =    -0.00002622    0.00040207   -0.00019426
     atom   23 type  2   force =    -0.07528283    0.00017751   -0.03469862
     atom   24 type  2   force =     0.07530815    0.00061720   -0.03479057
     atom   25 type  1   force =    -0.00002786   -0.00011702    0.14836893
     atom   26 type  1   force =     0.00006409   -0.00187657   -0.16844098
     atom   27 type  2   force =     0.00016156    0.00246212   -0.05951335
     atom   28 type  2   force =    -0.00017008   -0.00144760    0.04098115
     atom   29 type  2   force =    -0.02194964    0.00144402    0.00421097
     atom   30 type  2   force =     0.02064845    0.00072979    0.00339141
     atom   31 type  1   force =     0.00109967   -0.00045375    0.00005379
     atom   32 type  1   force =    -0.00066344   -0.00066476   -0.00040153
     atom   33 type  2   force =     0.00011389   -0.00014331   -0.00062673
     atom   34 type  2   force =     0.00021990    0.00062370   -0.00052962
     atom   35 type  2   force =    -0.00015017    0.00015464   -0.00017145
     atom   36 type  2   force =     0.00053835   -0.00031394   -0.00014106
     atom   37 type  1   force =     0.00007549    0.00047757    0.00008969
     atom   38 type  1   force =    -0.00007155    0.00034554    0.00043386
     atom   39 type  2   force =     0.00001118   -0.00058750    0.00049112
     atom   40 type  2   force =    -0.00006314   -0.00043310    0.00042268
     atom   41 type  2   force =    -0.00060738   -0.00090847   -0.00029127
     atom   42 type  2   force =     0.00040959   -0.00055991    0.00011122
     atom   43 type  1   force =     0.00088373   -0.00105611   -0.00016520
     atom   44 type  1   force =    -0.00060670   -0.00020356    0.00012554
     atom   45 type  2   force =     0.00008440   -0.00009243    0.10201882
     atom   46 type  2   force =    -0.07530215    0.00010167   -0.03471227
     atom   47 type  2   force =     0.07533218    0.00054143   -0.03481097
     atom   48 type  3   force =    -0.00000036   -0.00089248   -0.00042822
     atom   49 type  4   force =     0.00027546   -0.00013262    0.00025152
     atom   50 type  2   force =    -0.00820905    0.00528663   -0.00324102
     atom   51 type  4   force =     0.00717355   -0.00527956    0.00363123
     atom   52 type  4   force =     0.00129006   -0.00029713   -0.00011272

     Total force =     0.401983     Total SCF correction =     0.001154
  @ DRIVER MODE: Message from server: STATUS
  @ DRIVER MODE: Message from server: GETFORCE
  @ DRIVER MODE: Returning v,forces,stress,ensemble 

     Writing output data file ./calc.save/
  @ DRIVER MODE: Message from server: EXIT
  @ DRIVE MODE: Exiting  
 
     init_run     :     10.50s CPU     10.68s WALL (       1 calls)
     electrons    :    880.11s CPU    893.51s WALL (       1 calls)
     forces       :      2.17s CPU      2.26s WALL (       1 calls)

     Called by init_run:
     wfcinit      :      4.65s CPU      4.71s WALL (       1 calls)
     potinit      :      5.28s CPU      5.34s WALL (       1 calls)
     hinit0       :      0.24s CPU      0.24s WALL (       1 calls)

     Called by electrons:
     c_bands      :    742.90s CPU    748.27s WALL (      61 calls)
     sum_band     :     93.04s CPU     96.34s WALL (      61 calls)
     v_of_rho     :     34.84s CPU     36.47s WALL (      62 calls)
     newd         :     12.74s CPU     15.83s WALL (      62 calls)
     mix_rho      :      1.25s CPU      1.28s WALL (      61 calls)
     vdW_kernel   :      4.54s CPU      4.56s WALL (       1 calls)

     Called by c_bands:
     init_us_2    :      5.46s CPU      5.48s WALL (    1240 calls)
     cegterg      :    726.65s CPU    731.76s WALL (     611 calls)

     Called by *egterg:
     cdiaghg      :    115.77s CPU    116.26s WALL (    5267 calls)
     h_psi        :    395.93s CPU    399.57s WALL (    5277 calls)
     s_psi        :     51.11s CPU     51.27s WALL (    5277 calls)
     g_psi        :      1.43s CPU      1.44s WALL (    4656 calls)

     Called by h_psi:
     h_psi:calbec :     48.50s CPU     48.76s WALL (    5277 calls)
     vloc_psi     :    293.46s CPU    296.41s WALL (    5277 calls)
     add_vuspsi   :     51.43s CPU     51.68s WALL (    5277 calls)

     General routines
     calbec       :     65.31s CPU     65.61s WALL (    5927 calls)
     fft          :     17.56s CPU     17.68s WALL (    3906 calls)
     ffts         :      0.11s CPU      0.12s WALL (     123 calls)
     fftw         :    331.21s CPU    334.48s WALL (  790898 calls)
     interpolate  :      0.37s CPU      0.37s WALL (      62 calls)
     davcio       :      0.00s CPU      0.20s WALL (      10 calls)
 
     Parallel routines
 
     PWSCF        :  14m53.01s CPU  15m 7.13s WALL

 
   This run was terminated on:  21: 4:19  15Sep2021            

=------------------------------------------------------------------------------=
   JOB DONE.
=------------------------------------------------------------------------------=
