Ti    ONCVPSP-4.0.1  r_core=   2.80924   2.22468   1.98567
     22.0000     12.0000      210704    zatom,zion,pspd
     8      11   2     4   600     0    pspcod,pspxc,lmax,lloc,mmax,r2well
  5.99000000  2.50000000  0.00000000    rchrg fchrg qchrg
     2     2     2     0     0    nproj
     1     1           extension_switch
   0                         3.5969630877016E+00 -6.3287136168656E-01
     1  0.0000000000000E+00 -1.4946877069377E-11 -3.0792715599581E-11
     2  1.0000000000000E-02  4.8858414399213E-02  1.5324236044349E-02
     3  2.0000000000000E-02  9.7635658452431E-02  3.0590959645949E-02
     4  3.0000000000000E-02  1.4625078883349E-01  4.5742954611393E-02
     5  4.0000000000000E-02  1.9462331536933E-01  6.0723595688347E-02
     6  5.0000000000000E-02  2.4267342540380E-01  7.5477140149848E-02
     7  6.0000000000000E-02  2.9032220551688E-01  8.9949014736871E-02
     8  7.0000000000000E-02  3.3749185973509E-01  1.0408609644809E-01
     9  8.0000000000000E-02  3.8410592338414E-01  1.1783698569652E-01
    10  9.0000000000000E-02  4.3008947175319E-01  1.3115227039109E-01
    11  1.0000000000000E-01  4.7536932276244E-01  1.4398477954646E-01
    12  1.1000000000000E-01  5.1987423285105E-01  1.5628982507735E-01
    13  1.2000000000000E-01  5.6353508533175E-01  1.6802543049278E-01
    14  1.3000000000000E-01  6.0628507049036E-01  1.7915254527185E-01
    15  1.4000000000000E-01  6.4805985674402E-01  1.8963524377495E-01
    16  1.5000000000000E-01  6.8879775221025E-01  1.9944090762265E-01
    17  1.6000000000000E-01  7.2843985608009E-01  2.0854039055837E-01
    18  1.7000000000000E-01  7.6693019923256E-01  2.1690816490017E-01
    19  1.8000000000000E-01  8.0421587357394E-01  2.2452244878105E-01
    20  1.9000000000000E-01  8.4024714963426E-01  2.3136531347550E-01
    21  2.0000000000000E-01  8.7497758200405E-01  2.3742277021251E-01
    22  2.1000000000000E-01  9.0836410224726E-01  2.4268483598113E-01
    23  2.2000000000000E-01  9.4036709898081E-01  2.4714557794351E-01
    24  2.3000000000000E-01  9.7095048486682E-01  2.5080313618193E-01
    25  2.4000000000000E-01  1.0000817503213E+00  2.5365972461926E-01
    26  2.5000000000000E-01  1.0277320038005E+00  2.5572161006759E-01
    27  2.6000000000000E-01  1.0538759985864E+00  2.5699906947493E-01
    28  2.7000000000000E-01  1.0784921460497E+00  2.5750632555607E-01
    29  2.8000000000000E-01  1.1015625154320E+00  2.5726146110926E-01
    30  2.9000000000000E-01  1.1230728202450E+00  2.5628631243518E-01
    31  3.0000000000000E-01  1.1430123914461E+00  2.5460634238803E-01
    32  3.1000000000000E-01  1.1613741376078E+00  2.5225049370003E-01
    33  3.2000000000000E-01  1.1781544923558E+00  2.4925102332929E-01
    34  3.3000000000000E-01  1.1933533494096E+00  2.4564331868657E-01
    35  3.4000000000000E-01  1.2069739856121E+00  2.4146569669871E-01
    36  3.5000000000000E-01  1.2190229723904E+00  2.3675918676360E-01
    37  3.6000000000000E-01  1.2295100761419E+00  2.3156729874469E-01
    38  3.7000000000000E-01  1.2384481480901E+00  2.2593577724047E-01
    39  3.8000000000000E-01  1.2458530041993E+00  2.1991234344576E-01
    40  3.9000000000000E-01  1.2517432957865E+00  2.1354642599698E-01
    41  4.0000000000000E-01  1.2561403715079E+00  2.0688888226215E-01
    42  4.1000000000000E-01  1.2590681314359E+00  1.9999171159727E-01
    43  4.2000000000000E-01  1.2605528739812E+00  1.9290776214451E-01
    44  4.3000000000000E-01  1.2606231364434E+00  1.8569043279332E-01
    45  4.4000000000000E-01  1.2593095300041E+00  1.7839337196231E-01
    46  4.5000000000000E-01  1.2566445699996E+00  1.7107017488902E-01
    47  4.6000000000000E-01  1.2526625023323E+00  1.6377408113366E-01
    48  4.7000000000000E-01  1.2473991268958E+00  1.5655767401408E-01
    49  4.8000000000000E-01  1.2408916188994E+00  1.4947258369012E-01
    50  4.9000000000000E-01  1.2331783489889E+00  1.4256919560761E-01
    51  5.0000000000000E-01  1.2242987030605E+00  1.3589636599457E-01
    52  5.1000000000000E-01  1.2142929026648E+00  1.2950114607512E-01
    53  5.2000000000000E-01  1.2032018268939E+00  1.2342851663007E-01
    54  5.3000000000000E-01  1.1910668366308E+00  1.1772113448701E-01
    55  5.4000000000000E-01  1.1779296020296E+00  1.1241909246770E-01
    56  5.5000000000000E-01  1.1638319340717E+00  1.0755969425586E-01
    57  5.6000000000000E-01  1.1488156210236E+00  1.0317724557561E-01
    58  5.7000000000000E-01  1.1329222705899E+00  9.9302862988498E-02
    59  5.8000000000000E-01  1.1161931585258E+00  9.5964301527481E-02
    60  5.9000000000000E-01  1.0986690844348E+00  9.3185802287809E-02
    61  6.0000000000000E-01  1.0803902354378E+00  9.0987960989747E-02
    62  6.1000000000000E-01  1.0613960583563E+00  8.9387618415514E-02
    63  6.2000000000000E-01  1.0417251410010E+00  8.8397773504269E-02
    64  6.3000000000000E-01  1.0214151031108E+00  8.8027519764314E-02
    65  6.4000000000000E-01  1.0005024974283E+00  8.8282005532019E-02
    66  6.5000000000000E-01  9.7902272134270E-01  8.9162418472626E-02
    67  6.6000000000000E-01  9.5700993947037E-01  9.0665994580039E-02
    68  6.7000000000000E-01  9.3449701748105E-01  9.2786051791360E-02
    69  6.8000000000000E-01  9.1151546741303E-01  9.5512048188432E-02
    70  6.9000000000000E-01  8.8809540465486E-01  9.8829664613431E-02
    71  7.0000000000000E-01  8.6426551670373E-01  1.0272091137974E-01
    72  7.1000000000000E-01  8.4005304374202E-01  1.0716425861342E-01
    73  7.2000000000000E-01  8.1548377100478E-01  1.1213478961578E-01
    74  7.3000000000000E-01  7.9058203284178E-01  1.1760437649445E-01
    75  7.4000000000000E-01  7.6537072830824E-01  1.2354187716978E-01
    76  7.5000000000000E-01  7.3987134805065E-01  1.2991335272656E-01
    77  7.6000000000000E-01  7.1410401218556E-01  1.3668230394834E-01
    78  7.7000000000000E-01  6.8808751880393E-01  1.4380992574414E-01
    79  7.8000000000000E-01  6.6183940266829E-01  1.5125537805590E-01
    80  7.9000000000000E-01  6.3537600360813E-01  1.5897607172041E-01
    81  8.0000000000000E-01  6.0871254405869E-01  1.6692796765245E-01
    82  8.1000000000000E-01  5.8186321513118E-01  1.7506588761671E-01
    83  8.2000000000000E-01  5.5484127054885E-01  1.8334383476705E-01
    84  8.3000000000000E-01  5.2765912773254E-01  1.9171532205080E-01
    85  8.4000000000000E-01  5.0032847527330E-01  2.0013370650666E-01
    86  8.5000000000000E-01  4.7286038598696E-01  2.0855252742558E-01
    87  8.6000000000000E-01  4.4526543470805E-01  2.1692584629650E-01
    88  8.7000000000000E-01  4.1755381994703E-01  2.2520858642336E-01
    89  8.8000000000000E-01  3.8973548850692E-01  2.3335687007592E-01
    90  8.9000000000000E-01  3.6182026213240E-01  2.4132835102646E-01
    91  9.0000000000000E-01  3.3381796524684E-01  2.4908254032580E-01
    92  9.1000000000000E-01  3.0573855282084E-01  2.5658112318709E-01
    93  9.2000000000000E-01  2.7759223740942E-01  2.6378826487370E-01
    94  9.3000000000000E-01  2.4938961439444E-01  2.7067090352812E-01
    95  9.4000000000000E-01  2.2114178447419E-01  2.7719902793291E-01
    96  9.5000000000000E-01  1.9286047245303E-01  2.8334593826151E-01
    97  9.6000000000000E-01  1.6455814140113E-01  2.8908848795589E-01
    98  9.7000000000000E-01  1.3624810127700E-01  2.9440730496004E-01
    99  9.8000000000000E-01  1.0794461113395E-01  2.9928699064188E-01
   100  9.9000000000000E-01  7.9662974066142E-02  3.0371629485140E-01
   101  1.0000000000000E+00  5.1419624088950E-02  3.0768826568926E-01
   102  1.0100000000000E+00  2.3232204193772E-02  3.1120037269643E-01
   103  1.0200000000000E+00 -4.8803651328494E-03  3.1425460232189E-01
   104  1.0300000000000E+00 -3.2897827580960E-02  3.1685752468067E-01
   105  1.0400000000000E+00 -6.0798543475653E-02  3.1902033077766E-01
   106  1.0500000000000E+00 -8.8559453554391E-02  3.2075883954346E-01
   107  1.0600000000000E+00 -1.1615605452782E-01  3.2209347420523E-01
   108  1.0700000000000E+00 -1.4356238681767E-01  3.2304920769773E-01
   109  1.0800000000000E+00 -1.7075103479105E-01  3.2365547700633E-01
   110  1.0900000000000E+00 -1.9769313973353E-01  3.2394606652321E-01
   111  1.1000000000000E+00 -2.2435842572423E-01  3.2395896068990E-01
   112  1.1100000000000E+00 -2.5071523849491E-01  3.2373616639200E-01
   113  1.1200000000000E+00 -2.7673059727292E-01  3.2332350576421E-01
   114  1.1300000000000E+00 -3.0237025952432E-01  3.2277038025507E-01
   115  1.1400000000000E+00 -3.2759879842996E-01  3.2212950698919E-01
   116  1.1500000000000E+00 -3.5237969284382E-01  3.2145662864960E-01
   117  1.1600000000000E+00 -3.7667542939994E-01  3.2081019828238E-01
   118  1.1700000000000E+00 -4.0044761635265E-01  3.2025104059975E-01
   119  1.1800000000000E+00 -4.2365710865470E-01  3.1984199152401E-01
   120  1.1900000000000E+00 -4.4626414370002E-01  3.1964751787275E-01
   121  1.2000000000000E+00 -4.6822848708247E-01  3.1973331923491E-01
   122  1.2100000000000E+00 -4.8950958765025E-01  3.2016591422455E-01
   123  1.2200000000000E+00 -5.1006674106663E-01  3.2101221342720E-01
   124  1.2300000000000E+00 -5.2985926102362E-01  3.2233908146694E-01
   125  1.2400000000000E+00 -5.4884665719533E-01  3.2421289072455E-01
   126  1.2500000000000E+00 -5.6698881896222E-01  3.2669906932392E-01
   127  1.2600000000000E+00 -5.8424620388864E-01  3.2986164607660E-01
   128  1.2700000000000E+00 -6.0058002989093E-01  3.3376279513189E-01
   129  1.2800000000000E+00 -6.1595246999596E-01  3.3846238312140E-01
   130  1.2900000000000E+00 -6.3032684855779E-01  3.4401752161223E-01
   131  1.3000000000000E+00 -6.4366783777458E-01  3.5048212769180E-01
   132  1.3100000000000E+00 -6.5594165332951E-01  3.5790649549913E-01
   133  1.3200000000000E+00 -6.6711624796713E-01  3.6633688149257E-01
   134  1.3300000000000E+00 -6.7716150181224E-01  3.7581510620156E-01
   135  1.3400000000000E+00 -6.8604940824008E-01  3.8637817515156E-01
   136  1.3500000000000E+00 -6.9375425411638E-01  3.9805792157485E-01
   137  1.3600000000000E+00 -7.0025279324207E-01  4.1088067342874E-01
   138  1.3700000000000E+00 -7.0552441186115E-01  4.2486694713348E-01
   139  1.3800000000000E+00 -7.0955128512055E-01  4.4003117031900E-01
   140  1.3900000000000E+00 -7.1231852340880E-01  4.5638143573055E-01
   141  1.4000000000000E+00 -7.1381430754363E-01  4.7391928829047E-01
   142  1.4100000000000E+00 -7.1403001183000E-01  4.9263954714664E-01
   143  1.4200000000000E+00 -7.1296031406645E-01  5.1253016435890E-01
   144  1.4300000000000E+00 -7.1060329164053E-01  5.3357212168426E-01
   145  1.4400000000000E+00 -7.0696050292234E-01  5.5573936671995E-01
   146  1.4500000000000E+00 -7.0203705323871E-01  5.7899878945327E-01
   147  1.4600000000000E+00 -6.9584164478893E-01  6.0331024004737E-01
   148  1.4700000000000E+00 -6.8838660994538E-01  6.2862658846663E-01
   149  1.4800000000000E+00 -6.7968792746930E-01  6.5489382631327E-01
   150  1.4900000000000E+00 -6.6976522126139E-01  6.8205121101118E-01
   151  1.5000000000000E+00 -6.5864174135991E-01  7.1003145223369E-01
   152  1.5100000000000E+00 -6.4634432699425E-01  7.3876094023166E-01
   153  1.5200000000000E+00 -6.3290335159803E-01  7.6816001547839E-01
   154  1.5300000000000E+00 -6.1835264978454E-01  7.9814327880794E-01
   155  1.5400000000000E+00 -6.0272942638558E-01  8.2861994098784E-01
   156  1.5500000000000E+00 -5.8607414775312E-01  8.5949421043559E-01
   157  1.5600000000000E+00 -5.6843041562171E-01  8.9066571756166E-01
   158  1.5700000000000E+00 -5.4984482392573E-01  9.2202997400364E-01
   159  1.5800000000000E+00 -5.3036679906124E-01  9.5347886480535E-01
   160  1.5900000000000E+00 -5.1004842417440E-01  9.8490117139448E-01
   161  1.6000000000000E+00 -4.8894424814847E-01  1.0161831230233E+00
   162  1.6100000000000E+00 -4.6711108004445E-01  1.0472089741945E+00
   163  1.6200000000000E+00 -4.4460776984917E-01  1.0778616052331E+00
   164  1.6300000000000E+00 -4.2149497643752E-01  1.1080231434360E+00
   165  1.6400000000000E+00 -3.9783493055100E-01  1.1375755240587E+00
   166  1.6500000000000E+00 -3.7369126275907E-01  1.1664002945772E+00
   167  1.6600000000000E+00 -3.4912885582902E-01  1.1943784009170E+00
   168  1.6700000000000E+00 -3.2421364057950E-01  1.2213907201878E+00
   169  1.6800000000000E+00 -2.9901237866267E-01  1.2473186713136E+00
   170  1.6900000000000E+00 -2.7359243889766E-01  1.2720448282938E+00
   171  1.7000000000000E+00 -2.4802156827647E-01  1.2954535332400E+00
   172  1.7100000000000E+00 -2.2236765887552E-01  1.3174315056227E+00
   173  1.7200000000000E+00 -1.9669851187613E-01  1.3378684446783E+00
   174  1.7300000000000E+00 -1.7108159991995E-01  1.3566576218322E+00
   175  1.7400000000000E+00 -1.4558382903517E-01  1.3736964600095E+00
   176  1.7500000000000E+00 -1.2027130136175E-01  1.3888870968077E+00
   177  1.7600000000000E+00 -9.5209079905301E-02  1.4021369285199E+00
   178  1.7700000000000E+00 -7.0460956528709E-02  1.4133591321301E+00
   179  1.7800000000000E+00 -4.6089224371423E-02  1.4224731624973E+00
   180  1.7900000000000E+00 -2.2154455863212E-02  1.4294052220416E+00
   181  1.8000000000000E+00  1.2847125368140E-03  1.4340887003975E+00
   182  1.8100000000000E+00  2.4171787786485E-02  1.4364645816622E+00
   183  1.8200000000000E+00  4.6452618841354E-02  1.4364818169890E+00
   184  1.8300000000000E+00  6.8075585376529E-02  1.4340976604884E+00
   185  1.8400000000000E+00  8.8991775708260E-02  1.4292779665670E+00
   186  1.8500000000000E+00  1.0915515303588E-01  1.4219974470282E+00
   187  1.8600000000000E+00  1.2852270919385E-01  1.4122398864916E+00
   188  1.8700000000000E+00  1.4705460516677E-01  1.3999983148577E+00
   189  1.8800000000000E+00  1.6471429770146E-01  1.3852751358100E+00
   190  1.8900000000000E+00  1.8146865142641E-01  1.3680822105639E+00
   191  1.9000000000000E+00  1.9728803596315E-01  1.3484408962781E+00
   192  1.9100000000000E+00  2.1214640760472E-01  1.3263820388126E+00
   193  1.9200000000000E+00  2.2602137521870E-01  1.3019459197494E+00
   194  1.9300000000000E+00  2.3889425011485E-01  1.2751821578077E+00
   195  1.9400000000000E+00  2.5075007970786E-01  1.2461495650428E+00
   196  1.9500000000000E+00  2.6157766489171E-01  1.2149159584470E+00
   197  1.9600000000000E+00  2.7136956112522E-01  1.1815579277830E+00
   198  1.9700000000000E+00  2.8012206332215E-01  1.1461605607405E+00
   199  1.9800000000000E+00  2.8783517470862E-01  1.1088171266677E+00
   200  1.9900000000000E+00  2.9451255990491E-01  1.0696287203805E+00
   201  2.0000000000000E+00  3.0016148256301E-01  1.0287038677423E+00
   202  2.0100000000000E+00  3.0479272796416E-01  9.8615809487494E-01
   203  2.0200000000000E+00  3.0842051105317E-01  9.4211346304681E-01
   204  2.0300000000000E+00  3.1106237045970E-01  8.9669807146288E-01
   205  2.0400000000000E+00  3.1273904910929E-01  8.5004553029566E-01
   206  2.0500000000000E+00  3.1347436209863E-01  8.0229440647585E-01
   207  2.0600000000000E+00  3.1329505255353E-01  7.5358764484872E-01
   208  2.0700000000000E+00  3.1223063624034E-01  7.0407196742310E-01
   209  2.0800000000000E+00  3.1031323574856E-01  6.5389725354305E-01
   210  2.0900000000000E+00  3.0757740510190E-01  6.0321590389503E-01
   211  2.1000000000000E+00  3.0405994568125E-01  5.5218219130174E-01
   212  2.1100000000000E+00  2.9979971438330E-01  5.0095160134316E-01
   213  2.1200000000000E+00  2.9483742496074E-01  4.4968016587750E-01
   214  2.1300000000000E+00  2.8921544350946E-01  3.9852379255749E-01
   215  2.1400000000000E+00  2.8297757908134E-01  3.4763759344217E-01
   216  2.1500000000000E+00  2.7616887042490E-01  2.9717521584743E-01
   217  2.1600000000000E+00  2.6883536985454E-01  2.4728817853225E-01
   218  2.1700000000000E+00  2.6102392526056E-01  1.9812521632292E-01
   219  2.1800000000000E+00  2.5278196127494E-01  1.4983163624628E-01
   220  2.1900000000000E+00  2.4415726060272E-01  1.0254868819534E-01
   221  2.2000000000000E+00  2.3519774652762E-01  5.6412953104339E-02
   222  2.2100000000000E+00  2.2595126759608E-01  1.1555751559708E-02
   223  2.2200000000000E+00  2.1646538547023E-01 -3.1897424310133E-02
   224  2.2300000000000E+00  2.0678716692381E-01 -7.3827452915589E-02
   225  2.2400000000000E+00  1.9696298094426E-01 -1.1412209657994E-01
   226  2.2500000000000E+00  1.8703830188209E-01 -1.5267648364819E-01
   227  2.2600000000000E+00  1.7705751956104E-01 -1.8939355689726E-01
   228  2.2700000000000E+00  1.6706375723067E-01 -2.2418448595714E-01
   229  2.2800000000000E+00  1.5709869822535E-01 -2.5696904155146E-01
   230  2.2900000000000E+00  1.4720242213634E-01 -2.8767592959074E-01
   231  2.3000000000000E+00  1.3741325126833E-01 -3.1624308330108E-01
   232  2.3100000000000E+00  1.2776760811826E-01 -3.4261791171033E-01
   233  2.3200000000000E+00  1.1829988453992E-01 -3.6675750308829E-01
   234  2.3300000000000E+00  1.0904232321328E-01 -3.8862878210771E-01
   235  2.3400000000000E+00  1.0002491196609E-01 -4.0820861974646E-01
   236  2.3500000000000E+00  9.1275291455701E-02 -4.2548389509342E-01
   237  2.3600000000000E+00  8.2818676607909E-02 -4.4045150859963E-01
   238  2.3700000000000E+00  7.4677792156609E-02 -4.5311834648908E-01
   239  2.3800000000000E+00  6.6872822551027E-02 -4.6350119629637E-01
   240  2.3900000000000E+00  5.9421376420066E-02 -4.7162661374976E-01
   241  2.4000000000000E+00  5.2338465676495E-02 -4.7753074154861E-01
   242  2.4100000000000E+00  4.5636499262819E-02 -4.8125908082927E-01
   243  2.4200000000000E+00  3.9325291500592E-02 -4.8286621624190E-01
   244  2.4300000000000E+00  3.3412084843420E-02 -4.8241549603862E-01
   245  2.4400000000000E+00  2.7901586784908E-02 -4.7997866871069E-01
   246  2.4500000000000E+00  2.2796020617503E-02 -4.7563547787733E-01
   247  2.4600000000000E+00  1.8095189596259E-02 -4.6947321753125E-01
   248  2.4700000000000E+00  1.3796554003523E-02 -4.6158624990210E-01
   249  2.4800000000000E+00  9.8953205588590E-03 -4.5207548834273E-01
   250  2.4900000000000E+00  6.3845435169618E-03 -4.4104784792090E-01
   251  2.5000000000000E+00  3.2552367190268E-03 -4.2861566659769E-01
   252  2.5100000000000E+00  4.9649582950954E-04 -4.1489609996194E-01
   253  2.5200000000000E+00 -1.9043700807581E-03 -4.0001049267289E-01
   254  2.5300000000000E+00 -3.9616985173966E-03 -3.8408372993944E-01
   255  2.5400000000000E+00 -5.6913260374079E-03 -3.6724357239637E-01
   256  2.5500000000000E+00 -7.1104341962996E-03 -3.4961997786545E-01
   257  2.5600000000000E+00 -8.2373899942756E-03 -3.3134441358150E-01
   258  2.5700000000000E+00 -9.0915818503292E-03 -3.1254916246582E-01
   259  2.5800000000000E+00 -9.6932521728396E-03 -2.9336662710625E-01
   260  2.5900000000000E+00 -1.0063327599527E-02 -2.7392863507114E-01
   261  2.6000000000000E+00 -1.0223247981081E-02 -2.5436574919344E-01
   262  2.6100000000000E+00 -1.0194795203121E-02 -2.3480658646473E-01
   263  2.6200000000000E+00 -9.9999229280081E-03 -2.1537714862714E-01
   264  2.6300000000000E+00 -9.6605881611030E-03 -1.9620017081904E-01
   265  2.6400000000000E+00 -9.1985860896920E-03 -1.7739448514133E-01
   266  2.6500000000000E+00 -8.6353889431685E-03 -1.5907440409288E-01
   267  2.6600000000000E+00 -7.9919893277579E-03 -1.4134914588232E-01
   268  2.6700000000000E+00 -7.2887483623364E-03 -1.2432229833541E-01
   269  2.6800000000000E+00 -6.5452411593070E-03 -1.0809145362123E-01
   270  2.6900000000000E+00 -5.7801362281841E-03 -9.2747469291123E-02
   271  2.7000000000000E+00 -5.0110832599599E-03 -7.8373772500593E-02
   272  2.7100000000000E+00 -4.2545783776560E-03 -6.5046245167123E-02
   273  2.7200000000000E+00 -3.5258536651332E-03 -5.2832893195070E-02
   274  2.7300000000000E+00 -2.8387819643463E-03 -4.1793465029423E-02
   275  2.7400000000000E+00 -2.2057896862416E-03 -3.1979179188700E-02
   276  2.7500000000000E+00 -1.6377822071760E-03 -2.3432477651157E-02
   277  2.7600000000000E+00 -1.1441192752960E-03 -1.6187359306834E-02
   278  2.7700000000000E+00 -7.3265854609601E-04 -1.0270525672401E-02
   279  2.7800000000000E+00 -4.0749716390702E-04 -5.6707720211208E-03
   280  2.7900000000000E+00 -1.7626946391014E-04 -2.4394954335432E-03
   281  2.8000000000000E+00 -4.6645278907801E-05 -6.4272428926412E-04
   282  2.8100000000000E+00  1.6122717682213E-06  2.2107081393006E-05
   283  2.8200000000000E+00  4.9714981082988E-06  6.8092487292689E-05
   284  2.83 -0. -0.
   285  2.84 -0. -0.
   286  2.85  0.  0.
   287  2.86  0.  0.
   288  2.87 -0. -0.
   289  2.88  0.  0.
   290  2.89  0.  0.
   291  2.90  0.  0.
   292  2.91  0.  0.
   293  2.92  0.  0.
   294  2.93  0.  0.
   295  2.94  0.  0.
   296  2.95  0.  0.
   297  2.96  0.  0.
   298  2.97  0.  0.
   299  2.98  0.  0.
   300  2.99  0.  0.
   301  3.00  0.  0.
   302  3.01  0.  0.
   303  3.02  0.  0.
   304  3.03  0.  0.
   305  3.04  0.  0.
   306  3.05  0.  0.
   307  3.06  0.  0.
   308  3.07  0.  0.
   309  3.08  0.  0.
   310  3.09  0.  0.
   311  3.10  0.  0.
   312  3.11  0.  0.
   313  3.12  0.  0.
   314  3.13  0.  0.
   315  3.14  0.  0.
   316  3.15  0.  0.
   317  3.16  0.  0.
   318  3.17  0.  0.
   319  3.18  0.  0.
   320  3.19  0.  0.
   321  3.20  0.  0.
   322  3.21  0.  0.
   323  3.22  0.  0.
   324  3.23  0.  0.
   325  3.24  0.  0.
   326  3.25  0.  0.
   327  3.26  0.  0.
   328  3.27  0.  0.
   329  3.28  0.  0.
   330  3.29  0.  0.
   331  3.30  0.  0.
   332  3.31  0.  0.
   333  3.32  0.  0.
   334  3.33  0.  0.
   335  3.34  0.  0.
   336  3.35  0.  0.
   337  3.36  0.  0.
   338  3.37  0.  0.
   339  3.38  0.  0.
   340  3.39  0.  0.
   341  3.40  0.  0.
   342  3.41  0.  0.
   343  3.42  0.  0.
   344  3.43  0.  0.
   345  3.44  0.  0.
   346  3.45  0.  0.
   347  3.46  0.  0.
   348  3.47  0.  0.
   349  3.48  0.  0.
   350  3.49  0.  0.
   351  3.50  0.  0.
   352  3.51  0.  0.
   353  3.52  0.  0.
   354  3.53  0.  0.
   355  3.54  0.  0.
   356  3.55  0.  0.
   357  3.56  0.  0.
   358  3.57  0.  0.
   359  3.58  0.  0.
   360  3.59  0.  0.
   361  3.60  0.  0.
   362  3.61  0.  0.
   363  3.62  0.  0.
   364  3.63  0.  0.
   365  3.64  0.  0.
   366  3.65  0.  0.
   367  3.66  0.  0.
   368  3.67  0.  0.
   369  3.68  0.  0.
   370  3.69  0.  0.
   371  3.70  0.  0.
   372  3.71  0.  0.
   373  3.72  0.  0.
   374  3.73  0.  0.
   375  3.74  0.  0.
   376  3.75  0.  0.
   377  3.76  0.  0.
   378  3.77  0.  0.
   379  3.78  0.  0.
   380  3.79  0.  0.
   381  3.80  0.  0.
   382  3.81  0.  0.
   383  3.82  0.  0.
   384  3.83  0.  0.
   385  3.84  0.  0.
   386  3.85  0.  0.
   387  3.86  0.  0.
   388  3.87  0.  0.
   389  3.88  0.  0.
   390  3.89  0.  0.
   391  3.90  0.  0.
   392  3.91  0.  0.
   393  3.92  0.  0.
   394  3.93  0.  0.
   395  3.94  0.  0.
   396  3.95  0.  0.
   397  3.96  0.  0.
   398  3.97  0.  0.
   399  3.98  0.  0.
   400  3.99  0.  0.
   401  4.00  0.  0.
   402  4.01  0.  0.
   403  4.02  0.  0.
   404  4.03  0.  0.
   405  4.04  0.  0.
   406  4.05  0.  0.
   407  4.06  0.  0.
   408  4.07  0.  0.
   409  4.08  0.  0.
   410  4.09  0.  0.
   411  4.10  0.  0.
   412  4.11  0.  0.
   413  4.12  0.  0.
   414  4.13  0.  0.
   415  4.14  0.  0.
   416  4.15  0.  0.
   417  4.16  0.  0.
   418  4.17  0.  0.
   419  4.18  0.  0.
   420  4.19  0.  0.
   421  4.20  0.  0.
   422  4.21  0.  0.
   423  4.22  0.  0.
   424  4.23  0.  0.
   425  4.24  0.  0.
   426  4.25  0.  0.
   427  4.26  0.  0.
   428  4.27  0.  0.
   429  4.28  0.  0.
   430  4.29  0.  0.
   431  4.30  0.  0.
   432  4.31  0.  0.
   433  4.32  0.  0.
   434  4.33  0.  0.
   435  4.34  0.  0.
   436  4.35  0.  0.
   437  4.36  0.  0.
   438  4.37  0.  0.
   439  4.38  0.  0.
   440  4.39  0.  0.
   441  4.40  0.  0.
   442  4.41  0.  0.
   443  4.42  0.  0.
   444  4.43  0.  0.
   445  4.44  0.  0.
   446  4.45  0.  0.
   447  4.46  0.  0.
   448  4.47  0.  0.
   449  4.48  0.  0.
   450  4.49  0.  0.
   451  4.50  0.  0.
   452  4.51  0.  0.
   453  4.52  0.  0.
   454  4.53  0.  0.
   455  4.54  0.  0.
   456  4.55  0.  0.
   457  4.56  0.  0.
   458  4.57  0.  0.
   459  4.58  0.  0.
   460  4.59  0.  0.
   461  4.60  0.  0.
   462  4.61  0.  0.
   463  4.62  0.  0.
   464  4.63  0.  0.
   465  4.64  0.  0.
   466  4.65  0.  0.
   467  4.66  0.  0.
   468  4.67  0.  0.
   469  4.68  0.  0.
   470  4.69  0.  0.
   471  4.70  0.  0.
   472  4.71  0.  0.
   473  4.72  0.  0.
   474  4.73  0.  0.
   475  4.74  0.  0.
   476  4.75  0.  0.
   477  4.76  0.  0.
   478  4.77  0.  0.
   479  4.78  0.  0.
   480  4.79  0.  0.
   481  4.80  0.  0.
   482  4.81  0.  0.
   483  4.82  0.  0.
   484  4.83  0.  0.
   485  4.84  0.  0.
   486  4.85  0.  0.
   487  4.86  0.  0.
   488  4.87  0.  0.
   489  4.88  0.  0.
   490  4.89  0.  0.
   491  4.90  0.  0.
   492  4.91  0.  0.
   493  4.92  0.  0.
   494  4.93  0.  0.
   495  4.94  0.  0.
   496  4.95  0.  0.
   497  4.96  0.  0.
   498  4.97  0.  0.
   499  4.98  0.  0.
   500  4.99  0.  0.
   501  5.00  0.  0.
   502  5.01  0.  0.
   503  5.02  0.  0.
   504  5.03  0.  0.
   505  5.04  0.  0.
   506  5.05  0.  0.
   507  5.06  0.  0.
   508  5.07  0.  0.
   509  5.08  0.  0.
   510  5.09  0.  0.
   511  5.10  0.  0.
   512  5.11  0.  0.
   513  5.12  0.  0.
   514  5.13  0.  0.
   515  5.14  0.  0.
   516  5.15  0.  0.
   517  5.16  0.  0.
   518  5.17  0.  0.
   519  5.18  0.  0.
   520  5.19  0.  0.
   521  5.20  0.  0.
   522  5.21  0.  0.
   523  5.22  0.  0.
   524  5.23  0.  0.
   525  5.24  0.  0.
   526  5.25  0.  0.
   527  5.26  0.  0.
   528  5.27  0.  0.
   529  5.28  0.  0.
   530  5.29  0.  0.
   531  5.30  0.  0.
   532  5.31  0.  0.
   533  5.32  0.  0.
   534  5.33  0.  0.
   535  5.34  0.  0.
   536  5.35  0.  0.
   537  5.36  0.  0.
   538  5.37  0.  0.
   539  5.38  0.  0.
   540  5.39  0.  0.
   541  5.40  0.  0.
   542  5.41  0.  0.
   543  5.42  0.  0.
   544  5.43  0.  0.
   545  5.44  0.  0.
   546  5.45  0.  0.
   547  5.46  0.  0.
   548  5.47  0.  0.
   549  5.48  0.  0.
   550  5.49  0.  0.
   551  5.50  0.  0.
   552  5.51  0.  0.
   553  5.52  0.  0.
   554  5.53  0.  0.
   555  5.54  0.  0.
   556  5.55  0.  0.
   557  5.56  0.  0.
   558  5.57  0.  0.
   559  5.58  0.  0.
   560  5.59  0.  0.
   561  5.60  0.  0.
   562  5.61  0.  0.
   563  5.62  0.  0.
   564  5.63  0.  0.
   565  5.64  0.  0.
   566  5.65  0.  0.
   567  5.66  0.  0.
   568  5.67  0.  0.
   569  5.68  0.  0.
   570  5.69  0.  0.
   571  5.70  0.  0.
   572  5.71  0.  0.
   573  5.72  0.  0.
   574  5.73  0.  0.
   575  5.74  0.  0.
   576  5.75  0.  0.
   577  5.76  0.  0.
   578  5.77  0.  0.
   579  5.78  0.  0.
   580  5.79  0.  0.
   581  5.80  0.  0.
   582  5.81  0.  0.
   583  5.82  0.  0.
   584  5.83  0.  0.
   585  5.84  0.  0.
   586  5.85  0.  0.
   587  5.86  0.  0.
   588  5.87  0.  0.
   589  5.88  0.  0.
   590  5.89  0.  0.
   591  5.90  0.  0.
   592  5.91  0.  0.
   593  5.92  0.  0.
   594  5.93  0.  0.
   595  5.94  0.  0.
   596  5.95  0.  0.
   597  5.96  0.  0.
   598  5.97  0.  0.
   599  5.98  0.  0.
   600  5.99  0.  0.
   1                        -1.1001003160008E+00 -2.1550586846160E-01
     1  0.0000000000000E+00 -6.1010946295070E-11  2.8148984358711E-10
     2  1.0000000000000E-02  3.7898140283560E-04  1.0212150947808E-04
     3  2.0000000000000E-02  1.5160006713821E-03  4.0637921811067E-04
     4  3.0000000000000E-02  3.4112788411542E-03  9.0647155326961E-04
     5  4.0000000000000E-02  6.0651705216637E-03  1.5919586991321E-03
     6  5.0000000000000E-02  9.4781433348198E-03  2.4483562808394E-03
     7  6.0000000000000E-02  1.3650749353693E-02  3.4572654784513E-03
     8  7.0000000000000E-02  1.8583588764704E-02  4.5965385377191E-03
     9  8.0000000000000E-02  2.4277266037312E-02  5.8404783632106E-03
    10  9.0000000000000E-02  3.0732338944156E-02  7.1600706097983E-03
    11  1.0000000000000E-01  3.7949260831192E-02  8.5232464309749E-03
    12  1.1000000000000E-01  4.5928316590901E-02  9.8951738004202E-03
    13  1.2000000000000E-01  5.4669552842124E-02  1.1238575097935E-02
    14  1.3000000000000E-01  6.4172702866809E-02  1.2514068444046E-02
    15  1.4000000000000E-01  7.4437106896883E-02  1.3680530081948E-02
    16  1.5000000000000E-01  8.5461628383070E-02  1.4695474940369E-02
    17  1.6000000000000E-01  9.7244566911638E-02  1.5515452370527E-02
    18  1.7000000000000E-01  1.0978356846449E-01  1.6096453932827E-02
    19  1.8000000000000E-01  1.2307553374250E-01  1.6394330017693E-02
    20  1.9000000000000E-01  1.3711652529126E-01  1.6365212018616E-02
    21  2.0000000000000E-01  1.5190167418291E-01  1.5965936735982E-02
    22  2.1000000000000E-01  1.6742508701610E-01  1.5154469677497E-02
    23  2.2000000000000E-01  1.8367975400002E-01  1.3890323933858E-02
    24  2.3000000000000E-01  2.0065745888644E-01  1.2134971348717E-02
    25  2.4000000000000E-01  2.1834869150632E-01  9.8522427675845E-03
    26  2.5000000000000E-01  2.3674256365544E-01  7.0087142411935E-03
    27  2.6000000000000E-01  2.5582672905538E-01  3.5740761747410E-03
    28  2.7000000000000E-01  2.7558730809394E-01 -4.7851744719241E-04
    29  2.8000000000000E-01  2.9600881802126E-01 -5.1721224684211E-03
    30  2.9000000000000E-01  3.1707410924602E-01 -1.0525703129241E-02
    31  3.0000000000000E-01  3.3876430833922E-01 -1.6553858120493E-02
    32  3.1000000000000E-01  3.6105876831284E-01 -2.3266576231855E-02
    33  3.2000000000000E-01  3.8393502669584E-01 -3.0669023468366E-02
    34  3.3000000000000E-01  4.0736877188234E-01 -3.8761363262148E-02
    35  3.4000000000000E-01  4.3133381817560E-01 -4.7538611147760E-02
    36  3.5000000000000E-01  4.5580208989769E-01 -5.6990525001820E-02
    37  3.6000000000000E-01  4.8074361487875E-01 -6.7101531673129E-02
    38  3.7000000000000E-01  5.0612652758126E-01 -7.7850690550128E-02
    39  3.8000000000000E-01  5.3191708205569E-01 -8.9211694331492E-02
    40  3.9000000000000E-01  5.5807967486251E-01 -1.0115290698413E-01
    41  4.0000000000000E-01  5.8457687803465E-01 -1.1363743859432E-01
    42  4.1000000000000E-01  6.1136948209245E-01 -1.2662325654362E-01
    43  4.2000000000000E-01  6.3841654906167E-01 -1.4006333217406E-01