
     Program PWSCF v.6.7GPU starts on 15Jul2021 at 17:42:30 

     This program is part of the open-source Quantum ESPRESSO suite
     for quantum simulation of materials; please cite
         "P. Giannozzi et al., J. Phys.:Condens. Matter 21 395502 (2009);
         "P. Giannozzi et al., J. Phys.:Condens. Matter 29 465901 (2017);
         "P. Giannozzi et al., J. Chem. Phys. 152 154105 (2020);
          URL http://www.quantum-espresso.org", 
     in publications or presentations arising from this work. More details at
     http://www.quantum-espresso.org/quote

     Parallel version (MPI), running on    16 processors

     MPI processes distributed on     1 nodes
     R & G space division:  proc/nbgrp/npool/nimage =      16
     Reading input from /storage/home/hcoda1/3/ntian30/research/carbon/15Jul_vib/ads_slab/CH3N2H_a/out_0002/pw.inp
Warning: card &CELL ignored
Warning: card   CELL_DYNAMICS='IPI', ignored
Warning: card / ignored

     Current dimensions of program PWSCF are:
     Max number of different atomic species (ntypx) = 10
     Max number of k-points (npk) =  40000
     Max angular momentum in pseudopotentials (lmaxx) =  3
     Presently no symmetry can be used with electric field

     Message from routine cell_base_init:
     DEPRECATED: use true lattice parameter, not A to a.u. conversion factor

     **************************************************************************
     Initializing libbeef V0.1.2 with the BEEF-vdW functional.
     Citation: Wellendorff et al., PRB 85, 235149 (2012).
     **************************************************************************


     IMPORTANT: XC functional enforced from input :
     Exchange-correlation= BEEF-VDW
                           (   1   4  43  14   2   0   0)
     Any further DFT definition will be discarded
     Please, verify this is what you really want


     Subspace diagonalization in iterative solution of the eigenvalue problem:
     one sub-group per band group will be used
     scalapack distributed-memory algorithm (size of sub-group:  4*  4 procs)

  @ DRIVER MODE: Connecting to 
 qe_1139763_2351646.sched-torque.pace.gatech.edumyufupty_scratch
  using UNIX socket
  @ DRIVER MODE: Message from server: STATUS
  @ DRIVER MODE: Message from server: INIT
  @ DRIVER MODE: Receiving replica           0          -1
  @ DRIVER MODE: Receiving encoded integer          25
  @ DRIVER MODE:  SCF:  T  FORCE:  T  STRESS:  F  VC:  F  ENSEMBLE:  F
  @ DRIVER MODE:  SCF:  T  FORCE:  T  STRESS:  F  VC:  F  ENSEMBLE:  F
 
     Parallelization info
     --------------------
     sticks:   dense  smooth     PW     G-vecs:    dense   smooth      PW
     Min         204      82     23                35422     8962    1367
     Max         205      84     24                35435     8968    1382
     Sum        3275    1317    379               566857   143421   21985
 
     Using Slab Decomposition
 


     bravais-lattice index     =            0
     lattice parameter (alat)  =       1.8897  a.u.
     unit-cell volume          =    6658.9804 (a.u.)^3
     number of atoms/cell      =           54
     number of atomic types    =            5
     number of electrons       =       396.00
     number of Kohn-Sham states=          208
     kinetic-energy cutoff     =      29.3995  Ry
     charge density cutoff     =     293.9946  Ry
     scf convergence threshold =      7.3E-08
     mixing beta               =       0.0500
     number of iterations used =            8  plain     mixing
     Exchange-correlation= BEEF-VDW
                           (   1   4  43  14   2   0   0)

     celldm(1)=   1.889726  celldm(2)=   0.000000  celldm(3)=   0.000000
     celldm(4)=   0.000000  celldm(5)=   0.000000  celldm(6)=   0.000000

     crystal axes: (cart. coord. in units of alat)
               a(1) = (   6.579727   0.000000   0.000000 )  
               a(2) = (  -0.000775   5.961596   0.000000 )  
               a(3) = (   0.000000   0.000000  25.155947 )  

     reciprocal axes: (cart. coord. in units 2 pi/alat)
               b(1) = (  0.151982  0.000020  0.000000 )  
               b(2) = (  0.000000  0.167740  0.000000 )  
               b(3) = (  0.000000  0.000000  0.039752 )  


     PseudoPot. # 1 for Ti read from file:
     /storage/coda1/p-amedford6/0/shared/rich_project_chbe-medford/medford-share/data/pseudos_module/espresso/nninc/pbe/van/Ti.UPF
     MD5 check sum: 8e4df49b7f0d34bbd5052bf3f5ea0213
     Pseudo is Ultrasoft, Zval = 12.0
     Generated by new atomic code, or converted to UPF format
     Using radial grid of  851 points,  6 beta functions with: 
                l(1) =   0
                l(2) =   0
                l(3) =   1
                l(4) =   1
                l(5) =   2
                l(6) =   2
     Q(r) pseudized with  8 coefficients,  rinner =    1.000   1.000   1.000
                                                       1.000   1.000

     PseudoPot. # 2 for O  read from file:
     /storage/coda1/p-amedford6/0/shared/rich_project_chbe-medford/medford-share/data/pseudos_module/espresso/nninc/pbe/van/O.UPF
     MD5 check sum: 78c19812648e8988a0fe644b0f25305e
     Pseudo is Ultrasoft, Zval =  6.0
     Generated by new atomic code, or converted to UPF format
     Using radial grid of  737 points,  4 beta functions with: 
                l(1) =   0
                l(2) =   0
                l(3) =   1
                l(4) =   1
     Q(r) pseudized with  8 coefficients,  rinner =    0.800   0.800   0.800


     PseudoPot. # 3 for N  read from file:
     /storage/coda1/p-amedford6/0/shared/rich_project_chbe-medford/medford-share/data/pseudos_module/espresso/nninc/pbe/van/N.UPF
     MD5 check sum: 90d10febe142ad51ac9d5be1deb811c4
     Pseudo is Ultrasoft, Zval =  5.0
     Generated by new atomic code, or converted to UPF format
     Using radial grid of  729 points,  4 beta functions with: 
                l(1) =   0
                l(2) =   0
                l(3) =   1
                l(4) =   1
     Q(r) pseudized with  8 coefficients,  rinner =    0.800   0.800   0.800


     PseudoPot. # 4 for C  read from file:
     /storage/coda1/p-amedford6/0/shared/rich_project_chbe-medford/medford-share/data/pseudos_module/espresso/nninc/pbe/van/C.UPF
     MD5 check sum: 1a69bf6b8db32088f5b2163dbdb77a27
     Pseudo is Ultrasoft, Zval =  4.0
     Generated by new atomic code, or converted to UPF format
     Using radial grid of  721 points,  4 beta functions with: 
                l(1) =   0
                l(2) =   0
                l(3) =   1
                l(4) =   1
     Q(r) pseudized with  8 coefficients,  rinner =    0.800   0.800   0.800


     PseudoPot. # 5 for H  read from file:
     /storage/coda1/p-amedford6/0/shared/rich_project_chbe-medford/medford-share/data/pseudos_module/espresso/nninc/pbe/van/H.UPF
     MD5 check sum: b5ee9d7bfd3a09ee7748110bda690ff7
     Pseudo is Ultrasoft, Zval =  1.0
     Generated by new atomic code, or converted to UPF format
     Using radial grid of  615 points,  1 beta functions with: 
                l(1) =   0
     Q(r) pseudized with  8 coefficients,  rinner =    0.800

     atomic species   valence    mass     pseudopotential
        Ti1           12.00    47.86700     Ti( 1.00)
        O1             6.00    15.99900     O ( 1.00)
        N1             5.00    14.00700     N ( 1.00)
        C1             4.00    12.01100     C ( 1.00)
        H1             1.00     1.00800     H ( 1.00)

     Starting magnetic structure 
     atomic species   magnetization
        Ti1          0.000
        O1           0.000
        N1           0.000
        C1           0.025
        H1           0.000

     No symmetry found



   Cartesian axes

     site n.     atom                  positions (alat units)
         1           Ti1 tau(   1) = (   0.0004258   2.9801865   6.0000000  )
         2           Ti1 tau(   2) = (   3.2906075   1.4906267   6.0002472  )
         3           O1  tau(   3) = (   0.0006271   0.0005054   7.9858123  )
         4           O1  tau(   4) = (   3.2906025   0.0005020   7.3038282  )
         5           O1  tau(   5) = (   4.5942328   1.4918067   9.2879030  )
         6           O1  tau(   6) = (   1.9868534   1.4903216   9.2879459  )
         7           Ti1 tau(   7) = (   3.2907910   2.8959150   9.1758416  )
         8           Ti1 tau(   8) = (   0.0015273   1.4827037   9.2680791  )
         9           O1  tau(   9) = (   3.3106937   0.0084137  11.2927479  )
        10           O1  tau(  10) = (   0.0116148   5.9584955  10.6183126  )
        11           O1  tau(  11) = (   1.3255326   1.5151957  12.5859258  )
        12           O1  tau(  12) = (   5.3246634   1.4871208  12.6441624  )
        13           Ti1 tau(  13) = (   6.5358624   2.9940264  12.7507449  )
        14           Ti1 tau(  14) = (   3.1828407   1.5032771  12.4528579  )
        15           O1  tau(  15) = (   0.1336207   0.0073438  14.6266748  )
        16           O1  tau(  16) = (   3.2550344   0.0288700  13.8306396  )
        17           O1  tau(  17) = (   4.6334483   1.5013943  15.9792279  )
        18           O1  tau(  18) = (   2.1409664   1.5470880  15.9954950  )
        19           Ti1 tau(  19) = (   3.4798582   3.0305884  15.6593850  )
        20           Ti1 tau(  20) = (   0.1386493   1.3724552  15.8613965  )
        21           O1  tau(  21) = (   3.2904802   0.0005063   4.7018136  )
        22           O1  tau(  22) = (   0.1429122   0.0333940  17.1908172  )
        23           O1  tau(  23) = (   1.3043587   1.4918075   6.0039043  )
        24           O1  tau(  24) = (   5.2767064   1.4903225   6.0039473  )
        25           Ti1 tau(  25) = (   0.0000382   5.9609847   6.0000000  )
        26           Ti1 tau(  26) = (   3.2902200   4.4714249   6.0002472  )
        27           O1  tau(  27) = (   0.0002396   2.9813036   7.9858123  )
        28           O1  tau(  28) = (   3.2902150   2.9813002   7.3038282  )
        29           O1  tau(  29) = (   4.5938453   4.4726049   9.2879030  )
        30           O1  tau(  30) = (   1.9864658   4.4711199   9.2879459  )
        31           Ti1 tau(  31) = (   3.2891106   5.8743827   9.1763621  )
        32           Ti1 tau(  32) = (   0.0006254   4.4649316   9.2693709  )
        33           O1  tau(  33) = (   3.3137399   2.9960163  11.2943833  )
        34           O1  tau(  34) = (   0.0092240   2.9805883  10.6323155  )
        35           O1  tau(  35) = (   1.3234708   4.4688006  12.5930975  )
        36           O1  tau(  36) = (   5.3222282   4.4932535  12.6449723  )
        37           Ti1 tau(  37) = (   6.5041614   0.0053836  12.5833808  )
        38           Ti1 tau(  38) = (   3.1843229   4.4812189  12.4522442  )
        39           O1  tau(  39) = (   0.0584892   2.9792810  14.6723703  )
        40           O1  tau(  40) = (   3.3232524   2.9928384  13.8523860  )
        41           O1  tau(  41) = (   4.6237859   4.5837569  15.7472905  )
        42           O1  tau(  42) = (   2.1882403   4.4693611  16.1038286  )
        43           Ti1 tau(  43) = (   3.3015484   0.0242660  15.6383815  )
        44           Ti1 tau(  44) = (   0.0181797   4.4930750  16.1931172  )
        45           O1  tau(  45) = (   3.2900926   2.9813045   4.7018136  )
        46           O1  tau(  46) = (   1.3039711   4.4726057   6.0039043  )
        47           O1  tau(  47) = (   5.2763189   4.4711207   6.0039473  )
        48           N1  tau(  48) = (   0.2777213   2.8760844  17.5655548  )
        49           C1  tau(  49) = (   1.2271684   2.7639891  18.6598760  )
        50           H1  tau(  50) = (   1.2930054   3.7106696  19.2072709  )
        51           H1  tau(  51) = (   0.8976878   1.9730418  19.3402421  )
        52           H1  tau(  52) = (   2.2102292   2.4972526  18.2850250  )
        53           N1  tau(  53) = (   5.6732178   3.4927010  17.8452151  )
        54           H1  tau(  54) = (   5.7345573   4.0058295  18.7343860  )

     number of k points=    10  Fermi-Dirac smearing, width (Ry)=  0.0073
                       cart. coord. in units 2pi/alat
        k(    1) = (   0.0000000   0.0000000   0.0000000), wk =   0.0625000
        k(    2) = (   0.0000000   0.0419351   0.0000000), wk =   0.1250000
        k(    3) = (   0.0000000  -0.0838702   0.0000000), wk =   0.0625000
        k(    4) = (   0.0379955   0.0000049   0.0000000), wk =   0.1250000
        k(    5) = (   0.0379955   0.0419400   0.0000000), wk =   0.1250000
        k(    6) = (   0.0379955  -0.0838652   0.0000000), wk =   0.1250000
        k(    7) = (   0.0379955  -0.0419301   0.0000000), wk =   0.1250000
        k(    8) = (  -0.0759910  -0.0000099   0.0000000), wk =   0.0625000
        k(    9) = (  -0.0759910   0.0419252   0.0000000), wk =   0.1250000
        k(   10) = (  -0.0759910  -0.0838800   0.0000000), wk =   0.0625000

     Dense  grid:   566857 G-vectors     FFT dimensions: (  72,  64, 270)

     Smooth grid:   143421 G-vectors     FFT dimensions: (  45,  40, 180)

     Estimated max dynamical RAM per process >     279.76 MB

     Estimated total dynamical RAM >       4.37 GB
     Generating pointlists ...
     new r_m :   0.7455 (alat units)  1.4089 (a.u.) for type    1
     new r_m :   0.7455 (alat units)  1.4089 (a.u.) for type    2
     new r_m :   0.4242 (alat units)  0.8017 (a.u.) for type    3
     new r_m :   0.4477 (alat units)  0.8461 (a.u.) for type    4
     new r_m :   0.4242 (alat units)  0.8017 (a.u.) for type    5
     Cannot read rho : file not found

     Initial potential from superposition of free atoms

     starting charge  379.99915, renormalised to  396.00000

     negative rho (up, down):  8.429E-03 8.434E-03


     %%%%%%%%%%%%%%%%%%%%%%%%%%%%%%%%%%%%%%%%%%%%%%%%%%%%%%%%%%%%%%%%%%%%%%%%
     %                                                                      %
     % You are using vdW-DF, which was implemented by the Thonhauser group. %
     % Please cite the following two papers that made this development      %
     % possible and the two reviews that describe the various versions:     %
     %                                                                      %
     %   T. Thonhauser et al., PRL 115, 136402 (2015).                      %
     %   T. Thonhauser et al., PRB 76, 125112 (2007).                       %
     %   K. Berland et al., Rep. Prog. Phys. 78, 066501 (2015).             %
     %   D.C. Langreth et al., J. Phys.: Condens. Matter 21, 084203 (2009). %
     %                                                                      %
     %                                                                      %
     % If you are calculating the stress with vdW-DF, please also cite:     %
     %                                                                      %
     %   R. Sabatini et al., J. Phys.: Condens. Matter 24, 424209 (2012).   %
     %                                                                      %
     %%%%%%%%%%%%%%%%%%%%%%%%%%%%%%%%%%%%%%%%%%%%%%%%%%%%%%%%%%%%%%%%%%%%%%%%


 
     Adding external electric field

     Computed dipole along edir(3) : 
        Dipole               -8.2222 Ry au,        -20.8988 Debye
        Dipole field         -0.0155 Ry au, 
 
        Potential amp.        1.4384 Ry
        Total length         46.3494 bohr
 
 
     Adding external electric field

     Computed dipole along edir(3) : 
        Dipole               -8.2222 Ry au,        -20.8988 Debye
        Dipole field         -0.0155 Ry au, 
 
        Potential amp.        1.4384 Ry
        Total length         46.3494 bohr
 
     Starting wfcs are  300 atomic wfcs
  @ DRIVER MODE: Message from server: STATUS
  @ DRIVER MODE: Message from server: POSDATA
  @ DRIVER MODE: Reading and sharing cell 
  @ DRIVER MODE: Reading and sharing positions 
  @ DRIVER MODE: Received positions 

     total cpu time spent up to now is       11.9 secs

     Self-consistent Calculation

     iteration #  1     ecut=    29.40 Ry     beta= 0.05
     Davidson diagonalization with overlap
     c_bands:  1 eigenvalues not converged
     c_bands:  1 eigenvalues not converged
     c_bands:  1 eigenvalues not converged
     c_bands:  1 eigenvalues not converged
     c_bands:  2 eigenvalues not converged
     c_bands:  1 eigenvalues not converged
     c_bands:  4 eigenvalues not converged
     c_bands:  2 eigenvalues not converged
     c_bands:  1 eigenvalues not converged
     c_bands:  1 eigenvalues not converged
     c_bands:  1 eigenvalues not converged
     c_bands:  1 eigenvalues not converged
     c_bands:  1 eigenvalues not converged
     c_bands:  1 eigenvalues not converged
     c_bands:  2 eigenvalues not converged
     c_bands:  1 eigenvalues not converged
     c_bands:  4 eigenvalues not converged
     c_bands:  2 eigenvalues not converged
     c_bands:  1 eigenvalues not converged
     c_bands:  1 eigenvalues not converged
     ethr =  1.00E-05,  avg # of iterations = 20.0

     negative rho (up, down):  7.375E-03 7.380E-03
 
     Adding external electric field

     Computed dipole along edir(3) : 
        Dipole               38.7260 Ry au,         98.4317 Debye
        Dipole field          0.0731 Ry au, 
 
        Potential amp.       -6.7745 Ry
        Total length         46.3494 bohr
 
 
     Adding external electric field

     Computed dipole along edir(3) : 
        Dipole               38.7260 Ry au,         98.4317 Debye
        Dipole field          0.0731 Ry au, 
 
        Potential amp.       -6.7745 Ry
        Total length         46.3494 bohr
 

     total cpu time spent up to now is       74.2 secs

     total energy              =   -2607.58486919 Ry
     estimated scf accuracy    <    3675.39880496 Ry

     total magnetization       =     0.00 Bohr mag/cell
     absolute magnetization    =     0.02 Bohr mag/cell

     iteration #  2     ecut=    29.40 Ry     beta= 0.05
     Davidson diagonalization with overlap
     c_bands:  5 eigenvalues not converged
     ethr =  1.00E-02,  avg # of iterations = 22.0

     negative rho (up, down):  2.596E-03 2.596E-03
 
     Adding external electric field

     Computed dipole along edir(3) : 
        Dipole               -2.5195 Ry au,         -6.4038 Debye
        Dipole field         -0.0048 Ry au, 
 
        Potential amp.        0.4407 Ry
        Total length         46.3494 bohr
 
 
     Adding external electric field

     Computed dipole along edir(3) : 
        Dipole               -2.5195 Ry au,         -6.4038 Debye
        Dipole field         -0.0048 Ry au, 
 
        Potential amp.        0.4407 Ry
        Total length         46.3494 bohr
 

     total cpu time spent up to now is      178.3 secs

     total energy              =   -2460.17905743 Ry
     estimated scf accuracy    <   64351.35142874 Ry

     total magnetization       =    -0.12 Bohr mag/cell
     absolute magnetization    =     0.47 Bohr mag/cell

     iteration #  3     ecut=    29.40 Ry     beta= 0.05
     Davidson diagonalization with overlap
     ethr =  1.00E-02,  avg # of iterations = 14.2

     negative rho (up, down):  2.632E-03 2.632E-03
 
     Adding external electric field

     Computed dipole along edir(3) : 
        Dipole               -4.5945 Ry au,        -11.6780 Debye
        Dipole field         -0.0087 Ry au, 
 
        Potential amp.        0.8037 Ry
        Total length         46.3494 bohr
 
 
     Adding external electric field

     Computed dipole along edir(3) : 
        Dipole               -4.5945 Ry au,        -11.6780 Debye
        Dipole field         -0.0087 Ry au, 
 
        Potential amp.        0.8037 Ry
        Total length         46.3494 bohr
 

     total cpu time spent up to now is      244.3 secs

     total energy              =   -2918.40013746 Ry
     estimated scf accuracy    <    3928.18907357 Ry

     total magnetization       =    -0.25 Bohr mag/cell
     absolute magnetization    =     0.63 Bohr mag/cell

     iteration #  4     ecut=    29.40 Ry     beta= 0.05
     Davidson diagonalization with overlap
     c_bands:  4 eigenvalues not converged
     c_bands:  1 eigenvalues not converged
     c_bands:  1 eigenvalues not converged
     c_bands:  5 eigenvalues not converged
     c_bands:  2 eigenvalues not converged
     c_bands:  3 eigenvalues not converged
     c_bands:  2 eigenvalues not converged
     c_bands:  5 eigenvalues not converged
     c_bands:  1 eigenvalues not converged
     ethr =  1.00E-02,  avg # of iterations = 18.1

     negative rho (up, down):  2.647E-03 2.648E-03
 
     Adding external electric field

     Computed dipole along edir(3) : 
        Dipole               -5.3947 Ry au,        -13.7121 Debye
        Dipole field         -0.0102 Ry au, 
 
        Potential amp.        0.9437 Ry
        Total length         46.3494 bohr
 
 
     Adding external electric field

     Computed dipole along edir(3) : 
        Dipole               -5.3947 Ry au,        -13.7121 Debye
        Dipole field         -0.0102 Ry au, 
 
        Potential amp.        0.9437 Ry
        Total length         46.3494 bohr
 

     total cpu time spent up to now is      278.3 secs

     total energy              =   -2937.12639130 Ry
     estimated scf accuracy    <     352.19163935 Ry

     total magnetization       =     0.38 Bohr mag/cell
     absolute magnetization    =     0.85 Bohr mag/cell

     iteration #  5     ecut=    29.40 Ry     beta= 0.05
     Davidson diagonalization with overlap
     c_bands:  1 eigenvalues not converged
     ethr =  1.00E-02,  avg # of iterations =  4.0

     negative rho (up, down):  2.650E-03 2.650E-03
 
     Adding external electric field

     Computed dipole along edir(3) : 
        Dipole               -5.7894 Ry au,        -14.7152 Debye
        Dipole field         -0.0109 Ry au, 
 
        Potential amp.        1.0128 Ry
        Total length         46.3494 bohr
 
 
     Adding external electric field

     Computed dipole along edir(3) : 
        Dipole               -5.7894 Ry au,        -14.7152 Debye
        Dipole field         -0.0109 Ry au, 
 
        Potential amp.        1.0128 Ry
        Total length         46.3494 bohr
 

     total cpu time spent up to now is      294.5 secs

     total energy              =   -2936.63432595 Ry
     estimated scf accuracy    <     229.77824600 Ry

     total magnetization       =    -0.53 Bohr mag/cell
     absolute magnetization    =     0.97 Bohr mag/cell

     iteration #  6     ecut=    29.40 Ry     beta= 0.05
     Davidson diagonalization with overlap
     ethr =  1.00E-02,  avg # of iterations =  3.0

     negative rho (up, down):  2.756E-03 2.757E-03
 
     Adding external electric field

     Computed dipole along edir(3) : 
        Dipole               -7.4392 Ry au,        -18.9087 Debye
        Dipole field         -0.0140 Ry au, 
 
        Potential amp.        1.3014 Ry
        Total length         46.3494 bohr
 
 
     Adding external electric field

     Computed dipole along edir(3) : 
        Dipole               -7.4392 Ry au,        -18.9087 Debye
        Dipole field         -0.0140 Ry au, 
 
        Potential amp.        1.3014 Ry
        Total length         46.3494 bohr
 

     total cpu time spent up to now is      309.2 secs

     total energy              =   -2929.40749999 Ry
     estimated scf accuracy    <     199.75899414 Ry

     total magnetization       =     0.00 Bohr mag/cell
     absolute magnetization    =     0.75 Bohr mag/cell

     iteration #  7     ecut=    29.40 Ry     beta= 0.05
     Davidson diagonalization with overlap
     ethr =  1.00E-02,  avg # of iterations =  8.6

     negative rho (up, down):  2.536E-03 2.520E-03
 
     Adding external electric field

     Computed dipole along edir(3) : 
        Dipole               -7.0725 Ry au,        -17.9764 Debye
        Dipole field         -0.0133 Ry au, 
 
        Potential amp.        1.2372 Ry
        Total length         46.3494 bohr
 
 
     Adding external electric field

     Computed dipole along edir(3) : 
        Dipole               -7.0725 Ry au,        -17.9764 Debye
        Dipole field         -0.0133 Ry au, 
 
        Potential amp.        1.2372 Ry
        Total length         46.3494 bohr
 

     total cpu time spent up to now is      334.2 secs

     total energy              =   -2943.62709787 Ry
     estimated scf accuracy    <     219.43781581 Ry

     total magnetization       =     0.00 Bohr mag/cell
     absolute magnetization    =     0.68 Bohr mag/cell

     iteration #  8     ecut=    29.40 Ry     beta= 0.05
     Davidson diagonalization with overlap
     ethr =  1.00E-02,  avg # of iterations =  1.4

     negative rho (up, down):  2.473E-03 2.446E-03
 
     Adding external electric field

     Computed dipole along edir(3) : 
        Dipole               -7.1768 Ry au,        -18.2415 Debye
        Dipole field         -0.0135 Ry au, 
 
        Potential amp.        1.2555 Ry
        Total length         46.3494 bohr
 
 
     Adding external electric field

     Computed dipole along edir(3) : 
        Dipole               -7.1768 Ry au,        -18.2415 Debye
        Dipole field         -0.0135 Ry au, 
 
        Potential amp.        1.2555 Ry
        Total length         46.3494 bohr
 

     total cpu time spent up to now is      348.1 secs

     total energy              =   -2944.20145262 Ry
     estimated scf accuracy    <     110.64602193 Ry

     total magnetization       =    -0.02 Bohr mag/cell
     absolute magnetization    =     0.53 Bohr mag/cell

     iteration #  9     ecut=    29.40 Ry     beta= 0.05
     Davidson diagonalization with overlap
     ethr =  1.00E-02,  avg # of iterations =  1.1

     negative rho (up, down):  2.583E-03 2.575E-03
 
     Adding external electric field

     Computed dipole along edir(3) : 
        Dipole               -7.1238 Ry au,        -18.1068 Debye
        Dipole field         -0.0134 Ry au, 
 
        Potential amp.        1.2462 Ry
        Total length         46.3494 bohr
 
 
     Adding external electric field

     Computed dipole along edir(3) : 
        Dipole               -7.1238 Ry au,        -18.1068 Debye
        Dipole field         -0.0134 Ry au, 
 
        Potential amp.        1.2462 Ry
        Total length         46.3494 bohr
 

     total cpu time spent up to now is      362.3 secs

     total energy              =   -2944.15905123 Ry
     estimated scf accuracy    <     150.89463637 Ry

     total magnetization       =    -0.19 Bohr mag/cell
     absolute magnetization    =     0.63 Bohr mag/cell

     iteration # 10     ecut=    29.40 Ry     beta= 0.05
     Davidson diagonalization with overlap
     ethr =  1.00E-02,  avg # of iterations =  1.0

     negative rho (up, down):  2.178E-02 2.816E-02
 
     Adding external electric field

     Computed dipole along edir(3) : 
        Dipole               -6.9350 Ry au,        -17.6271 Debye
        Dipole field         -0.0131 Ry au, 
 
        Potential amp.        1.2132 Ry
        Total length         46.3494 bohr
 
 
     Adding external electric field

     Computed dipole along edir(3) : 
        Dipole               -6.9350 Ry au,        -17.6271 Debye
        Dipole field         -0.0131 Ry au, 
 
        Potential amp.        1.2132 Ry
        Total length         46.3494 bohr
 

     total cpu time spent up to now is      377.1 secs

     total energy              =   -2943.27678396 Ry
     estimated scf accuracy    <     144.71502114 Ry

     total magnetization       =    -0.22 Bohr mag/cell
     absolute magnetization    =     0.62 Bohr mag/cell

     iteration # 11     ecut=    29.40 Ry     beta= 0.05
     Davidson diagonalization with overlap
     ethr =  1.00E-02,  avg # of iterations =  1.0

     negative rho (up, down):  5.243E-02 6.666E-02
 
     Adding external electric field

     Computed dipole along edir(3) : 
        Dipole               -6.2806 Ry au,        -15.9636 Debye
        Dipole field         -0.0119 Ry au, 
 
        Potential amp.        1.0987 Ry
        Total length         46.3494 bohr
 
 
     Adding external electric field

     Computed dipole along edir(3) : 
        Dipole               -6.2806 Ry au,        -15.9636 Debye
        Dipole field         -0.0119 Ry au, 
 
        Potential amp.        1.0987 Ry
        Total length         46.3494 bohr
 

     total cpu time spent up to now is      391.8 secs

     total energy              =   -2941.34464785 Ry
     estimated scf accuracy    <     164.64332565 Ry

     total magnetization       =     0.12 Bohr mag/cell
     absolute magnetization    =     0.60 Bohr mag/cell

     iteration # 12     ecut=    29.40 Ry     beta= 0.05
     Davidson diagonalization with overlap
     ethr =  1.00E-02,  avg # of iterations =  2.3

     negative rho (up, down):  8.862E-02 1.107E-01
 
     Adding external electric field

     Computed dipole along edir(3) : 
        Dipole               -5.7219 Ry au,        -14.5436 Debye
        Dipole field         -0.0108 Ry au, 
 
        Potential amp.        1.0010 Ry
        Total length         46.3494 bohr
 
 
     Adding external electric field

     Computed dipole along edir(3) : 
        Dipole               -5.7219 Ry au,        -14.5436 Debye
        Dipole field         -0.0108 Ry au, 
 
        Potential amp.        1.0010 Ry
        Total length         46.3494 bohr
 

     total cpu time spent up to now is      409.0 secs

     total energy              =   -2940.77956243 Ry
     estimated scf accuracy    <      98.44326732 Ry

     total magnetization       =     0.32 Bohr mag/cell
     absolute magnetization    =     0.55 Bohr mag/cell

     iteration # 13     ecut=    29.40 Ry     beta= 0.05
     Davidson diagonalization with overlap
     ethr =  1.00E-02,  avg # of iterations =  1.1

     negative rho (up, down):  1.334E-01 1.650E-01
 
     Adding external electric field

     Computed dipole along edir(3) : 
        Dipole               -4.8415 Ry au,        -12.3059 Debye
        Dipole field         -0.0091 Ry au, 
 
        Potential amp.        0.8470 Ry
        Total length         46.3494 bohr
 
 
     Adding external electric field

     Computed dipole along edir(3) : 
        Dipole               -4.8415 Ry au,        -12.3059 Debye
        Dipole field         -0.0091 Ry au, 
 
        Potential amp.        0.8470 Ry
        Total length         46.3494 bohr
 

     total cpu time spent up to now is      422.8 secs

     total energy              =   -2940.35884073 Ry
     estimated scf accuracy    <      22.92720616 Ry

     total magnetization       =     0.85 Bohr mag/cell
     absolute magnetization    =     0.93 Bohr mag/cell

     iteration # 14     ecut=    29.40 Ry     beta= 0.05
     Davidson diagonalization with overlap
     ethr =  5.79E-03,  avg # of iterations =  2.0

     negative rho (up, down):  1.151E-01 1.422E-01
 
     Adding external electric field

     Computed dipole along edir(3) : 
        Dipole               -4.9548 Ry au,        -12.5938 Debye
        Dipole field         -0.0094 Ry au, 
 
        Potential amp.        0.8668 Ry
        Total length         46.3494 bohr
 
 
     Adding external electric field

     Computed dipole along edir(3) : 
        Dipole               -4.9548 Ry au,        -12.5938 Debye
        Dipole field         -0.0094 Ry au, 
 
        Potential amp.        0.8668 Ry
        Total length         46.3494 bohr
 

     total cpu time spent up to now is      437.5 secs

     total energy              =   -2940.82704075 Ry
     estimated scf accuracy    <      13.43303426 Ry

     total magnetization       =     0.35 Bohr mag/cell
     absolute magnetization    =     0.60 Bohr mag/cell

     iteration # 15     ecut=    29.40 Ry     beta= 0.05
     Davidson diagonalization with overlap
     ethr =  3.39E-03,  avg # of iterations =  1.1

     negative rho (up, down):  8.289E-02 1.022E-01
 
     Adding external electric field

     Computed dipole along edir(3) : 
        Dipole               -4.8170 Ry au,        -12.2435 Debye
        Dipole field         -0.0091 Ry au, 
 
        Potential amp.        0.8427 Ry
        Total length         46.3494 bohr
 
 
     Adding external electric field

     Computed dipole along edir(3) : 
        Dipole               -4.8170 Ry au,        -12.2435 Debye
        Dipole field         -0.0091 Ry au, 
 
        Potential amp.        0.8427 Ry
        Total length         46.3494 bohr
 

     total cpu time spent up to now is      450.8 secs

     total energy              =   -2940.69033008 Ry
     estimated scf accuracy    <      11.00810946 Ry

     total magnetization       =     0.69 Bohr mag/cell
     absolute magnetization    =     0.80 Bohr mag/cell

     iteration # 16     ecut=    29.40 Ry     beta= 0.05
     Davidson diagonalization with overlap
     ethr =  2.78E-03,  avg # of iterations =  1.6

     negative rho (up, down):  7.274E-02 8.898E-02
 
     Adding external electric field

     Computed dipole along edir(3) : 
        Dipole               -4.2475 Ry au,        -10.7961 Debye
        Dipole field         -0.0080 Ry au, 
 
        Potential amp.        0.7430 Ry
        Total length         46.3494 bohr
 
 
     Adding external electric field

     Computed dipole along edir(3) : 
        Dipole               -4.2475 Ry au,        -10.7961 Debye
        Dipole field         -0.0080 Ry au, 
 
        Potential amp.        0.7430 Ry
        Total length         46.3494 bohr
 

     total cpu time spent up to now is      465.8 secs

     total energy              =   -2940.66698078 Ry
     estimated scf accuracy    <       9.54222451 Ry

     total magnetization       =     0.75 Bohr mag/cell
     absolute magnetization    =     0.83 Bohr mag/cell

     iteration # 17     ecut=    29.40 Ry     beta= 0.05
     Davidson diagonalization with overlap
     ethr =  2.41E-03,  avg # of iterations =  2.2

     negative rho (up, down):  7.427E-02 8.953E-02
 
     Adding external electric field

     Computed dipole along edir(3) : 
        Dipole               -3.0043 Ry au,         -7.6363 Debye
        Dipole field         -0.0057 Ry au, 
 
        Potential amp.        0.5256 Ry
        Total length         46.3494 bohr
 
 
     Adding external electric field

     Computed dipole along edir(3) : 
        Dipole               -3.0043 Ry au,         -7.6363 Debye
        Dipole field         -0.0057 Ry au, 
 
        Potential amp.        0.5256 Ry
        Total length         46.3494 bohr
 

     total cpu time spent up to now is      480.3 secs

     total energy              =   -2940.35920271 Ry
     estimated scf accuracy    <       7.56705296 Ry

     total magnetization       =     0.64 Bohr mag/cell
     absolute magnetization    =     0.72 Bohr mag/cell

     iteration # 18     ecut=    29.40 Ry     beta= 0.05
     Davidson diagonalization with overlap
     ethr =  1.91E-03,  avg # of iterations =  5.2

     negative rho (up, down):  6.634E-02 7.858E-02
 
     Adding external electric field

     Computed dipole along edir(3) : 
        Dipole               -1.5129 Ry au,         -3.8455 Debye
        Dipole field         -0.0029 Ry au, 
 
        Potential amp.        0.2647 Ry
        Total length         46.3494 bohr
 
 
     Adding external electric field

     Computed dipole along edir(3) : 
        Dipole               -1.5129 Ry au,         -3.8455 Debye
        Dipole field         -0.0029 Ry au, 
 
        Potential amp.        0.2647 Ry
        Total length         46.3494 bohr
 

     total cpu time spent up to now is      496.6 secs

     total energy              =   -2940.15151625 Ry
     estimated scf accuracy    <       4.93975799 Ry

     total magnetization       =     0.39 Bohr mag/cell
     absolute magnetization    =     0.54 Bohr mag/cell

     iteration # 19     ecut=    29.40 Ry     beta= 0.05
     Davidson diagonalization with overlap
     c_bands:  4 eigenvalues not converged
     c_bands:  4 eigenvalues not converged
     c_bands:  2 eigenvalues not converged
     c_bands:  1 eigenvalues not converged
     c_bands:  3 eigenvalues not converged
     c_bands:  2 eigenvalues not converged
     c_bands:  1 eigenvalues not converged
     c_bands:  2 eigenvalues not converged
     c_bands:  2 eigenvalues not converged
     ethr =  1.25E-03,  avg # of iterations = 17.3

     negative rho (up, down):  6.094E-02 7.211E-02
 
     Adding external electric field

     Computed dipole along edir(3) : 
        Dipole               -1.5816 Ry au,         -4.0199 Debye
        Dipole field         -0.0030 Ry au, 
 
        Potential amp.        0.2767 Ry
        Total length         46.3494 bohr
 
 
     Adding external electric field

     Computed dipole along edir(3) : 
        Dipole               -1.5816 Ry au,         -4.0199 Debye
        Dipole field         -0.0030 Ry au, 
 
        Potential amp.        0.2767 Ry
        Total length         46.3494 bohr
 

     total cpu time spent up to now is      521.6 secs

     total energy              =   -2940.49255874 Ry
     estimated scf accuracy    <       1.38749882 Ry

     total magnetization       =     0.00 Bohr mag/cell
     absolute magnetization    =     0.31 Bohr mag/cell

     iteration # 20     ecut=    29.40 Ry     beta= 0.05
     Davidson diagonalization with overlap
     c_bands:  2 eigenvalues not converged
     c_bands:  1 eigenvalues not converged
     ethr =  3.50E-04,  avg # of iterations = 10.2

     negative rho (up, down):  5.815E-02 6.902E-02
 
     Adding external electric field

     Computed dipole along edir(3) : 
        Dipole               -1.8418 Ry au,         -4.6813 Debye
        Dipole field         -0.0035 Ry au, 
 
        Potential amp.        0.3222 Ry
        Total length         46.3494 bohr
 
 
     Adding external electric field

     Computed dipole along edir(3) : 
        Dipole               -1.8418 Ry au,         -4.6813 Debye
        Dipole field         -0.0035 Ry au, 
 
        Potential amp.        0.3222 Ry
        Total length         46.3494 bohr
 

     total cpu time spent up to now is      541.0 secs

     total energy              =   -2940.43809854 Ry
     estimated scf accuracy    <       1.25533744 Ry

     total magnetization       =     0.00 Bohr mag/cell
     absolute magnetization    =     0.28 Bohr mag/cell

     iteration # 21     ecut=    29.40 Ry     beta= 0.05
     Davidson diagonalization with overlap
     ethr =  3.17E-04,  avg # of iterations =  2.4

     negative rho (up, down):  5.669E-02 6.788E-02
 
     Adding external electric field

     Computed dipole along edir(3) : 
        Dipole               -2.3084 Ry au,         -5.8674 Debye
        Dipole field         -0.0044 Ry au, 
 
        Potential amp.        0.4038 Ry
        Total length         46.3494 bohr
 
 
     Adding external electric field

     Computed dipole along edir(3) : 
        Dipole               -2.3084 Ry au,         -5.8674 Debye
        Dipole field         -0.0044 Ry au, 
 
        Potential amp.        0.4038 Ry
        Total length         46.3494 bohr
 

     total cpu time spent up to now is      556.0 secs

     total energy              =   -2940.28266881 Ry
     estimated scf accuracy    <       0.91359271 Ry

     total magnetization       =     0.00 Bohr mag/cell
     absolute magnetization    =     0.25 Bohr mag/cell

     iteration # 22     ecut=    29.40 Ry     beta= 0.05
     Davidson diagonalization with overlap
     c_bands:  2 eigenvalues not converged
     c_bands:  2 eigenvalues not converged
     c_bands:  4 eigenvalues not converged
     ethr =  2.31E-04,  avg # of iterations = 18.6

     negative rho (up, down):  5.525E-02 6.606E-02
 
     Adding external electric field

     Computed dipole along edir(3) : 
        Dipole               -2.2288 Ry au,         -5.6649 Debye
        Dipole field         -0.0042 Ry au, 
 
        Potential amp.        0.3899 Ry
        Total length         46.3494 bohr
 
 
     Adding external electric field

     Computed dipole along edir(3) : 
        Dipole               -2.2288 Ry au,         -5.6649 Debye
        Dipole field         -0.0042 Ry au, 
 
        Potential amp.        0.3899 Ry
        Total length         46.3494 bohr
 

     total cpu time spent up to now is      586.4 secs

     total energy              =   -2940.59609236 Ry
     estimated scf accuracy    <       7.82735222 Ry

     total magnetization       =     0.27 Bohr mag/cell
     absolute magnetization    =     0.44 Bohr mag/cell

     iteration # 23     ecut=    29.40 Ry     beta= 0.05
     Davidson diagonalization with overlap
     ethr =  2.31E-04,  avg # of iterations =  2.4

     negative rho (up, down):  5.017E-02 5.933E-02
 
     Adding external electric field

     Computed dipole along edir(3) : 
        Dipole               -1.2714 Ry au,         -3.2315 Debye
        Dipole field         -0.0024 Ry au, 
 
        Potential amp.        0.2224 Ry
        Total length         46.3494 bohr
 
 
     Adding external electric field

     Computed dipole along edir(3) : 
        Dipole               -1.2714 Ry au,         -3.2315 Debye
        Dipole field         -0.0024 Ry au, 
 
        Potential amp.        0.2224 Ry
        Total length         46.3494 bohr
 

     total cpu time spent up to now is      600.6 secs

     total energy              =   -2940.19583262 Ry
     estimated scf accuracy    <       6.88384996 Ry

     total magnetization       =     0.27 Bohr mag/cell
     absolute magnetization    =     0.43 Bohr mag/cell

     iteration # 24     ecut=    29.40 Ry     beta= 0.05
     Davidson diagonalization with overlap
     c_bands:  1 eigenvalues not converged
     c_bands:  1 eigenvalues not converged
     c_bands:  1 eigenvalues not converged
     c_bands:  1 eigenvalues not converged
     c_bands:  1 eigenvalues not converged
     c_bands:  2 eigenvalues not converged
     c_bands:  1 eigenvalues not converged
     c_bands:  1 eigenvalues not converged
     ethr =  2.31E-04,  avg # of iterations = 18.9

     negative rho (up, down):  4.128E-02 4.819E-02
 
     Adding external electric field

     Computed dipole along edir(3) : 
        Dipole                0.2499 Ry au,          0.6352 Debye
        Dipole field          0.0005 Ry au, 
 
        Potential amp.       -0.0437 Ry
        Total length         46.3494 bohr
 
 
     Adding external electric field

     Computed dipole along edir(3) : 
        Dipole                0.2499 Ry au,          0.6352 Debye
        Dipole field          0.0005 Ry au, 
 
        Potential amp.       -0.0437 Ry
        Total length         46.3494 bohr
 

     total cpu time spent up to now is      626.6 secs

     total energy              =   -2940.46537790 Ry
     estimated scf accuracy    <       0.68690932 Ry

     total magnetization       =     0.00 Bohr mag/cell
     absolute magnetization    =     0.23 Bohr mag/cell

     iteration # 25     ecut=    29.40 Ry     beta= 0.05
     Davidson diagonalization with overlap
     c_bands:  4 eigenvalues not converged
     c_bands:  2 eigenvalues not converged
     c_bands:  1 eigenvalues not converged
     c_bands:  1 eigenvalues not converged
     c_bands:  3 eigenvalues not converged
     c_bands:  3 eigenvalues not converged
     c_bands:  1 eigenvalues not converged
     c_bands:  1 eigenvalues not converged
     c_bands:  1 eigenvalues not converged
     ethr =  1.73E-04,  avg # of iterations = 19.1

     negative rho (up, down):  3.712E-02 4.366E-02
 
     Adding external electric field

     Computed dipole along edir(3) : 
        Dipole               -0.1666 Ry au,         -0.4234 Debye
        Dipole field         -0.0003 Ry au, 
 
        Potential amp.        0.0291 Ry
        Total length         46.3494 bohr
 
 
     Adding external electric field

     Computed dipole along edir(3) : 
        Dipole               -0.1666 Ry au,         -0.4234 Debye
        Dipole field         -0.0003 Ry au, 
 
        Potential amp.        0.0291 Ry
        Total length         46.3494 bohr
 

     total cpu time spent up to now is      667.0 secs

     total energy              =   -2940.33634324 Ry
     estimated scf accuracy    <       6.46860893 Ry

     total magnetization       =     0.05 Bohr mag/cell
     absolute magnetization    =     0.24 Bohr mag/cell

     iteration # 26     ecut=    29.40 Ry     beta= 0.05
     Davidson diagonalization with overlap
     ethr =  1.73E-04,  avg # of iterations =  6.0

     negative rho (up, down):  3.418E-02 4.048E-02
 
     Adding external electric field

     Computed dipole along edir(3) : 
        Dipole               -0.1484 Ry au,         -0.3772 Debye
        Dipole field         -0.0003 Ry au, 
 
        Potential amp.        0.0260 Ry
        Total length         46.3494 bohr
 
 
     Adding external electric field

     Computed dipole along edir(3) : 
        Dipole               -0.1484 Ry au,         -0.3772 Debye
        Dipole field         -0.0003 Ry au, 
 
        Potential amp.        0.0260 Ry
        Total length         46.3494 bohr
 

     total cpu time spent up to now is      684.6 secs

     total energy              =   -2940.31412032 Ry
     estimated scf accuracy    <       1.14550200 Ry

     total magnetization       =     0.00 Bohr mag/cell
     absolute magnetization    =     0.19 Bohr mag/cell

     iteration # 27     ecut=    29.40 Ry     beta= 0.05
     Davidson diagonalization with overlap
     c_bands:  1 eigenvalues not converged
     ethr =  1.73E-04,  avg # of iterations = 10.9

     negative rho (up, down):  2.545E-02 2.993E-02
 
     Adding external electric field

     Computed dipole along edir(3) : 
        Dipole               -0.1581 Ry au,         -0.4018 Debye
        Dipole field         -0.0003 Ry au, 
 
        Potential amp.        0.0277 Ry
        Total length         46.3494 bohr
 
 
     Adding external electric field

     Computed dipole along edir(3) : 
        Dipole               -0.1581 Ry au,         -0.4018 Debye
        Dipole field         -0.0003 Ry au, 
 
        Potential amp.        0.0277 Ry
        Total length         46.3494 bohr
 

     total cpu time spent up to now is      704.4 secs

     total energy              =   -2940.32872501 Ry
     estimated scf accuracy    <       0.56041134 Ry

     total magnetization       =     0.01 Bohr mag/cell
     absolute magnetization    =     0.21 Bohr mag/cell

     iteration # 28     ecut=    29.40 Ry     beta= 0.05
     Davidson diagonalization with overlap
     c_bands:  2 eigenvalues not converged
     c_bands:  4 eigenvalues not converged
     c_bands:  1 eigenvalues not converged
     c_bands:  5 eigenvalues not converged
     c_bands:  3 eigenvalues not converged
     c_bands:  1 eigenvalues not converged
     c_bands:  1 eigenvalues not converged
     c_bands:  2 eigenvalues not converged
     ethr =  1.42E-04,  avg # of iterations = 12.7

     negative rho (up, down):  2.203E-02 2.564E-02
 
     Adding external electric field

     Computed dipole along edir(3) : 
        Dipole                0.4654 Ry au,          1.1829 Debye
        Dipole field          0.0009 Ry au, 
 
        Potential amp.       -0.0814 Ry
        Total length         46.3494 bohr
 
 
     Adding external electric field

     Computed dipole along edir(3) : 
        Dipole                0.4654 Ry au,          1.1829 Debye
        Dipole field          0.0009 Ry au, 
 
        Potential amp.       -0.0814 Ry
        Total length         46.3494 bohr
 

     total cpu time spent up to now is      726.1 secs

     total energy              =   -2940.35879138 Ry
     estimated scf accuracy    <       0.14484262 Ry

     total magnetization       =     0.07 Bohr mag/cell
     absolute magnetization    =     0.26 Bohr mag/cell

     iteration # 29     ecut=    29.40 Ry     beta= 0.05
     Davidson diagonalization with overlap
     c_bands:  1 eigenvalues not converged
     c_bands:  2 eigenvalues not converged
     c_bands:  3 eigenvalues not converged
     c_bands:  1 eigenvalues not converged
     c_bands:  1 eigenvalues not converged
     c_bands:  2 eigenvalues not converged
     c_bands:  1 eigenvalues not converged
     c_bands:  1 eigenvalues not converged
     ethr =  3.66E-05,  avg # of iterations = 16.1

     negative rho (up, down):  1.980E-02 2.301E-02
 
     Adding external electric field

     Computed dipole along edir(3) : 
        Dipole                0.4681 Ry au,          1.1897 Debye
        Dipole field          0.0009 Ry au, 
 
        Potential amp.       -0.0819 Ry
        Total length         46.3494 bohr
 
 
     Adding external electric field

     Computed dipole along edir(3) : 
        Dipole                0.4681 Ry au,          1.1897 Debye
        Dipole field          0.0009 Ry au, 
 
        Potential amp.       -0.0819 Ry
        Total length         46.3494 bohr
 

     total cpu time spent up to now is      751.8 secs

     total energy              =   -2940.37893607 Ry
     estimated scf accuracy    <       0.67198392 Ry

     total magnetization       =     0.00 Bohr mag/cell
     absolute magnetization    =     0.18 Bohr mag/cell

     iteration # 30     ecut=    29.40 Ry     beta= 0.05
     Davidson diagonalization with overlap
     ethr =  3.66E-05,  avg # of iterations =  1.9

     negative rho (up, down):  1.562E-02 1.796E-02
 
     Adding external electric field

     Computed dipole along edir(3) : 
        Dipole                0.2806 Ry au,          0.7133 Debye
        Dipole field          0.0005 Ry au, 
 
        Potential amp.       -0.0491 Ry
        Total length         46.3494 bohr
 
 
     Adding external electric field

     Computed dipole along edir(3) : 
        Dipole                0.2806 Ry au,          0.7133 Debye
        Dipole field          0.0005 Ry au, 
 
        Potential amp.       -0.0491 Ry
        Total length         46.3494 bohr
 

     total cpu time spent up to now is      767.4 secs

     total energy              =   -2940.33149475 Ry
     estimated scf accuracy    <       0.59040968 Ry

     total magnetization       =     0.00 Bohr mag/cell
     absolute magnetization    =     0.18 Bohr mag/cell

     iteration # 31     ecut=    29.40 Ry     beta= 0.05
     Davidson diagonalization with overlap
     c_bands:  1 eigenvalues not converged
     c_bands:  1 eigenvalues not converged
     c_bands:  3 eigenvalues not converged
     c_bands:  2 eigenvalues not converged
     c_bands:  4 eigenvalues not converged
     c_bands:  4 eigenvalues not converged
     c_bands:  4 eigenvalues not converged
     c_bands:  1 eigenvalues not converged
     c_bands:  2 eigenvalues not converged
     c_bands:  1 eigenvalues not converged
     c_bands:  2 eigenvalues not converged
     c_bands:  3 eigenvalues not converged
     c_bands:  4 eigenvalues not converged
     c_bands:  3 eigenvalues not converged
     c_bands:  5 eigenvalues not converged
     c_bands:  2 eigenvalues not converged
     c_bands:  3 eigenvalues not converged
     ethr =  3.66E-05,  avg # of iterations = 19.8

     negative rho (up, down):  1.552E-02 1.783E-02
 
     Adding external electric field

     Computed dipole along edir(3) : 
        Dipole                0.3287 Ry au,          0.8354 Debye
        Dipole field          0.0006 Ry au, 
 
        Potential amp.       -0.0575 Ry
        Total length         46.3494 bohr
 
 
     Adding external electric field

     Computed dipole along edir(3) : 
        Dipole                0.3287 Ry au,          0.8354 Debye
        Dipole field          0.0006 Ry au, 
 
        Potential amp.       -0.0575 Ry
        Total length         46.3494 bohr
 

     total cpu time spent up to now is      801.8 secs

     total energy              =   -2940.35641288 Ry
     estimated scf accuracy    <       0.19175756 Ry

     total magnetization       =     0.11 Bohr mag/cell
     absolute magnetization    =     0.25 Bohr mag/cell

     iteration # 32     ecut=    29.40 Ry     beta= 0.05
     Davidson diagonalization with overlap
     ethr =  3.66E-05,  avg # of iterations =  5.3

     negative rho (up, down):  1.513E-02 1.730E-02
 
     Adding external electric field

     Computed dipole along edir(3) : 
        Dipole                0.4502 Ry au,          1.1442 Debye
        Dipole field          0.0008 Ry au, 
 
        Potential amp.       -0.0788 Ry
        Total length         46.3494 bohr
 
 
     Adding external electric field

     Computed dipole along edir(3) : 
        Dipole                0.4502 Ry au,          1.1442 Debye
        Dipole field          0.0008 Ry au, 
 
        Potential amp.       -0.0788 Ry
        Total length         46.3494 bohr
 

     total cpu time spent up to now is      819.3 secs

     total energy              =   -2940.35774256 Ry
     estimated scf accuracy    <       0.07664656 Ry

     total magnetization       =     0.09 Bohr mag/cell
     absolute magnetization    =     0.22 Bohr mag/cell

     iteration # 33     ecut=    29.40 Ry     beta= 0.05
     Davidson diagonalization with overlap
     c_bands:  2 eigenvalues not converged
     ethr =  1.94E-05,  avg # of iterations =  3.7

     negative rho (up, down):  1.423E-02 1.618E-02
 
     Adding external electric field

     Computed dipole along edir(3) : 
        Dipole                0.6258 Ry au,          1.5907 Debye
        Dipole field          0.0012 Ry au, 
 
        Potential amp.       -0.1095 Ry
        Total length         46.3494 bohr
 
 
     Adding external electric field

     Computed dipole along edir(3) : 
        Dipole                0.6258 Ry au,          1.5907 Debye
        Dipole field          0.0012 Ry au, 
 
        Potential amp.       -0.1095 Ry
        Total length         46.3494 bohr
 

     total cpu time spent up to now is      834.8 secs

     total energy              =   -2940.36803243 Ry
     estimated scf accuracy    <       0.15687942 Ry

     total magnetization       =     0.04 Bohr mag/cell
     absolute magnetization    =     0.17 Bohr mag/cell

     iteration # 34     ecut=    29.40 Ry     beta= 0.05
     Davidson diagonalization with overlap
     c_bands:  1 eigenvalues not converged
     c_bands:  4 eigenvalues not converged
     c_bands:  4 eigenvalues not converged
     c_bands:  2 eigenvalues not converged
     c_bands:  2 eigenvalues not converged
     c_bands:  1 eigenvalues not converged
     c_bands:  4 eigenvalues not converged
     c_bands:  4 eigenvalues not converged
     c_bands:  4 eigenvalues not converged
     c_bands:  1 eigenvalues not converged
     c_bands:  3 eigenvalues not converged
     ethr =  1.94E-05,  avg # of iterations = 17.6

     negative rho (up, down):  1.546E-02 1.771E-02
 
     Adding external electric field

     Computed dipole along edir(3) : 
        Dipole                0.6794 Ry au,          1.7268 Debye
        Dipole field          0.0013 Ry au, 
 
        Potential amp.       -0.1188 Ry
        Total length         46.3494 bohr
 
 
     Adding external electric field

     Computed dipole along edir(3) : 
        Dipole                0.6794 Ry au,          1.7268 Debye
        Dipole field          0.0013 Ry au, 
 
        Potential amp.       -0.1188 Ry
        Total length         46.3494 bohr
 

     total cpu time spent up to now is      861.5 secs

     total energy              =   -2940.37975404 Ry
     estimated scf accuracy    <       0.43206720 Ry

     total magnetization       =     0.00 Bohr mag/cell
     absolute magnetization    =     0.15 Bohr mag/cell

     iteration # 35     ecut=    29.40 Ry     beta= 0.05
     Davidson diagonalization with overlap
     c_bands:  1 eigenvalues not converged
     c_bands:  2 eigenvalues not converged
     ethr =  1.94E-05,  avg # of iterations =  5.0

     negative rho (up, down):  1.553E-02 1.781E-02
 
     Adding external electric field

     Computed dipole along edir(3) : 
        Dipole                0.6006 Ry au,          1.5265 Debye
        Dipole field          0.0011 Ry au, 
 
        Potential amp.       -0.1051 Ry
        Total length         46.3494 bohr
 
 
     Adding external electric field

     Computed dipole along edir(3) : 
        Dipole                0.6006 Ry au,          1.5265 Debye
        Dipole field          0.0011 Ry au, 
 
        Potential amp.       -0.1051 Ry
        Total length         46.3494 bohr
 

     total cpu time spent up to now is      888.7 secs

     total energy              =   -2940.37710999 Ry
     estimated scf accuracy    <       0.50147456 Ry

     total magnetization       =     0.00 Bohr mag/cell
     absolute magnetization    =     0.15 Bohr mag/cell

     iteration # 36     ecut=    29.40 Ry     beta= 0.05
     Davidson diagonalization with overlap
     ethr =  1.94E-05,  avg # of iterations =  1.1

     negative rho (up, down):  1.417E-02 1.603E-02
 
     Adding external electric field

     Computed dipole along edir(3) : 
        Dipole                1.0061 Ry au,          2.5574 Debye
        Dipole field          0.0019 Ry au, 
 
        Potential amp.       -0.1760 Ry
        Total length         46.3494 bohr
 
 
     Adding external electric field

     Computed dipole along edir(3) : 
        Dipole                1.0061 Ry au,          2.5574 Debye
        Dipole field          0.0019 Ry au, 
 
        Potential amp.       -0.1760 Ry
        Total length         46.3494 bohr
 

     total cpu time spent up to now is      934.9 secs

     total energy              =   -2940.40139626 Ry
     estimated scf accuracy    <       0.47382333 Ry

     total magnetization       =     0.00 Bohr mag/cell
     absolute magnetization    =     0.15 Bohr mag/cell

     iteration # 37     ecut=    29.40 Ry     beta= 0.05
     Davidson diagonalization with overlap
     c_bands:  1 eigenvalues not converged
     c_bands:  1 eigenvalues not converged
     c_bands:  3 eigenvalues not converged
     c_bands:  2 eigenvalues not converged
     c_bands:  3 eigenvalues not converged
     c_bands:  4 eigenvalues not converged
     c_bands:  2 eigenvalues not converged
     c_bands:  2 eigenvalues not converged
     c_bands:  2 eigenvalues not converged
     c_bands:  5 eigenvalues not converged
     c_bands:  5 eigenvalues not converged
     c_bands:  1 eigenvalues not converged
     c_bands:  3 eigenvalues not converged
     c_bands:  2 eigenvalues not converged
     c_bands:  3 eigenvalues not converged
     c_bands:  4 eigenvalues not converged
     c_bands:  2 eigenvalues not converged
     c_bands:  2 eigenvalues not converged
     c_bands:  3 eigenvalues not converged
     c_bands:  4 eigenvalues not converged
     ethr =  1.94E-05,  avg # of iterations = 20.0

     negative rho (up, down):  1.187E-02 1.305E-02
 
     Adding external electric field

     Computed dipole along edir(3) : 
        Dipole                0.9660 Ry au,          2.4552 Debye
        Dipole field          0.0018 Ry au, 
 
        Potential amp.       -0.1690 Ry
        Total length         46.3494 bohr
 
 
     Adding external electric field

     Computed dipole along edir(3) : 
        Dipole                0.9660 Ry au,          2.4552 Debye
        Dipole field          0.0018 Ry au, 
 
        Potential amp.       -0.1690 Ry
        Total length         46.3494 bohr
 

     total cpu time spent up to now is     1013.0 secs

     total energy              =   -2940.38933115 Ry
     estimated scf accuracy    <       0.71384251 Ry

     total magnetization       =     0.00 Bohr mag/cell
     absolute magnetization    =     0.15 Bohr mag/cell

     iteration # 38     ecut=    29.40 Ry     beta= 0.05
     Davidson diagonalization with overlap
     c_bands:  1 eigenvalues not converged
     c_bands:  1 eigenvalues not converged
     c_bands:  1 eigenvalues not converged
     ethr =  1.94E-05,  avg # of iterations = 12.9

     negative rho (up, down):  1.191E-02 1.309E-02
 
     Adding external electric field

     Computed dipole along edir(3) : 
        Dipole                0.9913 Ry au,          2.5195 Debye
        Dipole field          0.0019 Ry au, 
 
        Potential amp.       -0.1734 Ry
        Total length         46.3494 bohr
 
 
     Adding external electric field

     Computed dipole along edir(3) : 
        Dipole                0.9913 Ry au,          2.5195 Debye
        Dipole field          0.0019 Ry au, 
 
        Potential amp.       -0.1734 Ry
        Total length         46.3494 bohr
 

     total cpu time spent up to now is     1035.5 secs

     total energy              =   -2940.39868892 Ry
     estimated scf accuracy    <       0.65891090 Ry

     total magnetization       =     0.00 Bohr mag/cell
     absolute magnetization    =     0.14 Bohr mag/cell

     iteration # 39     ecut=    29.40 Ry     beta= 0.05
     Davidson diagonalization with overlap
     ethr =  1.94E-05,  avg # of iterations =  1.6

     negative rho (up, down):  1.152E-02 1.252E-02
 
     Adding external electric field

     Computed dipole along edir(3) : 
        Dipole                1.3045 Ry au,          3.3157 Debye
        Dipole field          0.0025 Ry au, 
 
        Potential amp.       -0.2282 Ry
        Total length         46.3494 bohr
 
 
     Adding external electric field

     Computed dipole along edir(3) : 
        Dipole                1.3045 Ry au,          3.3157 Debye
        Dipole field          0.0025 Ry au, 
 
        Potential amp.       -0.2282 Ry
        Total length         46.3494 bohr
 

     total cpu time spent up to now is     1050.1 secs

     total energy              =   -2940.41535866 Ry
     estimated scf accuracy    <       0.66906078 Ry

     total magnetization       =     0.00 Bohr mag/cell
     absolute magnetization    =     0.14 Bohr mag/cell

     iteration # 40     ecut=    29.40 Ry     beta= 0.05
     Davidson diagonalization with overlap
     c_bands:  1 eigenvalues not converged
     c_bands:  1 eigenvalues not converged
     c_bands:  2 eigenvalues not converged
     c_bands:  1 eigenvalues not converged
     c_bands:  2 eigenvalues not converged
     c_bands:  1 eigenvalues not converged
     c_bands:  1 eigenvalues not converged
     ethr =  1.94E-05,  avg # of iterations = 14.3

     negative rho (up, down):  1.125E-02 1.229E-02
 
     Adding external electric field

     Computed dipole along edir(3) : 
        Dipole                1.2357 Ry au,          3.1409 Debye
        Dipole field          0.0023 Ry au, 
 
        Potential amp.       -0.2162 Ry
        Total length         46.3494 bohr
 
 
     Adding external electric field

     Computed dipole along edir(3) : 
        Dipole                1.2357 Ry au,          3.1409 Debye
        Dipole field          0.0023 Ry au, 
 
        Potential amp.       -0.2162 Ry
        Total length         46.3494 bohr
 

     total cpu time spent up to now is     1073.2 secs

     total energy              =   -2940.40945722 Ry
     estimated scf accuracy    <       0.80384461 Ry

     total magnetization       =    -0.00 Bohr mag/cell
     absolute magnetization    =     0.14 Bohr mag/cell

     iteration # 41     ecut=    29.40 Ry     beta= 0.05
     Davidson diagonalization with overlap
     c_bands:  1 eigenvalues not converged
     c_bands:  3 eigenvalues not converged
     ethr =  1.94E-05,  avg # of iterations =  7.2

     negative rho (up, down):  1.352E-02 1.539E-02
 
     Adding external electric field

     Computed dipole along edir(3) : 
        Dipole                0.3667 Ry au,          0.9321 Debye
        Dipole field          0.0007 Ry au, 
 
        Potential amp.       -0.0642 Ry
        Total length         46.3494 bohr
 
 
     Adding external electric field

     Computed dipole along edir(3) : 
        Dipole                0.3667 Ry au,          0.9321 Debye
        Dipole field          0.0007 Ry au, 
 
        Potential amp.       -0.0642 Ry
        Total length         46.3494 bohr
 

     total cpu time spent up to now is     1094.3 secs

     total energy              =   -2940.32478827 Ry
     estimated scf accuracy    <       0.79956338 Ry

     total magnetization       =    -0.00 Bohr mag/cell
     absolute magnetization    =     0.14 Bohr mag/cell

     iteration # 42     ecut=    29.40 Ry     beta= 0.05
     Davidson diagonalization with overlap
     c_bands:  1 eigenvalues not converged
     c_bands:  2 eigenvalues not converged
     c_bands:  2 eigenvalues not converged
     c_bands:  1 eigenvalues not converged
     c_bands:  5 eigenvalues not converged
     c_bands:  3 eigenvalues not converged
     c_bands:  2 eigenvalues not converged
     c_bands:  3 eigenvalues not converged
     c_bands:  3 eigenvalues not converged
     c_bands:  5 eigenvalues not converged
     c_bands:  2 eigenvalues not converged
     c_bands:  4 eigenvalues not converged
     ethr =  1.94E-05,  avg # of iterations = 21.8

     negative rho (up, down):  1.047E-02 1.110E-02
 
     Adding external electric field

     Computed dipole along edir(3) : 
        Dipole                1.1567 Ry au,          2.9402 Debye
        Dipole field          0.0022 Ry au, 
 
        Potential amp.       -0.2024 Ry
        Total length         46.3494 bohr
 
 
     Adding external electric field

     Computed dipole along edir(3) : 
        Dipole                1.1567 Ry au,          2.9402 Debye
        Dipole field          0.0022 Ry au, 
 
        Potential amp.       -0.2024 Ry
        Total length         46.3494 bohr
 

     total cpu time spent up to now is     1134.1 secs

     total energy              =   -2940.32607460 Ry
     estimated scf accuracy    <       0.15832953 Ry

     total magnetization       =     0.12 Bohr mag/cell
     absolute magnetization    =     0.24 Bohr mag/cell

     iteration # 43     ecut=    29.40 Ry     beta= 0.05
     Davidson diagonalization with overlap
     c_bands:  1 eigenvalues not converged
     c_bands:  3 eigenvalues not converged
     c_bands:  3 eigenvalues not converged
     c_bands:  3 eigenvalues not converged
     c_bands:  4 eigenvalues not converged
     c_bands:  3 eigenvalues not converged
     c_bands:  4 eigenvalues not converged
     c_bands:  4 eigenvalues not converged
     c_bands:  1 eigenvalues not converged
     c_bands:  4 eigenvalues not converged
     c_bands:  3 eigenvalues not converged
     c_bands:  2 eigenvalues not converged
     c_bands:  4 eigenvalues not converged
     c_bands:  3 eigenvalues not converged
     c_bands:  3 eigenvalues not converged
     c_bands:  4 eigenvalues not converged
     ethr =  1.94E-05,  avg # of iterations = 20.9

     negative rho (up, down):  1.014E-02 1.061E-02
 
     Adding external electric field

     Computed dipole along edir(3) : 
        Dipole                0.9802 Ry au,          2.4915 Debye
        Dipole field          0.0018 Ry au, 
 
        Potential amp.       -0.1715 Ry
        Total length         46.3494 bohr
 
 
     Adding external electric field

     Computed dipole along edir(3) : 
        Dipole                0.9802 Ry au,          2.4915 Debye
        Dipole field          0.0018 Ry au, 
 
        Potential amp.       -0.1715 Ry
        Total length         46.3494 bohr
 

     total cpu time spent up to now is     1169.5 secs

     total energy              =   -2940.37832225 Ry
     estimated scf accuracy    <       0.63617248 Ry

     total magnetization       =     0.00 Bohr mag/cell
     absolute magnetization    =     0.13 Bohr mag/cell

     iteration # 44     ecut=    29.40 Ry     beta= 0.05
     Davidson diagonalization with overlap
     c_bands:  1 eigenvalues not converged
     c_bands:  2 eigenvalues not converged
     c_bands:  1 eigenvalues not converged
     c_bands:  1 eigenvalues not converged
     ethr =  1.94E-05,  avg # of iterations =  9.3

     negative rho (up, down):  1.018E-02 1.093E-02
 
     Adding external electric field

     Computed dipole along edir(3) : 
        Dipole                0.5890 Ry au,          1.4972 Debye
        Dipole field          0.0011 Ry au, 
 
        Potential amp.       -0.1030 Ry
        Total length         46.3494 bohr
 
 
     Adding external electric field

     Computed dipole along edir(3) : 
        Dipole                0.5890 Ry au,          1.4972 Debye
        Dipole field          0.0011 Ry au, 
 
        Potential amp.       -0.1030 Ry
        Total length         46.3494 bohr
 

     total cpu time spent up to now is     1188.3 secs

     total energy              =   -2940.34681682 Ry
     estimated scf accuracy    <       0.55098329 Ry

     total magnetization       =     0.00 Bohr mag/cell
     absolute magnetization    =     0.12 Bohr mag/cell

     iteration # 45     ecut=    29.40 Ry     beta= 0.05
     Davidson diagonalization with overlap
     c_bands:  1 eigenvalues not converged
     c_bands:  5 eigenvalues not converged
     c_bands:  2 eigenvalues not converged
     c_bands:  5 eigenvalues not converged
     c_bands:  4 eigenvalues not converged
     c_bands:  5 eigenvalues not converged
     c_bands:  2 eigenvalues not converged
     c_bands:  2 eigenvalues not converged
     c_bands:  3 eigenvalues not converged
     c_bands:  2 eigenvalues not converged
     c_bands:  3 eigenvalues not converged
     c_bands:  5 eigenvalues not converged
     c_bands:  5 eigenvalues not converged
     c_bands:  4 eigenvalues not converged
     c_bands:  5 eigenvalues not converged
     c_bands:  3 eigenvalues not converged
     c_bands:  3 eigenvalues not converged
     c_bands:  5 eigenvalues not converged
     ethr =  1.94E-05,  avg # of iterations = 20.9

     negative rho (up, down):  1.046E-02 1.137E-02
 
     Adding external electric field

     Computed dipole along edir(3) : 
        Dipole                0.4058 Ry au,          1.0313 Debye
        Dipole field          0.0008 Ry au, 
 
        Potential amp.       -0.0710 Ry
        Total length         46.3494 bohr
 
 
     Adding external electric field

     Computed dipole along edir(3) : 
        Dipole                0.4058 Ry au,          1.0313 Debye
        Dipole field          0.0008 Ry au, 
 
        Potential amp.       -0.0710 Ry
        Total length         46.3494 bohr
 

     total cpu time spent up to now is     1219.7 secs

     total energy              =   -2940.34702819 Ry
     estimated scf accuracy    <       0.10177618 Ry

     total magnetization       =     0.05 Bohr mag/cell
     absolute magnetization    =     0.15 Bohr mag/cell

     iteration # 46     ecut=    29.40 Ry     beta= 0.05
     Davidson diagonalization with overlap
     c_bands:  2 eigenvalues not converged
     c_bands:  1 eigenvalues not converged
     c_bands:  1 eigenvalues not converged
     c_bands:  2 eigenvalues not converged
     c_bands:  1 eigenvalues not converged
     c_bands:  4 eigenvalues not converged
     c_bands:  1 eigenvalues not converged
     ethr =  1.94E-05,  avg # of iterations = 13.0

     negative rho (up, down):  9.901E-03 1.036E-02
 
     Adding external electric field

     Computed dipole along edir(3) : 
        Dipole                1.0087 Ry au,          2.5638 Debye
        Dipole field          0.0019 Ry au, 
 
        Potential amp.       -0.1765 Ry
        Total length         46.3494 bohr
 
 
     Adding external electric field

     Computed dipole along edir(3) : 
        Dipole                1.0087 Ry au,          2.5638 Debye
        Dipole field          0.0019 Ry au, 
 
        Potential amp.       -0.1765 Ry
        Total length         46.3494 bohr
 

     total cpu time spent up to now is     1244.4 secs

     total energy              =   -2940.31545830 Ry
     estimated scf accuracy    <       0.44180423 Ry

     total magnetization       =     0.13 Bohr mag/cell
     absolute magnetization    =     0.23 Bohr mag/cell

     iteration # 47     ecut=    29.40 Ry     beta= 0.05
     Davidson diagonalization with overlap
     c_bands:  2 eigenvalues not converged
     c_bands:  4 eigenvalues not converged
     c_bands:  4 eigenvalues not converged
     c_bands:  2 eigenvalues not converged
     c_bands:  3 eigenvalues not converged
     c_bands:  1 eigenvalues not converged
     c_bands:  1 eigenvalues not converged
     c_bands:  4 eigenvalues not converged
     c_bands:  1 eigenvalues not converged
     c_bands:  4 eigenvalues not converged
     c_bands:  5 eigenvalues not converged
     c_bands:  4 eigenvalues not converged
     c_bands:  2 eigenvalues not converged
     c_bands:  2 eigenvalues not converged
     c_bands:  1 eigenvalues not converged
     c_bands:  1 eigenvalues not converged
     c_bands:  5 eigenvalues not converged
     ethr =  1.94E-05,  avg # of iterations = 19.4

     negative rho (up, down):  1.002E-02 1.024E-02
 
     Adding external electric field

     Computed dipole along edir(3) : 
        Dipole                1.1294 Ry au,          2.8708 Debye
        Dipole field          0.0021 Ry au, 
 
        Potential amp.       -0.1976 Ry
        Total length         46.3494 bohr
 
 
     Adding external electric field

     Computed dipole along edir(3) : 
        Dipole                1.1294 Ry au,          2.8708 Debye
        Dipole field          0.0021 Ry au, 
 
        Potential amp.       -0.1976 Ry
        Total length         46.3494 bohr
 

     total cpu time spent up to now is     1273.9 secs

     total energy              =   -2940.38219369 Ry
     estimated scf accuracy    <       0.49889584 Ry

     total magnetization       =     0.00 Bohr mag/cell
     absolute magnetization    =     0.11 Bohr mag/cell

     iteration # 48     ecut=    29.40 Ry     beta= 0.05
     Davidson diagonalization with overlap
     c_bands:  1 eigenvalues not converged
     ethr =  1.94E-05,  avg # of iterations =  5.0

     negative rho (up, down):  1.038E-02 1.055E-02
 
     Adding external electric field

     Computed dipole along edir(3) : 
        Dipole                1.1782 Ry au,          2.9946 Debye
        Dipole field          0.0022 Ry au, 
 
        Potential amp.       -0.2061 Ry
        Total length         46.3494 bohr
 
 
     Adding external electric field

     Computed dipole along edir(3) : 
        Dipole                1.1782 Ry au,          2.9946 Debye
        Dipole field          0.0022 Ry au, 
 
        Potential amp.       -0.2061 Ry
        Total length         46.3494 bohr
 

     total cpu time spent up to now is     1289.7 secs

     total energy              =   -2940.38099753 Ry
     estimated scf accuracy    <       0.53004480 Ry

     total magnetization       =     0.00 Bohr mag/cell
     absolute magnetization    =     0.11 Bohr mag/cell

     iteration # 49     ecut=    29.40 Ry     beta= 0.05
     Davidson diagonalization with overlap
     ethr =  1.94E-05,  avg # of iterations =  2.0

     negative rho (up, down):  1.019E-02 1.046E-02
 
     Adding external electric field

     Computed dipole along edir(3) : 
        Dipole                0.9278 Ry au,          2.3583 Debye
        Dipole field          0.0018 Ry au, 
 
        Potential amp.       -0.1623 Ry
        Total length         46.3494 bohr
 
 
     Adding external electric field

     Computed dipole along edir(3) : 
        Dipole                0.9278 Ry au,          2.3583 Debye
        Dipole field          0.0018 Ry au, 
 
        Potential amp.       -0.1623 Ry
        Total length         46.3494 bohr
 

     total cpu time spent up to now is     1304.6 secs

     total energy              =   -2940.36110937 Ry
     estimated scf accuracy    <       0.53723563 Ry

     total magnetization       =     0.00 Bohr mag/cell
     absolute magnetization    =     0.11 Bohr mag/cell

     iteration # 50     ecut=    29.40 Ry     beta= 0.05
     Davidson diagonalization with overlap
     c_bands:  1 eigenvalues not converged
     c_bands:  1 eigenvalues not converged
     ethr =  1.94E-05,  avg # of iterations =  6.2

     negative rho (up, down):  9.971E-03 1.024E-02
 
     Adding external electric field

     Computed dipole along edir(3) : 
        Dipole                0.8560 Ry au,          2.1758 Debye
        Dipole field          0.0016 Ry au, 
 
        Potential amp.       -0.1497 Ry
        Total length         46.3494 bohr
 
 
     Adding external electric field

     Computed dipole along edir(3) : 
        Dipole                0.8560 Ry au,          2.1758 Debye
        Dipole field          0.0016 Ry au, 
 
        Potential amp.       -0.1497 Ry
        Total length         46.3494 bohr
 

     total cpu time spent up to now is     1321.3 secs

     total energy              =   -2940.35876602 Ry
     estimated scf accuracy    <       0.37762940 Ry

     total magnetization       =     0.01 Bohr mag/cell
     absolute magnetization    =     0.11 Bohr mag/cell

     iteration # 51     ecut=    29.40 Ry     beta= 0.05
     Davidson diagonalization with overlap
     c_bands:  3 eigenvalues not converged
     c_bands:  2 eigenvalues not converged
     ethr =  1.94E-05,  avg # of iterations =  7.7

     negative rho (up, down):  9.853E-03 1.016E-02
 
     Adding external electric field

     Computed dipole along edir(3) : 
        Dipole                0.8471 Ry au,          2.1532 Debye
        Dipole field          0.0016 Ry au, 
 
        Potential amp.       -0.1482 Ry
        Total length         46.3494 bohr
 
 
     Adding external electric field

     Computed dipole along edir(3) : 
        Dipole                0.8471 Ry au,          2.1532 Debye
        Dipole field          0.0016 Ry au, 
 
        Potential amp.       -0.1482 Ry
        Total length         46.3494 bohr
 

     total cpu time spent up to now is     1339.0 secs

     total energy              =   -2940.36011459 Ry
     estimated scf accuracy    <       0.30871365 Ry

     total magnetization       =     0.02 Bohr mag/cell
     absolute magnetization    =     0.11 Bohr mag/cell

     iteration # 52     ecut=    29.40 Ry     beta= 0.05
     Davidson diagonalization with overlap
     ethr =  1.94E-05,  avg # of iterations =  1.9

     negative rho (up, down):  9.835E-03 1.019E-02
 
     Adding external electric field

     Computed dipole along edir(3) : 
        Dipole                0.8125 Ry au,          2.0650 Debye
        Dipole field          0.0015 Ry au, 
 
        Potential amp.       -0.1421 Ry
        Total length         46.3494 bohr
 
 
     Adding external electric field

     Computed dipole along edir(3) : 
        Dipole                0.8125 Ry au,          2.0650 Debye
        Dipole field          0.0015 Ry au, 
 
        Potential amp.       -0.1421 Ry
        Total length         46.3494 bohr
 

     total cpu time spent up to now is     1353.1 secs

     total energy              =   -2940.35800762 Ry
     estimated scf accuracy    <       0.32396819 Ry

     total magnetization       =     0.01 Bohr mag/cell
     absolute magnetization    =     0.11 Bohr mag/cell

     iteration # 53     ecut=    29.40 Ry     beta= 0.05
     Davidson diagonalization with overlap
     c_bands:  3 eigenvalues not converged
     ethr =  1.94E-05,  avg # of iterations =  3.0

     negative rho (up, down):  9.731E-03 1.007E-02
 
     Adding external electric field

     Computed dipole along edir(3) : 
        Dipole                0.7322 Ry au,          1.8611 Debye
        Dipole field          0.0014 Ry au, 
 
        Potential amp.       -0.1281 Ry
        Total length         46.3494 bohr
 
 
     Adding external electric field

     Computed dipole along edir(3) : 
        Dipole                0.7322 Ry au,          1.8611 Debye
        Dipole field          0.0014 Ry au, 
 
        Potential amp.       -0.1281 Ry
        Total length         46.3494 bohr
 

     total cpu time spent up to now is     1368.5 secs

     total energy              =   -2940.35280803 Ry
     estimated scf accuracy    <       0.27559943 Ry

     total magnetization       =     0.02 Bohr mag/cell
     absolute magnetization    =     0.11 Bohr mag/cell

[...]
     0.0589   0.1212   0.1632   0.2081   0.2801   0.2998   0.4120   0.4713
     0.5267   0.5918   0.6448   0.7070   0.7824   0.8169   1.0142   1.0644
     1.1058   1.2661   1.2795   1.5479   1.6172   2.9960   3.2462   3.2550
     3.5436   3.6034   3.6592   3.6786   3.7255   3.7678   3.8329   3.8502

          k = 0.0380 0.0419 0.0000 ( 17878 PWs)   bands (ev):

   -56.0197 -55.9956 -55.8054 -55.7761 -55.7278 -55.7029 -55.6647 -55.6429
   -55.6403 -55.6177 -55.5754 -55.4984 -55.2435 -54.9232 -54.8992 -54.7919
   -32.4426 -32.3130 -32.2951 -32.2945 -32.1750 -32.1620 -32.1510 -32.1254
   -32.0972 -32.0913 -32.0897 -32.0283 -32.0109 -32.0004 -31.9787 -31.9644
   -31.9558 -31.9367 -31.9161 -31.9054 -31.9039 -31.9025 -31.8717 -31.8631
   -31.8599 -31.8527 -31.8515 -31.8504 -31.8393 -31.8261 -31.8135 -31.8107
   -31.7986 -31.7880 -31.7100 -31.6684 -31.6395 -31.4709 -31.4660 -31.2774
   -31.2511 -31.2314 -31.2307 -31.1361 -31.0754 -31.0086 -31.0004 -30.9187
   -17.2041 -16.3586 -16.1781 -15.8897 -15.8596 -15.7601 -15.7373 -15.7060
   -15.6619 -15.6483 -15.6198 -15.4360 -15.4142 -15.4099 -15.3589 -15.3205
   -15.2851 -15.2559 -15.2152 -15.2063 -15.1518 -15.1091 -15.1038 -15.0843
   -15.0524 -15.0432 -14.9120 -14.8116 -14.6345 -14.5322 -13.4321 -13.3548
   -11.5663  -8.2993  -4.9829  -3.9349  -3.8301  -3.6914  -3.4405  -3.3981
    -3.3554  -3.2415  -3.1590  -3.1095  -3.0690  -2.9975  -2.9460  -2.8961
    -2.8364  -2.8314  -2.7941  -2.7270  -2.6921  -2.6436  -2.6176  -2.6064
    -2.5822  -2.5565  -2.5302  -2.5011  -2.4722  -2.4351  -2.3575  -2.3429
    -2.2687  -2.2024  -2.1214  -2.0541  -2.0460  -1.9889  -1.8976  -1.8282
    -1.7770  -1.6929  -1.6329  -1.5818  -1.5513  -1.4313  -1.3623  -1.3141
    -1.2928  -1.2414  -1.2085  -1.1704  -1.1436  -1.0652  -1.0553  -1.0081
    -0.9519  -0.9170  -0.8845  -0.8239  -0.7642  -0.7590  -0.6918  -0.6759
    -0.6542  -0.6016  -0.5990  -0.5383  -0.4913  -0.4736  -0.4428  -0.3621
    -0.3306  -0.2743  -0.2309  -0.1966  -0.1544  -0.1038  -0.0556  -0.0157
     0.0645   0.1243   0.1407   0.2207   0.2787   0.3387   0.4122   0.4522
     0.4905   0.5222   0.5924   0.6610   0.6906   0.7235   0.8473   1.0318
     1.2162   1.3034   1.3959   1.5334   1.5936   3.0107   3.3708   3.4654
     3.6588   3.6708   3.7054   3.7455   3.7642   3.7752   3.8467   3.8647

          k = 0.0380-0.0839 0.0000 ( 17916 PWs)   bands (ev):

   -56.0087 -56.0067 -55.7982 -55.7834 -55.7192 -55.7117 -55.6544 -55.6507
   -55.6343 -55.6264 -55.5735 -55.5004 -55.2432 -54.9113 -54.9112 -54.7922
   -32.3112 -32.3100 -32.3038 -32.3018 -32.1594 -32.1472 -32.1310 -32.1288
   -32.0557 -32.0429 -32.0310 -32.0279 -32.0232 -32.0155 -31.9750 -31.9713
   -31.9659 -31.9635 -31.9168 -31.9153 -31.9124 -31.9099 -31.8980 -31.8779
   -31.8761 -31.8697 -31.8636 -31.8572 -31.8460 -31.8329 -31.8283 -31.8232
   -31.8004 -31.7976 -31.7655 -31.7091 -31.6100 -31.4706 -31.4661 -31.2579
   -31.2413 -31.2412 -31.1450 -31.1448 -31.1059 -31.1059 -31.0064 -30.9203
   -17.1957 -16.0481 -16.0178 -15.9180 -15.9037 -15.7076 -15.6879 -15.6717
   -15.6484 -15.5599 -15.5197 -15.4765 -15.4438 -15.4190 -15.3818 -15.3619
   -15.3544 -15.2750 -15.2705 -15.2577 -15.2346 -15.1626 -15.1528 -15.1183
   -15.0650 -15.0211 -14.9139 -14.8782 -14.6676 -14.6292 -13.4172 -13.4169
   -11.5638  -8.2977  -4.9805  -3.9052  -3.8251  -3.2833  -3.2475  -3.0976
    -3.0823  -3.0584  -3.0529  -3.0132  -3.0013  -2.9901  -2.9445  -2.8659
    -2.8290  -2.8175  -2.7933  -2.7448  -2.7373  -2.7197  -2.7087  -2.6636
    -2.6304  -2.5852  -2.5666  -2.5569  -2.5050  -2.4490  -2.4070  -2.3369
    -2.2855  -2.2535  -2.1142  -2.0093  -1.9204  -1.9019  -1.8500  -1.7591
    -1.7476  -1.7145  -1.7019  -1.6129  -1.5891  -1.5820  -1.5335  -1.5009
    -1.4752  -1.4341  -1.3525  -1.3072  -1.2599  -1.1400  -1.0801  -0.9747
    -0.9235  -0.8818  -0.8647  -0.8088  -0.7741  -0.6862  -0.6712  -0.6324
    -0.6082  -0.5753  -0.5624  -0.5429  -0.5234  -0.4952  -0.4833  -0.4343
    -0.3811  -0.3434  -0.2749  -0.2075  -0.1967  -0.1284  -0.0884  -0.0507
     0.0418   0.1296   0.1689   0.1937   0.2035   0.2594   0.3091   0.3241
     0.4011   0.4638   0.5135   0.5617   0.7052   0.7907   0.9111   1.0288
     1.0592   1.4489   1.4496   1.5365   1.5387   3.0059   3.5927   3.5979
     3.6766   3.7151   3.7758   3.7928   3.7991   3.8101   3.9120   3.9293

          k = 0.0380-0.0419 0.0000 ( 17876 PWs)   bands (ev):

   -56.0197 -55.9956 -55.8054 -55.7760 -55.7278 -55.7029 -55.6647 -55.6429
   -55.6403 -55.6177 -55.5754 -55.4984 -55.2435 -54.9232 -54.8992 -54.7919
   -32.4425 -32.3130 -32.2951 -32.2945 -32.1749 -32.1620 -32.1510 -32.1253
   -32.0972 -32.0913 -32.0897 -32.0285 -32.0108 -32.0006 -31.9783 -31.9648
   -31.9557 -31.9367 -31.9162 -31.9055 -31.9039 -31.9025 -31.8717 -31.8631
   -31.8599 -31.8527 -31.8515 -31.8505 -31.8392 -31.8261 -31.8135 -31.8107
   -31.7984 -31.7878 -31.7086 -31.6694 -31.6395 -31.4715 -31.4659 -31.2774
   -31.2511 -31.2314 -31.2304 -31.1361 -31.0754 -31.0086 -31.0004 -30.9187
   -17.2037 -16.3587 -16.1780 -15.8901 -15.8584 -15.7614 -15.7375 -15.7058
   -15.6622 -15.6490 -15.6199 -15.4367 -15.4141 -15.4094 -15.3594 -15.3198
   -15.2780 -15.2533 -15.2190 -15.2093 -15.1643 -15.1226 -15.1034 -15.0834
   -15.0448 -15.0237 -14.9153 -14.8138 -14.6328 -14.5320 -13.4321 -13.3548
   -11.5674  -8.2995  -4.9837  -3.9178  -3.8103  -3.6913  -3.4400  -3.3986
    -3.3530  -3.2411  -3.1480  -3.1173  -3.0781  -2.9977  -2.9466  -2.8986
    -2.8407  -2.8288  -2.8015  -2.7261  -2.6794  -2.6483  -2.6244  -2.6052
    -2.5870  -2.5744  -2.5228  -2.5064  -2.4701  -2.4476  -2.3570  -2.3365
    -2.3101  -2.1968  -2.1614  -2.0644  -2.0501  -2.0078  -1.8854  -1.8117
    -1.7687  -1.7064  -1.6377  -1.5973  -1.5367  -1.4110  -1.3809  -1.3114
    -1.2935  -1.2447  -1.1950  -1.1749  -1.1419  -1.0706  -1.0436  -1.0134
    -0.9438  -0.9259  -0.8623  -0.8083  -0.7751  -0.7315  -0.6992  -0.6777
    -0.6404  -0.6039  -0.5475  -0.5345  -0.5093  -0.4522  -0.4144  -0.3542
    -0.3016  -0.2655  -0.2187  -0.1885  -0.1331  -0.0996  -0.0575  -0.0054
     0.0234   0.1134   0.1617   0.2402   0.2746   0.3222   0.3841   0.4608
     0.4839   0.5173   0.5608   0.6137   0.6788   0.7221   0.8221   1.0377
     1.2136   1.3033   1.3954   1.5331   1.5942   3.0066   3.3719   3.4662
     3.6606   3.6787   3.6907   3.7416   3.7575   3.7812   3.8522   3.8667

          k =-0.0760-0.0000 0.0000 ( 17886 PWs)   bands (ev):

   -56.0246 -55.9907 -55.8101 -55.7713 -55.7325 -55.6982 -55.6697 -55.6477
   -55.6354 -55.6130 -55.5772 -55.4965 -55.2437 -54.9282 -54.8942 -54.7917
   -32.4973 -32.3525 -32.3174 -32.2946 -32.1993 -32.1841 -32.1727 -32.1477
   -32.1180 -32.1044 -32.0839 -32.0251 -32.0149 -31.9870 -31.9660 -31.9491
   -31.9363 -31.9327 -31.9291 -31.9214 -31.8912 -31.8901 -31.8758 -31.8713
   -31.8611 -31.8476 -31.8424 -31.8309 -31.8262 -31.8024 -31.8012 -31.7944
   -31.7824 -31.7605 -31.6982 -31.6603 -31.6169 -31.4742 -31.4667 -31.3309
   -31.2583 -31.2261 -31.2079 -31.1486 -31.0626 -30.9941 -30.9515 -30.9173
   -17.2093 -16.3860 -16.1942 -15.9510 -15.9297 -15.7926 -15.7741 -15.7649
   -15.7304 -15.6176 -15.5909 -15.5793 -15.5522 -15.4620 -15.3451 -15.3117
   -15.2631 -15.2417 -15.2004 -15.1535 -15.1459 -15.1405 -15.0761 -15.0041
   -14.9420 -14.9386 -14.8967 -14.7662 -14.6028 -14.4568 -13.4235 -13.3140
   -11.5757  -8.2929  -4.9949  -3.9164  -3.8518  -3.8041  -3.5040  -3.4151
    -3.3308  -3.2474  -3.2399  -3.2349  -3.1989  -3.0817  -3.0716  -3.0227
    -2.8844  -2.8338  -2.6929  -2.6456  -2.6129  -2.5869  -2.5503  -2.4863
    -2.4531  -2.4301  -2.4289  -2.3326  -2.3032  -2.2260  -2.2195  -2.1728
    -2.1460  -2.1193  -2.0993  -2.0398  -2.0011  -1.9441  -1.8768  -1.8522
    -1.7398  -1.6729  -1.6395  -1.5661  -1.5132  -1.5095  -1.4542  -1.4492
    -1.4267  -1.4085  -1.3742  -1.3238  -1.2461  -1.2083  -1.1738  -1.0740
    -1.0463  -1.0178  -1.0041  -0.9897  -0.9566  -0.8592  -0.6375  -0.6039
    -0.5539  -0.5371  -0.5156  -0.5026  -0.4923  -0.4440  -0.3138  -0.2863
    -0.2747  -0.2289  -0.1837  -0.1161  -0.0864  -0.0693  -0.0266   0.0013
     0.0148   0.1003   0.1771   0.1992   0.3104   0.3476   0.3751   0.4596
     0.5405   0.5870   0.6512   0.6946   0.7424   0.7894   0.9796   1.0105
     1.0991   1.1269   1.2470   1.4200   1.5600   2.9651   3.2374   3.2704
     3.4496   3.5127   3.6024   3.6375   3.7030   3.7199   3.8224   3.8760

          k =-0.0760 0.0419 0.0000 ( 17914 PWs)   bands (ev):

   -56.0197 -55.9957 -55.8054 -55.7761 -55.7277 -55.7029 -55.6648 -55.6430
   -55.6404 -55.6178 -55.5754 -55.4984 -55.2435 -54.9232 -54.8992 -54.7919
   -32.4435 -32.3130 -32.2951 -32.2948 -32.1752 -32.1601 -32.1514 -32.1324
   -32.0972 -32.0963 -32.0906 -32.0134 -32.0107 -32.0005 -31.9691 -31.9655
   -31.9369 -31.9313 -31.9201 -31.9158 -31.9062 -31.8929 -31.8783 -31.8713
   -31.8614 -31.8600 -31.8550 -31.8507 -31.8388 -31.8261 -31.8153 -31.8126
   -31.7986 -31.7856 -31.7087 -31.6702 -31.6379 -31.4733 -31.4661 -31.2772
   -31.2537 -31.2308 -31.2307 -31.1362 -31.0754 -31.0087 -31.0004 -30.9192
   -17.2019 -16.2642 -16.0855 -15.8534 -15.8330 -15.7551 -15.7217 -15.6854
   -15.6651 -15.6644 -15.6389 -15.5317 -15.4873 -15.4522 -15.3388 -15.2951
   -15.2646 -15.2570 -15.2485 -15.2283 -15.2032 -15.1918 -15.1709 -15.0521
   -15.0350 -15.0118 -14.9110 -14.8169 -14.6289 -14.5334 -13.4301 -13.3551
   -11.5717  -8.2912  -4.9894  -3.9037  -3.8156  -3.6778  -3.3430  -3.1703
    -3.1157  -3.0439  -3.0197  -2.9579  -2.9467  -2.9286  -2.9020  -2.8758
    -2.8374  -2.8052  -2.7709  -2.7091  -2.6845  -2.6483  -2.5963  -2.5820
    -2.5569  -2.5358  -2.5247  -2.4891  -2.4511  -2.4421  -2.3460  -2.3261
    -2.2067  -2.1233  -2.0537  -2.0042  -1.9700  -1.9238  -1.9048  -1.8286
    -1.7861  -1.7660  -1.6001  -1.5471  -1.4946  -1.4736  -1.4091  -1.3922
    -1.3612  -1.3018  -1.2482  -1.2304  -1.2131  -1.1836  -1.1560  -1.1057
    -1.0997  -1.0306  -0.9966  -0.9707  -0.9365  -0.8711  -0.8261  -0.7782
    -0.7380  -0.6936  -0.6463  -0.6301  -0.6161  -0.5506  -0.5216  -0.4725
    -0.4253  -0.3630  -0.3064  -0.2981  -0.1687  -0.1514  -0.1089  -0.0777
    -0.0210   0.1055   0.1794   0.3034   0.3912   0.4290   0.4850   0.5173
     0.5348   0.5704   0.6126   0.6720   0.6860   0.7349   0.7762   1.0034
     1.0704   1.3174   1.4017   1.4589   1.5823   2.9781   3.3579   3.4677
     3.5258   3.6128   3.6508   3.6779   3.7216   3.8726   3.9456   3.9559

          k =-0.0760-0.0839 0.0000 ( 17948 PWs)   bands (ev):

   -56.0088 -56.0067 -55.7982 -55.7834 -55.7191 -55.7116 -55.6545 -55.6507
   -55.6344 -55.6264 -55.5735 -55.5004 -55.2432 -54.9113 -54.9112 -54.7922
   -32.3119 -32.3107 -32.3039 -32.3019 -32.1597 -32.1475 -32.1299 -32.1277
   -32.0559 -32.0431 -32.0334 -32.0310 -32.0239 -32.0201 -31.9788 -31.9733
   -31.9617 -31.9496 -31.9151 -31.9103 -31.8982 -31.8937 -31.8887 -31.8869
   -31.8775 -31.8767 -31.8638 -31.8574 -31.8490 -31.8460 -31.8439 -31.8232
   -31.8005 -31.7977 -31.7660 -31.7067 -31.6095 -31.4725 -31.4662 -31.2580
   -31.2422 -31.2421 -31.1450 -31.1448 -31.1059 -31.1059 -31.0064 -30.9207
   -17.1946 -15.9811 -15.9531 -15.8498 -15.8306 -15.7392 -15.7263 -15.6125
   -15.6043 -15.5905 -15.5244 -15.4808 -15.4697 -15.3826 -15.3581 -15.3457
   -15.3238 -15.3143 -15.3073 -15.2958 -15.2779 -15.2057 -15.2003 -15.1902
   -15.1158 -15.0970 -14.9076 -14.8649 -14.6633 -14.6256 -13.4170 -13.4167
   -11.5677  -8.2895  -4.9845  -3.8970  -3.8263  -3.2831  -3.2472  -3.0347
    -3.0068  -2.9865  -2.9596  -2.7736  -2.7594  -2.7543  -2.7356  -2.7224
    -2.6849  -2.6656  -2.6522  -2.5870  -2.5766  -2.5588  -2.5543  -2.5420
    -2.5240  -2.5088  -2.5004  -2.4817  -2.4621  -2.4175  -2.3630  -2.3420
    -2.2900  -2.1958  -2.0901  -2.0503  -2.0386  -2.0298  -2.0063  -1.9974
    -1.9538  -1.9414  -1.8566  -1.6637  -1.6180  -1.5650  -1.5584  -1.5326
    -1.4839  -1.4305  -1.3771  -1.3020  -1.2439  -1.1947  -1.1652  -1.1450
    -1.1044  -1.0400  -0.9753  -0.9554  -0.9405  -0.9173  -0.9156  -0.8908
    -0.8133  -0.7266  -0.6893  -0.6603  -0.6388  -0.6266  -0.6109  -0.5854
    -0.4708  -0.4119  -0.3639  -0.3181  -0.2738  -0.2325  -0.1135  -0.0993
     0.1038   0.1613   0.1830   0.2660   0.3628   0.3850   0.3936   0.4641
     0.5388   0.6018   0.6374   0.6901   0.7026   0.7262   0.7921   1.0083
     1.0616   1.4682   1.4698   1.5187   1.5197   2.9785   3.6661   3.6742
     3.6777   3.6880   3.7080   3.7310   3.7859   3.8196   3.9181   3.9388

     the Fermi energy is     3.1256 ev

!    total energy              =   -2940.35261799 Ry
     estimated scf accuracy    <       0.00000007 Ry
     smearing contrib. (-TS)   =      -0.01860460 Ry
     internal energy E=F+TS    =   -2940.33401338 Ry

     The total energy is F=E-TS. E is the sum of the following terms:
     one-electron contribution =  -24661.47987994 Ry
     hartree contribution      =   12419.82081563 Ry
     xc contribution           =    -486.04638950 Ry
     ewald contribution        =    9787.37044440 Ry
     electric field correction =       0.00099602 Ry

     total magnetization       =     0.02 Bohr mag/cell
     absolute magnetization    =     0.04 Bohr mag/cell

     convergence has been achieved in 147 iterations

     Forces acting on atoms (cartesian axes, Ry/au):

     atom    1 type  1   force =     0.00023374   -0.00036597    0.10155490
     atom    2 type  1   force =     0.00001098   -0.00086178   -0.17138970
     atom    3 type  2   force =     0.00029030    0.00021899   -0.03329716
     atom    4 type  2   force =     0.00003173   -0.00078427    0.04477666
     atom    5 type  2   force =    -0.01193857   -0.00020800   -0.00234739
     atom    6 type  2   force =     0.01437203    0.00038613   -0.00114787
     atom    7 type  1   force =     0.00140653   -0.00132186   -0.00416287
     atom    8 type  1   force =    -0.00077424    0.02219022    0.05631081
     atom    9 type  2   force =     0.00003199   -0.00032705    0.00035294
     atom   10 type  2   force =    -0.00266168    0.00207621   -0.02610369
     atom   11 type  2   force =     0.00001347    0.00024122   -0.00011511
     atom   12 type  2   force =     0.00011121    0.00073162   -0.00004805
     atom   13 type  1   force =    -0.00002919    0.00014829    0.00055598
     atom   14 type  1   force =     0.00028039    0.00027676    0.00022126
     atom   15 type  2   force =     0.00025762   -0.00016322   -0.00025993
     atom   16 type  2   force =    -0.00002779   -0.00012981    0.00042876
     atom   17 type  2   force =    -0.00009582   -0.00082437   -0.00014657
     atom   18 type  2   force =     0.00078934   -0.00091553   -0.00005378
     atom   19 type  1   force =    -0.00006359   -0.00052380    0.00066137
     atom   20 type  1   force =     0.00004013    0.00010804    0.00061077
     atom   21 type  2   force =     0.00006346   -0.00000975    0.10211136
     atom   22 type  2   force =    -0.00013876   -0.00009490   -0.00010816
     atom   23 type  2   force =    -0.07331226   -0.00015852   -0.02888648
     atom   24 type  2   force =     0.07326229    0.00033553   -0.02893296
     atom   25 type  1   force =    -0.00026811   -0.00029500    0.10198031
     atom   26 type  1   force =     0.00003506   -0.00019977   -0.17138216
     atom   27 type  2   force =     0.00036485   -0.00023038   -0.03201010
     atom   28 type  2   force =     0.00009278   -0.00057163    0.04539664
     atom   29 type  2   force =    -0.01208605    0.00213237   -0.00290429
     atom   30 type  2   force =     0.01439872    0.00229326   -0.00164743
     atom   31 type  1   force =     0.00158481    0.00091667   -0.00546681
     atom   32 type  1   force =    -0.00060106   -0.02475597    0.05734993
     atom   33 type  2   force =     0.00015755    0.00035627    0.00051144
     atom   34 type  2   force =    -0.00420768    0.00212049   -0.04847493
     atom   35 type  2   force =     0.00061873   -0.00058788   -0.00005908
     atom   36 type  2   force =    -0.00037820   -0.00072163    0.00008305
     atom   37 type  1   force =     0.00004817    0.00061171    0.00025522
     atom   38 type  1   force =     0.00001726   -0.00009869    0.00008939
     atom   39 type  2   force =     0.00014351    0.00000472   -0.00087419
     atom   40 type  2   force =    -0.00011032   -0.00003143   -0.00062409
     atom   41 type  2   force =    -0.00001404    0.00052146   -0.00019045
     atom   42 type  2   force =     0.00026025    0.00057910    0.00037592
     atom   43 type  1   force =    -0.00030430   -0.00009235    0.00050143
     atom   44 type  1   force =     0.00045333   -0.00074517    0.00190765
     atom   45 type  2   force =     0.00004599   -0.00004896    0.10216798
     atom   46 type  2   force =    -0.07332063   -0.00009416   -0.02885694
     atom   47 type  2   force =     0.07327156    0.00028107   -0.02889492
     atom   48 type  3   force =    -0.01483914    0.00592001   -0.00156960
     atom   49 type  4   force =     0.00367069   -0.00057573    0.00221457
     atom   50 type  5   force =     0.00028514   -0.00019619    0.00035150
     atom   51 type  5   force =    -0.00056853   -0.00061700    0.00068119
     atom   52 type  5   force =     0.00064907   -0.00055372    0.00109790
     atom   53 type  3   force =     0.00804151   -0.00474051   -0.00208244
     atom   54 type  5   force =     0.00040576   -0.00060513   -0.00051176

     Total force =     0.378357     Total SCF correction =     0.000518
  @ DRIVER MODE: Message from server: STATUS
  @ DRIVER MODE: Message from server: GETFORCE
  @ DRIVER MODE: Returning v,forces,stress,ensemble 

     Writing output data file ./calc.save/
  @ DRIVER MODE: Message from server: EXIT
  @ DRIVE MODE: Exiting  
 
     init_run     :     11.15s CPU     11.49s WALL (       1 calls)
     electrons    :   3064.68s CPU   3107.75s WALL (       1 calls)
     forces       :      3.00s CPU      3.07s WALL (       1 calls)

     Called by init_run:
     wfcinit      :      6.81s CPU      6.88s WALL (       1 calls)
     potinit      :      3.74s CPU      3.94s WALL (       1 calls)
     hinit0       :      0.31s CPU      0.32s WALL (       1 calls)

     Called by electrons:
     c_bands      :   2585.46s CPU   2610.35s WALL (     147 calls)
     sum_band     :    350.02s CPU    357.84s WALL (     147 calls)
     v_of_rho     :     83.01s CPU     86.36s WALL (     148 calls)
     newd         :     28.80s CPU     33.97s WALL (     148 calls)
     mix_rho      :     16.93s CPU     18.40s WALL (     147 calls)
     vdW_kernel   :      3.06s CPU      3.18s WALL (       1 calls)

     Called by c_bands:
     init_us_2    :     19.24s CPU     19.38s WALL (    5920 calls)
     cegterg      :   2530.28s CPU   2554.31s WALL (    2973 calls)

     Called by *egterg:
     cdiaghg      :    554.11s CPU    562.90s WALL (   23366 calls)
     h_psi        :   1254.00s CPU   1265.28s WALL (   23386 calls)
     s_psi        :    150.02s CPU    150.52s WALL (   23386 calls)
     g_psi        :      3.64s CPU      3.67s WALL (   20393 calls)

     Called by h_psi:
     h_psi:calbec :    154.05s CPU    154.68s WALL (   23386 calls)
     vloc_psi     :    940.73s CPU    950.78s WALL (   23386 calls)
     add_vuspsi   :    151.84s CPU    152.40s WALL (   23386 calls)

     General routines
     calbec       :    211.31s CPU    212.34s WALL (   26406 calls)
     fft          :     58.11s CPU     59.42s WALL (   13169 calls)
     ffts         :      0.73s CPU      0.76s WALL (     590 calls)
     fftw         :   1111.33s CPU   1124.59s WALL ( 3538416 calls)
     interpolate  :      1.68s CPU      1.78s WALL (     296 calls)
     davcio       :      0.00s CPU      0.23s WALL (      20 calls)
 
     Parallel routines
 
     PWSCF        :  51m19.56s CPU  52m15.87s WALL

 
   This run was terminated on:  18:34:46  15Jul2021            

=------------------------------------------------------------------------------=
   JOB DONE.
=------------------------------------------------------------------------------=
