
     Program PWSCF v.6.7GPU starts on  9Sep2021 at  9:15: 4 

     This program is part of the open-source Quantum ESPRESSO suite
     for quantum simulation of materials; please cite
         "P. Giannozzi et al., J. Phys.:Condens. Matter 21 395502 (2009);
         "P. Giannozzi et al., J. Phys.:Condens. Matter 29 465901 (2017);
         "P. Giannozzi et al., J. Chem. Phys. 152 154105 (2020);
          URL http://www.quantum-espresso.org", 
     in publications or presentations arising from this work. More details at
     http://www.quantum-espresso.org/quote

     Parallel version (MPI), running on    10 processors

     MPI processes distributed on     1 nodes
     R & G space division:  proc/nbgrp/npool/nimage =      10
     Reading input from /storage/home/hcoda1/3/ntian30/research/carbon/CxH_vib/CH3_calc/ads_slab/CH3NHNH2_a/out_0035/pw.inp
Warning: card &CELL ignored
Warning: card   CELL_DYNAMICS='IPI', ignored
Warning: card / ignored

     Current dimensions of program PWSCF are:
     Max number of different atomic species (ntypx) = 10
     Max number of k-points (npk) =  40000
     Max angular momentum in pseudopotentials (lmaxx) =  3
     Presently no symmetry can be used with electric field

     Message from routine cell_base_init:
     DEPRECATED: use true lattice parameter, not A to a.u. conversion factor

     **************************************************************************
     Initializing libbeef V0.1.2 with the BEEF-vdW functional.
     Citation: Wellendorff et al., PRB 85, 235149 (2012).
     **************************************************************************


     IMPORTANT: XC functional enforced from input :
     Exchange-correlation= BEEF-VDW
                           (   1   4  43  14   2   0   0)
     Any further DFT definition will be discarded
     Please, verify this is what you really want


     Subspace diagonalization in iterative solution of the eigenvalue problem:
     one sub-group per band group will be used
     scalapack distributed-memory algorithm (size of sub-group:  3*  3 procs)

  @ DRIVER MODE: Connecting to 
 qe_1139763_2767398.sched-torque.pace.gatech.eduz6uf2s4f_scratch
  using UNIX socket
  @ DRIVER MODE: Message from server: STATUS
  @ DRIVER MODE: Message from server: INIT
  @ DRIVER MODE: Receiving replica           0          -1
  @ DRIVER MODE: Receiving encoded integer          25
  @ DRIVER MODE:  SCF:  T  FORCE:  T  STRESS:  F  VC:  F  ENSEMBLE:  F
  @ DRIVER MODE:  SCF:  T  FORCE:  T  STRESS:  F  VC:  F  ENSEMBLE:  F
 
     Parallelization info
     --------------------
     sticks:   dense  smooth     PW     G-vecs:    dense   smooth      PW
     Min         327     131     37                56683    14340    2191
     Max         328     133     38                56694    14346    2206
     Sum        3275    1317    379               566857   143421   21985
 
     Using Slab Decomposition
 


     bravais-lattice index     =            0
     lattice parameter (alat)  =       1.8897  a.u.
     unit-cell volume          =    6658.9804 (a.u.)^3
     number of atoms/cell      =           56
     number of atomic types    =            5
     number of electrons       =       398.00
     number of Kohn-Sham states=          209
     kinetic-energy cutoff     =      29.3995  Ry
     charge density cutoff     =     293.9946  Ry
     scf convergence threshold =      7.3E-08
     mixing beta               =       0.0500
     number of iterations used =            8  plain     mixing
     Exchange-correlation= BEEF-VDW
                           (   1   4  43  14   2   0   0)

     celldm(1)=   1.889726  celldm(2)=   0.000000  celldm(3)=   0.000000
     celldm(4)=   0.000000  celldm(5)=   0.000000  celldm(6)=   0.000000

     crystal axes: (cart. coord. in units of alat)
               a(1) = (   6.579727   0.000000   0.000000 )  
               a(2) = (  -0.000775   5.961596   0.000000 )  
               a(3) = (   0.000000   0.000000  25.155947 )  

     reciprocal axes: (cart. coord. in units 2 pi/alat)
               b(1) = (  0.151982  0.000020  0.000000 )  
               b(2) = (  0.000000  0.167740  0.000000 )  
               b(3) = (  0.000000  0.000000  0.039752 )  


     PseudoPot. # 1 for Ti read from file:
     /storage/coda1/p-amedford6/0/shared/rich_project_chbe-medford/medford-share/data/pseudos_module/espresso/nninc/pbe/van/Ti.UPF
     MD5 check sum: 8e4df49b7f0d34bbd5052bf3f5ea0213
     Pseudo is Ultrasoft, Zval = 12.0
     Generated by new atomic code, or converted to UPF format
     Using radial grid of  851 points,  6 beta functions with: 
                l(1) =   0
                l(2) =   0
                l(3) =   1
                l(4) =   1
                l(5) =   2
                l(6) =   2
     Q(r) pseudized with  8 coefficients,  rinner =    1.000   1.000   1.000
                                                       1.000   1.000

     PseudoPot. # 2 for O  read from file:
     /storage/coda1/p-amedford6/0/shared/rich_project_chbe-medford/medford-share/data/pseudos_module/espresso/nninc/pbe/van/O.UPF
     MD5 check sum: 78c19812648e8988a0fe644b0f25305e
     Pseudo is Ultrasoft, Zval =  6.0
     Generated by new atomic code, or converted to UPF format
     Using radial grid of  737 points,  4 beta functions with: 
                l(1) =   0
                l(2) =   0
                l(3) =   1
                l(4) =   1
     Q(r) pseudized with  8 coefficients,  rinner =    0.800   0.800   0.800


     PseudoPot. # 3 for N  read from file:
     /storage/coda1/p-amedford6/0/shared/rich_project_chbe-medford/medford-share/data/pseudos_module/espresso/nninc/pbe/van/N.UPF
     MD5 check sum: 90d10febe142ad51ac9d5be1deb811c4
     Pseudo is Ultrasoft, Zval =  5.0
     Generated by new atomic code, or converted to UPF format
     Using radial grid of  729 points,  4 beta functions with: 
                l(1) =   0
                l(2) =   0
                l(3) =   1
                l(4) =   1
     Q(r) pseudized with  8 coefficients,  rinner =    0.800   0.800   0.800


     PseudoPot. # 4 for C  read from file:
     /storage/coda1/p-amedford6/0/shared/rich_project_chbe-medford/medford-share/data/pseudos_module/espresso/nninc/pbe/van/C.UPF
     MD5 check sum: 1a69bf6b8db32088f5b2163dbdb77a27
     Pseudo is Ultrasoft, Zval =  4.0
     Generated by new atomic code, or converted to UPF format
     Using radial grid of  721 points,  4 beta functions with: 
                l(1) =   0
                l(2) =   0
                l(3) =   1
                l(4) =   1
     Q(r) pseudized with  8 coefficients,  rinner =    0.800   0.800   0.800


     PseudoPot. # 5 for H  read from file:
     /storage/coda1/p-amedford6/0/shared/rich_project_chbe-medford/medford-share/data/pseudos_module/espresso/nninc/pbe/van/H.UPF
     MD5 check sum: b5ee9d7bfd3a09ee7748110bda690ff7
     Pseudo is Ultrasoft, Zval =  1.0
     Generated by new atomic code, or converted to UPF format
     Using radial grid of  615 points,  1 beta functions with: 
                l(1) =   0
     Q(r) pseudized with  8 coefficients,  rinner =    0.800

     atomic species   valence    mass     pseudopotential
        Ti1           12.00    47.86700     Ti( 1.00)
        O1             6.00    15.99900     O ( 1.00)
        N1             5.00    14.00700     N ( 1.00)
        C1             4.00    12.01100     C ( 1.00)
        H1             1.00     1.00800     H ( 1.00)

     No symmetry found



   Cartesian axes

     site n.     atom                  positions (alat units)
         1           Ti1 tau(   1) = (   0.0004258   2.9801865   6.0000000  )
         2           Ti1 tau(   2) = (   3.2906075   1.4906267   6.0002472  )
         3           O1  tau(   3) = (   0.0006271   0.0005054   7.9858123  )
         4           O1  tau(   4) = (   3.2906025   0.0005020   7.3038282  )
         5           O1  tau(   5) = (   4.5942328   1.4918067   9.2879030  )
         6           O1  tau(   6) = (   1.9868534   1.4903216   9.2879459  )
         7           Ti1 tau(   7) = (   3.2907910   2.8959150   9.1758416  )
         8           Ti1 tau(   8) = (   0.0015273   1.4827037   9.2680791  )
         9           O1  tau(   9) = (   3.2714441   0.0289406  11.3813764  )
        10           O1  tau(  10) = (   0.0116148   5.9584955  10.6183126  )
        11           O1  tau(  11) = (   1.2692032   1.5162281  12.7122965  )
        12           O1  tau(  12) = (   5.2779133   1.5159715  12.6811497  )
        13           Ti1 tau(  13) = (   6.5579218   3.0031650  12.5037829  )
        14           Ti1 tau(  14) = (   3.2791490   1.5128154  12.5375672  )
        15           O1  tau(  15) = (   6.5208524   5.8954130  14.6845636  )
        16           O1  tau(  16) = (   3.2849572   0.0099931  14.0031570  )
        17           O1  tau(  17) = (   4.4884262   1.5607690  16.1641467  )
        18           O1  tau(  18) = (   1.9729656   1.5430890  16.0903287  )
        19           Ti1 tau(  19) = (   3.2372663   3.0309179  15.7728032  )
        20           Ti1 tau(  20) = (   6.5553692   1.3539605  15.8053163  )
        21           O1  tau(  21) = (   3.2904802   0.0005063   4.7018136  )
        22           O1  tau(  22) = (   6.5123495   0.2165906  17.2215032  )
        23           O1  tau(  23) = (   1.3043587   1.4918075   6.0039043  )
        24           O1  tau(  24) = (   5.2767064   1.4903225   6.0039473  )
        25           Ti1 tau(  25) = (   0.0000382   5.9609847   6.0000000  )
        26           Ti1 tau(  26) = (   3.2902200   4.4714249   6.0002472  )
        27           O1  tau(  27) = (   0.0002396   2.9813036   7.9858123  )
        28           O1  tau(  28) = (   3.2902150   2.9813002   7.3038282  )
        29           O1  tau(  29) = (   4.5938453   4.4726049   9.2879030  )
        30           O1  tau(  30) = (   1.9864658   4.4711199   9.2879459  )
        31           Ti1 tau(  31) = (   3.2891106   5.8743827   9.1763621  )
        32           Ti1 tau(  32) = (   0.0006254   4.4649316   9.2693709  )
        33           O1  tau(  33) = (   3.2699379   2.9911670  11.3762017  )
        34           O1  tau(  34) = (   0.0092240   2.9805883  10.6323155  )
        35           O1  tau(  35) = (   1.2730946   4.4825978  12.6662957  )
        36           O1  tau(  36) = (   5.2742290   4.4829497  12.6320226  )
        37           Ti1 tau(  37) = (   6.5783117   0.0079037  12.5026730  )
        38           Ti1 tau(  38) = (   3.2784283   4.4905194  12.5286134  )
        39           O1  tau(  39) = (   6.5033290   3.0824797  14.9867588  )
        40           O1  tau(  40) = (   3.2824109   3.0350539  13.9807796  )
        41           O1  tau(  41) = (   4.4804250   4.5097483  16.2808085  )
        42           O1  tau(  42) = (   1.9642025   4.5165872  16.2225063  )
        43           Ti1 tau(  43) = (   3.2609991   0.0502580  15.7998297  )
        44           Ti1 tau(  44) = (   6.5501253   4.5826093  16.0954727  )
        45           O1  tau(  45) = (   3.2900926   2.9813045   4.7018136  )
        46           O1  tau(  46) = (   1.3039711   4.4726057   6.0039043  )
        47           O1  tau(  47) = (   5.2763189   4.4711207   6.0039473  )
        48           N1  tau(  48) = (   0.8845045   3.2634721  19.1145209  )
        49           N1  tau(  49) = (   6.3504243   3.3997271  18.1887592  )
        50           C1  tau(  50) = (   1.2927081   4.5631590  19.6429350  )
        51           H1  tau(  51) = (   0.4658632   5.1229972  20.1056819  )
        52           H1  tau(  52) = (   2.0600825   4.3818216  20.3958833  )
        53           H1  tau(  53) = (   1.7018904   5.1738364  18.8353250  )
        54           H1  tau(  54) = (   0.5628611   2.6866381  19.8888112  )
        55           H1  tau(  55) = (   5.6051421   3.9827062  18.5884547  )
        56           H1  tau(  56) = (   5.9567982   2.4624696  18.0937858  )

     number of k points=    10  Fermi-Dirac smearing, width (Ry)=  0.0073
                       cart. coord. in units 2pi/alat
        k(    1) = (   0.0000000   0.0000000   0.0000000), wk =   0.1250000
        k(    2) = (   0.0000000   0.0419351   0.0000000), wk =   0.2500000
        k(    3) = (   0.0000000  -0.0838702   0.0000000), wk =   0.1250000
        k(    4) = (   0.0379955   0.0000049   0.0000000), wk =   0.2500000
        k(    5) = (   0.0379955   0.0419400   0.0000000), wk =   0.2500000
        k(    6) = (   0.0379955  -0.0838652   0.0000000), wk =   0.2500000
        k(    7) = (   0.0379955  -0.0419301   0.0000000), wk =   0.2500000
        k(    8) = (  -0.0759910  -0.0000099   0.0000000), wk =   0.1250000
        k(    9) = (  -0.0759910   0.0419252   0.0000000), wk =   0.2500000
        k(   10) = (  -0.0759910  -0.0838800   0.0000000), wk =   0.1250000

     Dense  grid:   566857 G-vectors     FFT dimensions: (  72,  64, 270)

     Smooth grid:   143421 G-vectors     FFT dimensions: (  45,  40, 180)

     Estimated max dynamical RAM per process >     364.09 MB

     Estimated total dynamical RAM >       3.56 GB
     Cannot read rho : file not found

     Initial potential from superposition of free atoms

     starting charge  381.99914, renormalised to  398.00000

     negative rho (up, down):  1.416E-02 0.000E+00


     %%%%%%%%%%%%%%%%%%%%%%%%%%%%%%%%%%%%%%%%%%%%%%%%%%%%%%%%%%%%%%%%%%%%%%%%
     %                                                                      %
     % You are using vdW-DF, which was implemented by the Thonhauser group. %
     % Please cite the following two papers that made this development      %
     % possible and the two reviews that describe the various versions:     %
     %                                                                      %
     %   T. Thonhauser et al., PRL 115, 136402 (2015).                      %
     %   T. Thonhauser et al., PRB 76, 125112 (2007).                       %
     %   K. Berland et al., Rep. Prog. Phys. 78, 066501 (2015).             %
     %   D.C. Langreth et al., J. Phys.: Condens. Matter 21, 084203 (2009). %
     %                                                                      %
     %                                                                      %
     % If you are calculating the stress with vdW-DF, please also cite:     %
     %                                                                      %
     %   R. Sabatini et al., J. Phys.: Condens. Matter 24, 424209 (2012).   %
     %                                                                      %
     %%%%%%%%%%%%%%%%%%%%%%%%%%%%%%%%%%%%%%%%%%%%%%%%%%%%%%%%%%%%%%%%%%%%%%%%


 
     Adding external electric field

     Computed dipole along edir(3) : 
        Dipole              -11.7163 Ry au,        -29.7798 Debye
        Dipole field         -0.0221 Ry au, 
 
        Potential amp.        2.0496 Ry
        Total length         46.3494 bohr
 
     Starting wfcs are  302 atomic wfcs
  @ DRIVER MODE: Message from server: STATUS
  @ DRIVER MODE: Message from server: POSDATA
  @ DRIVER MODE: Reading and sharing cell 
  @ DRIVER MODE: Reading and sharing positions 
  @ DRIVER MODE: Received positions 

     total cpu time spent up to now is       11.3 secs

     Self-consistent Calculation

     iteration #  1     ecut=    29.40 Ry     beta= 0.05
     Davidson diagonalization with overlap
     c_bands:  3 eigenvalues not converged
     c_bands:  1 eigenvalues not converged
     c_bands:  1 eigenvalues not converged
     c_bands:  4 eigenvalues not converged
     c_bands:  1 eigenvalues not converged
     c_bands:  4 eigenvalues not converged
     c_bands:  5 eigenvalues not converged
     c_bands:  2 eigenvalues not converged
     ethr =  1.00E-05,  avg # of iterations = 21.9

     negative rho (up, down):  9.993E-03 0.000E+00
 
     Adding external electric field

     Computed dipole along edir(3) : 
        Dipole               48.9625 Ry au,        124.4503 Debye
        Dipole field          0.0924 Ry au, 
 
        Potential amp.       -8.5652 Ry
        Total length         46.3494 bohr
 

     total cpu time spent up to now is       53.7 secs

     total energy              =   -2424.58318051 Ry
     estimated scf accuracy    <    5830.19914355 Ry

     iteration #  2     ecut=    29.40 Ry     beta= 0.05
     Davidson diagonalization with overlap
     ethr =  1.00E-02,  avg # of iterations = 22.8

     negative rho (up, down):  1.865E-03 0.000E+00
 
     Adding external electric field

     Computed dipole along edir(3) : 
        Dipole               -1.8610 Ry au,         -4.7301 Debye
        Dipole field         -0.0035 Ry au, 
 
        Potential amp.        0.3255 Ry
        Total length         46.3494 bohr
 

     total cpu time spent up to now is      132.0 secs

     total energy              =   -2426.40307371 Ry
     estimated scf accuracy    <   72066.11929472 Ry

     iteration #  3     ecut=    29.40 Ry     beta= 0.05
     Davidson diagonalization with overlap
     c_bands:  1 eigenvalues not converged
     ethr =  1.00E-02,  avg # of iterations = 17.0

     negative rho (up, down):  1.927E-03 0.000E+00
 
     Adding external electric field

     Computed dipole along edir(3) : 
        Dipole               -4.3114 Ry au,        -10.9586 Debye
        Dipole field         -0.0081 Ry au, 
 
        Potential amp.        0.7542 Ry
        Total length         46.3494 bohr
 

     total cpu time spent up to now is      180.8 secs

     total energy              =   -2932.13200436 Ry
     estimated scf accuracy    <    5042.20952836 Ry

     iteration #  4     ecut=    29.40 Ry     beta= 0.05
     Davidson diagonalization with overlap
     ethr =  1.00E-02,  avg # of iterations = 10.8

     negative rho (up, down):  1.977E-03 0.000E+00
 
     Adding external electric field

     Computed dipole along edir(3) : 
        Dipole               -6.2362 Ry au,        -15.8508 Debye
        Dipole field         -0.0118 Ry au, 
 
        Potential amp.        1.0909 Ry
        Total length         46.3494 bohr
 

     total cpu time spent up to now is      199.3 secs

     total energy              =   -2926.03219489 Ry
     estimated scf accuracy    <    2149.12983792 Ry

     iteration #  5     ecut=    29.40 Ry     beta= 0.05
     Davidson diagonalization with overlap
     c_bands:  1 eigenvalues not converged
     c_bands:  2 eigenvalues not converged
     c_bands:  1 eigenvalues not converged
     ethr =  1.00E-02,  avg # of iterations = 13.4

     negative rho (up, down):  2.002E-03 0.000E+00
 
     Adding external electric field

     Computed dipole along edir(3) : 
        Dipole               -5.7755 Ry au,        -14.6800 Debye
        Dipole field         -0.0109 Ry au, 
 
        Potential amp.        1.0103 Ry
        Total length         46.3494 bohr
 

     total cpu time spent up to now is      216.7 secs

     total energy              =   -2943.50590294 Ry
     estimated scf accuracy    <     120.07105760 Ry

     iteration #  6     ecut=    29.40 Ry     beta= 0.05
     Davidson diagonalization with overlap
     c_bands:  1 eigenvalues not converged
     ethr =  1.00E-02,  avg # of iterations =  3.4

     negative rho (up, down):  2.000E-03 0.000E+00
 
     Adding external electric field

     Computed dipole along edir(3) : 
        Dipole               -5.5591 Ry au,        -14.1299 Debye
        Dipole field         -0.0105 Ry au, 
 
        Potential amp.        0.9725 Ry
        Total length         46.3494 bohr
 

     total cpu time spent up to now is      227.7 secs

     total energy              =   -2944.50791977 Ry
     estimated scf accuracy    <      63.89420641 Ry

     iteration #  7     ecut=    29.40 Ry     beta= 0.05
     Davidson diagonalization with overlap
     ethr =  1.00E-02,  avg # of iterations =  2.9

     negative rho (up, down):  2.098E-03 0.000E+00
 
     Adding external electric field

     Computed dipole along edir(3) : 
        Dipole               -3.6820 Ry au,         -9.3587 Debye
        Dipole field         -0.0069 Ry au, 
 
        Potential amp.        0.6441 Ry
        Total length         46.3494 bohr
 

     total cpu time spent up to now is      238.2 secs

     total energy              =   -2943.93620548 Ry
     estimated scf accuracy    <      46.63235494 Ry

     iteration #  8     ecut=    29.40 Ry     beta= 0.05
     Davidson diagonalization with overlap
     ethr =  1.00E-02,  avg # of iterations =  1.4

     negative rho (up, down):  2.371E-03 0.000E+00
 
     Adding external electric field

     Computed dipole along edir(3) : 
        Dipole               -0.8587 Ry au,         -2.1825 Debye
        Dipole field         -0.0016 Ry au, 
 
        Potential amp.        0.1502 Ry
        Total length         46.3494 bohr
 

     total cpu time spent up to now is      248.2 secs

     total energy              =   -2942.93801655 Ry
     estimated scf accuracy    <      50.29582431 Ry

     iteration #  9     ecut=    29.40 Ry     beta= 0.05
     Davidson diagonalization with overlap
     ethr =  1.00E-02,  avg # of iterations =  3.2

     negative rho (up, down):  2.485E-03 0.000E+00
 
     Adding external electric field

     Computed dipole along edir(3) : 
        Dipole               -0.7822 Ry au,         -1.9881 Debye
        Dipole field         -0.0015 Ry au, 
 
        Potential amp.        0.1368 Ry
        Total length         46.3494 bohr
 

     total cpu time spent up to now is      259.3 secs

     total energy              =   -2945.96078776 Ry
     estimated scf accuracy    <     827.56633831 Ry

     iteration # 10     ecut=    29.40 Ry     beta= 0.05
     Davidson diagonalization with overlap
     ethr =  1.00E-02,  avg # of iterations =  3.9

     negative rho (up, down):  2.761E-03 0.000E+00
 
     Adding external electric field

     Computed dipole along edir(3) : 
        Dipole               -0.3730 Ry au,         -0.9482 Debye
        Dipole field         -0.0007 Ry au, 
 
        Potential amp.        0.0653 Ry
        Total length         46.3494 bohr
 

     total cpu time spent up to now is      270.4 secs

     total energy              =   -2944.50512581 Ry
     estimated scf accuracy    <     830.71766851 Ry

     iteration # 11     ecut=    29.40 Ry     beta= 0.05
     Davidson diagonalization with overlap
     ethr =  1.00E-02,  avg # of iterations =  1.6

     negative rho (up, down):  2.681E-03 0.000E+00
 
     Adding external electric field

     Computed dipole along edir(3) : 
        Dipole               -2.0149 Ry au,         -5.1214 Debye
        Dipole field         -0.0038 Ry au, 
 
        Potential amp.        0.3525 Ry
        Total length         46.3494 bohr
 

     total cpu time spent up to now is      280.6 secs

     total energy              =   -2937.64780485 Ry
     estimated scf accuracy    <     498.56923650 Ry

     iteration # 12     ecut=    29.40 Ry     beta= 0.05
     Davidson diagonalization with overlap
     ethr =  1.00E-02,  avg # of iterations =  1.4

     negative rho (up, down):  2.706E-03 0.000E+00
 
     Adding external electric field

     Computed dipole along edir(3) : 
        Dipole               -2.3496 Ry au,         -5.9720 Debye
        Dipole field         -0.0044 Ry au, 
 
        Potential amp.        0.4110 Ry
        Total length         46.3494 bohr
 

     total cpu time spent up to now is      290.7 secs

     total energy              =   -2940.49039731 Ry
     estimated scf accuracy    <      73.79360236 Ry

     iteration # 13     ecut=    29.40 Ry     beta= 0.05
     Davidson diagonalization with overlap
     ethr =  1.00E-02,  avg # of iterations =  1.1

     negative rho (up, down):  2.919E-03 0.000E+00
 
     Adding external electric field

     Computed dipole along edir(3) : 
        Dipole               -2.2971 Ry au,         -5.8387 Debye
        Dipole field         -0.0043 Ry au, 
 
        Potential amp.        0.4018 Ry
        Total length         46.3494 bohr
 

     total cpu time spent up to now is      300.5 secs

     total energy              =   -2939.57472738 Ry
     estimated scf accuracy    <      67.86051491 Ry

     iteration # 14     ecut=    29.40 Ry     beta= 0.05
     Davidson diagonalization with overlap
     ethr =  1.00E-02,  avg # of iterations =  2.6

     negative rho (up, down):  3.304E-03 0.000E+00
 
     Adding external electric field

     Computed dipole along edir(3) : 
        Dipole               -1.8744 Ry au,         -4.7643 Debye
        Dipole field         -0.0035 Ry au, 
 
        Potential amp.        0.3279 Ry
        Total length         46.3494 bohr
 

     total cpu time spent up to now is      311.2 secs

     total energy              =   -2940.28956447 Ry
     estimated scf accuracy    <      24.41156037 Ry

     iteration # 15     ecut=    29.40 Ry     beta= 0.05
     Davidson diagonalization with overlap
     ethr =  6.13E-03,  avg # of iterations =  8.7

     negative rho (up, down):  3.271E-03 0.000E+00
 
     Adding external electric field

     Computed dipole along edir(3) : 
        Dipole               -1.8936 Ry au,         -4.8129 Debye
        Dipole field         -0.0036 Ry au, 
 
        Potential amp.        0.3312 Ry
        Total length         46.3494 bohr
 

     total cpu time spent up to now is      325.1 secs

     total energy              =   -2942.94854873 Ry
     estimated scf accuracy    <       4.89586747 Ry

     iteration # 16     ecut=    29.40 Ry     beta= 0.05
     Davidson diagonalization with overlap
     c_bands:  2 eigenvalues not converged
     c_bands:  1 eigenvalues not converged
     ethr =  1.23E-03,  avg # of iterations = 11.7

     negative rho (up, down):  3.196E-03 0.000E+00
 
     Adding external electric field

     Computed dipole along edir(3) : 
        Dipole               -2.1223 Ry au,         -5.3945 Debye
        Dipole field         -0.0040 Ry au, 
 
        Potential amp.        0.3713 Ry
        Total length         46.3494 bohr
 

     total cpu time spent up to now is      340.6 secs

     total energy              =   -2943.50516833 Ry
     estimated scf accuracy    <      29.07465784 Ry

     iteration # 17     ecut=    29.40 Ry     beta= 0.05
     Davidson diagonalization with overlap
     c_bands:  2 eigenvalues not converged
     ethr =  1.23E-03,  avg # of iterations =  7.7

     negative rho (up, down):  3.188E-03 0.000E+00
 
     Adding external electric field

     Computed dipole along edir(3) : 
        Dipole               -2.1148 Ry au,         -5.3753 Debye
        Dipole field         -0.0040 Ry au, 
 
        Potential amp.        0.3700 Ry
        Total length         46.3494 bohr
 

     total cpu time spent up to now is      354.4 secs

     total energy              =   -2943.93454320 Ry
     estimated scf accuracy    <      95.08373999 Ry

     iteration # 18     ecut=    29.40 Ry     beta= 0.05
     Davidson diagonalization with overlap
     ethr =  1.23E-03,  avg # of iterations =  1.7

     negative rho (up, down):  3.157E-03 0.000E+00
 
     Adding external electric field

     Computed dipole along edir(3) : 
        Dipole               -2.1254 Ry au,         -5.4022 Debye
        Dipole field         -0.0040 Ry au, 
 
        Potential amp.        0.3718 Ry
        Total length         46.3494 bohr
 

     total cpu time spent up to now is      364.6 secs

     total energy              =   -2943.81404841 Ry
     estimated scf accuracy    <      92.64304833 Ry

     iteration # 19     ecut=    29.40 Ry     beta= 0.05
     Davidson diagonalization with overlap
     ethr =  1.23E-03,  avg # of iterations =  1.2

     negative rho (up, down):  3.130E-03 0.000E+00
 
     Adding external electric field

     Computed dipole along edir(3) : 
        Dipole               -2.1681 Ry au,         -5.5108 Debye
        Dipole field         -0.0041 Ry au, 
 
        Potential amp.        0.3793 Ry
        Total length         46.3494 bohr
 

     total cpu time spent up to now is      374.5 secs

     total energy              =   -2943.77185085 Ry
     estimated scf accuracy    <      74.06327500 Ry

     iteration # 20     ecut=    29.40 Ry     beta= 0.05
     Davidson diagonalization with overlap
     ethr =  1.23E-03,  avg # of iterations =  1.1

     negative rho (up, down):  3.106E-03 0.000E+00
 
     Adding external electric field

     Computed dipole along edir(3) : 
        Dipole               -2.2276 Ry au,         -5.6619 Debye
        Dipole field         -0.0042 Ry au, 
 
        Potential amp.        0.3897 Ry
        Total length         46.3494 bohr
 

     total cpu time spent up to now is      384.4 secs

     total energy              =   -2943.67413344 Ry
     estimated scf accuracy    <      67.30975299 Ry

     iteration # 21     ecut=    29.40 Ry     beta= 0.05
     Davidson diagonalization with overlap
     ethr =  1.23E-03,  avg # of iterations =  1.1

     negative rho (up, down):  3.141E-03 0.000E+00
 
     Adding external electric field

     Computed dipole along edir(3) : 
        Dipole               -2.1840 Ry au,         -5.5512 Debye
        Dipole field         -0.0041 Ry au, 
 
        Potential amp.        0.3821 Ry
        Total length         46.3494 bohr
 

     total cpu time spent up to now is      394.2 secs

     total energy              =   -2943.72587473 Ry
     estimated scf accuracy    <      68.33376068 Ry

     iteration # 22     ecut=    29.40 Ry     beta= 0.05
     Davidson diagonalization with overlap
     ethr =  1.23E-03,  avg # of iterations =  1.1

     negative rho (up, down):  3.220E-03 0.000E+00
 
     Adding external electric field

     Computed dipole along edir(3) : 
        Dipole               -1.9479 Ry au,         -4.9511 Debye
        Dipole field         -0.0037 Ry au, 
 
        Potential amp.        0.3408 Ry
        Total length         46.3494 bohr
 

     total cpu time spent up to now is      404.1 secs

     total energy              =   -2943.56179086 Ry
     estimated scf accuracy    <      82.62676557 Ry

     iteration # 23     ecut=    29.40 Ry     beta= 0.05
     Davidson diagonalization with overlap
     ethr =  1.23E-03,  avg # of iterations =  1.2

     negative rho (up, down):  3.679E-03 0.000E+00
 
     Adding external electric field

     Computed dipole along edir(3) : 
        Dipole               -0.9352 Ry au,         -2.3771 Debye
        Dipole field         -0.0018 Ry au, 
 
        Potential amp.        0.1636 Ry
        Total length         46.3494 bohr
 

     total cpu time spent up to now is      414.1 secs

     total energy              =   -2943.37424320 Ry
     estimated scf accuracy    <      55.14428854 Ry

     iteration # 24     ecut=    29.40 Ry     beta= 0.05
     Davidson diagonalization with overlap
     ethr =  1.23E-03,  avg # of iterations =  1.0

     negative rho (up, down):  4.026E-03 0.000E+00
 
     Adding external electric field

     Computed dipole along edir(3) : 
        Dipole               -0.3607 Ry au,         -0.9167 Debye
        Dipole field         -0.0007 Ry au, 
 
        Potential amp.        0.0631 Ry
        Total length         46.3494 bohr
 

     total cpu time spent up to now is      423.9 secs

     total energy              =   -2943.24203711 Ry
     estimated scf accuracy    <      37.67567736 Ry

     iteration # 25     ecut=    29.40 Ry     beta= 0.05
     Davidson diagonalization with overlap
     ethr =  1.23E-03,  avg # of iterations =  1.0

     negative rho (up, down):  4.398E-03 0.000E+00
 
     Adding external electric field

     Computed dipole along edir(3) : 
        Dipole                0.1969 Ry au,          0.5004 Debye
        Dipole field          0.0004 Ry au, 
 
        Potential amp.       -0.0344 Ry
        Total length         46.3494 bohr
 

     total cpu time spent up to now is      433.6 secs

     total energy              =   -2943.05587533 Ry
     estimated scf accuracy    <      18.16879850 Ry

     iteration # 26     ecut=    29.40 Ry     beta= 0.05
     Davidson diagonalization with overlap
     ethr =  1.23E-03,  avg # of iterations =  2.7

     negative rho (up, down):  4.469E-03 0.000E+00
 
     Adding external electric field

     Computed dipole along edir(3) : 
        Dipole                0.2069 Ry au,          0.5258 Debye
        Dipole field          0.0004 Ry au, 
 
        Potential amp.       -0.0362 Ry
        Total length         46.3494 bohr
 

     total cpu time spent up to now is      444.0 secs

     total energy              =   -2942.98365321 Ry
     estimated scf accuracy    <       4.83565118 Ry

     iteration # 27     ecut=    29.40 Ry     beta= 0.05
     Davidson diagonalization with overlap
     ethr =  1.21E-03,  avg # of iterations =  2.0

     negative rho (up, down):  4.664E-03 0.000E+00
 
     Adding external electric field

     Computed dipole along edir(3) : 
        Dipole                0.4134 Ry au,          1.0508 Debye
        Dipole field          0.0008 Ry au, 
 
        Potential amp.       -0.0723 Ry
        Total length         46.3494 bohr
 

     total cpu time spent up to now is      454.3 secs

     total energy              =   -2942.96199832 Ry
     estimated scf accuracy    <       3.06232525 Ry

     iteration # 28     ecut=    29.40 Ry     beta= 0.05
     Davidson diagonalization with overlap
     ethr =  7.69E-04,  avg # of iterations =  1.4

     negative rho (up, down):  5.245E-03 0.000E+00
 
     Adding external electric field

     Computed dipole along edir(3) : 
        Dipole                0.9427 Ry au,          2.3962 Debye
        Dipole field          0.0018 Ry au, 
 
        Potential amp.       -0.1649 Ry
        Total length         46.3494 bohr
 

     total cpu time spent up to now is      464.4 secs

     total energy              =   -2942.88219702 Ry
     estimated scf accuracy    <       2.76949853 Ry

     iteration # 29     ecut=    29.40 Ry     beta= 0.05
     Davidson diagonalization with overlap
     ethr =  6.96E-04,  avg # of iterations =  3.0

     negative rho (up, down):  5.461E-03 0.000E+00
 
     Adding external electric field

     Computed dipole along edir(3) : 
        Dipole                1.1296 Ry au,          2.8711 Debye
        Dipole field          0.0021 Ry au, 
 
        Potential amp.       -0.1976 Ry
        Total length         46.3494 bohr
 

     total cpu time spent up to now is      475.1 secs

     total energy              =   -2942.86941488 Ry
     estimated scf accuracy    <       1.97096010 Ry

     iteration # 30     ecut=    29.40 Ry     beta= 0.05
     Davidson diagonalization with overlap
     ethr =  4.95E-04,  avg # of iterations =  4.8

     negative rho (up, down):  5.157E-03 0.000E+00
 
     Adding external electric field

     Computed dipole along edir(3) : 
        Dipole                0.9686 Ry au,          2.4619 Debye
        Dipole field          0.0018 Ry au, 
 
        Potential amp.       -0.1694 Ry
        Total length         46.3494 bohr
 

     total cpu time spent up to now is      486.3 secs

     total energy              =   -2942.87501728 Ry
     estimated scf accuracy    <       1.68224300 Ry

     iteration # 31     ecut=    29.40 Ry     beta= 0.05
     Davidson diagonalization with overlap
     ethr =  4.23E-04,  avg # of iterations =  1.5

     negative rho (up, down):  5.395E-03 0.000E+00
 
     Adding external electric field

     Computed dipole along edir(3) : 
        Dipole                1.2001 Ry au,          3.0504 Debye
        Dipole field          0.0023 Ry au, 
 
        Potential amp.       -0.2099 Ry
        Total length         46.3494 bohr
 

     total cpu time spent up to now is      496.5 secs

     total energy              =   -2942.78287124 Ry
     estimated scf accuracy    <       1.80761880 Ry

     iteration # 32     ecut=    29.40 Ry     beta= 0.05
     Davidson diagonalization with overlap
     c_bands:  1 eigenvalues not converged
     c_bands:  3 eigenvalues not converged
     c_bands:  1 eigenvalues not converged
     c_bands:  5 eigenvalues not converged
     c_bands:  5 eigenvalues not converged
     c_bands:  4 eigenvalues not converged
     c_bands:  2 eigenvalues not converged
     c_bands:  4 eigenvalues not converged
     ethr =  4.23E-04,  avg # of iterations = 24.0

     negative rho (up, down):  5.402E-03 0.000E+00
 
     Adding external electric field

     Computed dipole along edir(3) : 
        Dipole                1.2502 Ry au,          3.1777 Debye
        Dipole field          0.0024 Ry au, 
 
        Potential amp.       -0.2187 Ry
        Total length         46.3494 bohr
 

     total cpu time spent up to now is      518.1 secs

     total energy              =   -2942.86108506 Ry
     estimated scf accuracy    <       0.65935470 Ry

     iteration # 33     ecut=    29.40 Ry     beta= 0.05
     Davidson diagonalization with overlap
     c_bands:  3 eigenvalues not converged
     c_bands:  4 eigenvalues not converged
     ethr =  1.66E-04,  avg # of iterations = 14.7

     negative rho (up, down):  5.427E-03 0.000E+00
 
     Adding external electric field

     Computed dipole along edir(3) : 
        Dipole                1.2717 Ry au,          3.2324 Debye
        Dipole field          0.0024 Ry au, 
 
        Potential amp.       -0.2225 Ry
        Total length         46.3494 bohr
 

     total cpu time spent up to now is      532.9 secs

     total energy              =   -2942.86650348 Ry
     estimated scf accuracy    <       0.68232996 Ry

     iteration # 34     ecut=    29.40 Ry     beta= 0.05
     Davidson diagonalization with overlap
     ethr =  1.66E-04,  avg # of iterations =  5.4

     negative rho (up, down):  5.306E-03 0.000E+00
 
     Adding external electric field

     Computed dipole along edir(3) : 
        Dipole                1.1247 Ry au,          2.8587 Debye
        Dipole field          0.0021 Ry au, 
 
        Potential amp.       -0.1968 Ry
        Total length         46.3494 bohr
 

     total cpu time spent up to now is      544.0 secs

     total energy              =   -2942.80876536 Ry
     estimated scf accuracy    <       0.53429674 Ry

     iteration # 35     ecut=    29.40 Ry     beta= 0.05
     Davidson diagonalization with overlap
     c_bands:  1 eigenvalues not converged
     c_bands:  2 eigenvalues not converged
     c_bands:  4 eigenvalues not converged
     c_bands:  2 eigenvalues not converged
     c_bands:  1 eigenvalues not converged
     c_bands:  1 eigenvalues not converged
     ethr =  1.34E-04,  avg # of iterations = 19.0

     negative rho (up, down):  6.027E-03 0.000E+00
 
     Adding external electric field

     Computed dipole along edir(3) : 
        Dipole                1.5326 Ry au,          3.8954 Debye
        Dipole field          0.0029 Ry au, 
 
        Potential amp.       -0.2681 Ry
        Total length         46.3494 bohr
 

     total cpu time spent up to now is      561.2 secs

     total energy              =   -2942.78744166 Ry
     estimated scf accuracy    <       1.03189909 Ry

     iteration # 36     ecut=    29.40 Ry     beta= 0.05
     Davidson diagonalization with overlap
     c_bands:  4 eigenvalues not converged
     c_bands:  3 eigenvalues not converged
     c_bands:  4 eigenvalues not converged
     c_bands:  1 eigenvalues not converged
     c_bands:  1 eigenvalues not converged
     c_bands:  2 eigenvalues not converged
     c_bands:  3 eigenvalues not converged
     c_bands:  1 eigenvalues not converged
     ethr =  1.34E-04,  avg # of iterations = 21.1

     negative rho (up, down):  6.285E-03 0.000E+00
 
     Adding external electric field

     Computed dipole along edir(3) : 
        Dipole                1.5953 Ry au,          4.0549 Debye
        Dipole field          0.0030 Ry au, 
 
        Potential amp.       -0.2791 Ry
        Total length         46.3494 bohr
 

     total cpu time spent up to now is      580.9 secs

     total energy              =   -2942.88305897 Ry
     estimated scf accuracy    <       2.48324023 Ry

     iteration # 37     ecut=    29.40 Ry     beta= 0.05
     Davidson diagonalization with overlap
     ethr =  1.34E-04,  avg # of iterations =  2.4

     negative rho (up, down):  6.563E-03 0.000E+00
 
     Adding external electric field

     Computed dipole along edir(3) : 
        Dipole                1.6330 Ry au,          4.1507 Debye
        Dipole field          0.0031 Ry au, 
 
        Potential amp.       -0.2857 Ry
        Total length         46.3494 bohr
 

     total cpu time spent up to now is      591.3 secs

     total energy              =   -2942.87899757 Ry
     estimated scf accuracy    <       1.98558714 Ry

     iteration # 38     ecut=    29.40 Ry     beta= 0.05
     Davidson diagonalization with overlap
     ethr =  1.34E-04,  avg # of iterations =  1.3

     negative rho (up, down):  6.585E-03 0.000E+00
 
     Adding external electric field

     Computed dipole along edir(3) : 
        Dipole                1.4529 Ry au,          3.6928 Debye
        Dipole field          0.0027 Ry au, 
 
        Potential amp.       -0.2542 Ry
        Total length         46.3494 bohr
 

     total cpu time spent up to now is      601.3 secs

     total energy              =   -2942.80280535 Ry
     estimated scf accuracy    <       1.71696356 Ry

     iteration # 39     ecut=    29.40 Ry     beta= 0.05
     Davidson diagonalization with overlap
     c_bands:  4 eigenvalues not converged
     ethr =  1.34E-04,  avg # of iterations = 11.0

     negative rho (up, down):  6.808E-03 0.000E+00
 
     Adding external electric field

     Computed dipole along edir(3) : 
        Dipole                1.4918 Ry au,          3.7917 Debye
        Dipole field          0.0028 Ry au, 
 
        Potential amp.       -0.2610 Ry
        Total length         46.3494 bohr
 

     total cpu time spent up to now is      614.3 secs

     total energy              =   -2942.84259934 Ry
     estimated scf accuracy    <       0.17124212 Ry

     iteration # 40     ecut=    29.40 Ry     beta= 0.05
     Davidson diagonalization with overlap
     c_bands:  5 eigenvalues not converged
     c_bands:  4 eigenvalues not converged
     c_bands:  3 eigenvalues not converged
     c_bands:  1 eigenvalues not converged
     c_bands:  1 eigenvalues not converged
     c_bands:  2 eigenvalues not converged
     c_bands:  4 eigenvalues not converged
     c_bands:  3 eigenvalues not converged
     c_bands:  2 eigenvalues not converged
     ethr =  4.30E-05,  avg # of iterations = 19.9

     negative rho (up, down):  8.060E-03 0.000E+00
 
     Adding external electric field

     Computed dipole along edir(3) : 
        Dipole                1.6059 Ry au,          4.0818 Debye
        Dipole field          0.0030 Ry au, 
 
        Potential amp.       -0.2809 Ry
        Total length         46.3494 bohr
 

     total cpu time spent up to now is      632.6 secs

     total energy              =   -2942.83496117 Ry
     estimated scf accuracy    <       0.16580085 Ry

     iteration # 41     ecut=    29.40 Ry     beta= 0.05
     Davidson diagonalization with overlap
     c_bands:  1 eigenvalues not converged
     c_bands:  1 eigenvalues not converged
     ethr =  4.17E-05,  avg # of iterations = 13.9

     negative rho (up, down):  9.087E-03 0.000E+00
 
     Adding external electric field

     Computed dipole along edir(3) : 
        Dipole                1.5894 Ry au,          4.0398 Debye
        Dipole field          0.0030 Ry au, 
 
        Potential amp.       -0.2780 Ry
        Total length         46.3494 bohr
 

     total cpu time spent up to now is      646.8 secs

     total energy              =   -2942.84151676 Ry
     estimated scf accuracy    <       0.30210530 Ry

     iteration # 42     ecut=    29.40 Ry     beta= 0.05
     Davidson diagonalization with overlap
     ethr =  4.17E-05,  avg # of iterations =  2.0

     negative rho (up, down):  1.013E-02 0.000E+00
 
     Adding external electric field

     Computed dipole along edir(3) : 
        Dipole                1.5567 Ry au,          3.9568 Debye
        Dipole field          0.0029 Ry au, 
 
        Potential amp.       -0.2723 Ry
        Total length         46.3494 bohr
 

     total cpu time spent up to now is      657.1 secs

     total energy              =   -2942.84381170 Ry
     estimated scf accuracy    <       0.02280799 Ry

     iteration # 43     ecut=    29.40 Ry     beta= 0.05
     Davidson diagonalization with overlap
     c_bands:  2 eigenvalues not converged
     c_bands:  2 eigenvalues not converged
     c_bands:  1 eigenvalues not converged
     c_bands:  3 eigenvalues not converged
     c_bands:  1 eigenvalues not converged
     c_bands:  1 eigenvalues not converged
     c_bands:  3 eigenvalues not converged
     ethr =  5.73E-06,  avg # of iterations = 18.9

     negative rho (up, down):  9.736E-03 0.000E+00
 
     Adding external electric field

     Computed dipole along edir(3) : 
        Dipole                1.5317 Ry au,          3.8932 Debye
        Dipole field          0.0029 Ry au, 
 
        Potential amp.       -0.2679 Ry
        Total length         46.3494 bohr
 

     total cpu time spent up to now is      675.5 secs

     total energy              =   -2942.84450094 Ry
     estimated scf accuracy    <       0.03001363 Ry

     iteration # 44     ecut=    29.40 Ry     beta= 0.05
     Davidson diagonalization with overlap
     c_bands:  1 eigenvalues not converged
     c_bands:  1 eigenvalues not converged
     ethr =  5.73E-06,  avg # of iterations =  6.1

     negative rho (up, down):  9.482E-03 0.000E+00
 
     Adding external electric field

     Computed dipole along edir(3) : 
        Dipole                1.4490 Ry au,          3.6831 Debye
        Dipole field          0.0027 Ry au, 
 
        Potential amp.       -0.2535 Ry
        Total length         46.3494 bohr
 

     total cpu time spent up to now is      687.0 secs

     total energy              =   -2942.84239810 Ry
     estimated scf accuracy    <       0.01670066 Ry

     iteration # 45     ecut=    29.40 Ry     beta= 0.05
     Davidson diagonalization with overlap
     c_bands:  1 eigenvalues not converged
     c_bands:  1 eigenvalues not converged
     c_bands:  2 eigenvalues not converged
     c_bands:  1 eigenvalues not converged
     ethr =  4.20E-06,  avg # of iterations = 17.1

     negative rho (up, down):  1.101E-02 0.000E+00
 
     Adding external electric field

     Computed dipole along edir(3) : 
        Dipole                1.4974 Ry au,          3.8059 Debye
        Dipole field          0.0028 Ry au, 
 
        Potential amp.       -0.2619 Ry
        Total length         46.3494 bohr
 

     total cpu time spent up to now is      704.9 secs

     total energy              =   -2942.84287889 Ry
     estimated scf accuracy    <       0.00848567 Ry

     iteration # 46     ecut=    29.40 Ry     beta= 0.05
     Davidson diagonalization with overlap
     c_bands:  3 eigenvalues not converged
     c_bands:  1 eigenvalues not converged
     c_bands:  1 eigenvalues not converged
     ethr =  2.13E-06,  avg # of iterations = 15.6

     negative rho (up, down):  1.055E-02 0.000E+00
 
     Adding external electric field

     Computed dipole along edir(3) : 
        Dipole                1.4719 Ry au,          3.7411 Debye
        Dipole field          0.0028 Ry au, 
 
        Potential amp.       -0.2575 Ry
        Total length         46.3494 bohr
 

     total cpu time spent up to now is      722.3 secs

     total energy              =   -2942.84388079 Ry
     estimated scf accuracy    <       0.00543655 Ry

     iteration # 47     ecut=    29.40 Ry     beta= 0.05
     Davidson diagonalization with overlap
     c_bands:  1 eigenvalues not converged
     ethr =  1.37E-06,  avg # of iterations =  5.6

     negative rho (up, down):  1.039E-02 0.000E+00
 
     Adding external electric field

     Computed dipole along edir(3) : 
        Dipole                1.4373 Ry au,          3.6533 Debye
        Dipole field          0.0027 Ry au, 
 
        Potential amp.       -0.2514 Ry
        Total length         46.3494 bohr
 

     total cpu time spent up to now is      733.8 secs

     total energy              =   -2942.84344480 Ry
     estimated scf accuracy    <       0.00540901 Ry

     iteration # 48     ecut=    29.40 Ry     beta= 0.05
     Davidson diagonalization with overlap
     ethr =  1.36E-06,  avg # of iterations = 11.5

     negative rho (up, down):  1.188E-02 0.000E+00
 
     Adding external electric field

     Computed dipole along edir(3) : 
        Dipole                1.4471 Ry au,          3.6781 Debye
        Dipole field          0.0027 Ry au, 
 
        Potential amp.       -0.2531 Ry
        Total length         46.3494 bohr
 

     total cpu time spent up to now is      747.6 secs

     total energy              =   -2942.84353528 Ry
     estimated scf accuracy    <       0.00149337 Ry

     iteration # 49     ecut=    29.40 Ry     beta= 0.05
     Davidson diagonalization with overlap
     c_bands:  1 eigenvalues not converged
     c_bands:  2 eigenvalues not converged
     c_bands:  1 eigenvalues not converged
     ethr =  3.75E-07,  avg # of iterations = 15.5

     negative rho (up, down):  1.299E-02 0.000E+00
 
     Adding external electric field

     Computed dipole along edir(3) : 
        Dipole                1.4548 Ry au,          3.6978 Debye
        Dipole field          0.0027 Ry au, 
 
        Potential amp.       -0.2545 Ry
        Total length         46.3494 bohr
 

     total cpu time spent up to now is      765.7 secs

     total energy              =   -2942.84354345 Ry
     estimated scf accuracy    <       0.00146981 Ry

     iteration # 50     ecut=    29.40 Ry     beta= 0.05
     Davidson diagonalization with overlap
     ethr =  3.69E-07,  avg # of iterations =  8.3

     negative rho (up, down):  1.339E-02 0.000E+00
 
     Adding external electric field

     Computed dipole along edir(3) : 
        Dipole                1.4600 Ry au,          3.7108 Debye
        Dipole field          0.0028 Ry au, 
 
        Potential amp.       -0.2554 Ry
        Total length         46.3494 bohr
 

     total cpu time spent up to now is      778.6 secs

     total energy              =   -2942.84369059 Ry
     estimated scf accuracy    <       0.00024460 Ry

     iteration # 51     ecut=    29.40 Ry     beta= 0.05
     Davidson diagonalization with overlap
     ethr =  6.15E-08,  avg # of iterations = 14.3

     negative rho (up, down):  1.356E-02 0.000E+00
 
     Adding external electric field

     Computed dipole along edir(3) : 
        Dipole                1.4619 Ry au,          3.7157 Debye
        Dipole field          0.0028 Ry au, 
 
        Potential amp.       -0.2557 Ry
        Total length         46.3494 bohr
 

     total cpu time spent up to now is      797.6 secs

     total energy              =   -2942.84373782 Ry
     estimated scf accuracy    <       0.00021044 Ry

     iteration # 52     ecut=    29.40 Ry     beta= 0.05
     Davidson diagonalization with overlap
     ethr =  5.29E-08,  avg # of iterations =  1.6

     negative rho (up, down):  1.425E-02 0.000E+00
 
     Adding external electric field

     Computed dipole along edir(3) : 
        Dipole                1.4820 Ry au,          3.7668 Debye
        Dipole field          0.0028 Ry au, 
 
        Potential amp.       -0.2592 Ry
        Total length         46.3494 bohr
 

     total cpu time spent up to now is      807.9 secs

     total energy              =   -2942.84371918 Ry
     estimated scf accuracy    <       0.00015193 Ry

     iteration # 53     ecut=    29.40 Ry     beta= 0.05
     Davidson diagonalization with overlap
     c_bands:  2 eigenvalues not converged
     c_bands:  3 eigenvalues not converged
     ethr =  3.82E-08,  avg # of iterations = 13.8

     negative rho (up, down):  1.439E-02 0.000E+00
 
     Adding external electric field

     Computed dipole along edir(3) : 
        Dipole                1.4822 Ry au,          3.7674 Debye
        Dipole field          0.0028 Ry au, 
 
        Potential amp.       -0.2593 Ry
        Total length         46.3494 bohr
 

     total cpu time spent up to now is      827.3 secs

     total energy              =   -2942.84375034 Ry
     estimated scf accuracy    <       0.00015194 Ry

     iteration # 54     ecut=    29.40 Ry     beta= 0.05
     Davidson diagonalization with overlap
     ethr =  3.82E-08,  avg # of iterations =  8.4

     negative rho (up, down):  1.447E-02 0.000E+00
 
     Adding external electric field

     Computed dipole along edir(3) : 
        Dipole                1.4854 Ry au,          3.7755 Debye
        Dipole field          0.0028 Ry au, 
 
        Potential amp.       -0.2598 Ry
        Total length         46.3494 bohr
 

     total cpu time spent up to now is      841.0 secs

     total energy              =   -2942.84377342 Ry
     estimated scf accuracy    <       0.00004148 Ry

     iteration # 55     ecut=    29.40 Ry     beta= 0.05
     Davidson diagonalization with overlap
     ethr =  1.04E-08,  avg # of iterations = 11.7

     negative rho (up, down):  1.473E-02 0.000E+00
 
     Adding external electric field

     Computed dipole along edir(3) : 
        Dipole                1.4934 Ry au,          3.7958 Debye
        Dipole field          0.0028 Ry au, 
 
        Potential amp.       -0.2612 Ry
        Total length         46.3494 bohr
 

     total cpu time spent up to now is      855.7 secs

     total energy              =   -2942.84378513 Ry
     estimated scf accuracy    <       0.00002483 Ry

     iteration # 56     ecut=    29.40 Ry     beta= 0.05
     Davidson diagonalization with overlap
     ethr =  6.24E-09,  avg # of iterations = 12.6

     negative rho (up, down):  1.475E-02 0.000E+00
 
     Adding external electric field

     Computed dipole along edir(3) : 
        Dipole                1.4935 Ry au,          3.7960 Debye
        Dipole field          0.0028 Ry au, 
 
        Potential amp.       -0.2613 Ry
        Total length         46.3494 bohr
 

     total cpu time spent up to now is      873.9 secs

     total energy              =   -2942.84379606 Ry
     estimated scf accuracy    <       0.00002585 Ry

     iteration # 57     ecut=    29.40 Ry     beta= 0.05
     Davidson diagonalization with overlap
     ethr =  6.24E-09,  avg # of iterations =  8.9

     negative rho (up, down):  1.477E-02 0.000E+00
 
     Adding external electric field

     Computed dipole along edir(3) : 
        Dipole                1.4936 Ry au,          3.7963 Debye
        Dipole field          0.0028 Ry au, 
 
        Potential amp.       -0.2613 Ry
        Total length         46.3494 bohr
 

     total cpu time spent up to now is      887.3 secs

     total energy              =   -2942.84380634 Ry
     estimated scf accuracy    <       0.00000948 Ry

     iteration # 58     ecut=    29.40 Ry     beta= 0.05
     Davidson diagonalization with overlap
     ethr =  2.38E-09,  avg # of iterations = 14.1

     negative rho (up, down):  1.484E-02 0.000E+00
 
     Adding external electric field

     Computed dipole along edir(3) : 
        Dipole                1.4949 Ry au,          3.7998 Debye
        Dipole field          0.0028 Ry au, 
 
        Potential amp.       -0.2615 Ry
        Total length         46.3494 bohr
 

     total cpu time spent up to now is      903.2 secs

     total energy              =   -2942.84381370 Ry
     estimated scf accuracy    <       0.00000841 Ry

     iteration # 59     ecut=    29.40 Ry     beta= 0.05
     Davidson diagonalization with overlap
     ethr =  2.11E-09,  avg # of iterations = 11.2

     negative rho (up, down):  1.491E-02 0.000E+00
 
     Adding external electric field

     Computed dipole along edir(3) : 
        Dipole                1.4957 Ry au,          3.8017 Debye
        Dipole field          0.0028 Ry au, 
 
        Potential amp.       -0.2617 Ry
        Total length         46.3494 bohr
 

     total cpu time spent up to now is      917.4 secs

     total energy              =   -2942.84382129 Ry
     estimated scf accuracy    <       0.00000427 Ry

     iteration # 60     ecut=    29.40 Ry     beta= 0.05
     Davidson diagonalization with overlap
     ethr =  1.07E-09,  avg # of iterations = 11.0

     negative rho (up, down):  1.495E-02 0.000E+00
 
     Adding external electric field

     Computed dipole along edir(3) : 
        Dipole                1.4954 Ry au,          3.8009 Debye
        Dipole field          0.0028 Ry au, 
 
        Potential amp.       -0.2616 Ry
        Total length         46.3494 bohr
 

     total cpu time spent up to now is      932.3 secs

     total energy              =   -2942.84382771 Ry
     estimated scf accuracy    <       0.00000274 Ry

     iteration # 61     ecut=    29.40 Ry     beta= 0.05
     Davidson diagonalization with overlap
     c_bands:  1 eigenvalues not converged
     ethr =  6.89E-10,  avg # of iterations = 13.2

     negative rho (up, down):  1.498E-02 0.000E+00
 
     Adding external electric field

     Computed dipole along edir(3) : 
        Dipole                1.4953 Ry au,          3.8007 Debye
        Dipole field          0.0028 Ry au, 
 
        Potential amp.       -0.2616 Ry
        Total length         46.3494 bohr
 

     total cpu time spent up to now is      948.9 secs

     total energy              =   -2942.84383353 Ry
     estimated scf accuracy    <       0.00000149 Ry

     iteration # 62     ecut=    29.40 Ry     beta= 0.05
     Davidson diagonalization with overlap
     ethr =  3.74E-10,  avg # of iterations =  4.9

     negative rho (up, down):  1.505E-02 0.000E+00
 
     Adding external electric field

     Computed dipole along edir(3) : 
        Dipole                1.4950 Ry au,          3.7999 Debye
        Dipole field          0.0028 Ry au, 
 
        Potential amp.       -0.2615 Ry
        Total length         46.3494 bohr
 

     total cpu time spent up to now is      960.2 secs

     total energy              =   -2942.84383848 Ry
     estimated scf accuracy    <       0.00000102 Ry

     iteration # 63     ecut=    29.40 Ry     beta= 0.05
     Davidson diagonalization with overlap
     ethr =  2.56E-10,  avg # of iterations = 13.3

     negative rho (up, down):  1.507E-02 0.000E+00
 
     Adding external electric field

     Computed dipole along edir(3) : 
        Dipole                1.4952 Ry au,          3.8003 Debye
        Dipole field          0.0028 Ry au, 
 
        Potential amp.       -0.2616 Ry
        Total length         46.3494 bohr
 

     total cpu time spent up to now is      979.3 secs

     total energy              =   -2942.84384310 Ry
     estimated scf accuracy    <       0.00000103 Ry

     iteration # 64     ecut=    29.40 Ry     beta= 0.05
     Davidson diagonalization with overlap
     ethr =  2.56E-10,  avg # of iterations =  7.1

     negative rho (up, down):  1.507E-02 0.000E+00
 
     Adding external electric field

     Computed dipole along edir(3) : 
        Dipole                1.4952 Ry au,          3.8003 Debye
        Dipole field          0.0028 Ry au, 
 
        Potential amp.       -0.2616 Ry
        Total length         46.3494 bohr
 

     total cpu time spent up to now is      991.4 secs

     total energy              =   -2942.84384695 Ry
     estimated scf accuracy    <       0.00000073 Ry

     iteration # 65     ecut=    29.40 Ry     beta= 0.05
     Davidson diagonalization with overlap
     ethr =  1.82E-10,  avg # of iterations = 11.1

     negative rho (up, down):  1.508E-02 0.000E+00
 
     Adding external electric field

     Computed dipole along edir(3) : 
        Dipole                1.4951 Ry au,          3.8003 Debye
        Dipole field          0.0028 Ry au, 
 
        Potential amp.       -0.2616 Ry
        Total length         46.3494 bohr
 

     total cpu time spent up to now is     1005.9 secs

     total energy              =   -2942.84385057 Ry
     estimated scf accuracy    <       0.00000030 Ry

     iteration # 66     ecut=    29.40 Ry     beta= 0.05
     Davidson diagonalization with overlap
     ethr =  7.44E-11,  avg # of iterations =  6.3

     negative rho (up, down):  1.509E-02 0.000E+00
 
     Adding external electric field

     Computed dipole along edir(3) : 
        Dipole                1.4952 Ry au,          3.8004 Debye
        Dipole field          0.0028 Ry au, 
 
        Potential amp.       -0.2616 Ry
        Total length         46.3494 bohr
 

     total cpu time spent up to now is     1018.0 secs

     total energy              =   -2942.84385377 Ry
     estimated scf accuracy    <       0.00000024 Ry

     iteration # 67     ecut=    29.40 Ry     beta= 0.05
     Davidson diagonalization with overlap
     c_bands:  1 eigenvalues not converged
     c_bands:  2 eigenvalues not converged
     ethr =  5.95E-11,  avg # of iterations = 14.7

     negative rho (up, down):  1.510E-02 0.000E+00
 
     Adding external electric field

     Computed dipole along edir(3) : 
        Dipole                1.4953 Ry au,          3.8008 Debye
        Dipole field          0.0028 Ry au, 
 
        Potential amp.       -0.2616 Ry
        Total length         46.3494 bohr
 

     total cpu time spent up to now is     1034.3 secs

     total energy              =   -2942.84385666 Ry
     estimated scf accuracy    <       0.00000019 Ry

     iteration # 68     ecut=    29.40 Ry     beta= 0.05
     Davidson diagonalization with overlap
     c_bands:  1 eigenvalues not converged
     ethr =  4.89E-11,  avg # of iterations = 11.4

     negative rho (up, down):  1.510E-02 0.000E+00
 
     Adding external electric field

     Computed dipole along edir(3) : 
        Dipole                1.4954 Ry au,          3.8010 Debye
        Dipole field          0.0028 Ry au, 
 
        Potential amp.       -0.2616 Ry
        Total length         46.3494 bohr
 

     total cpu time spent up to now is     1048.7 secs

     total energy              =   -2942.84385926 Ry
     estimated scf accuracy    <       0.00000011 Ry

     iteration # 69     ecut=    29.40 Ry     beta= 0.05
     Davidson diagonalization with overlap
     ethr =  2.74E-11,  avg # of iterations = 15.2

     negative rho (up, down):  1.510E-02 0.000E+00
 
     Adding external electric field

     Computed dipole along edir(3) : 
        Dipole                1.4954 Ry au,          3.8008 Debye
        Dipole field          0.0028 Ry au, 
 
        Potential amp.       -0.2616 Ry
        Total length         46.3494 bohr
 

     total cpu time spent up to now is     1065.2 secs

     total energy              =   -2942.84386161 Ry
     estimated scf accuracy    <       0.00000010 Ry

     iteration # 70     ecut=    29.40 Ry     beta= 0.05
     Davidson diagonalization with overlap
     ethr =  2.43E-11,  avg # of iterations =  8.6

     negative rho (up, down):  1.512E-02 0.000E+00
 
     Adding external electric field

     Computed dipole along edir(3) : 
        Dipole                1.4948 Ry au,          3.7995 Debye
        Dipole field          0.0028 Ry au, 
 
        Potential amp.       -0.2615 Ry
        Total length         46.3494 bohr
 

     total cpu time spent up to now is     1078.2 secs

     End of self-consistent calculation

          k = 0.0000 0.0000 0.0000 ( 18029 PWs)   bands (ev):

   -55.2021 -55.1649 -55.1542 -55.1253 -55.1201 -55.0833 -55.0802 -55.0453
   -55.0261 -55.0132 -54.9917 -54.9869 -54.9533 -54.8565 -54.1865 -54.1524
   -31.7684 -31.6521 -31.6471 -31.5683 -31.5154 -31.5143 -31.5116 -31.4930
   -31.4431 -31.4396 -31.4117 -31.4095 -31.3991 -31.3822 -31.3693 -31.3636
   -31.3565 -31.3467 -31.3394 -31.3225 -31.3068 -31.3040 -31.2723 -31.2685
   -31.2578 -31.2569 -31.2382 -31.2288 -31.2114 -31.2106 -31.2064 -31.1858
   -31.1856 -31.1822 -31.1754 -31.1728 -31.1395 -31.1299 -31.1153 -31.0983
   -31.0697 -31.0503 -30.5961 -30.5014 -30.4794 -30.4123 -30.3255 -30.2147
   -17.9584 -16.0356 -15.7732 -15.6279 -15.5157 -15.4044 -15.2849 -15.2541
   -15.1343 -15.0583 -14.9243 -14.8980 -14.8757 -14.8520 -14.8401 -14.8274
   -14.7517 -14.7452 -14.7293 -14.7010 -14.6990 -14.6539 -14.6440 -14.6047
   -14.5797 -14.5586 -14.4539 -14.3656 -14.2917 -14.0750 -13.4372 -12.6893
   -12.5718  -9.6908  -6.5963  -6.0821  -4.5881  -3.3738  -3.2476  -3.2258
    -3.1386  -3.1039  -3.0965  -2.9901  -2.9453  -2.7922  -2.6494  -2.6239
    -2.4933  -2.4182  -2.4017  -2.3774  -2.2476  -2.2125  -2.1613  -2.1223
    -2.0629  -2.0328  -2.0089  -1.9932  -1.9620  -1.9529  -1.9279  -1.8386
    -1.7793  -1.6862  -1.6688  -1.6016  -1.5935  -1.5609  -1.5399  -1.4946
    -1.4843  -1.4346  -1.4273  -1.4148  -1.3948  -1.2660  -1.2233  -1.1134
    -1.0523  -0.9647  -0.8439  -0.8038  -0.7898  -0.6989  -0.6901  -0.6580
    -0.5818  -0.5787  -0.5480  -0.4397  -0.3747  -0.3112  -0.2523  -0.2258
    -0.1928  -0.1153  -0.0243   0.0117   0.0284   0.0515   0.1517   0.1867
     0.2423   0.3092   0.3207   0.3340   0.4137   0.4548   0.5300   0.5665
     0.5842   0.6729   0.6994   0.7272   0.7277   0.7655   0.7798   0.8194
     0.8682   0.8950   0.9814   1.0469   1.1027   1.3473   1.3997   1.4057
     1.7318   1.7396   1.8360   2.0195   2.4127   2.4611   3.8944   3.9633
     4.0389   4.0440   4.0664   4.1302   4.3681   4.3912   4.4001   4.4023
     4.4289

          k = 0.0000 0.0419 0.0000 ( 17933 PWs)   bands (ev):

   -55.1970 -55.1699 -55.1491 -55.1250 -55.1247 -55.0812 -55.0752 -55.0502
   -55.0211 -55.0153 -54.9966 -54.9819 -54.9581 -54.8570 -54.1814 -54.1573
   -31.7114 -31.6164 -31.5931 -31.5137 -31.5027 -31.4622 -31.4613 -31.4496
   -31.4476 -31.4381 -31.4309 -31.4004 -31.3953 -31.3923 -31.3752 -31.3728
   -31.3569 -31.3491 -31.3422 -31.3251 -31.3080 -31.3078 -31.2929 -31.2722
   -31.2526 -31.2516 -31.2466 -31.2394 -31.2323 -31.2290 -31.2252 -31.2180
   -31.1955 -31.1934 -31.1846 -31.1770 -31.1721 -31.1679 -31.1525 -31.1255
   -31.0871 -31.0682 -30.5418 -30.4980 -30.4823 -30.3997 -30.3381 -30.2719
   -17.9570 -15.9064 -15.6577 -15.5338 -15.4435 -15.2979 -15.2432 -15.2174
   -15.1141 -15.0641 -15.0185 -14.9485 -14.8934 -14.8823 -14.8219 -14.8095
   -14.7814 -14.7684 -14.7204 -14.7050 -14.6896 -14.6879 -14.6623 -14.6395
   -14.5984 -14.5759 -14.5095 -14.4206 -14.3515 -14.1944 -13.4380 -12.6928
   -12.6110  -9.7007  -6.5887  -6.0772  -4.5782  -3.2336  -3.1824  -3.0587
    -2.9877  -2.9627  -2.9452  -2.9198  -2.8135  -2.5752  -2.5557  -2.5194
    -2.4484  -2.3784  -2.3525  -2.3062  -2.2842  -2.2239  -2.2172  -2.1810
    -2.1614  -2.1436  -2.1014  -2.0763  -2.0042  -1.9870  -1.9528  -1.9267
    -1.8794  -1.8210  -1.8007  -1.7621  -1.7525  -1.7056  -1.6823  -1.6304
    -1.5123  -1.5031  -1.3749  -1.3428  -1.1973  -1.1611  -1.1337  -1.0189
    -0.9702  -0.9420  -0.8834  -0.7862  -0.6638  -0.5880  -0.5513  -0.5356
    -0.5271  -0.4419  -0.4102  -0.3759  -0.3713  -0.2331  -0.2141  -0.2038
    -0.1365  -0.1264  -0.0489  -0.0365  -0.0264  -0.0055   0.0811   0.1688
     0.1927   0.1947   0.2805   0.2863   0.3465   0.3908   0.4409   0.5210
     0.5304   0.5451   0.5784   0.6023   0.6251   0.7286   0.7488   0.7946
     0.8248   0.9019   0.9750   1.0525   1.0905   1.1034   1.1858   1.2677
     1.4436   1.6063   2.0193   2.0942   2.3676   2.3713   4.0905   4.0999
     4.1297   4.1849   4.2670   4.2736   4.3090   4.3278   4.3784   4.3957
     4.4638

          k = 0.0000-0.0839 0.0000 ( 17884 PWs)   bands (ev):

   -55.1883 -55.1785 -55.1372 -55.1369 -55.1240 -55.0789 -55.0657 -55.0597
   -55.0175 -55.0104 -55.0073 -54.9702 -54.9697 -54.8575 -54.1695 -54.1691
   -31.5760 -31.5749 -31.5682 -31.4837 -31.4607 -31.4605 -31.4585 -31.4282
   -31.4282 -31.4003 -31.3882 -31.3881 -31.3757 -31.3738 -31.3726 -31.3642
   -31.3495 -31.3437 -31.3411 -31.3341 -31.3308 -31.3267 -31.2942 -31.2802
   -31.2767 -31.2725 -31.2723 -31.2693 -31.2593 -31.2589 -31.2586 -31.2434
   -31.2404 -31.2383 -31.2325 -31.2012 -31.1687 -31.1662 -31.1510 -31.1508
   -31.1271 -31.0669 -30.4901 -30.4897 -30.4088 -30.4085 -30.3690 -30.3688
   -17.9556 -15.6537 -15.5378 -15.4067 -15.3492 -15.3031 -15.2117 -15.2050
   -15.1016 -15.0703 -15.0611 -15.0269 -14.9891 -14.9585 -14.8226 -14.8149
   -14.8005 -14.7984 -14.7458 -14.6778 -14.6540 -14.6328 -14.6166 -14.6127
   -14.6052 -14.5620 -14.5476 -14.4975 -14.4934 -14.3976 -13.4386 -12.6737
   -12.6736  -9.7106  -6.5818  -6.0724  -4.5691  -3.2242  -2.9469  -2.7700
    -2.7368  -2.6877  -2.6490  -2.6302  -2.6185  -2.6130  -2.5566  -2.5210
    -2.4779  -2.4760  -2.4064  -2.4050  -2.3585  -2.3536  -2.3227  -2.2623
    -2.2095  -2.1888  -2.1487  -2.0925  -2.0741  -2.0588  -2.0381  -2.0286
    -1.9376  -1.9200  -1.8394  -1.8187  -1.7990  -1.6636  -1.6329  -1.6023
    -1.5755  -1.3758  -1.3102  -1.2601  -1.1475  -1.1172  -1.0175  -0.9786
    -0.9657  -0.8321  -0.7267  -0.7116  -0.7026  -0.6663  -0.6532  -0.6233
    -0.5931  -0.5770  -0.5212  -0.4372  -0.4157  -0.3712  -0.2775  -0.2658
    -0.0497  -0.0294   0.0177   0.0463   0.0858   0.1488   0.1718   0.1861
     0.1878   0.2393   0.2753   0.3144   0.3196   0.3634   0.3972   0.4136
     0.4311   0.4506   0.4817   0.5335   0.5745   0.5835   0.5841   0.6102
     0.6386   0.9337   0.9913   1.0042   1.0088   1.0627   1.1545   1.1890
     1.3512   1.3588   2.1610   2.1615   2.3032   2.3034   4.1527   4.1633
     4.2051   4.2195   4.2996   4.3311   4.3755   4.3787   4.4702   4.4816
     4.4931

          k = 0.0380 0.0000 0.0000 ( 17913 PWs)   bands (ev):

   -55.2019 -55.1648 -55.1541 -55.1252 -55.1200 -55.0833 -55.0801 -55.0452
   -55.0259 -55.0131 -54.9916 -54.9870 -54.9532 -54.8564 -54.1864 -54.1523
   -31.7685 -31.6521 -31.6480 -31.5737 -31.5193 -31.5159 -31.5135 -31.4933
   -31.4428 -31.4395 -31.4096 -31.3991 -31.3946 -31.3820 -31.3692 -31.3561
   -31.3483 -31.3462 -31.3329 -31.3052 -31.3039 -31.3015 -31.2803 -31.2752
   -31.2682 -31.2566 -31.2381 -31.2288 -31.2111 -31.2099 -31.1990 -31.1946
   -31.1857 -31.1852 -31.1821 -31.1752 -31.1382 -31.1295 -31.1151 -31.0987
   -31.0721 -31.0503 -30.5955 -30.5049 -30.4773 -30.4121 -30.3254 -30.2145
   -17.9581 -15.9557 -15.6865 -15.6240 -15.4761 -15.3118 -15.2904 -15.2544
   -15.1540 -15.0619 -14.9947 -14.9870 -14.9509 -14.9087 -14.9007 -14.8730
   -14.8402 -14.8022 -14.7235 -14.7009 -14.6493 -14.6099 -14.5881 -14.5732
   -14.5287 -14.4634 -14.4406 -14.4250 -14.3779 -14.0732 -13.4383 -12.6859
   -12.5715  -9.6887  -6.5963  -6.0872  -4.5851  -3.2521  -3.2374  -3.1112
    -2.9976  -2.9722  -2.9027  -2.8523  -2.8088  -2.7712  -2.7355  -2.6530
    -2.6271  -2.5454  -2.4943  -2.3564  -2.2799  -2.2693  -2.1945  -2.1414
    -2.0062  -1.9849  -1.9708  -1.9188  -1.8775  -1.8670  -1.8121  -1.7929
    -1.7281  -1.7080  -1.6097  -1.5758  -1.5570  -1.5420  -1.5167  -1.5077
    -1.4458  -1.3906  -1.3353  -1.2968  -1.2669  -1.2106  -1.1614  -1.1401
    -1.0101  -0.9950  -0.8754  -0.8386  -0.8126  -0.7500  -0.7171  -0.6657
    -0.6183  -0.6150  -0.5603  -0.5531  -0.5261  -0.3013  -0.2670  -0.2164
    -0.1479  -0.0984  -0.0868  -0.0608  -0.0362   0.0983   0.1042   0.1563
     0.1890   0.2165   0.2841   0.3223   0.3439   0.4033   0.4503   0.4846
     0.5235   0.5318   0.5557   0.6129   0.6504   0.7198   0.7411   0.7626
     0.8022   0.8218   0.8982   0.9774   1.0313   1.1390   1.2237   1.4576
     1.5926   1.7450   1.8479   1.9883   2.3000   2.3783   3.9101   3.9980
     4.1552   4.1906   4.2269   4.2853   4.3345   4.3492   4.3843   4.3971
     4.4062

          k = 0.0380 0.0419 0.0000 ( 17878 PWs)   bands (ev):

   -55.1969 -55.1698 -55.1491 -55.1250 -55.1246 -55.0812 -55.0752 -55.0502
   -55.0209 -55.0152 -54.9966 -54.9820 -54.9581 -54.8569 -54.1813 -54.1573
   -31.7115 -31.6165 -31.5939 -31.5201 -31.5026 -31.4664 -31.4652 -31.4500
   -31.4478 -31.4379 -31.4311 -31.3956 -31.3930 -31.3863 -31.3750 -31.3729
   -31.3437 -31.3416 -31.3393 -31.3252 -31.3081 -31.2920 -31.2888 -31.2775
   -31.2680 -31.2523 -31.2464 -31.2370 -31.2325 -31.2249 -31.2203 -31.2166
   -31.2049 -31.1939 -31.1844 -31.1807 -31.1763 -31.1744 -31.1523 -31.1256
   -31.0869 -31.0711 -30.5415 -30.5007 -30.4813 -30.3995 -30.3381 -30.2718
   -17.9567 -15.8336 -15.5822 -15.5458 -15.3816 -15.2511 -15.2223 -15.1930
   -15.1247 -15.0813 -15.0159 -14.9790 -14.9551 -14.8928 -14.8797 -14.8565
   -14.8496 -14.7862 -14.7643 -14.7370 -14.6823 -14.6570 -14.6259 -14.6088
   -14.5809 -14.5303 -14.4967 -14.4884 -14.4319 -14.1930 -13.4391 -12.6905
   -12.6113  -9.6986  -6.5886  -6.0815  -4.5760  -3.2308  -3.0732  -2.9785
    -2.9260  -2.8260  -2.7466  -2.6987  -2.6374  -2.6057  -2.5564  -2.5232
    -2.4657  -2.4018  -2.3290  -2.2920  -2.2477  -2.2254  -2.2074  -2.1541
    -2.1085  -2.0822  -2.0341  -2.0102  -1.9939  -1.9653  -1.9118  -1.9025
    -1.8554  -1.8243  -1.8034  -1.7747  -1.7127  -1.6685  -1.6392  -1.5953
    -1.4967  -1.4200  -1.3301  -1.2666  -1.2153  -1.1989  -1.0762  -1.0197
    -0.9920  -0.9309  -0.8206  -0.7696  -0.7029  -0.6876  -0.6320  -0.6067
    -0.5587  -0.5407  -0.4956  -0.4651  -0.3882  -0.3462  -0.3140  -0.2889
    -0.1815  -0.1578  -0.1455  -0.1063  -0.0358   0.0120   0.0259   0.0796
     0.0981   0.1365   0.1673   0.1801   0.2100   0.2666   0.3368   0.3553
     0.4085   0.4459   0.5132   0.5353   0.6016   0.6743   0.7389   0.7793
     0.8651   0.8984   0.9432   1.0230   1.0592   1.1107   1.2137   1.2155
     1.3880   1.5637   2.0302   2.0977   2.2898   2.3531   4.0769   4.0948
     4.1205   4.2336   4.2610   4.3012   4.3253   4.4063   4.4415   4.4703
     4.4890

          k = 0.0380-0.0839 0.0000 ( 17916 PWs)   bands (ev):

   -55.1883 -55.1785 -55.1372 -55.1369 -55.1240 -55.0790 -55.0657 -55.0597
   -55.0175 -55.0103 -55.0072 -54.9703 -54.9698 -54.8575 -54.1695 -54.1692
   -31.5762 -31.5752 -31.5685 -31.4838 -31.4615 -31.4613 -31.4588 -31.4283
   -31.4282 -31.4050 -31.4004 -31.3944 -31.3901 -31.3659 -31.3544 -31.3489
   -31.3472 -31.3394 -31.3370 -31.3356 -31.3346 -31.3318 -31.2904 -31.2820
   -31.2786 -31.2717 -31.2597 -31.2584 -31.2580 -31.2519 -31.2490 -31.2470
   -31.2433 -31.2409 -31.2403 -31.2031 -31.1805 -31.1779 -31.1510 -31.1508
   -31.1266 -31.0705 -30.4911 -30.4908 -30.4087 -30.4084 -30.3690 -30.3688
   -17.9554 -15.6136 -15.4906 -15.3880 -15.3016 -15.2896 -15.1695 -15.1492
   -15.0935 -15.0644 -15.0564 -15.0182 -14.9499 -14.9170 -14.8334 -14.8297
   -14.8234 -14.8010 -14.7922 -14.7614 -14.7070 -14.6863 -14.6430 -14.6362
   -14.5852 -14.5787 -14.5680 -14.5479 -14.5470 -14.3855 -13.4396 -12.6734
   -12.6734  -9.7087  -6.5812  -6.0773  -4.5682  -3.2218  -2.9425  -2.7093
    -2.6919  -2.6625  -2.5002  -2.4709  -2.4604  -2.4172  -2.3955  -2.3829
    -2.3518  -2.3269  -2.3170  -2.2846  -2.2803  -2.2530  -2.2483  -2.1952
    -2.1839  -2.1350  -2.1201  -2.0915  -2.0620  -2.0351  -1.9786  -1.9646
    -1.9303  -1.8902  -1.8707  -1.8406  -1.7759  -1.7195  -1.6627  -1.4757
    -1.4115  -1.3969  -1.2813  -1.2364  -1.1648  -1.1415  -1.1302  -1.0734
    -1.0506  -0.9698  -0.9452  -0.8901  -0.8839  -0.8573  -0.7716  -0.6888
    -0.6467  -0.5903  -0.5554  -0.5224  -0.4971  -0.4477  -0.2886  -0.2490
    -0.2318  -0.1758  -0.1372  -0.0631  -0.0347  -0.0098  -0.0009   0.0305
     0.0860   0.1485   0.1554   0.1793   0.2214   0.2647   0.2739   0.3045
     0.3240   0.4875   0.5174   0.5295   0.5598   0.6701   0.6947   0.8530
     0.8572   0.8858   0.9365   1.0147   1.0377   1.0662   1.1208   1.1292
     1.3421   1.3488   2.1745   2.1750   2.2937   2.2945   4.0645   4.1527
     4.1847   4.2105   4.2975   4.3390   4.3524   4.3783   4.4797   4.4993
     4.5552

          k = 0.0380-0.0419 0.0000 ( 17876 PWs)   bands (ev):

   -55.1969 -55.1698 -55.1491 -55.1250 -55.1246 -55.0812 -55.0752 -55.0502
   -55.0209 -55.0152 -54.9966 -54.9820 -54.9581 -54.8569 -54.1813 -54.1573
   -31.7115 -31.6165 -31.5939 -31.5201 -31.5026 -31.4664 -31.4654 -31.4500
   -31.4478 -31.4379 -31.4311 -31.3955 -31.3930 -31.3863 -31.3750 -31.3729
   -31.3432 -31.3417 -31.3392 -31.3252 -31.3081 -31.2920 -31.2888 -31.2777
   -31.2682 -31.2523 -31.2464 -31.2369 -31.2325 -31.2249 -31.2204 -31.2165
   -31.2051 -31.1947 -31.1838 -31.1804 -31.1765 -31.1744 -31.1523 -31.1256
   -31.0869 -31.0710 -30.5414 -30.5007 -30.4813 -30.3995 -30.3381 -30.2718
   -17.9567 -15.8335 -15.5821 -15.5455 -15.3810 -15.2517 -15.2217 -15.1928
   -15.1245 -15.0813 -15.0163 -14.9808 -14.9562 -14.8945 -14.8788 -14.8579
   -14.8500 -14.7828 -14.7642 -14.7371 -14.6822 -14.6570 -14.6260 -14.6084
   -14.5810 -14.5296 -14.4965 -14.4888 -14.4322 -14.1928 -13.4390 -12.6905
   -12.6113  -9.6987  -6.5880  -6.0828  -4.5765  -3.2290  -3.0738  -2.9786
    -2.9330  -2.8257  -2.7390  -2.6972  -2.6366  -2.6009  -2.5571  -2.5253
    -2.4663  -2.4006  -2.3283  -2.2912  -2.2441  -2.2290  -2.2121  -2.1539
    -2.1077  -2.0851  -2.0365  -2.0121  -2.0025  -1.9653  -1.9119  -1.9025
    -1.8552  -1.8218  -1.7981  -1.7691  -1.7108  -1.6485  -1.6281  -1.5983
    -1.4988  -1.4293  -1.3615  -1.2706  -1.2147  -1.1967  -1.0727  -1.0123
    -0.9892  -0.9305  -0.8357  -0.7749  -0.6984  -0.6756  -0.6267  -0.6001
    -0.5593  -0.5451  -0.5070  -0.4702  -0.3880  -0.3513  -0.3108  -0.2842
    -0.1830  -0.1612  -0.1456  -0.1061  -0.0218   0.0037   0.0358   0.0846
     0.1003   0.1385   0.1717   0.1784   0.2100   0.2637   0.3341   0.3568
     0.4073   0.4452   0.5140   0.5310   0.6054   0.6710   0.7450   0.7726
     0.8592   0.8963   0.9434   1.0283   1.0569   1.1141   1.2139   1.2149
     1.3882   1.5637   2.0302   2.0976   2.2896   2.3537   4.0785   4.0934
     4.1201   4.2333   4.2630   4.3027   4.3247   4.4070   4.4468   4.4693
     4.4941

          k =-0.0760-0.0000 0.0000 ( 17886 PWs)   bands (ev):

   -55.2018 -55.1648 -55.1540 -55.1251 -55.1200 -55.0833 -55.0801 -55.0452
   -55.0257 -55.0131 -54.9916 -54.9870 -54.9531 -54.8563 -54.1863 -54.1523
   -31.7687 -31.6524 -31.6490 -31.5788 -31.5232 -31.5192 -31.5135 -31.4936
   -31.4427 -31.4395 -31.4097 -31.3991 -31.3826 -31.3694 -31.3691 -31.3560
   -31.3461 -31.3273 -31.3234 -31.3039 -31.3011 -31.3007 -31.2978 -31.2685
   -31.2681 -31.2569 -31.2380 -31.2289 -31.2286 -31.2115 -31.2097 -31.1904
   -31.1859 -31.1852 -31.1822 -31.1789 -31.1373 -31.1294 -31.1151 -31.0994
   -31.0747 -31.0504 -30.5952 -30.5084 -30.4759 -30.4120 -30.3253 -30.2146
   -17.9577 -15.8153 -15.7209 -15.5420 -15.4128 -15.2713 -15.2512 -15.2448
   -15.1114 -15.0987 -15.0651 -15.0407 -15.0097 -14.9851 -14.9563 -14.9210
   -14.9071 -14.8243 -14.7010 -14.6681 -14.6403 -14.6184 -14.6149 -14.6110
   -14.5379 -14.4920 -14.4497 -14.3730 -14.3367 -14.0718 -13.4395 -12.6828
   -12.5711  -9.6867  -6.5962  -6.0925  -4.5824  -3.2399  -3.2106  -3.0934
    -2.9823  -2.8472  -2.7558  -2.7093  -2.7009  -2.6900  -2.6589  -2.6342
    -2.6052  -2.5208  -2.4503  -2.4345  -2.2708  -2.1633  -2.1337  -2.0514
    -1.9927  -1.9219  -1.8543  -1.8160  -1.7978  -1.7795  -1.7485  -1.7304
    -1.6978  -1.6847  -1.6352  -1.5859  -1.5573  -1.5401  -1.5212  -1.5021
    -1.4960  -1.4817  -1.4073  -1.3467  -1.2870  -1.1692  -1.0398  -1.0223
    -0.9090  -0.9024  -0.8529  -0.8440  -0.8185  -0.8084  -0.7689  -0.7385
    -0.7129  -0.6441  -0.6192  -0.5620  -0.5210  -0.4961  -0.4752  -0.4084
    -0.2073  -0.1517  -0.1276  -0.0971  -0.0701   0.0216   0.0739   0.0942
     0.1335   0.1899   0.2293   0.2578   0.2912   0.3021   0.3639   0.3823
     0.4505   0.4785   0.5364   0.5683   0.5933   0.6354   0.6374   0.6719
     0.7410   0.7910   0.9176   1.0089   1.0334   1.1145   1.2781   1.3172
     1.4842   1.7496   1.8693   1.9633   2.1697   2.3233   3.9100   3.9551
     4.0370   4.1656   4.2154   4.2789   4.3363   4.3696   4.3844   4.4069
     4.4771

          k =-0.0760 0.0419 0.0000 ( 17914 PWs)   bands (ev):

   -55.1969 -55.1698 -55.1491 -55.1250 -55.1245 -55.0812 -55.0752 -55.0502
   -55.0207 -55.0153 -54.9966 -54.9821 -54.9582 -54.8569 -54.1813 -54.1573
   -31.7118 -31.6168 -31.5950 -31.5262 -31.5027 -31.4707 -31.4694 -31.4505
   -31.4479 -31.4379 -31.4312 -31.3957 -31.3928 -31.3761 -31.3730 -31.3683
   -31.3419 -31.3301 -31.3255 -31.3233 -31.3082 -31.2900 -31.2884 -31.2876
   -31.2566 -31.2531 -31.2466 -31.2363 -31.2357 -31.2326 -31.2247 -31.2230
   -31.1943 -31.1942 -31.1919 -31.1842 -31.1822 -31.1769 -31.1529 -31.1256
   -31.0869 -31.0741 -30.5412 -30.5037 -30.4806 -30.3995 -30.3382 -30.2718
   -17.9565 -15.6989 -15.6416 -15.4567 -15.3212 -15.2258 -15.1767 -15.1654
   -15.1206 -15.0596 -15.0125 -15.0041 -14.9976 -14.9629 -14.9348 -14.9046
   -14.8956 -14.8228 -14.7645 -14.7584 -14.6785 -14.6688 -14.6340 -14.6284
   -14.5873 -14.5851 -14.4939 -14.4608 -14.4438 -14.1918 -13.4402 -12.6883
   -12.6116  -9.6968  -6.5880  -6.0873  -4.5745  -3.2288  -3.0459  -2.9744
    -2.9147  -2.6304  -2.5851  -2.5490  -2.5022  -2.4705  -2.4378  -2.4246
    -2.4101  -2.3536  -2.3047  -2.2347  -2.2086  -2.1801  -2.1696  -2.1512
    -2.0925  -2.0254  -2.0239  -1.9538  -1.9265  -1.9012  -1.8866  -1.8349
    -1.8029  -1.7644  -1.7517  -1.7479  -1.6992  -1.6665  -1.6466  -1.4551
    -1.4274  -1.3783  -1.3643  -1.3187  -1.2659  -1.1839  -1.0064  -0.9751
    -0.9538  -0.9449  -0.8467  -0.8317  -0.8020  -0.7690  -0.7084  -0.6395
    -0.6178  -0.6029  -0.5709  -0.5413  -0.4921  -0.4767  -0.4532  -0.4109
    -0.3905  -0.3628  -0.2966  -0.2726  -0.1906  -0.1788  -0.0985  -0.0092
    -0.0005   0.0261   0.0521   0.0923   0.1179   0.2391   0.2719   0.3171
     0.3496   0.4354   0.5195   0.5437   0.6140   0.6670   0.7072   0.7593
     0.8801   0.9849   1.0078   1.0627   1.0940   1.1318   1.2055   1.2918
     1.3059   1.4470   2.0455   2.0998   2.2119   2.3423   4.0679   4.0957
     4.1131   4.1252   4.2103   4.2557   4.2966   4.3590   4.4235   4.4924
     4.5256

          k =-0.0760-0.0839 0.0000 ( 17948 PWs)   bands (ev):

   -55.1883 -55.1785 -55.1373 -55.1369 -55.1240 -55.0790 -55.0658 -55.0597
   -55.0175 -55.0102 -55.0071 -54.9704 -54.9699 -54.8576 -54.1696 -54.1692
   -31.5765 -31.5754 -31.5688 -31.4840 -31.4623 -31.4621 -31.4591 -31.4283
   -31.4283 -31.4129 -31.4021 -31.4005 -31.3918 -31.3660 -31.3568 -31.3438
   -31.3428 -31.3389 -31.3357 -31.3302 -31.3282 -31.3222 -31.2832 -31.2800
   -31.2797 -31.2784 -31.2605 -31.2591 -31.2570 -31.2566 -31.2518 -31.2433
   -31.2404 -31.2234 -31.2201 -31.2042 -31.2034 -31.2005 -31.1511 -31.1508
   -31.1262 -31.0741 -30.4922 -30.4918 -30.4086 -30.4084 -30.3690 -30.3688
   -17.9552 -15.5605 -15.4306 -15.4015 -15.2450 -15.2089 -15.1755 -15.1623
   -15.0413 -15.0040 -14.9795 -14.9700 -14.9523 -14.9120 -14.9063 -14.8994
   -14.8289 -14.8097 -14.8054 -14.7831 -14.7249 -14.7159 -14.7120 -14.7045
   -14.6539 -14.6503 -14.5697 -14.5596 -14.5563 -14.3764 -13.4405 -12.6732
   -12.6732  -9.7068  -6.5805  -6.0823  -4.5673  -3.2196  -2.9380  -2.6930
    -2.6876  -2.6600  -2.4589  -2.3963  -2.3656  -2.3599  -2.2627  -2.2262
    -2.2017  -2.1981  -2.1325  -2.1180  -2.0872  -2.0573  -2.0411  -2.0271
    -2.0115  -1.9973  -1.9719  -1.9345  -1.9264  -1.9181  -1.8860  -1.8646
    -1.8416  -1.8193  -1.8058  -1.7874  -1.7614  -1.7388  -1.6022  -1.5705
    -1.5001  -1.4569  -1.4137  -1.4094  -1.3378  -1.3013  -1.2512  -1.2390
    -1.2219  -1.0819  -1.0235  -0.9729  -0.9530  -0.9419  -0.8128  -0.7988
    -0.7256  -0.7081  -0.6918  -0.6167  -0.5662  -0.5280  -0.5143  -0.4211
    -0.4056  -0.3392  -0.2371  -0.2144  -0.2005  -0.1599  -0.1569  -0.1096
    -0.1025  -0.0184   0.0258   0.0609   0.0717   0.1075   0.3003   0.3163
     0.3263   0.4794   0.4952   0.6368   0.6804   0.7469   0.8057   0.8446
     0.9063   0.9435   1.0558   1.0868   1.1014   1.1095   1.1710   1.1829
     1.2457   1.2565   2.1921   2.1927   2.2809   2.2813   4.0404   4.1478
     4.1554   4.1971   4.3170   4.3473   4.4094   4.4367   4.4782   4.4815
     4.5440

     the Fermi energy is     3.9578 ev

!    total energy              =   -2942.84388323 Ry
     estimated scf accuracy    <       0.00000005 Ry
     smearing contrib. (-TS)   =      -0.03707420 Ry
     internal energy E=F+TS    =   -2942.80680903 Ry

     The total energy is F=E-TS. E is the sum of the following terms:
     one-electron contribution =  -23367.09214761 Ry
     hartree contribution      =   11777.71973583 Ry
     xc contribution           =    -487.73623842 Ry
     ewald contribution        =    9134.29762433 Ry
     electric field correction =       0.00421683 Ry

     convergence has been achieved in  70 iterations

     Forces acting on atoms (cartesian axes, Ry/au):

     atom    1 type  1   force =     0.00017787   -0.00033038    0.09330802
     atom    2 type  1   force =    -0.00006796   -0.00042439   -0.17822870
     atom    3 type  2   force =     0.00002728   -0.00032066   -0.02003675
     atom    4 type  2   force =     0.00002027   -0.00183351    0.05924345
     atom    5 type  2   force =    -0.01046670   -0.00026361    0.00863320
     atom    6 type  2   force =     0.01148054    0.00040842    0.00644395
     atom    7 type  1   force =    -0.00100067    0.00213008   -0.01400048
     atom    8 type  1   force =     0.00081704   -0.00097416   -0.00574636
     atom    9 type  2   force =    -0.00010099    0.00012563   -0.00001366
     atom   10 type  2   force =    -0.00185459    0.00411701    0.00026933
     atom   11 type  2   force =    -0.00006097   -0.00064067    0.00028010
     atom   12 type  2   force =    -0.00001693   -0.00041008    0.00053599
     atom   13 type  1   force =     0.00004210    0.00009473    0.00032087
     atom   14 type  1   force =    -0.00037753   -0.00000037    0.00007037
     atom   15 type  2   force =     0.00052165    0.00023040   -0.00033647
     atom   16 type  2   force =     0.00032148   -0.00035179   -0.00006760
     atom   17 type  2   force =    -0.00059349   -0.00002086   -0.00001980
     atom   18 type  2   force =     0.00054198   -0.00019782    0.00001464
     atom   19 type  1   force =    -0.00000541   -0.00056180    0.00022668
     atom   20 type  1   force =     0.00069389    0.00009818    0.00093647
     atom   21 type  2   force =     0.00012364   -0.00012165    0.10402869
     atom   22 type  2   force =    -0.00043601    0.00022373   -0.00034928
     atom   23 type  2   force =    -0.07028432   -0.00021908   -0.02686330
     atom   24 type  2   force =     0.07027775    0.00021965   -0.02689000
     atom   25 type  1   force =     0.00007946   -0.00032339    0.09263334
     atom   26 type  1   force =    -0.00003451   -0.00058720   -0.17834660
     atom   27 type  2   force =     0.00013081   -0.00016790   -0.01907502
     atom   28 type  2   force =     0.00005039   -0.00163609    0.05860829
     atom   29 type  2   force =    -0.01106713   -0.00055696    0.00931270
     atom   30 type  2   force =     0.01198491   -0.00001918    0.00720308
     atom   31 type  1   force =    -0.00093000    0.00647102   -0.01506511
     atom   32 type  1   force =     0.00086076    0.00104656   -0.00588878
     atom   33 type  2   force =     0.00017628   -0.00057173   -0.00004389
     atom   34 type  2   force =    -0.00185922   -0.00052575   -0.00050784
     atom   35 type  2   force =    -0.00044294    0.00005963   -0.00043697
     atom   36 type  2   force =     0.00034179   -0.00012022    0.00018010
     atom   37 type  1   force =    -0.00051369   -0.00025006    0.00018457
     atom   38 type  1   force =    -0.00004511   -0.00014821   -0.00009920
     atom   39 type  2   force =     0.00030052   -0.00059097   -0.00000963
     atom   40 type  2   force =    -0.00060404   -0.00051104    0.00025320
     atom   41 type  2   force =    -0.00024449   -0.00073078   -0.00069569
     atom   42 type  2   force =     0.00046237   -0.00009003   -0.00012881
     atom   43 type  1   force =     0.00026754   -0.00018854   -0.00020370
     atom   44 type  1   force =     0.00049399    0.00004749    0.00082669
     atom   45 type  2   force =     0.00013796   -0.00014083    0.10399024
     atom   46 type  2   force =    -0.07028477   -0.00016077   -0.02683458
     atom   47 type  2   force =     0.07025588    0.00025615   -0.02689487
     atom   48 type  3   force =     0.00081559    0.00107524   -0.00002388
     atom   49 type  3   force =    -0.00013471   -0.00093304    0.00007843
     atom   50 type  4   force =     0.00324025    0.00251288   -0.00735425
     atom   51 type  5   force =    -0.00059646    0.00171572    0.00033429
     atom   52 type  5   force =     0.00068038    0.00010987   -0.00068728
     atom   53 type  5   force =    -0.00221530   -0.00384867    0.00664181
     atom   54 type  5   force =    -0.00009766   -0.00191120    0.00072444
     atom   55 type  5   force =     0.00005401   -0.00053510   -0.00017857
     atom   56 type  5   force =    -0.00104276    0.00027612   -0.00025584

     Total force =     0.366528     Total SCF correction =     0.000495
  @ DRIVER MODE: Message from server: STATUS
  @ DRIVER MODE: Message from server: GETFORCE
  @ DRIVER MODE: Returning v,forces,stress,ensemble 

     Writing output data file ./calc.save/
  @ DRIVER MODE: Message from server: EXIT
  @ DRIVE MODE: Exiting  
 
     init_run     :     10.80s CPU     11.05s WALL (       1 calls)
     electrons    :   1051.45s CPU   1066.91s WALL (       1 calls)
     forces       :      2.40s CPU      2.49s WALL (       1 calls)

     Called by init_run:
     wfcinit      :      4.76s CPU      4.83s WALL (       1 calls)
     potinit      :      5.38s CPU      5.45s WALL (       1 calls)
     hinit0       :      0.29s CPU      0.31s WALL (       1 calls)

     Called by electrons:
     c_bands      :    887.85s CPU    894.22s WALL (      70 calls)
     sum_band     :    111.14s CPU    114.85s WALL (      70 calls)
     v_of_rho     :     39.32s CPU     41.23s WALL (      71 calls)
     newd         :     16.10s CPU     19.60s WALL (      71 calls)
     mix_rho      :      1.44s CPU      1.47s WALL (      70 calls)
     vdW_kernel   :      4.54s CPU      4.56s WALL (       1 calls)

     Called by c_bands:
     init_us_2    :      6.44s CPU      6.47s WALL (    1420 calls)
     cegterg      :    868.88s CPU    874.95s WALL (     716 calls)

     Called by *egterg:
     cdiaghg      :    142.47s CPU    143.10s WALL (    6785 calls)
     h_psi        :    471.86s CPU    476.16s WALL (    6796 calls)
     s_psi        :     61.91s CPU     62.09s WALL (    6796 calls)
     g_psi        :      1.65s CPU      1.67s WALL (    6070 calls)

     Called by h_psi:
     h_psi:calbec :     58.31s CPU     58.61s WALL (    6796 calls)
     vloc_psi     :    348.42s CPU    351.85s WALL (    6796 calls)
     add_vuspsi   :     62.08s CPU     62.40s WALL (    6796 calls)

     General routines
     calbec       :     77.83s CPU     78.19s WALL (    7536 calls)
     fft          :     19.94s CPU     20.10s WALL (    4473 calls)
     ffts         :      0.13s CPU      0.13s WALL (     141 calls)
     fftw         :    392.82s CPU    396.67s WALL (  930896 calls)
     interpolate  :      0.44s CPU      0.44s WALL (      71 calls)
     davcio       :      0.00s CPU      0.16s WALL (      10 calls)
 
     Parallel routines
 
     PWSCF        :  17m44.96s CPU  18m 1.11s WALL

 
   This run was terminated on:   9:33: 5   9Sep2021            

=------------------------------------------------------------------------------=
   JOB DONE.
=------------------------------------------------------------------------------=
