
     Program PWSCF v.6.7GPU starts on 16Jul2021 at  4:46:13 

     This program is part of the open-source Quantum ESPRESSO suite
     for quantum simulation of materials; please cite
         "P. Giannozzi et al., J. Phys.:Condens. Matter 21 395502 (2009);
         "P. Giannozzi et al., J. Phys.:Condens. Matter 29 465901 (2017);
         "P. Giannozzi et al., J. Chem. Phys. 152 154105 (2020);
          URL http://www.quantum-espresso.org", 
     in publications or presentations arising from this work. More details at
     http://www.quantum-espresso.org/quote

     Parallel version (MPI), running on    16 processors

     MPI processes distributed on     1 nodes
     R & G space division:  proc/nbgrp/npool/nimage =      16
     Reading input from /storage/home/hcoda1/3/ntian30/research/carbon/15Jul_vib/ads_slab/CH3N_a/out_0030/pw.inp
Warning: card &CELL ignored
Warning: card   CELL_DYNAMICS='IPI', ignored
Warning: card / ignored

     Current dimensions of program PWSCF are:
     Max number of different atomic species (ntypx) = 10
     Max number of k-points (npk) =  40000
     Max angular momentum in pseudopotentials (lmaxx) =  3
     Presently no symmetry can be used with electric field

     Message from routine cell_base_init:
     DEPRECATED: use true lattice parameter, not A to a.u. conversion factor

     **************************************************************************
     Initializing libbeef V0.1.2 with the BEEF-vdW functional.
     Citation: Wellendorff et al., PRB 85, 235149 (2012).
     **************************************************************************


     IMPORTANT: XC functional enforced from input :
     Exchange-correlation= BEEF-VDW
                           (   1   4  43  14   2   0   0)
     Any further DFT definition will be discarded
     Please, verify this is what you really want


     Subspace diagonalization in iterative solution of the eigenvalue problem:
     one sub-group per band group will be used
     scalapack distributed-memory algorithm (size of sub-group:  4*  4 procs)

  @ DRIVER MODE: Connecting to 
 qe_1139763_2351643.sched-torque.pace.gatech.edumli8ea_e_scratch
  using UNIX socket
  @ DRIVER MODE: Message from server: STATUS
  @ DRIVER MODE: Message from server: INIT
  @ DRIVER MODE: Receiving replica           0          -1
  @ DRIVER MODE: Receiving encoded integer          25
  @ DRIVER MODE:  SCF:  T  FORCE:  T  STRESS:  F  VC:  F  ENSEMBLE:  F
  @ DRIVER MODE:  SCF:  T  FORCE:  T  STRESS:  F  VC:  F  ENSEMBLE:  F
 
     Parallelization info
     --------------------
     sticks:   dense  smooth     PW     G-vecs:    dense   smooth      PW
     Min         204      82     23                35422     8962    1367
     Max         205      84     24                35435     8968    1382
     Sum        3275    1317    379               566857   143421   21985
 
     Using Slab Decomposition
 


     bravais-lattice index     =            0
     lattice parameter (alat)  =       1.8897  a.u.
     unit-cell volume          =    6658.9804 (a.u.)^3
     number of atoms/cell      =           52
     number of atomic types    =            5
     number of electrons       =       390.00
     number of Kohn-Sham states=          205
     kinetic-energy cutoff     =      29.3995  Ry
     charge density cutoff     =     293.9946  Ry
     scf convergence threshold =      7.3E-08
     mixing beta               =       0.0500
     number of iterations used =            8  plain     mixing
     Exchange-correlation= BEEF-VDW
                           (   1   4  43  14   2   0   0)

     celldm(1)=   1.889726  celldm(2)=   0.000000  celldm(3)=   0.000000
     celldm(4)=   0.000000  celldm(5)=   0.000000  celldm(6)=   0.000000

     crystal axes: (cart. coord. in units of alat)
               a(1) = (   6.579727   0.000000   0.000000 )  
               a(2) = (  -0.000775   5.961596   0.000000 )  
               a(3) = (   0.000000   0.000000  25.155947 )  

     reciprocal axes: (cart. coord. in units 2 pi/alat)
               b(1) = (  0.151982  0.000020  0.000000 )  
               b(2) = (  0.000000  0.167740  0.000000 )  
               b(3) = (  0.000000  0.000000  0.039752 )  


     PseudoPot. # 1 for Ti read from file:
     /storage/coda1/p-amedford6/0/shared/rich_project_chbe-medford/medford-share/data/pseudos_module/espresso/nninc/pbe/van/Ti.UPF
     MD5 check sum: 8e4df49b7f0d34bbd5052bf3f5ea0213
     Pseudo is Ultrasoft, Zval = 12.0
     Generated by new atomic code, or converted to UPF format
     Using radial grid of  851 points,  6 beta functions with: 
                l(1) =   0
                l(2) =   0
                l(3) =   1
                l(4) =   1
                l(5) =   2
                l(6) =   2
     Q(r) pseudized with  8 coefficients,  rinner =    1.000   1.000   1.000
                                                       1.000   1.000

     PseudoPot. # 2 for O  read from file:
     /storage/coda1/p-amedford6/0/shared/rich_project_chbe-medford/medford-share/data/pseudos_module/espresso/nninc/pbe/van/O.UPF
     MD5 check sum: 78c19812648e8988a0fe644b0f25305e
     Pseudo is Ultrasoft, Zval =  6.0
     Generated by new atomic code, or converted to UPF format
     Using radial grid of  737 points,  4 beta functions with: 
                l(1) =   0
                l(2) =   0
                l(3) =   1
                l(4) =   1
     Q(r) pseudized with  8 coefficients,  rinner =    0.800   0.800   0.800


     PseudoPot. # 3 for N  read from file:
     /storage/coda1/p-amedford6/0/shared/rich_project_chbe-medford/medford-share/data/pseudos_module/espresso/nninc/pbe/van/N.UPF
     MD5 check sum: 90d10febe142ad51ac9d5be1deb811c4
     Pseudo is Ultrasoft, Zval =  5.0
     Generated by new atomic code, or converted to UPF format
     Using radial grid of  729 points,  4 beta functions with: 
                l(1) =   0
                l(2) =   0
                l(3) =   1
                l(4) =   1
     Q(r) pseudized with  8 coefficients,  rinner =    0.800   0.800   0.800


     PseudoPot. # 4 for C  read from file:
     /storage/coda1/p-amedford6/0/shared/rich_project_chbe-medford/medford-share/data/pseudos_module/espresso/nninc/pbe/van/C.UPF
     MD5 check sum: 1a69bf6b8db32088f5b2163dbdb77a27
     Pseudo is Ultrasoft, Zval =  4.0
     Generated by new atomic code, or converted to UPF format
     Using radial grid of  721 points,  4 beta functions with: 
                l(1) =   0
                l(2) =   0
                l(3) =   1
                l(4) =   1
     Q(r) pseudized with  8 coefficients,  rinner =    0.800   0.800   0.800


     PseudoPot. # 5 for H  read from file:
     /storage/coda1/p-amedford6/0/shared/rich_project_chbe-medford/medford-share/data/pseudos_module/espresso/nninc/pbe/van/H.UPF
     MD5 check sum: b5ee9d7bfd3a09ee7748110bda690ff7
     Pseudo is Ultrasoft, Zval =  1.0
     Generated by new atomic code, or converted to UPF format
     Using radial grid of  615 points,  1 beta functions with: 
                l(1) =   0
     Q(r) pseudized with  8 coefficients,  rinner =    0.800

     atomic species   valence    mass     pseudopotential
        Ti1           12.00    47.86700     Ti( 1.00)
        O1             6.00    15.99900     O ( 1.00)
        N1             5.00    14.00700     N ( 1.00)
        C1             4.00    12.01100     C ( 1.00)
        H1             1.00     1.00800     H ( 1.00)

     Starting magnetic structure 
     atomic species   magnetization
        Ti1          0.000
        O1           0.000
        N1           0.000
        C1           0.025
        H1           0.000

     No symmetry found



   Cartesian axes

     site n.     atom                  positions (alat units)
         1           Ti1 tau(   1) = (   0.0004258   2.9801865   6.0000000  )
         2           Ti1 tau(   2) = (   3.2906075   1.4906267   6.0002472  )
         3           O1  tau(   3) = (   0.0006271   0.0005054   7.9858123  )
         4           O1  tau(   4) = (   3.2906025   0.0005020   7.3038282  )
         5           O1  tau(   5) = (   4.5942328   1.4918067   9.2879030  )
         6           O1  tau(   6) = (   1.9868534   1.4903216   9.2879459  )
         7           Ti1 tau(   7) = (   3.2907910   2.8959150   9.1758416  )
         8           Ti1 tau(   8) = (   0.0015273   1.4827037   9.2680791  )
         9           O1  tau(   9) = (   3.2848820   0.0184509  11.2968037  )
        10           O1  tau(  10) = (   0.0116148   5.9584955  10.6183126  )
        11           O1  tau(  11) = (   1.3164307   1.5202202  12.6152053  )
        12           O1  tau(  12) = (   5.2938533   1.5248534  12.6363518  )
        13           Ti1 tau(  13) = (   6.4693392   3.0155455  12.7604093  )
        14           Ti1 tau(  14) = (   3.1621140   1.5165027  12.4659144  )
        15           O1  tau(  15) = (   0.0250032   0.0426882  14.5925537  )
        16           O1  tau(  16) = (   3.2896737   0.0171256  13.8799622  )
        17           O1  tau(  17) = (   4.5365032   1.4993634  16.0438468  )
        18           O1  tau(  18) = (   2.0814567   1.5015292  16.0591106  )
        19           Ti1 tau(  19) = (   3.3082904   2.9956922  15.6854367  )
        20           Ti1 tau(  20) = (   0.0032501   1.4479889  16.1249605  )
        21           O1  tau(  21) = (   3.2904802   0.0005063   4.7018136  )
        22           O1  tau(  22) = (   0.0161699   0.0004382  17.1970091  )
        23           O1  tau(  23) = (   1.3043587   1.4918075   6.0039043  )
        24           O1  tau(  24) = (   5.2767064   1.4903225   6.0039473  )
        25           Ti1 tau(  25) = (   0.0000382   5.9609847   6.0000000  )
        26           Ti1 tau(  26) = (   3.2902200   4.4714249   6.0002472  )
        27           O1  tau(  27) = (   0.0002396   2.9813036   7.9858123  )
        28           O1  tau(  28) = (   3.2902150   2.9813002   7.3038282  )
        29           O1  tau(  29) = (   4.5938453   4.4726049   9.2879030  )
        30           O1  tau(  30) = (   1.9864658   4.4711199   9.2879459  )
        31           Ti1 tau(  31) = (   3.2891106   5.8743827   9.1763621  )
        32           Ti1 tau(  32) = (   0.0006254   4.4649316   9.2693709  )
        33           O1  tau(  33) = (   3.2855107   2.9994495  11.2959752  )
        34           O1  tau(  34) = (   0.0092240   2.9805883  10.6323155  )
        35           O1  tau(  35) = (   1.3179678   4.4860142  12.6155112  )
        36           O1  tau(  36) = (   5.2920789   4.4901865  12.6316709  )
        37           Ti1 tau(  37) = (   6.5050993   0.0355131  12.7707974  )
        38           Ti1 tau(  38) = (   3.1594757   4.4963870  12.4672366  )
        39           O1  tau(  39) = (   6.5726527   3.0227966  14.6583025  )
        40           O1  tau(  40) = (   3.2932321   2.9979836  13.8792693  )
        41           O1  tau(  41) = (   4.5322310   4.4839795  16.0418810  )
        42           O1  tau(  42) = (   2.0800586   4.4799519  16.0553745  )
        43           Ti1 tau(  43) = (   3.2910362   0.0127607  15.6894215  )
        44           Ti1 tau(  44) = (   0.0049462   4.4269923  16.0943486  )
        45           O1  tau(  45) = (   3.2900926   2.9813045   4.7018136  )
        46           O1  tau(  46) = (   1.3039711   4.4726057   6.0039043  )
        47           O1  tau(  47) = (   5.2763189   4.4711207   6.0039473  )
        48           N1  tau(  48) = (   0.0596666   2.9942962  17.3216073  )
        49           C1  tau(  49) = (   0.3918855   2.9774893  18.7266025  )
        50           H1  tau(  50) = (   0.0017595   3.8652167  19.2343835  )
        51           H1  tau(  51) = (   0.0043965   2.0815098  19.2200810  )
        52           H1  tau(  52) = (   1.4843755   2.9788857  18.8681259  )

     number of k points=    10  Fermi-Dirac smearing, width (Ry)=  0.0073
                       cart. coord. in units 2pi/alat
        k(    1) = (   0.0000000   0.0000000   0.0000000), wk =   0.0625000
        k(    2) = (   0.0000000   0.0419351   0.0000000), wk =   0.1250000
        k(    3) = (   0.0000000  -0.0838702   0.0000000), wk =   0.0625000
        k(    4) = (   0.0379955   0.0000049   0.0000000), wk =   0.1250000
        k(    5) = (   0.0379955   0.0419400   0.0000000), wk =   0.1250000
        k(    6) = (   0.0379955  -0.0838652   0.0000000), wk =   0.1250000
        k(    7) = (   0.0379955  -0.0419301   0.0000000), wk =   0.1250000
        k(    8) = (  -0.0759910  -0.0000099   0.0000000), wk =   0.0625000
        k(    9) = (  -0.0759910   0.0419252   0.0000000), wk =   0.1250000
        k(   10) = (  -0.0759910  -0.0838800   0.0000000), wk =   0.0625000

     Dense  grid:   566857 G-vectors     FFT dimensions: (  72,  64, 270)

     Smooth grid:   143421 G-vectors     FFT dimensions: (  45,  40, 180)

     Estimated max dynamical RAM per process >     278.53 MB

     Estimated total dynamical RAM >       4.35 GB
     Generating pointlists ...
     new r_m :   0.7431 (alat units)  1.4042 (a.u.) for type    1
     new r_m :   0.7431 (alat units)  1.4042 (a.u.) for type    2
     new r_m :   0.5956 (alat units)  1.1255 (a.u.) for type    3
     new r_m :   0.4512 (alat units)  0.8526 (a.u.) for type    4
     new r_m :   0.4512 (alat units)  0.8526 (a.u.) for type    5
     Cannot read rho : file not found

     Initial potential from superposition of free atoms

     starting charge  373.99917, renormalised to  390.00000

     negative rho (up, down):  8.645E-03 8.651E-03


     %%%%%%%%%%%%%%%%%%%%%%%%%%%%%%%%%%%%%%%%%%%%%%%%%%%%%%%%%%%%%%%%%%%%%%%%
     %                                                                      %
     % You are using vdW-DF, which was implemented by the Thonhauser group. %
     % Please cite the following two papers that made this development      %
     % possible and the two reviews that describe the various versions:     %
     %                                                                      %
     %   T. Thonhauser et al., PRL 115, 136402 (2015).                      %
     %   T. Thonhauser et al., PRB 76, 125112 (2007).                       %
     %   K. Berland et al., Rep. Prog. Phys. 78, 066501 (2015).             %
     %   D.C. Langreth et al., J. Phys.: Condens. Matter 21, 084203 (2009). %
     %                                                                      %
     %                                                                      %
     % If you are calculating the stress with vdW-DF, please also cite:     %
     %                                                                      %
     %   R. Sabatini et al., J. Phys.: Condens. Matter 24, 424209 (2012).   %
     %                                                                      %
     %%%%%%%%%%%%%%%%%%%%%%%%%%%%%%%%%%%%%%%%%%%%%%%%%%%%%%%%%%%%%%%%%%%%%%%%


 
     Adding external electric field

     Computed dipole along edir(3) : 
        Dipole               -4.6271 Ry au,        -11.7609 Debye
        Dipole field         -0.0087 Ry au, 
 
        Potential amp.        0.8094 Ry
        Total length         46.3494 bohr
 
 
     Adding external electric field

     Computed dipole along edir(3) : 
        Dipole               -4.6271 Ry au,        -11.7609 Debye
        Dipole field         -0.0087 Ry au, 
 
        Potential amp.        0.8094 Ry
        Total length         46.3494 bohr
 
     Starting wfcs are  295 atomic wfcs
  @ DRIVER MODE: Message from server: STATUS
  @ DRIVER MODE: Message from server: POSDATA
  @ DRIVER MODE: Reading and sharing cell 
  @ DRIVER MODE: Reading and sharing positions 
  @ DRIVER MODE: Received positions 

     total cpu time spent up to now is       22.1 secs

     Self-consistent Calculation

     iteration #  1     ecut=    29.40 Ry     beta= 0.05
     Davidson diagonalization with overlap
     c_bands:  3 eigenvalues not converged
     c_bands:  4 eigenvalues not converged
     c_bands:  2 eigenvalues not converged
     c_bands:  4 eigenvalues not converged
     c_bands:  4 eigenvalues not converged
     c_bands:  2 eigenvalues not converged
     c_bands:  3 eigenvalues not converged
     c_bands:  2 eigenvalues not converged
     c_bands:  4 eigenvalues not converged
     c_bands:  2 eigenvalues not converged
     c_bands:  2 eigenvalues not converged
     c_bands:  4 eigenvalues not converged
     c_bands:  2 eigenvalues not converged
     c_bands:  4 eigenvalues not converged
     c_bands:  3 eigenvalues not converged
     c_bands:  3 eigenvalues not converged
     c_bands:  2 eigenvalues not converged
     ethr =  1.00E-05,  avg # of iterations = 19.8

     negative rho (up, down):  8.445E-03 8.453E-03
 
     Adding external electric field

     Computed dipole along edir(3) : 
        Dipole               12.7231 Ry au,         32.3389 Debye
        Dipole field          0.0240 Ry au, 
 
        Potential amp.       -2.2257 Ry
        Total length         46.3494 bohr
 
 
     Adding external electric field

     Computed dipole along edir(3) : 
        Dipole               12.7231 Ry au,         32.3389 Debye
        Dipole field          0.0240 Ry au, 
 
        Potential amp.       -2.2257 Ry
        Total length         46.3494 bohr
 

     total cpu time spent up to now is       97.6 secs

     total energy              =   -2877.18913578 Ry
     estimated scf accuracy    <     483.62797415 Ry

     total magnetization       =     0.13 Bohr mag/cell
     absolute magnetization    =     0.15 Bohr mag/cell

     iteration #  2     ecut=    29.40 Ry     beta= 0.05
     Davidson diagonalization with overlap
     ethr =  1.00E-02,  avg # of iterations = 13.3

     negative rho (up, down):  4.086E-03 4.100E-03
 
     Adding external electric field

     Computed dipole along edir(3) : 
        Dipole               -1.9312 Ry au,         -4.9086 Debye
        Dipole field         -0.0036 Ry au, 
 
        Potential amp.        0.3378 Ry
        Total length         46.3494 bohr
 
 
     Adding external electric field

     Computed dipole along edir(3) : 
        Dipole               -1.9312 Ry au,         -4.9086 Debye
        Dipole field         -0.0036 Ry au, 
 
        Potential amp.        0.3378 Ry
        Total length         46.3494 bohr
 

     total cpu time spent up to now is      139.7 secs

     total energy              =   -2828.59994994 Ry
     estimated scf accuracy    <   10664.87669278 Ry

     total magnetization       =     0.14 Bohr mag/cell
     absolute magnetization    =     0.33 Bohr mag/cell

     iteration #  3     ecut=    29.40 Ry     beta= 0.05
     Davidson diagonalization with overlap
     c_bands:  1 eigenvalues not converged
     c_bands:  1 eigenvalues not converged
     ethr =  1.00E-02,  avg # of iterations = 18.6

     negative rho (up, down):  4.060E-03 4.073E-03
 
     Adding external electric field

     Computed dipole along edir(3) : 
        Dipole               -2.0459 Ry au,         -5.2002 Debye
        Dipole field         -0.0039 Ry au, 
 
        Potential amp.        0.3579 Ry
        Total length         46.3494 bohr
 
 
     Adding external electric field

     Computed dipole along edir(3) : 
        Dipole               -2.0459 Ry au,         -5.2002 Debye
        Dipole field         -0.0039 Ry au, 
 
        Potential amp.        0.3579 Ry
        Total length         46.3494 bohr
 

     total cpu time spent up to now is      183.8 secs

     total energy              =   -2920.96865243 Ry
     estimated scf accuracy    <      11.79556190 Ry

     total magnetization       =     0.13 Bohr mag/cell
     absolute magnetization    =     0.23 Bohr mag/cell

     iteration #  4     ecut=    29.40 Ry     beta= 0.05
     Davidson diagonalization with overlap
     ethr =  3.02E-03,  avg # of iterations =  2.1

     negative rho (up, down):  4.367E-03 4.384E-03
 
     Adding external electric field

     Computed dipole along edir(3) : 
        Dipole               -2.6202 Ry au,         -6.6598 Debye
        Dipole field         -0.0049 Ry au, 
 
        Potential amp.        0.4584 Ry
        Total length         46.3494 bohr
 
 
     Adding external electric field

     Computed dipole along edir(3) : 
        Dipole               -2.6202 Ry au,         -6.6598 Debye
        Dipole field         -0.0049 Ry au, 
 
        Potential amp.        0.4584 Ry
        Total length         46.3494 bohr
 

     total cpu time spent up to now is      198.4 secs

     total energy              =   -2917.25783808 Ry
     estimated scf accuracy    <      10.17297221 Ry

     total magnetization       =     0.23 Bohr mag/cell
     absolute magnetization    =     0.29 Bohr mag/cell

     iteration #  5     ecut=    29.40 Ry     beta= 0.05
     Davidson diagonalization with overlap
     ethr =  2.61E-03,  avg # of iterations = 12.7

     negative rho (up, down):  4.203E-03 4.218E-03
 
     Adding external electric field

     Computed dipole along edir(3) : 
        Dipole               -2.1324 Ry au,         -5.4201 Debye
        Dipole field         -0.0040 Ry au, 
 
        Potential amp.        0.3730 Ry
        Total length         46.3494 bohr
 
 
     Adding external electric field

     Computed dipole along edir(3) : 
        Dipole               -2.1324 Ry au,         -5.4201 Debye
        Dipole field         -0.0040 Ry au, 
 
        Potential amp.        0.3730 Ry
        Total length         46.3494 bohr
 

     total cpu time spent up to now is      230.1 secs

     total energy              =   -2918.79766445 Ry
     estimated scf accuracy    <      43.03532328 Ry

     total magnetization       =     0.13 Bohr mag/cell
     absolute magnetization    =     0.53 Bohr mag/cell

     iteration #  6     ecut=    29.40 Ry     beta= 0.05
     Davidson diagonalization with overlap
     ethr =  2.61E-03,  avg # of iterations =  1.1

     negative rho (up, down):  4.090E-03 4.102E-03
 
     Adding external electric field

     Computed dipole along edir(3) : 
        Dipole               -1.5992 Ry au,         -4.0647 Debye
        Dipole field         -0.0030 Ry au, 
 
        Potential amp.        0.2798 Ry
        Total length         46.3494 bohr
 
 
     Adding external electric field

     Computed dipole along edir(3) : 
        Dipole               -1.5992 Ry au,         -4.0647 Debye
        Dipole field         -0.0030 Ry au, 
 
        Potential amp.        0.2798 Ry
        Total length         46.3494 bohr
 

     total cpu time spent up to now is      243.5 secs

     total energy              =   -2918.74517839 Ry
     estimated scf accuracy    <      12.63992927 Ry

     total magnetization       =     0.21 Bohr mag/cell
     absolute magnetization    =     0.43 Bohr mag/cell

     iteration #  7     ecut=    29.40 Ry     beta= 0.05
     Davidson diagonalization with overlap
     ethr =  2.61E-03,  avg # of iterations =  1.2

     negative rho (up, down):  4.067E-03 4.079E-03
 
     Adding external electric field

     Computed dipole along edir(3) : 
        Dipole               -1.3952 Ry au,         -3.5461 Debye
        Dipole field         -0.0026 Ry au, 
 
        Potential amp.        0.2441 Ry
        Total length         46.3494 bohr
 
 
     Adding external electric field

     Computed dipole along edir(3) : 
        Dipole               -1.3952 Ry au,         -3.5461 Debye
        Dipole field         -0.0026 Ry au, 
 
        Potential amp.        0.2441 Ry
        Total length         46.3494 bohr
 

     total cpu time spent up to now is      256.9 secs

     total energy              =   -2919.02942449 Ry
     estimated scf accuracy    <       0.78416753 Ry

     total magnetization       =     0.00 Bohr mag/cell
     absolute magnetization    =     0.28 Bohr mag/cell

     iteration #  8     ecut=    29.40 Ry     beta= 0.05
     Davidson diagonalization with overlap
     c_bands:  1 eigenvalues not converged
     ethr =  2.01E-04,  avg # of iterations = 14.9

     negative rho (up, down):  4.019E-03 4.031E-03
 
     Adding external electric field

     Computed dipole along edir(3) : 
        Dipole               -1.3988 Ry au,         -3.5554 Debye
        Dipole field         -0.0026 Ry au, 
 
        Potential amp.        0.2447 Ry
        Total length         46.3494 bohr
 
 
     Adding external electric field

     Computed dipole along edir(3) : 
        Dipole               -1.3988 Ry au,         -3.5554 Debye
        Dipole field         -0.0026 Ry au, 
 
        Potential amp.        0.2447 Ry
        Total length         46.3494 bohr
 

     total cpu time spent up to now is      301.0 secs

     total energy              =   -2919.16222051 Ry
     estimated scf accuracy    <       0.58061654 Ry

     total magnetization       =     0.00 Bohr mag/cell
     absolute magnetization    =     0.13 Bohr mag/cell

     iteration #  9     ecut=    29.40 Ry     beta= 0.05
     Davidson diagonalization with overlap
     ethr =  1.49E-04,  avg # of iterations =  1.8

     negative rho (up, down):  4.088E-03 4.102E-03
 
     Adding external electric field

     Computed dipole along edir(3) : 
        Dipole               -1.1123 Ry au,         -2.8272 Debye
        Dipole field         -0.0021 Ry au, 
 
        Potential amp.        0.1946 Ry
        Total length         46.3494 bohr
 
 
     Adding external electric field

     Computed dipole along edir(3) : 
        Dipole               -1.1123 Ry au,         -2.8272 Debye
        Dipole field         -0.0021 Ry au, 
 
        Potential amp.        0.1946 Ry
        Total length         46.3494 bohr
 

     total cpu time spent up to now is      315.2 secs

     total energy              =   -2919.15918269 Ry
     estimated scf accuracy    <       0.57667521 Ry

     total magnetization       =     0.00 Bohr mag/cell
     absolute magnetization    =     0.10 Bohr mag/cell

     iteration # 10     ecut=    29.40 Ry     beta= 0.05
     Davidson diagonalization with overlap
     ethr =  1.48E-04,  avg # of iterations =  8.4

     negative rho (up, down):  4.372E-03 4.388E-03
 
     Adding external electric field

     Computed dipole along edir(3) : 
        Dipole               -0.5463 Ry au,         -1.3885 Debye
        Dipole field         -0.0010 Ry au, 
 
        Potential amp.        0.0956 Ry
        Total length         46.3494 bohr
 
 
     Adding external electric field

     Computed dipole along edir(3) : 
        Dipole               -0.5463 Ry au,         -1.3885 Debye
        Dipole field         -0.0010 Ry au, 
 
        Potential amp.        0.0956 Ry
        Total length         46.3494 bohr
 

     total cpu time spent up to now is      354.7 secs

     total energy              =   -2919.02149498 Ry
     estimated scf accuracy    <       1.14853445 Ry

     total magnetization       =     0.00 Bohr mag/cell
     absolute magnetization    =     0.06 Bohr mag/cell

     iteration # 11     ecut=    29.40 Ry     beta= 0.05
     Davidson diagonalization with overlap
     ethr =  1.48E-04,  avg # of iterations =  9.8

     negative rho (up, down):  4.463E-03 4.480E-03
 
     Adding external electric field

     Computed dipole along edir(3) : 
        Dipole               -0.5179 Ry au,         -1.3164 Debye
        Dipole field         -0.0010 Ry au, 
 
        Potential amp.        0.0906 Ry
        Total length         46.3494 bohr
 
 
     Adding external electric field

     Computed dipole along edir(3) : 
        Dipole               -0.5179 Ry au,         -1.3164 Debye
        Dipole field         -0.0010 Ry au, 
 
        Potential amp.        0.0906 Ry
        Total length         46.3494 bohr
 

     total cpu time spent up to now is      376.9 secs

     total energy              =   -2919.11222764 Ry
     estimated scf accuracy    <       0.49810059 Ry

     total magnetization       =     0.00 Bohr mag/cell
     absolute magnetization    =     0.08 Bohr mag/cell

     iteration # 12     ecut=    29.40 Ry     beta= 0.05
     Davidson diagonalization with overlap
     ethr =  1.28E-04,  avg # of iterations =  4.3

     negative rho (up, down):  4.703E-03 4.720E-03
 
     Adding external electric field

     Computed dipole along edir(3) : 
        Dipole               -0.0724 Ry au,         -0.1840 Debye
        Dipole field         -0.0001 Ry au, 
 
        Potential amp.        0.0127 Ry
        Total length         46.3494 bohr
 
 
     Adding external electric field

     Computed dipole along edir(3) : 
        Dipole               -0.0724 Ry au,         -0.1840 Debye
        Dipole field         -0.0001 Ry au, 
 
        Potential amp.        0.0127 Ry
        Total length         46.3494 bohr
 

     total cpu time spent up to now is      404.8 secs

     total energy              =   -2919.00716610 Ry
     estimated scf accuracy    <       1.74135364 Ry

     total magnetization       =     0.01 Bohr mag/cell
     absolute magnetization    =     0.07 Bohr mag/cell

     iteration # 13     ecut=    29.40 Ry     beta= 0.05
     Davidson diagonalization with overlap
     ethr =  1.28E-04,  avg # of iterations =  6.2

     negative rho (up, down):  5.322E-03 5.342E-03
 
     Adding external electric field

     Computed dipole along edir(3) : 
        Dipole                0.2350 Ry au,          0.5974 Debye
        Dipole field          0.0004 Ry au, 
 
        Potential amp.       -0.0411 Ry
        Total length         46.3494 bohr
 
 
     Adding external electric field

     Computed dipole along edir(3) : 
        Dipole                0.2350 Ry au,          0.5974 Debye
        Dipole field          0.0004 Ry au, 
 
        Potential amp.       -0.0411 Ry
        Total length         46.3494 bohr
 

     total cpu time spent up to now is      422.5 secs

     total energy              =   -2919.09717653 Ry
     estimated scf accuracy    <       0.15332522 Ry

     total magnetization       =     0.00 Bohr mag/cell
     absolute magnetization    =     0.05 Bohr mag/cell

     iteration # 14     ecut=    29.40 Ry     beta= 0.05
     Davidson diagonalization with overlap
     c_bands:  2 eigenvalues not converged
     c_bands:  1 eigenvalues not converged
     c_bands:  3 eigenvalues not converged
     c_bands:  2 eigenvalues not converged
     c_bands:  1 eigenvalues not converged
     c_bands:  1 eigenvalues not converged
     c_bands:  1 eigenvalues not converged
     c_bands:  4 eigenvalues not converged
     c_bands:  3 eigenvalues not converged
     c_bands:  2 eigenvalues not converged
     c_bands:  1 eigenvalues not converged
     ethr =  3.93E-05,  avg # of iterations = 17.1

     negative rho (up, down):  5.313E-03 5.334E-03
 
     Adding external electric field

     Computed dipole along edir(3) : 
        Dipole                0.1536 Ry au,          0.3904 Debye
        Dipole field          0.0003 Ry au, 
 
        Potential amp.       -0.0269 Ry
        Total length         46.3494 bohr
 
 
     Adding external electric field

     Computed dipole along edir(3) : 
        Dipole                0.1536 Ry au,          0.3904 Debye
        Dipole field          0.0003 Ry au, 
 
        Potential amp.       -0.0269 Ry
        Total length         46.3494 bohr
 

     total cpu time spent up to now is      460.1 secs

     total energy              =   -2919.12181934 Ry
     estimated scf accuracy    <       0.12521988 Ry

     total magnetization       =    -0.00 Bohr mag/cell
     absolute magnetization    =     0.05 Bohr mag/cell

     iteration # 15     ecut=    29.40 Ry     beta= 0.05
     Davidson diagonalization with overlap
     c_bands:  1 eigenvalues not converged
     c_bands:  2 eigenvalues not converged
     c_bands:  1 eigenvalues not converged
     c_bands:  1 eigenvalues not converged
     ethr =  3.21E-05,  avg # of iterations =  7.5

     negative rho (up, down):  5.486E-03 5.508E-03
 
     Adding external electric field

     Computed dipole along edir(3) : 
        Dipole                0.0987 Ry au,          0.2509 Debye
        Dipole field          0.0002 Ry au, 
 
        Potential amp.       -0.0173 Ry
        Total length         46.3494 bohr
 
 
     Adding external electric field

     Computed dipole along edir(3) : 
        Dipole                0.0987 Ry au,          0.2509 Debye
        Dipole field          0.0002 Ry au, 
 
        Potential amp.       -0.0173 Ry
        Total length         46.3494 bohr
 

     total cpu time spent up to now is      476.7 secs

     total energy              =   -2919.11897680 Ry
     estimated scf accuracy    <       0.05762489 Ry

     total magnetization       =    -0.00 Bohr mag/cell
     absolute magnetization    =     0.05 Bohr mag/cell

     iteration # 16     ecut=    29.40 Ry     beta= 0.05
     Davidson diagonalization with overlap
     c_bands:  1 eigenvalues not converged
     c_bands:  1 eigenvalues not converged
     c_bands:  1 eigenvalues not converged
     c_bands:  1 eigenvalues not converged
     c_bands:  1 eigenvalues not converged
     ethr =  1.48E-05,  avg # of iterations = 14.2

     negative rho (up, down):  5.828E-03 5.850E-03
 
     Adding external electric field

     Computed dipole along edir(3) : 
        Dipole                0.1486 Ry au,          0.3776 Debye
        Dipole field          0.0003 Ry au, 
 
        Potential amp.       -0.0260 Ry
        Total length         46.3494 bohr
 
 
     Adding external electric field

     Computed dipole along edir(3) : 
        Dipole                0.1486 Ry au,          0.3776 Debye
        Dipole field          0.0003 Ry au, 
 
        Potential amp.       -0.0260 Ry
        Total length         46.3494 bohr
 

     total cpu time spent up to now is      502.9 secs

     total energy              =   -2919.12801135 Ry
     estimated scf accuracy    <       0.02013139 Ry

     total magnetization       =    -0.00 Bohr mag/cell
     absolute magnetization    =     0.04 Bohr mag/cell

     iteration # 17     ecut=    29.40 Ry     beta= 0.05
     Davidson diagonalization with overlap
     c_bands:  3 eigenvalues not converged
     c_bands:  2 eigenvalues not converged
     ethr =  5.16E-06,  avg # of iterations =  7.8

     negative rho (up, down):  7.601E-03 7.615E-03
 
     Adding external electric field

     Computed dipole along edir(3) : 
        Dipole                0.1191 Ry au,          0.3028 Debye
        Dipole field          0.0002 Ry au, 
 
        Potential amp.       -0.0208 Ry
        Total length         46.3494 bohr
 
 
     Adding external electric field

     Computed dipole along edir(3) : 
        Dipole                0.1191 Ry au,          0.3028 Debye
        Dipole field          0.0002 Ry au, 
 
        Potential amp.       -0.0208 Ry
        Total length         46.3494 bohr
 

     total cpu time spent up to now is      525.8 secs

     total energy              =   -2919.12917708 Ry
     estimated scf accuracy    <       0.01982970 Ry

     total magnetization       =    -0.00 Bohr mag/cell
     absolute magnetization    =     0.04 Bohr mag/cell

     iteration # 18     ecut=    29.40 Ry     beta= 0.05
     Davidson diagonalization with overlap
     c_bands:  1 eigenvalues not converged
     c_bands:  2 eigenvalues not converged
     c_bands:  1 eigenvalues not converged
     c_bands:  1 eigenvalues not converged
     c_bands:  2 eigenvalues not converged
     ethr =  5.08E-06,  avg # of iterations = 15.2

     negative rho (up, down):  7.525E-03 7.539E-03
 
     Adding external electric field

     Computed dipole along edir(3) : 
        Dipole                0.1299 Ry au,          0.3302 Debye
        Dipole field          0.0002 Ry au, 
 
        Potential amp.       -0.0227 Ry
        Total length         46.3494 bohr
 
 
     Adding external electric field

     Computed dipole along edir(3) : 
        Dipole                0.1299 Ry au,          0.3302 Debye
        Dipole field          0.0002 Ry au, 
 
        Potential amp.       -0.0227 Ry
        Total length         46.3494 bohr
 

     total cpu time spent up to now is      561.0 secs

     total energy              =   -2919.13266651 Ry
     estimated scf accuracy    <       0.06971427 Ry

     total magnetization       =    -0.00 Bohr mag/cell
     absolute magnetization    =     0.04 Bohr mag/cell

     iteration # 19     ecut=    29.40 Ry     beta= 0.05
     Davidson diagonalization with overlap
     ethr =  5.08E-06,  avg # of iterations =  2.5

     negative rho (up, down):  7.292E-03 7.307E-03
 
     Adding external electric field

     Computed dipole along edir(3) : 
        Dipole                0.1205 Ry au,          0.3063 Debye
        Dipole field          0.0002 Ry au, 
 
        Potential amp.       -0.0211 Ry
        Total length         46.3494 bohr
 
 
     Adding external electric field

     Computed dipole along edir(3) : 
        Dipole                0.1205 Ry au,          0.3063 Debye
        Dipole field          0.0002 Ry au, 
 
        Potential amp.       -0.0211 Ry
        Total length         46.3494 bohr
 

     total cpu time spent up to now is      575.3 secs

     total energy              =   -2919.13123890 Ry
     estimated scf accuracy    <       0.06165425 Ry

     total magnetization       =    -0.00 Bohr mag/cell
     absolute magnetization    =     0.04 Bohr mag/cell

     iteration # 20     ecut=    29.40 Ry     beta= 0.05
     Davidson diagonalization with overlap
     ethr =  5.08E-06,  avg # of iterations =  1.9

     negative rho (up, down):  7.778E-03 7.790E-03
 
     Adding external electric field

     Computed dipole along edir(3) : 
        Dipole                0.1261 Ry au,          0.3204 Debye
        Dipole field          0.0002 Ry au, 
 
        Potential amp.       -0.0221 Ry
        Total length         46.3494 bohr
 
 
     Adding external electric field

     Computed dipole along edir(3) : 
        Dipole                0.1261 Ry au,          0.3204 Debye
        Dipole field          0.0002 Ry au, 
 
        Potential amp.       -0.0221 Ry
        Total length         46.3494 bohr
 

     total cpu time spent up to now is      590.1 secs

     total energy              =   -2919.12894187 Ry
     estimated scf accuracy    <       0.05170350 Ry

     total magnetization       =    -0.00 Bohr mag/cell
     absolute magnetization    =     0.04 Bohr mag/cell

     iteration # 21     ecut=    29.40 Ry     beta= 0.05
     Davidson diagonalization with overlap
     ethr =  5.08E-06,  avg # of iterations =  5.0

     negative rho (up, down):  8.342E-03 8.349E-03
 
     Adding external electric field

     Computed dipole along edir(3) : 
        Dipole                0.2155 Ry au,          0.5478 Debye
        Dipole field          0.0004 Ry au, 
 
        Potential amp.       -0.0377 Ry
        Total length         46.3494 bohr
 
 
     Adding external electric field

     Computed dipole along edir(3) : 
        Dipole                0.2155 Ry au,          0.5478 Debye
        Dipole field          0.0004 Ry au, 
 
        Potential amp.       -0.0377 Ry
        Total length         46.3494 bohr
 

     total cpu time spent up to now is      608.9 secs

     total energy              =   -2919.13122709 Ry
     estimated scf accuracy    <       0.01985468 Ry

     total magnetization       =    -0.00 Bohr mag/cell
     absolute magnetization    =     0.03 Bohr mag/cell

     iteration # 22     ecut=    29.40 Ry     beta= 0.05
     Davidson diagonalization with overlap
     ethr =  5.08E-06,  avg # of iterations =  2.2

     negative rho (up, down):  8.139E-03 8.147E-03
 
     Adding external electric field

     Computed dipole along edir(3) : 
        Dipole                0.2253 Ry au,          0.5726 Debye
        Dipole field          0.0004 Ry au, 
 
        Potential amp.       -0.0394 Ry
        Total length         46.3494 bohr
 
 
     Adding external electric field

     Computed dipole along edir(3) : 
        Dipole                0.2253 Ry au,          0.5726 Debye
        Dipole field          0.0004 Ry au, 
 
        Potential amp.       -0.0394 Ry
        Total length         46.3494 bohr
 

     total cpu time spent up to now is      623.8 secs

     total energy              =   -2919.13062222 Ry
     estimated scf accuracy    <       0.00476339 Ry

     total magnetization       =    -0.00 Bohr mag/cell
     absolute magnetization    =     0.03 Bohr mag/cell

     iteration # 23     ecut=    29.40 Ry     beta= 0.05
     Davidson diagonalization with overlap
     ethr =  1.22E-06,  avg # of iterations =  9.2

     negative rho (up, down):  8.116E-03 8.124E-03
 
     Adding external electric field

     Computed dipole along edir(3) : 
        Dipole                0.2401 Ry au,          0.6102 Debye
        Dipole field          0.0005 Ry au, 
 
        Potential amp.       -0.0420 Ry
        Total length         46.3494 bohr
 
 
     Adding external electric field

     Computed dipole along edir(3) : 
        Dipole                0.2401 Ry au,          0.6102 Debye
        Dipole field          0.0005 Ry au, 
 
        Potential amp.       -0.0420 Ry
        Total length         46.3494 bohr
 

     total cpu time spent up to now is      646.9 secs

     total energy              =   -2919.13187299 Ry
     estimated scf accuracy    <       0.00124192 Ry

     total magnetization       =    -0.00 Bohr mag/cell
     absolute magnetization    =     0.03 Bohr mag/cell

     iteration # 24     ecut=    29.40 Ry     beta= 0.05
     Davidson diagonalization with overlap
     ethr =  3.18E-07,  avg # of iterations =  5.4

     negative rho (up, down):  8.180E-03 8.187E-03
 
     Adding external electric field

     Computed dipole along edir(3) : 
        Dipole                0.2303 Ry au,          0.5855 Debye
        Dipole field          0.0004 Ry au, 
 
        Potential amp.       -0.0403 Ry
        Total length         46.3494 bohr
 
 
     Adding external electric field

     Computed dipole along edir(3) : 
        Dipole                0.2303 Ry au,          0.5855 Debye
        Dipole field          0.0004 Ry au, 
 
        Potential amp.       -0.0403 Ry
        Total length         46.3494 bohr
 

     total cpu time spent up to now is      666.3 secs

     total energy              =   -2919.13185585 Ry
     estimated scf accuracy    <       0.00216753 Ry

     total magnetization       =    -0.00 Bohr mag/cell
     absolute magnetization    =     0.03 Bohr mag/cell

     iteration # 25     ecut=    29.40 Ry     beta= 0.05
     Davidson diagonalization with overlap
     ethr =  3.18E-07,  avg # of iterations =  7.2

     negative rho (up, down):  8.490E-03 8.494E-03
 
     Adding external electric field

     Computed dipole along edir(3) : 
        Dipole                0.2283 Ry au,          0.5803 Debye
        Dipole field          0.0004 Ry au, 
 
        Potential amp.       -0.0399 Ry
        Total length         46.3494 bohr
 
 
     Adding external electric field

     Computed dipole along edir(3) : 
        Dipole                0.2283 Ry au,          0.5803 Debye
        Dipole field          0.0004 Ry au, 
 
        Potential amp.       -0.0399 Ry
        Total length         46.3494 bohr
 

     total cpu time spent up to now is      692.1 secs

     total energy              =   -2919.13177689 Ry
     estimated scf accuracy    <       0.00278203 Ry

     total magnetization       =    -0.00 Bohr mag/cell
     absolute magnetization    =     0.02 Bohr mag/cell

     iteration # 26     ecut=    29.40 Ry     beta= 0.05
     Davidson diagonalization with overlap
     ethr =  3.18E-07,  avg # of iterations =  5.0

     negative rho (up, down):  8.616E-03 8.619E-03
 
     Adding external electric field

     Computed dipole along edir(3) : 
        Dipole                0.2337 Ry au,          0.5940 Debye
        Dipole field          0.0004 Ry au, 
 
        Potential amp.       -0.0409 Ry
        Total length         46.3494 bohr
 
 
     Adding external electric field

     Computed dipole along edir(3) : 
        Dipole                0.2337 Ry au,          0.5940 Debye
        Dipole field          0.0004 Ry au, 
 
        Potential amp.       -0.0409 Ry
        Total length         46.3494 bohr
 

     total cpu time spent up to now is      715.2 secs

     total energy              =   -2919.13224814 Ry
     estimated scf accuracy    <       0.00044917 Ry

     total magnetization       =    -0.00 Bohr mag/cell
     absolute magnetization    =     0.02 Bohr mag/cell

     iteration # 27     ecut=    29.40 Ry     beta= 0.05
     Davidson diagonalization with overlap
     ethr =  1.15E-07,  avg # of iterations =  5.0

     negative rho (up, down):  8.466E-03 8.470E-03
 
     Adding external electric field

     Computed dipole along edir(3) : 
        Dipole                0.2361 Ry au,          0.6002 Debye
        Dipole field          0.0004 Ry au, 
 
        Potential amp.       -0.0413 Ry
        Total length         46.3494 bohr
 
 
     Adding external electric field

     Computed dipole along edir(3) : 
        Dipole                0.2361 Ry au,          0.6002 Debye
        Dipole field          0.0004 Ry au, 
 
        Potential amp.       -0.0413 Ry
        Total length         46.3494 bohr
 

     total cpu time spent up to now is      732.7 secs

     total energy              =   -2919.13241765 Ry
     estimated scf accuracy    <       0.00046829 Ry

     total magnetization       =    -0.00 Bohr mag/cell
     absolute magnetization    =     0.02 Bohr mag/cell

     iteration # 28     ecut=    29.40 Ry     beta= 0.05
     Davidson diagonalization with overlap
     ethr =  1.15E-07,  avg # of iterations =  5.9

     negative rho (up, down):  8.490E-03 8.494E-03
 
     Adding external electric field

     Computed dipole along edir(3) : 
        Dipole                0.2410 Ry au,          0.6125 Debye
        Dipole field          0.0005 Ry au, 
 
        Potential amp.       -0.0422 Ry
        Total length         46.3494 bohr
 
 
     Adding external electric field

     Computed dipole along edir(3) : 
        Dipole                0.2410 Ry au,          0.6125 Debye
        Dipole field          0.0005 Ry au, 
 
        Potential amp.       -0.0422 Ry
        Total length         46.3494 bohr
 

     total cpu time spent up to now is      756.1 secs

     total energy              =   -2919.13244457 Ry
     estimated scf accuracy    <       0.00151581 Ry

     total magnetization       =    -0.00 Bohr mag/cell
     absolute magnetization    =     0.02 Bohr mag/cell

     iteration # 29     ecut=    29.40 Ry     beta= 0.05
     Davidson diagonalization with overlap
     ethr =  1.15E-07,  avg # of iterations =  4.8

     negative rho (up, down):  8.786E-03 8.786E-03
 
     Adding external electric field

     Computed dipole along edir(3) : 
        Dipole                0.2484 Ry au,          0.6313 Debye
        Dipole field          0.0005 Ry au, 
 
        Potential amp.       -0.0435 Ry
        Total length         46.3494 bohr
 
 
     Adding external electric field

     Computed dipole along edir(3) : 
        Dipole                0.2484 Ry au,          0.6313 Debye
        Dipole field          0.0005 Ry au, 
 
        Potential amp.       -0.0435 Ry
        Total length         46.3494 bohr
 

     total cpu time spent up to now is      773.1 secs

     total energy              =   -2919.13240771 Ry
     estimated scf accuracy    <       0.00080359 Ry

     total magnetization       =    -0.00 Bohr mag/cell
     absolute magnetization    =     0.02 Bohr mag/cell

     iteration # 30     ecut=    29.40 Ry     beta= 0.05
     Davidson diagonalization with overlap
     ethr =  1.15E-07,  avg # of iterations =  4.6

     negative rho (up, down):  8.832E-03 8.832E-03
 
     Adding external electric field

     Computed dipole along edir(3) : 
        Dipole                0.2495 Ry au,          0.6341 Debye
        Dipole field          0.0005 Ry au, 
 
        Potential amp.       -0.0436 Ry
        Total length         46.3494 bohr
 
 
     Adding external electric field

     Computed dipole along edir(3) : 
        Dipole                0.2495 Ry au,          0.6341 Debye
        Dipole field          0.0005 Ry au, 
 
        Potential amp.       -0.0436 Ry
        Total length         46.3494 bohr
 

     total cpu time spent up to now is      796.4 secs

     total energy              =   -2919.13263873 Ry
     estimated scf accuracy    <       0.00012559 Ry

     total magnetization       =    -0.00 Bohr mag/cell
     absolute magnetization    =     0.02 Bohr mag/cell

     iteration # 31     ecut=    29.40 Ry     beta= 0.05
     Davidson diagonalization with overlap
     ethr =  3.22E-08,  avg # of iterations =  5.0

     negative rho (up, down):  8.997E-03 8.995E-03
 
     Adding external electric field

     Computed dipole along edir(3) : 
        Dipole                0.2530 Ry au,          0.6431 Debye
        Dipole field          0.0005 Ry au, 
 
        Potential amp.       -0.0443 Ry
        Total length         46.3494 bohr
 
 
     Adding external electric field

     Computed dipole along edir(3) : 
        Dipole                0.2530 Ry au,          0.6431 Debye
        Dipole field          0.0005 Ry au, 
 
        Potential amp.       -0.0443 Ry
        Total length         46.3494 bohr
 

     total cpu time spent up to now is      817.8 secs

     total energy              =   -2919.13270348 Ry
     estimated scf accuracy    <       0.00014876 Ry

     total magnetization       =    -0.00 Bohr mag/cell
     absolute magnetization    =     0.02 Bohr mag/cell

     iteration # 32     ecut=    29.40 Ry     beta= 0.05
     Davidson diagonalization with overlap
     ethr =  3.22E-08,  avg # of iterations =  5.0

     negative rho (up, down):  9.011E-03 9.009E-03
 
     Adding external electric field

     Computed dipole along edir(3) : 
        Dipole                0.2511 Ry au,          0.6382 Debye
        Dipole field          0.0005 Ry au, 
 
        Potential amp.       -0.0439 Ry
        Total length         46.3494 bohr
 
 
     Adding external electric field

     Computed dipole along edir(3) : 
        Dipole                0.2511 Ry au,          0.6382 Debye
        Dipole field          0.0005 Ry au, 
 
        Potential amp.       -0.0439 Ry
        Total length         46.3494 bohr
 

     total cpu time spent up to now is      839.0 secs

     total energy              =   -2919.13280453 Ry
     estimated scf accuracy    <       0.00006443 Ry

     total magnetization       =    -0.00 Bohr mag/cell
     absolute magnetization    =     0.01 Bohr mag/cell

     iteration # 33     ecut=    29.40 Ry     beta= 0.05
     Davidson diagonalization with overlap
     ethr =  1.65E-08,  avg # of iterations =  5.0

     negative rho (up, down):  8.920E-03 8.919E-03
 
     Adding external electric field

     Computed dipole along edir(3) : 
        Dipole                0.2488 Ry au,          0.6324 Debye
        Dipole field          0.0005 Ry au, 
 
        Potential amp.       -0.0435 Ry
        Total length         46.3494 bohr
 
 
     Adding external electric field

     Computed dipole along edir(3) : 
        Dipole                0.2488 Ry au,          0.6324 Debye
        Dipole field          0.0005 Ry au, 
 
        Potential amp.       -0.0435 Ry
        Total length         46.3494 bohr
 

     total cpu time spent up to now is      856.0 secs

     total energy              =   -2919.13285377 Ry
     estimated scf accuracy    <       0.00008278 Ry

     total magnetization       =    -0.00 Bohr mag/cell
     absolute magnetization    =     0.01 Bohr mag/cell

     iteration # 34     ecut=    29.40 Ry     beta= 0.05
     Davidson diagonalization with overlap
     ethr =  1.65E-08,  avg # of iterations =  3.5

     negative rho (up, down):  8.936E-03 8.935E-03
 
     Adding external electric field

     Computed dipole along edir(3) : 
        Dipole                0.2518 Ry au,          0.6399 Debye
        Dipole field          0.0005 Ry au, 
 
        Potential amp.       -0.0440 Ry
        Total length         46.3494 bohr
 
 
     Adding external electric field

     Computed dipole along edir(3) : 
        Dipole                0.2518 Ry au,          0.6399 Debye
        Dipole field          0.0005 Ry au, 
 
        Potential amp.       -0.0440 Ry
        Total length         46.3494 bohr
 

     total cpu time spent up to now is      871.7 secs

     total energy              =   -2919.13289666 Ry
     estimated scf accuracy    <       0.00005894 Ry

     total magnetization       =    -0.00 Bohr mag/cell
     absolute magnetization    =     0.01 Bohr mag/cell

     iteration # 35     ecut=    29.40 Ry     beta= 0.05
     Davidson diagonalization with overlap
     ethr =  1.51E-08,  avg # of iterations =  2.1

     negative rho (up, down):  8.940E-03 8.938E-03
 
     Adding external electric field

     Computed dipole along edir(3) : 
        Dipole                0.2520 Ry au,          0.6406 Debye
        Dipole field          0.0005 Ry au, 
 
        Potential amp.       -0.0441 Ry
        Total length         46.3494 bohr
 
 
     Adding external electric field

     Computed dipole along edir(3) : 
        Dipole                0.2520 Ry au,          0.6406 Debye
        Dipole field          0.0005 Ry au, 
 
        Potential amp.       -0.0441 Ry
        Total length         46.3494 bohr
 

     total cpu time spent up to now is      890.8 secs

     total energy              =   -2919.13294645 Ry
     estimated scf accuracy    <       0.00002044 Ry

     total magnetization       =    -0.00 Bohr mag/cell
     absolute magnetization    =     0.01 Bohr mag/cell

     iteration # 36     ecut=    29.40 Ry     beta= 0.05
     Davidson diagonalization with overlap
     ethr =  5.24E-09,  avg # of iterations =  5.5

     negative rho (up, down):  8.911E-03 8.910E-03
 
     Adding external electric field

     Computed dipole along edir(3) : 
        Dipole                0.2513 Ry au,          0.6386 Debye
        Dipole field          0.0005 Ry au, 
 
        Potential amp.       -0.0440 Ry
        Total length         46.3494 bohr
 
 
     Adding external electric field

     Computed dipole along edir(3) : 
        Dipole                0.2513 Ry au,          0.6386 Debye
        Dipole field          0.0005 Ry au, 
 
        Potential amp.       -0.0440 Ry
        Total length         46.3494 bohr
 

     total cpu time spent up to now is      909.9 secs

     total energy              =   -2919.13299298 Ry
     estimated scf accuracy    <       0.00000593 Ry

     total magnetization       =    -0.00 Bohr mag/cell
     absolute magnetization    =     0.01 Bohr mag/cell

     iteration # 37     ecut=    29.40 Ry     beta= 0.05
     Davidson diagonalization with overlap
     ethr =  1.52E-09,  avg # of iterations =  5.0

     negative rho (up, down):  8.896E-03 8.895E-03
 
     Adding external electric field

     Computed dipole along edir(3) : 
        Dipole                0.2507 Ry au,          0.6371 Debye
        Dipole field          0.0005 Ry au, 
 
        Potential amp.       -0.0438 Ry
        Total length         46.3494 bohr
 
 
     Adding external electric field

     Computed dipole along edir(3) : 
        Dipole                0.2507 Ry au,          0.6371 Debye
        Dipole field          0.0005 Ry au, 
 
        Potential amp.       -0.0438 Ry
        Total length         46.3494 bohr
 

     total cpu time spent up to now is      927.2 secs

     total energy              =   -2919.13303248 Ry
     estimated scf accuracy    <       0.00000689 Ry

     total magnetization       =    -0.00 Bohr mag/cell
     absolute magnetization    =     0.01 Bohr mag/cell

     iteration # 38     ecut=    29.40 Ry     beta= 0.05
     Davidson diagonalization with overlap
     ethr =  1.52E-09,  avg # of iterations =  4.3

     negative rho (up, down):  8.887E-03 8.887E-03
 
     Adding external electric field

     Computed dipole along edir(3) : 
        Dipole                0.2507 Ry au,          0.6372 Debye
        Dipole field          0.0005 Ry au, 
 
        Potential amp.       -0.0439 Ry
        Total length         46.3494 bohr
 
 
     Adding external electric field

     Computed dipole along edir(3) : 
        Dipole                0.2507 Ry au,          0.6372 Debye
        Dipole field          0.0005 Ry au, 
 
        Potential amp.       -0.0439 Ry
        Total length         46.3494 bohr
 

     total cpu time spent up to now is      943.7 secs

     total energy              =   -2919.13306583 Ry
     estimated scf accuracy    <       0.00000543 Ry

     total magnetization       =    -0.00 Bohr mag/cell
     absolute magnetization    =     0.01 Bohr mag/cell

     iteration # 39     ecut=    29.40 Ry     beta= 0.05
     Davidson diagonalization with overlap
     ethr =  1.39E-09,  avg # of iterations =  5.8

     negative rho (up, down):  8.885E-03 8.884E-03
 
     Adding external electric field

     Computed dipole along edir(3) : 
        Dipole                0.2506 Ry au,          0.6370 Debye
        Dipole field          0.0005 Ry au, 
 
        Potential amp.       -0.0438 Ry
        Total length         46.3494 bohr
 
 
     Adding external electric field

     Computed dipole along edir(3) : 
        Dipole                0.2506 Ry au,          0.6370 Debye
        Dipole field          0.0005 Ry au, 
 
        Potential amp.       -0.0438 Ry
        Total length         46.3494 bohr
 

     total cpu time spent up to now is      970.8 secs

     total energy              =   -2919.13309880 Ry
     estimated scf accuracy    <       0.00000940 Ry

     total magnetization       =    -0.00 Bohr mag/cell
     absolute magnetization    =     0.01 Bohr mag/cell

     iteration # 40     ecut=    29.40 Ry     beta= 0.05
     Davidson diagonalization with overlap
     ethr =  1.39E-09,  avg # of iterations =  4.6

     negative rho (up, down):  8.889E-03 8.888E-03
 
     Adding external electric field

     Computed dipole along edir(3) : 
        Dipole                0.2508 Ry au,          0.6375 Debye
        Dipole field          0.0005 Ry au, 
 
        Potential amp.       -0.0439 Ry
        Total length         46.3494 bohr
 
 
     Adding external electric field

     Computed dipole along edir(3) : 
        Dipole                0.2508 Ry au,          0.6375 Debye
        Dipole field          0.0005 Ry au, 
 
        Potential amp.       -0.0439 Ry
        Total length         46.3494 bohr
 

     total cpu time spent up to now is      991.3 secs

     total energy              =   -2919.13312705 Ry
     estimated scf accuracy    <       0.00000285 Ry

     total magnetization       =    -0.00 Bohr mag/cell
     absolute magnetization    =     0.01 Bohr mag/cell

     iteration # 41     ecut=    29.40 Ry     beta= 0.05
     Davidson diagonalization with overlap
     ethr =  7.30E-10,  avg # of iterations =  5.2

     negative rho (up, down):  8.888E-03 8.887E-03
 
     Adding external electric field

     Computed dipole along edir(3) : 
        Dipole                0.2509 Ry au,          0.6377 Debye
        Dipole field          0.0005 Ry au, 
 
        Potential amp.       -0.0439 Ry
        Total length         46.3494 bohr
 
 
     Adding external electric field

     Computed dipole along edir(3) : 
        Dipole                0.2509 Ry au,          0.6377 Debye
        Dipole field          0.0005 Ry au, 
 
        Potential amp.       -0.0439 Ry
        Total length         46.3494 bohr
 

     total cpu time spent up to now is     1026.3 secs

     total energy              =   -2919.13315455 Ry
     estimated scf accuracy    <       0.00000419 Ry

     total magnetization       =    -0.00 Bohr mag/cell
     absolute magnetization    =     0.01 Bohr mag/cell

     iteration # 42     ecut=    29.40 Ry     beta= 0.05
     Davidson diagonalization with overlap
     ethr =  7.30E-10,  avg # of iterations =  1.0

     negative rho (up, down):  8.899E-03 8.898E-03
 
     Adding external electric field

     Computed dipole along edir(3) : 
        Dipole                0.2508 Ry au,          0.6374 Debye
        Dipole field          0.0005 Ry au, 
 
        Potential amp.       -0.0439 Ry
        Total length         46.3494 bohr
 
 
     Adding external electric field

     Computed dipole along edir(3) : 
        Dipole                0.2508 Ry au,          0.6374 Debye
        Dipole field          0.0005 Ry au, 
 
        Potential amp.       -0.0439 Ry
        Total length         46.3494 bohr
 

     total cpu time spent up to now is     1040.6 secs

     total energy              =   -2919.13317752 Ry
     estimated scf accuracy    <       0.00000291 Ry

     total magnetization       =    -0.00 Bohr mag/cell
     absolute magnetization    =     0.01 Bohr mag/cell

     iteration # 43     ecut=    29.40 Ry     beta= 0.05
     Davidson diagonalization with overlap
     ethr =  7.30E-10,  avg # of iterations =  5.0

     negative rho (up, down):  8.889E-03 8.888E-03
 
     Adding external electric field

     Computed dipole along edir(3) : 
        Dipole                0.2507 Ry au,          0.6372 Debye
        Dipole field          0.0005 Ry au, 
 
        Potential amp.       -0.0439 Ry
        Total length         46.3494 bohr
 
 
     Adding external electric field

     Computed dipole along edir(3) : 
        Dipole                0.2507 Ry au,          0.6372 Debye
        Dipole field          0.0005 Ry au, 
 
        Potential amp.       -0.0439 Ry
        Total length         46.3494 bohr
 

     total cpu time spent up to now is     1059.6 secs

     total energy              =   -2919.13319895 Ry
     estimated scf accuracy    <       0.00000032 Ry

     total magnetization       =    -0.00 Bohr mag/cell
     absolute magnetization    =     0.01 Bohr mag/cell

     iteration # 44     ecut=    29.40 Ry     beta= 0.05
     Davidson diagonalization with overlap
     ethr =  8.19E-11,  avg # of iterations =  5.5

     negative rho (up, down):  8.889E-03 8.888E-03
 
     Adding external electric field

     Computed dipole along edir(3) : 
        Dipole                0.2507 Ry au,          0.6372 Debye
        Dipole field          0.0005 Ry au, 
 
        Potential amp.       -0.0439 Ry
        Total length         46.3494 bohr
 
 
     Adding external electric field

     Computed dipole along edir(3) : 
        Dipole                0.2507 Ry au,          0.6372 Debye
        Dipole field          0.0005 Ry au, 
 
        Potential amp.       -0.0439 Ry
        Total length         46.3494 bohr
 

     total cpu time spent up to now is     1085.7 secs

     total energy              =   -2919.13321800 Ry
     estimated scf accuracy    <       0.00000076 Ry

     total magnetization       =    -0.00 Bohr mag/cell
     absolute magnetization    =     0.01 Bohr mag/cell

     iteration # 45     ecut=    29.40 Ry     beta= 0.05
     Davidson diagonalization with overlap
     ethr =  8.19E-11,  avg # of iterations =  5.0

     negative rho (up, down):  8.887E-03 8.886E-03
 
     Adding external electric field

     Computed dipole along edir(3) : 
        Dipole                0.2507 Ry au,          0.6372 Debye
        Dipole field          0.0005 Ry au, 
 
        Potential amp.       -0.0439 Ry
        Total length         46.3494 bohr
 
 
     Adding external electric field

     Computed dipole along edir(3) : 
        Dipole                0.2507 Ry au,          0.6372 Debye
        Dipole field          0.0005 Ry au, 
 
        Potential amp.       -0.0439 Ry
        Total length         46.3494 bohr
 

     total cpu time spent up to now is     1110.4 secs

     total energy              =   -2919.13323536 Ry
     estimated scf accuracy    <       0.00000015 Ry

     total magnetization       =    -0.00 Bohr mag/cell
     absolute magnetization    =     0.01 Bohr mag/cell

     iteration # 46     ecut=    29.40 Ry     beta= 0.05
     Davidson diagonalization with overlap
     ethr =  3.83E-11,  avg # of iterations =  4.8

     negative rho (up, down):  8.878E-03 8.878E-03
 
     Adding external electric field

     Computed dipole along edir(3) : 
        Dipole                0.2505 Ry au,          0.6367 Debye
        Dipole field          0.0005 Ry au, 
 
        Potential amp.       -0.0438 Ry
        Total length         46.3494 bohr
 
 
     Adding external electric field

     Computed dipole along edir(3) : 
        Dipole                0.2505 Ry au,          0.6367 Debye
        Dipole field          0.0005 Ry au, 
 
        Potential amp.       -0.0438 Ry
        Total length         46.3494 bohr
 

     total cpu time spent up to now is     1126.8 secs

     total energy              =   -2919.13325098 Ry
     estimated scf accuracy    <       0.00000013 Ry

     total magnetization       =    -0.00 Bohr mag/cell
     absolute magnetization    =     0.00 Bohr mag/cell

     iteration # 47     ecut=    29.40 Ry     beta= 0.05
     Davidson diagonalization with overlap
     ethr =  3.32E-11,  avg # of iterations =  5.3

     negative rho (up, down):  8.885E-03 8.885E-03
 
     Adding external electric field

     Computed dipole along edir(3) : 
        Dipole                0.2504 Ry au,          0.6364 Debye
        Dipole field          0.0005 Ry au, 
 
        Potential amp.       -0.0438 Ry
        Total length         46.3494 bohr
 
 
     Adding external electric field

     Computed dipole along edir(3) : 
        Dipole                0.2504 Ry au,          0.6364 Debye
        Dipole field          0.0005 Ry au, 
 
        Potential amp.       -0.0438 Ry
        Total length         46.3494 bohr
 
 
     Magnetic moment per site  (integrated on atomic sphere of radius R)
     atom   1 (R=0.743)  charge=  8.0712  magn= -0.0003
     atom   2 (R=0.743)  charge=  8.0673  magn= -0.0002
     atom   3 (R=0.743)  charge=  5.0508  magn=  0.0001
     atom   4 (R=0.743)  charge=  5.0897  magn=  0.0000
     atom   5 (R=0.743)  charge=  5.0526  magn= -0.0000
     atom   6 (R=0.743)  charge=  5.0540  magn= -0.0000
     atom   7 (R=0.743)  charge=  8.0607  magn=  0.0000
     atom   8 (R=0.743)  charge=  8.0480  magn= -0.0000
     atom   9 (R=0.743)  charge=  5.0677  magn= -0.0000
     atom  10 (R=0.743)  charge=  4.9974  magn=  0.0000
     atom  11 (R=0.743)  charge=  5.0556  magn= -0.0000
     atom  12 (R=0.743)  charge=  5.0584  magn= -0.0000
     atom  13 (R=0.743)  charge=  8.0594  magn=  0.0000
     atom  14 (R=0.743)  charge=  8.0663  magn=  0.0000
     atom  15 (R=0.743)  charge=  5.0445  magn=  0.0000
     atom  16 (R=0.743)  charge=  5.0715  magn= -0.0000
     atom  17 (R=0.743)  charge=  5.0432  magn=  0.0000
     atom  18 (R=0.743)  charge=  5.0420  magn=  0.0000
     atom  19 (R=0.743)  charge=  8.0873  magn= -0.0000
     atom  20 (R=0.743)  charge=  8.0865  magn= -0.0001
     atom  21 (R=0.743)  charge=  4.9345  magn=  0.0003
     atom  22 (R=0.743)  charge=  5.0262  magn=  0.0001
     atom  23 (R=0.743)  charge=  5.0425  magn=  0.0001
     atom  24 (R=0.743)  charge=  5.0426  magn=  0.0001
     atom  25 (R=0.743)  charge=  8.0712  magn= -0.0003
     atom  26 (R=0.743)  charge=  8.0673  magn= -0.0002
     atom  27 (R=0.743)  charge=  5.0507  magn=  0.0000
     atom  28 (R=0.743)  charge=  5.0899  magn=  0.0000
     atom  29 (R=0.743)  charge=  5.0534  magn= -0.0000
     atom  30 (R=0.743)  charge=  5.0547  magn= -0.0000
     atom  31 (R=0.743)  charge=  8.0608  magn= -0.0000
     atom  32 (R=0.743)  charge=  8.0482  magn= -0.0000
     atom  33 (R=0.743)  charge=  5.0679  magn= -0.0000
     atom  34 (R=0.743)  charge=  4.9963  magn=  0.0000
     atom  35 (R=0.743)  charge=  5.0558  magn= -0.0000
     atom  36 (R=0.743)  charge=  5.0580  magn=  0.0000
     atom  37 (R=0.743)  charge=  8.0669  magn= -0.0000
     atom  38 (R=0.743)  charge=  8.0667  magn=  0.0000
     atom  39 (R=0.743)  charge=  5.0387  magn=  0.0000
     atom  40 (R=0.743)  charge=  5.0730  magn= -0.0000
     atom  41 (R=0.743)  charge=  5.0440  magn=  0.0000
     atom  42 (R=0.743)  charge=  5.0430  magn=  0.0000
     atom  43 (R=0.743)  charge=  8.0878  magn= -0.0000
     atom  44 (R=0.743)  charge=  8.0856  magn= -0.0001
     atom  45 (R=0.743)  charge=  4.9345  magn=  0.0003
     atom  46 (R=0.743)  charge=  5.0425  magn=  0.0001
     atom  47 (R=0.743)  charge=  5.0426  magn=  0.0001
     atom  48 (R=0.596)  charge=  2.7577  magn=  0.0002
     atom  49 (R=0.451)  charge=  0.8547  magn=  0.0000
     atom  50 (R=0.451)  charge=  0.5106  magn= -0.0000
     atom  51 (R=0.451)  charge=  0.5113  magn= -0.0000
     atom  52 (R=0.451)  charge=  0.5048  magn=  0.0000

     total cpu time spent up to now is     1150.9 secs

     End of self-consistent calculation

 ------ SPIN UP ------------


          k = 0.0000 0.0000 0.0000 ( 18029 PWs)   bands (ev):

   -56.8989 -56.8653 -56.0120 -56.0028 -55.9769 -55.9703 -55.8621 -55.8263
   -55.6443 -55.6091 -55.5610 -55.5388 -55.5271 -55.4411 -54.9959 -54.9434
   -33.3264 -33.1729 -33.1447 -33.0751 -32.9841 -32.9524 -32.4854 -32.4761
   -32.4048 -32.2979 -32.2523 -32.2254 -32.2104 -32.1864 -32.1535 -32.1505
   -32.1427 -32.1408 -32.1167 -32.1084 -32.1023 -32.0703 -32.0442 -32.0291
   -32.0154 -31.9982 -31.9893 -31.9657 -31.9529 -31.8994 -31.8758 -31.8753
   -31.7831 -31.7823 -31.7716 -31.7141 -31.7104 -31.6882 -31.6688 -31.6472
   -31.6229 -31.5773 -31.5182 -31.2389 -31.2204 -31.1928 -31.1645 -31.0461
   -17.0612 -16.6212 -16.3902 -16.2606 -16.1886 -16.1387 -16.0906 -15.9630
   -15.8924 -15.8891 -15.8525 -15.8124 -15.7444 -15.6051 -15.5077 -15.4480
   -15.4047 -15.2851 -15.2280 -15.1911 -15.1830 -15.1526 -15.1321 -14.9349
   -14.9125 -14.8169 -14.7991 -14.6760 -14.4485 -14.0600 -13.9500 -13.0835
    -7.8088  -4.6274  -4.1173  -3.8744  -3.7922  -3.6816  -3.6744  -3.5921
    -3.4785  -3.4274  -3.3818  -3.2662  -3.2617  -3.1164  -3.0987  -3.0738
    -3.0670  -3.0284  -2.9944  -2.9511  -2.8972  -2.8891  -2.8799  -2.7354
    -2.6378  -2.5677  -2.5453  -2.5280  -2.5002  -2.4076  -2.4028  -2.3884
    -2.3848  -2.2890  -2.1403  -2.1294  -2.0955  -2.0597  -2.0557  -2.0108
    -2.0015  -1.8456  -1.8017  -1.6856  -1.6731  -1.6391  -1.5724  -1.5690
    -1.4534  -1.3972  -1.3520  -1.3063  -1.1996  -1.1547  -1.1252  -1.0361
    -0.9759  -0.9390  -0.9196  -0.9008  -0.7929  -0.7866  -0.7702  -0.6787
    -0.6727  -0.6227  -0.5333  -0.5104  -0.5084  -0.4178  -0.4097  -0.3107
    -0.2769  -0.2242  -0.1940  -0.1139  -0.0835   0.0206   0.0592   0.0748
     0.2046   0.2203   0.2780   0.3451   0.4014   0.4450   0.4605   0.4955
     0.5043   0.5978   0.7051   0.7075   0.8194   0.8566   1.0129   1.0518
     1.3505   1.3608   2.0225   2.3765   2.5373   2.8354   3.0299   3.1426
     3.3530   3.3669   3.3728   3.5534   3.6007

          k = 0.0000 0.0419 0.0000 ( 17933 PWs)   bands (ev):

   -56.8939 -56.8701 -56.0069 -55.9979 -55.9820 -55.9749 -55.8570 -55.8313
   -55.6392 -55.6140 -55.5560 -55.5372 -55.5320 -55.4425 -54.9927 -54.9464
   -33.2730 -33.1686 -33.1485 -33.0618 -33.0083 -32.9974 -32.4325 -32.4232
   -32.3493 -32.2835 -32.2464 -32.2139 -32.2132 -32.2071 -32.1715 -32.1580
   -32.1528 -32.1510 -32.1461 -32.1303 -32.0667 -32.0654 -32.0578 -32.0468
   -32.0306 -31.9822 -31.9690 -31.9643 -31.9003 -31.8957 -31.8786 -31.8623
   -31.7966 -31.7779 -31.7691 -31.7595 -31.7117 -31.7003 -31.6824 -31.6700
   -31.6476 -31.6340 -31.4691 -31.2487 -31.2181 -31.1965 -31.1674 -31.0844
   -16.9400 -16.4993 -16.3134 -16.2868 -16.2009 -16.1127 -16.0742 -15.9123
   -15.9066 -15.8558 -15.8322 -15.7455 -15.7223 -15.6361 -15.5498 -15.5378
   -15.4490 -15.2872 -15.2828 -15.2560 -15.2222 -15.1288 -15.0719 -14.9845
   -14.9081 -14.8556 -14.8217 -14.6979 -14.5187 -14.0672 -13.9910 -13.0926
    -7.8045  -4.4456  -3.9396  -3.7121  -3.6410  -3.6019  -3.5331  -3.4710
    -3.4181  -3.4091  -3.3965  -3.2318  -3.1718  -3.0817  -3.0713  -3.0690
    -3.0594  -3.0321  -2.9952  -2.9563  -2.9057  -2.8850  -2.8444  -2.7993
    -2.7693  -2.7391  -2.7015  -2.6377  -2.6059  -2.5449  -2.5204  -2.4522
    -2.3230  -2.3190  -2.3044  -2.1289  -2.0990  -2.0871  -2.0335  -1.9741
    -1.8925  -1.7430  -1.6954  -1.6864  -1.6476  -1.6441  -1.4738  -1.4554
    -1.4206  -1.3494  -1.3243  -1.3137  -1.2370  -1.1748  -1.1623  -1.1189
    -1.0088  -0.9332  -0.8693  -0.8081  -0.7298  -0.7198  -0.6749  -0.6586
    -0.5985  -0.5871  -0.5452  -0.5320  -0.5157  -0.4410  -0.4077  -0.3568
    -0.3308  -0.3071  -0.1827  -0.1647  -0.0638  -0.0445  -0.0312   0.0183
     0.0817   0.1020   0.1169   0.1279   0.1401   0.3144   0.3542   0.4315
     0.5221   0.6500   0.6932   0.7631   0.7835   0.8000   0.9585   0.9655
     1.2305   1.3184   1.8976   2.6440   2.6488   2.8441   3.1868   3.2168
     3.2446   3.3260   3.3497   3.4999   3.5445

          k = 0.0000-0.0839 0.0000 ( 17884 PWs)   bands (ev):

   -56.8822 -56.8818 -55.9965 -55.9926 -55.9864 -55.9862 -55.8471 -55.8411
   -55.6293 -55.6239 -55.5440 -55.5439 -55.5355 -55.4441 -54.9890 -54.9500
   -33.1587 -33.1583 -33.1421 -33.1418 -33.0298 -33.0294 -32.3052 -32.3023
   -32.2952 -32.2907 -32.2477 -32.2472 -32.2420 -32.2406 -32.1972 -32.1931
   -32.1847 -32.1804 -32.1469 -32.1457 -32.0986 -32.0936 -32.0480 -32.0444
   -31.9806 -31.9727 -31.9102 -31.9042 -31.8870 -31.8869 -31.8738 -31.8300
   -31.8288 -31.7923 -31.7693 -31.7692 -31.7576 -31.7301 -31.7300 -31.7089
   -31.6799 -31.6492 -31.3836 -31.3032 -31.2157 -31.1855 -31.1698 -31.1303
   -16.6389 -16.6382 -16.2240 -16.2202 -16.0676 -16.0660 -16.0567 -16.0566
   -15.9291 -15.9205 -15.7373 -15.7326 -15.6208 -15.6142 -15.5072 -15.5042
   -15.4960 -15.4936 -15.4220 -15.4095 -15.1079 -15.1036 -14.9960 -14.9884
   -14.9424 -14.9376 -14.7790 -14.7704 -14.6081 -14.0538 -14.0538 -13.1015
    -7.8001  -3.9914  -3.9913  -3.5237  -3.5160  -3.5011  -3.5007  -3.3989
    -3.3976  -3.3463  -3.3377  -3.1738  -3.1500  -3.0989  -3.0604  -3.0515
    -3.0289  -3.0249  -3.0162  -3.0013  -2.9949  -2.9407  -2.9256  -2.8158
    -2.8129  -2.7499  -2.7088  -2.6013  -2.5220  -2.5104  -2.4533  -2.4155
    -2.4072  -2.2263  -2.2047  -2.1958  -2.1804  -2.1107  -2.1007  -2.0943
    -2.0018  -1.9755  -1.8594  -1.8490  -1.5894  -1.5805  -1.3970  -1.3855
    -1.3705  -1.3365  -1.3016  -1.2586  -1.1853  -1.1589  -1.0354  -1.0337
    -1.0259  -0.9829  -0.8821  -0.8459  -0.7920  -0.7885  -0.7036  -0.6962
    -0.6742  -0.6540  -0.5860  -0.4655  -0.4496  -0.4338  -0.3877  -0.3695
    -0.2600  -0.2309  -0.2208  -0.1779  -0.1510  -0.1254  -0.1095  -0.0554
     0.0206   0.0295   0.0422   0.0962   0.1033   0.1112   0.2053   0.3209
     0.4033   0.6940   0.7179   0.8254   0.8259   0.8591   0.9301   0.9388
     0.9685   1.2863   1.7684   2.8867   2.8872   3.0222   3.0224   3.0826
     3.0829   3.4526   3.4708   3.5825   3.5968

          k = 0.0380 0.0000 0.0000 ( 17913 PWs)   bands (ev):

   -56.8988 -56.8652 -56.0113 -56.0033 -55.9768 -55.9702 -55.8620 -55.8262
   -55.6442 -55.6090 -55.5609 -55.5387 -55.5270 -55.4410 -54.9958 -54.9433
   -33.3270 -33.1726 -33.1446 -33.0731 -32.9838 -32.9521 -32.4895 -32.4764
   -32.4048 -32.2784 -32.2517 -32.2256 -32.2103 -32.1793 -32.1736 -32.1516
   -32.1425 -32.1407 -32.1142 -32.1092 -32.1038 -32.0633 -32.0593 -32.0415
   -31.9980 -31.9891 -31.9865 -31.9656 -31.9525 -31.9019 -31.8735 -31.8731
   -31.7890 -31.7830 -31.7714 -31.7139 -31.7101 -31.6881 -31.6692 -31.6470
   -31.6227 -31.5771 -31.5176 -31.2387 -31.2218 -31.1928 -31.1638 -31.0459
   -16.9574 -16.5440 -16.4181 -16.3583 -16.2376 -16.0871 -15.9944 -15.9765
   -15.8940 -15.8750 -15.8216 -15.8059 -15.7672 -15.7454 -15.4483 -15.4422
   -15.4041 -15.3333 -15.3280 -15.3025 -15.2233 -15.0269 -15.0221 -15.0147
   -14.9164 -14.8485 -14.7843 -14.6755 -14.4467 -14.0572 -13.9496 -13.0819
    -7.8073  -4.3436  -3.9530  -3.8233  -3.7963  -3.7008  -3.6278  -3.4559
    -3.4475  -3.4134  -3.3836  -3.2302  -3.2174  -3.1907  -3.1098  -3.0948
    -3.0686  -3.0351  -3.0092  -2.9309  -2.9046  -2.8219  -2.7775  -2.6992
    -2.6057  -2.5510  -2.5285  -2.5179  -2.5086  -2.4101  -2.3727  -2.3188
    -2.1965  -2.1756  -2.1540  -2.0924  -2.0605  -2.0505  -2.0424  -1.9726
    -1.9517  -1.9414  -1.7990  -1.7537  -1.7109  -1.6444  -1.5812  -1.5395
    -1.4532  -1.4001  -1.3587  -1.3346  -1.2887  -1.2400  -1.2174  -1.1798
    -1.1228  -1.0367  -0.9455  -0.8784  -0.8715  -0.8356  -0.7720  -0.7126
    -0.6786  -0.6731  -0.6377  -0.5708  -0.4233  -0.3678  -0.3405  -0.3195
    -0.2898  -0.2368  -0.1422  -0.1157  -0.0890  -0.0851  -0.0617   0.0266
     0.0954   0.1472   0.1903   0.2776   0.3130   0.3689   0.4717   0.4770
     0.4980   0.5782   0.6239   0.6551   0.6745   0.7343   0.9093   0.9628
     1.2223   1.3661   1.8821   2.5209   2.5535   2.8346   2.9960   3.1088
     3.3619   3.3817   3.4477   3.4525   3.6247

          k = 0.0380 0.0419 0.0000 ( 17878 PWs)   bands (ev):

   -56.8938 -56.8701 -56.0063 -55.9984 -55.9818 -55.9750 -55.8569 -55.8313
   -55.6391 -55.6140 -55.5559 -55.5371 -55.5320 -55.4425 -54.9927 -54.9464
   -33.2736 -33.1684 -33.1486 -33.0601 -33.0083 -32.9971 -32.4367 -32.4240
   -32.3494 -32.2663 -32.2458 -32.2139 -32.2133 -32.1952 -32.1805 -32.1645
   -32.1534 -32.1524 -32.1520 -32.1301 -32.0663 -32.0636 -32.0548 -32.0479
   -32.0427 -31.9821 -31.9645 -31.9547 -31.9000 -31.8977 -31.8776 -31.8600
   -31.7964 -31.7833 -31.7692 -31.7593 -31.7116 -31.7004 -31.6824 -31.6708
   -31.6476 -31.6339 -31.4687 -31.2485 -31.2192 -31.1967 -31.1673 -31.0843
   -16.8422 -16.4268 -16.4004 -16.2799 -16.1700 -16.1630 -16.0120 -15.9830
   -15.9066 -15.7968 -15.7665 -15.7462 -15.7266 -15.7212 -15.6040 -15.4472
   -15.4009 -15.3760 -15.3620 -15.2942 -15.1630 -15.1403 -15.1026 -15.0589
   -14.8972 -14.8811 -14.7971 -14.6984 -14.5175 -14.0652 -13.9913 -13.0914
    -7.8036  -4.1660  -3.7808  -3.6789  -3.6291  -3.5506  -3.5267  -3.3287
    -3.3160  -3.2843  -3.2498  -3.2164  -3.1983  -3.1269  -3.0858  -3.0759
    -3.0348  -2.9760  -2.9516  -2.9501  -2.8956  -2.8640  -2.8404  -2.7888
    -2.7683  -2.7124  -2.6280  -2.5942  -2.5500  -2.4654  -2.4390  -2.4026
    -2.3592  -2.2788  -2.2694  -2.1731  -2.1244  -2.0949  -1.9540  -1.9223
    -1.8423  -1.7954  -1.7768  -1.7368  -1.6931  -1.6022  -1.5655  -1.5084
    -1.4784  -1.4083  -1.3696  -1.3399  -1.3342  -1.1981  -1.1788  -1.0974
    -1.0654  -1.0485  -0.9724  -0.9385  -0.8495  -0.8090  -0.7919  -0.7642
    -0.7325  -0.6894  -0.6476  -0.6300  -0.5771  -0.4988  -0.4375  -0.4005
    -0.3722  -0.2975  -0.2340  -0.2038  -0.1482  -0.1109  -0.0408  -0.0336
     0.0205   0.0790   0.0980   0.1254   0.1797   0.2941   0.3820   0.4415
     0.5789   0.6174   0.6598   0.7091   0.7431   0.8294   0.8827   0.9415
     1.1539   1.3396   1.8681   2.6366   2.7951   2.8864   3.0436   3.2302
     3.3129   3.3657   3.4546   3.5092   3.6321

          k = 0.0380-0.0839 0.0000 ( 17916 PWs)   bands (ev):

   -56.8822 -56.8818 -55.9962 -55.9921 -55.9867 -55.9867 -55.8471 -55.8411
   -55.6293 -55.6240 -55.5440 -55.5439 -55.5356 -55.4441 -54.9891 -54.9501
   -33.1587 -33.1583 -33.1427 -33.1424 -33.0290 -33.0286 -32.3109 -32.3083
   -32.2979 -32.2928 -32.2421 -32.2407 -32.2279 -32.2276 -32.1973 -32.1931
   -32.1849 -32.1805 -32.1587 -32.1575 -32.0987 -32.0936 -32.0473 -32.0445
   -31.9807 -31.9728 -31.9109 -31.9050 -31.8877 -31.8876 -31.8702 -31.8290
   -31.8277 -31.7927 -31.7693 -31.7691 -31.7589 -31.7301 -31.7301 -31.7089
   -31.6828 -31.6493 -31.3836 -31.3031 -31.2164 -31.1855 -31.1705 -31.1303
   -16.5695 -16.5685 -16.2150 -16.2120 -16.1462 -16.1442 -16.0363 -16.0352
   -15.9020 -15.8939 -15.7180 -15.7124 -15.6076 -15.6030 -15.5035 -15.4919
   -15.4704 -15.4603 -15.4417 -15.4354 -15.1861 -15.1817 -15.0904 -15.0795
   -14.9120 -14.9071 -14.7723 -14.7614 -14.6059 -14.0536 -14.0536 -13.1008
    -7.7999  -3.7801  -3.7789  -3.4240  -3.4221  -3.4094  -3.4088  -3.3609
    -3.3562  -3.2717  -3.2626  -3.0779  -3.0713  -3.0679  -3.0091  -3.0022
[...]
    -1.9516  -1.9413  -1.7989  -1.7535  -1.7108  -1.6443  -1.5811  -1.5395
    -1.4531  -1.4001  -1.3587  -1.3345  -1.2886  -1.2399  -1.2173  -1.1797
    -1.1224  -1.0366  -0.9453  -0.8780  -0.8715  -0.8356  -0.7720  -0.7125
    -0.6785  -0.6731  -0.6377  -0.5707  -0.4233  -0.3677  -0.3404  -0.3195
    -0.2897  -0.2368  -0.1421  -0.1157  -0.0889  -0.0851  -0.0617   0.0267
     0.0955   0.1473   0.1903   0.2776   0.3130   0.3689   0.4722   0.4773
     0.4981   0.5782   0.6239   0.6552   0.6749   0.7344   0.9103   0.9639
     1.2223   1.3662   1.8828   2.5199   2.5526   2.8337   2.9954   3.1086
     3.3619   3.3809   3.4469   3.4525   3.6038

          k = 0.0380 0.0419 0.0000 ( 17878 PWs)   bands (ev):

   -56.8948 -56.8711 -56.0063 -55.9984 -55.9818 -55.9750 -55.8569 -55.8312
   -55.6392 -55.6141 -55.5564 -55.5371 -55.5325 -55.4425 -54.9928 -54.9466
   -33.2743 -33.1694 -33.1496 -33.0612 -33.0090 -32.9981 -32.4366 -32.4240
   -32.3494 -32.2663 -32.2458 -32.2140 -32.2132 -32.1952 -32.1805 -32.1646
   -32.1535 -32.1525 -32.1521 -32.1300 -32.0663 -32.0635 -32.0548 -32.0480
   -32.0427 -31.9822 -31.9645 -31.9547 -31.9004 -31.8982 -31.8782 -31.8601
   -31.7964 -31.7833 -31.7693 -31.7597 -31.7116 -31.7008 -31.6824 -31.6708
   -31.6476 -31.6343 -31.4689 -31.2487 -31.2193 -31.1969 -31.1675 -31.0845
   -16.8419 -16.4267 -16.4000 -16.2798 -16.1698 -16.1629 -16.0116 -15.9827
   -15.9066 -15.7967 -15.7665 -15.7462 -15.7266 -15.7212 -15.6040 -15.4472
   -15.4010 -15.3761 -15.3620 -15.2941 -15.1630 -15.1403 -15.1025 -15.0588
   -14.8972 -14.8811 -14.7970 -14.6983 -14.5174 -14.0643 -13.9904 -13.0909
    -7.8032  -4.1659  -3.7808  -3.6788  -3.6291  -3.5506  -3.5267  -3.3287
    -3.3159  -3.2843  -3.2498  -3.2163  -3.1983  -3.1269  -3.0858  -3.0757
    -3.0348  -2.9760  -2.9514  -2.9499  -2.8955  -2.8640  -2.8403  -2.7888
    -2.7683  -2.7124  -2.6279  -2.5942  -2.5500  -2.4653  -2.4390  -2.4026
    -2.3592  -2.2788  -2.2694  -2.1731  -2.1243  -2.0949  -1.9540  -1.9222
    -1.8422  -1.7954  -1.7768  -1.7366  -1.6930  -1.6021  -1.5654  -1.5083
    -1.4784  -1.4080  -1.3695  -1.3398  -1.3341  -1.1981  -1.1787  -1.0974
    -1.0653  -1.0484  -0.9723  -0.9384  -0.8495  -0.8090  -0.7918  -0.7642
    -0.7324  -0.6893  -0.6476  -0.6300  -0.5771  -0.4987  -0.4374  -0.4004
    -0.3721  -0.2975  -0.2340  -0.2037  -0.1481  -0.1108  -0.0407  -0.0336
     0.0206   0.0790   0.0982   0.1254   0.1798   0.2941   0.3820   0.4415
     0.5789   0.6175   0.6600   0.7093   0.7434   0.8297   0.8837   0.9425
     1.1539   1.3397   1.8688   2.6357   2.7943   2.8856   3.0431   3.2298
     3.3123   3.3650   3.4546   3.5092   3.6321

          k = 0.0380-0.0839 0.0000 ( 17916 PWs)   bands (ev):

   -56.8832 -56.8827 -55.9962 -55.9922 -55.9867 -55.9866 -55.8471 -55.8411
   -55.6293 -55.6240 -55.5445 -55.5444 -55.5356 -55.4442 -54.9892 -54.9503
   -33.1597 -33.1593 -33.1434 -33.1431 -33.0301 -33.0297 -32.3109 -32.3083
   -32.2979 -32.2928 -32.2421 -32.2407 -32.2279 -32.2276 -32.1972 -32.1931
   -32.1849 -32.1805 -32.1587 -32.1575 -32.0987 -32.0936 -32.0473 -32.0445
   -31.9808 -31.9729 -31.9109 -31.9050 -31.8882 -31.8881 -31.8702 -31.8291
   -31.8278 -31.7927 -31.7697 -31.7696 -31.7589 -31.7305 -31.7305 -31.7089
   -31.6828 -31.6493 -31.3837 -31.3033 -31.2166 -31.1857 -31.1707 -31.1305
   -16.5692 -16.5682 -16.2148 -16.2117 -16.1460 -16.1440 -16.0362 -16.0350
   -15.9019 -15.8938 -15.7180 -15.7123 -15.6077 -15.6030 -15.5035 -15.4919
   -15.4703 -15.4603 -15.4417 -15.4354 -15.1861 -15.1817 -15.0904 -15.0795
   -14.9119 -14.9071 -14.7722 -14.7614 -14.6057 -14.0527 -14.0527 -13.1003
    -7.7995  -3.7801  -3.7788  -3.4240  -3.4221  -3.4093  -3.4088  -3.3609
    -3.3562  -3.2717  -3.2626  -3.0778  -3.0713  -3.0679  -3.0091  -3.0022
    -2.9892  -2.9634  -2.9491  -2.9430  -2.9322  -2.8758  -2.8333  -2.7800
    -2.7197  -2.6808  -2.6728  -2.5627  -2.4704  -2.4673  -2.4275  -2.4115
    -2.3730  -2.3363  -2.3269  -2.2225  -2.2157  -2.1520  -2.1235  -2.0784
    -1.9572  -1.9426  -1.8642  -1.8534  -1.6675  -1.6580  -1.6017  -1.5910
    -1.4557  -1.4307  -1.3953  -1.3699  -1.2839  -1.2704  -1.1734  -1.1648
    -1.0845  -1.0680  -0.9681  -0.9544  -0.9060  -0.8982  -0.8716  -0.8155
    -0.7518  -0.6857  -0.6137  -0.5485  -0.5010  -0.4834  -0.4396  -0.4258
    -0.3971  -0.3835  -0.3218  -0.2925  -0.2487  -0.2280  -0.1717  -0.1199
    -0.0494  -0.0478   0.0995   0.1859   0.1996   0.2280   0.3765   0.4628
     0.5150   0.6977   0.7200   0.8350   0.8358   0.8753   0.8923   0.9344
     0.9445   1.3124   1.8400   2.8897   2.8912   3.0522   3.0540   3.2505
     3.2512   3.4234   3.4394   3.5796   3.5933

          k = 0.0380-0.0419 0.0000 ( 17876 PWs)   bands (ev):

   -56.8948 -56.8711 -56.0063 -55.9984 -55.9818 -55.9750 -55.8569 -55.8312
   -55.6392 -55.6141 -55.5564 -55.5371 -55.5325 -55.4425 -54.9928 -54.9466
   -33.2742 -33.1694 -33.1496 -33.0612 -33.0090 -32.9981 -32.4366 -32.4240
   -32.3494 -32.2664 -32.2458 -32.2140 -32.2133 -32.1952 -32.1805 -32.1645
   -32.1535 -32.1529 -32.1516 -32.1300 -32.0664 -32.0635 -32.0547 -32.0480
   -32.0427 -31.9822 -31.9645 -31.9546 -31.9004 -31.8982 -31.8782 -31.8601
   -31.7964 -31.7833 -31.7693 -31.7597 -31.7116 -31.7008 -31.6826 -31.6706
   -31.6476 -31.6343 -31.4689 -31.2488 -31.2194 -31.1966 -31.1676 -31.0845
   -16.8417 -16.4267 -16.4007 -16.2797 -16.1693 -16.1630 -16.0113 -15.9829
   -15.9067 -15.7967 -15.7664 -15.7460 -15.7272 -15.7214 -15.6035 -15.4472
   -15.4006 -15.3764 -15.3608 -15.2946 -15.1621 -15.1439 -15.1019 -15.0572
   -14.8973 -14.8813 -14.7972 -14.6983 -14.5174 -14.0643 -13.9904 -13.0909
    -7.8032  -4.1653  -3.7795  -3.6805  -3.6300  -3.5492  -3.5267  -3.3282
    -3.3163  -3.2858  -3.2480  -3.2159  -3.1973  -3.1267  -3.1008  -3.0750
    -3.0268  -2.9743  -2.9545  -2.9507  -2.8977  -2.8611  -2.8388  -2.7832
    -2.7650  -2.7165  -2.6280  -2.5922  -2.5474  -2.4666  -2.4395  -2.4098
    -2.3551  -2.2808  -2.2707  -2.1694  -2.1214  -2.0906  -1.9603  -1.9246
    -1.8433  -1.8028  -1.7818  -1.7359  -1.6955  -1.5959  -1.5673  -1.5060
    -1.4722  -1.4086  -1.3672  -1.3406  -1.3337  -1.1960  -1.1818  -1.1021
    -1.0583  -1.0402  -0.9784  -0.9393  -0.8633  -0.8157  -0.7833  -0.7506
    -0.7163  -0.6860  -0.6425  -0.6266  -0.5817  -0.4977  -0.4364  -0.4136
    -0.3740  -0.3206  -0.2171  -0.1885  -0.1548  -0.1120  -0.0596  -0.0352
     0.0269   0.0765   0.0972   0.1344   0.1665   0.2891   0.3849   0.4459
     0.5881   0.6096   0.6607   0.7089   0.7452   0.8304   0.8834   0.9431
     1.1533   1.3398   1.8687   2.6363   2.7946   2.8857   3.0420   3.2295
     3.3132   3.3644   3.4493   3.5085   3.6304

          k =-0.0760-0.0000 0.0000 ( 17886 PWs)   bands (ev):

   -56.8997 -56.8662 -56.0105 -56.0040 -55.9768 -55.9702 -55.8619 -55.8262
   -55.6442 -55.6091 -55.5614 -55.5387 -55.5275 -55.4410 -54.9960 -54.9434
   -33.3284 -33.1735 -33.1455 -33.0722 -32.9851 -32.9528 -32.4934 -32.4769
   -32.4049 -32.2517 -32.2428 -32.2258 -32.2102 -32.2095 -32.1716 -32.1543
   -32.1424 -32.1406 -32.1102 -32.1102 -32.1076 -32.0732 -32.0553 -32.0418
   -31.9979 -31.9892 -31.9722 -31.9656 -31.9527 -31.9048 -31.8729 -31.8705
   -31.7961 -31.7836 -31.7718 -31.7137 -31.7102 -31.6884 -31.6699 -31.6469
   -31.6227 -31.5776 -31.5173 -31.2387 -31.2237 -31.1932 -31.1637 -31.0461
   -16.7945 -16.5011 -16.5007 -16.3359 -16.3101 -16.0833 -16.0443 -15.8972
   -15.8957 -15.8400 -15.8286 -15.7826 -15.7571 -15.7462 -15.5189 -15.4565
   -15.4463 -15.3846 -15.3584 -15.3358 -15.2438 -15.1116 -14.9685 -14.9394
   -14.9253 -14.8599 -14.7779 -14.6752 -14.4453 -14.0537 -13.9484 -13.0799
    -7.8056  -3.9557  -3.9523  -3.9136  -3.8074  -3.5521  -3.5387  -3.4994
    -3.3843  -3.3567  -3.2351  -3.1814  -3.1567  -3.1025  -3.0984  -3.0832
    -3.0058  -2.9939  -2.9756  -2.8550  -2.7937  -2.7470  -2.6970  -2.6640
    -2.6183  -2.6054  -2.5651  -2.5261  -2.4603  -2.4361  -2.3267  -2.3226
    -2.2833  -2.2005  -2.1851  -2.1603  -2.0539  -2.0006  -1.9978  -1.9452
    -1.9090  -1.8706  -1.8294  -1.7586  -1.7244  -1.7003  -1.6547  -1.5799
    -1.5475  -1.5084  -1.4920  -1.3919  -1.2831  -1.2641  -1.1718  -1.1270
    -1.1025  -1.0839  -1.0528  -0.9752  -0.9700  -0.9445  -0.8140  -0.8043
    -0.7580  -0.7195  -0.6355  -0.5990  -0.5749  -0.5225  -0.3950  -0.3078
    -0.2883  -0.2108  -0.2030  -0.1309  -0.0924  -0.0883  -0.0298   0.0620
     0.1090   0.1551   0.2140   0.2425   0.2529   0.3364   0.3498   0.4148
     0.4900   0.5589   0.5845   0.6293   0.6761   0.7758   0.7791   0.8984
     1.0101   1.3662   1.7625   2.5102   2.6468   2.7389   2.8328   3.1955
     3.2205   3.3925   3.5113   3.5436   3.5627

          k =-0.0760 0.0419 0.0000 ( 17914 PWs)   bands (ev):

   -56.8948 -56.8711 -56.0057 -55.9991 -55.9817 -55.9752 -55.8569 -55.8313
   -55.6392 -55.6141 -55.5564 -55.5372 -55.5325 -55.4425 -54.9929 -54.9466
   -33.2751 -33.1694 -33.1496 -33.0598 -33.0093 -32.9981 -32.4409 -32.4248
   -32.3496 -32.2463 -32.2314 -32.2154 -32.2136 -32.2132 -32.1753 -32.1672
   -32.1614 -32.1569 -32.1529 -32.1300 -32.0666 -32.0625 -32.0548 -32.0499
   -32.0472 -31.9823 -31.9645 -31.9436 -31.9003 -31.9002 -31.8775 -31.8581
   -31.7965 -31.7892 -31.7696 -31.7597 -31.7115 -31.7008 -31.6831 -31.6715
   -31.6476 -31.6344 -31.4686 -31.2487 -31.2207 -31.1970 -31.1676 -31.0846
   -16.6811 -16.4559 -16.4184 -16.2608 -16.2476 -16.1591 -15.9969 -15.9599
   -15.9050 -15.7922 -15.7491 -15.7448 -15.7241 -15.6580 -15.6142 -15.5066
   -15.4191 -15.4004 -15.3351 -15.3208 -15.2747 -15.1594 -15.1157 -15.0819
   -14.8954 -14.8714 -14.7875 -14.6990 -14.5167 -14.0625 -13.9907 -13.0899
    -7.8024  -3.7498  -3.7459  -3.6719  -3.6490  -3.4281  -3.4178  -3.3210
    -3.2988  -3.2427  -3.2222  -3.1158  -3.0765  -3.0643  -3.0437  -2.9727
    -2.9551  -2.9340  -2.9166  -2.9145  -2.8478  -2.8413  -2.8181  -2.7694
    -2.7353  -2.6562  -2.5444  -2.5317  -2.4817  -2.4582  -2.4157  -2.3725
    -2.3128  -2.2807  -2.2572  -2.1976  -2.0881  -2.0357  -2.0204  -1.9212
    -1.8885  -1.8826  -1.8595  -1.7740  -1.6965  -1.6574  -1.6125  -1.5759
    -1.5331  -1.4879  -1.4691  -1.4148  -1.3690  -1.3057  -1.2483  -1.2156
    -1.1723  -1.1145  -1.0707  -1.0403  -0.9732  -0.9342  -0.8595  -0.8385
    -0.7871  -0.7496  -0.7288  -0.7161  -0.6747  -0.6030  -0.5703  -0.4727
    -0.4699  -0.4388  -0.3427  -0.2755  -0.2193  -0.1008  -0.0921   0.0075
     0.0261   0.0705   0.0978   0.2362   0.2909   0.3892   0.4264   0.5215
     0.5576   0.5870   0.6499   0.7531   0.7559   0.8167   0.8193   0.9294
     1.0316   1.3586   1.8513   2.6481   2.8214   2.8347   2.9331   3.3367
     3.3874   3.3901   3.4350   3.5534   3.6574

          k =-0.0760-0.0839 0.0000 ( 17948 PWs)   bands (ev):

   -56.8832 -56.8828 -55.9959 -55.9916 -55.9874 -55.9870 -55.8471 -55.8411
   -55.6294 -55.6241 -55.5445 -55.5444 -55.5356 -55.4442 -54.9893 -54.9503
   -33.1598 -33.1594 -33.1440 -33.1437 -33.0293 -33.0289 -32.3151 -32.3126
   -32.3001 -32.2948 -32.2421 -32.2407 -32.1981 -32.1974 -32.1971 -32.1932
   -32.1855 -32.1830 -32.1820 -32.1801 -32.0988 -32.0937 -32.0475 -32.0437
   -31.9809 -31.9731 -31.9116 -31.9057 -31.8889 -31.8888 -31.8665 -31.8280
   -31.8266 -31.7930 -31.7697 -31.7696 -31.7602 -31.7305 -31.7305 -31.7090
   -31.6859 -31.6493 -31.3837 -31.3032 -31.2172 -31.1857 -31.1714 -31.1305
   -16.4089 -16.4069 -16.3752 -16.3749 -16.1039 -16.1003 -16.0509 -16.0488
   -15.8769 -15.8691 -15.6648 -15.6555 -15.6492 -15.6455 -15.5178 -15.5108
   -15.4469 -15.4340 -15.3451 -15.3383 -15.2778 -15.2715 -15.2346 -15.2131
   -14.8964 -14.8906 -14.7683 -14.7552 -14.6037 -14.0526 -14.0525 -13.0996
    -7.7992  -3.5080  -3.5072  -3.4408  -3.4399  -3.3148  -3.3080  -3.2396
    -3.2389  -3.1323  -3.1286  -3.0696  -3.0005  -2.9910  -2.9877  -2.9760
    -2.9568  -2.8344  -2.8322  -2.8201  -2.8052  -2.7540  -2.7515  -2.7348
    -2.6566  -2.6406  -2.6094  -2.5653  -2.4647  -2.4484  -2.4321  -2.4050
    -2.3484  -2.3362  -2.3220  -2.2766  -2.2549  -2.1526  -2.1083  -2.0630
    -1.9435  -1.9409  -1.9312  -1.9139  -1.7664  -1.7293  -1.6981  -1.6917
    -1.6825  -1.6327  -1.5416  -1.5333  -1.3987  -1.3940  -1.3220  -1.2390
    -1.2203  -1.1912  -1.0593  -1.0117  -0.9795  -0.9731  -0.9533  -0.9240
    -0.8957  -0.8686  -0.7237  -0.7049  -0.6805  -0.6428  -0.6302  -0.5757
    -0.5276  -0.4475  -0.3680  -0.3670  -0.2861  -0.2418  -0.1783  -0.0955
    -0.0839  -0.0776   0.2026   0.2801   0.3729   0.4575   0.5204   0.5837
     0.6074   0.6728   0.7050   0.8420   0.8452   0.8617   0.8620   0.9291
     0.9338   1.3328   1.9172   2.9497   2.9499   3.0172   3.0176   3.3414
     3.3469   3.4565   3.4660   3.5825   3.5847

     the Fermi energy is     2.2105 ev

!    total energy              =   -2919.13339381 Ry
     estimated scf accuracy    <       0.00000004 Ry
     smearing contrib. (-TS)   =      -0.00464476 Ry
     internal energy E=F+TS    =   -2919.12874905 Ry

     The total energy is F=E-TS. E is the sum of the following terms:
     one-electron contribution =  -24578.63312709 Ry
     hartree contribution      =   12373.50762528 Ry
     xc contribution           =    -479.89978110 Ry
     ewald contribution        =    9765.89641555 Ry
     electric field correction =       0.00011831 Ry

     total magnetization       =    -0.00 Bohr mag/cell
     absolute magnetization    =     0.00 Bohr mag/cell

     convergence has been achieved in  47 iterations

     Forces acting on atoms (cartesian axes, Ry/au):

     atom    1 type  1   force =    -0.00001955   -0.00046708    0.12464379
     atom    2 type  1   force =    -0.00012024   -0.00051623   -0.16051770
     atom    3 type  2   force =     0.00015943   -0.00014282   -0.06868419
     atom    4 type  2   force =    -0.00004496   -0.00017605    0.02743030
     atom    5 type  2   force =    -0.01664452    0.00229781   -0.00878040
     atom    6 type  2   force =     0.01810409    0.00296482   -0.00973104
     atom    7 type  1   force =     0.00056268   -0.00363646    0.02220324
     atom    8 type  1   force =    -0.00015400   -0.00291063    0.11210966
     atom    9 type  2   force =     0.00047741   -0.00002851   -0.00027585
     atom   10 type  2   force =    -0.00266303    0.00369082   -0.07365810
     atom   11 type  2   force =     0.00130306   -0.00058674   -0.00043251
     atom   12 type  2   force =    -0.00056318   -0.00105743   -0.00078800
     atom   13 type  1   force =     0.00032854   -0.00066240    0.00067308
     atom   14 type  1   force =    -0.00083443   -0.00054938    0.00005033
     atom   15 type  2   force =    -0.00028782   -0.00011159    0.00001045
     atom   16 type  2   force =     0.00028570    0.00011815   -0.00057701
     atom   17 type  2   force =     0.00025133   -0.00019075   -0.00016514
     atom   18 type  2   force =    -0.00040849   -0.00038911   -0.00051634
     atom   19 type  1   force =     0.00057642   -0.00037907   -0.00000768
     atom   20 type  1   force =    -0.00008206   -0.00033201   -0.00012395
     atom   21 type  2   force =     0.00005548   -0.00006771    0.09971948
     atom   22 type  2   force =     0.00007655   -0.00033380    0.00051796
     atom   23 type  2   force =    -0.07928169   -0.00009395   -0.03248652
     atom   24 type  2   force =     0.07915358    0.00035606   -0.03250710
     atom   25 type  1   force =     0.00001075   -0.00049923    0.12414283
     atom   26 type  1   force =    -0.00015641   -0.00043988   -0.16058806
     atom   27 type  2   force =     0.00029568   -0.00031698   -0.06769712
     atom   28 type  2   force =    -0.00002340   -0.00001558    0.02719400
     atom   29 type  2   force =    -0.01710697    0.00187658   -0.00888702
     atom   30 type  2   force =     0.01844397    0.00226398   -0.00978335
     atom   31 type  1   force =     0.00058317   -0.00092942    0.02173818
     atom   32 type  1   force =    -0.00011511    0.00052839    0.11257049
     atom   33 type  2   force =     0.00026397   -0.00064133   -0.00046441
     atom   34 type  2   force =    -0.00273098    0.00315756   -0.07282826
     atom   35 type  2   force =    -0.00110168    0.00023094    0.00016435
     atom   36 type  2   force =     0.00084558    0.00008332    0.00027623
     atom   37 type  1   force =    -0.00008706   -0.00002998   -0.00017172
     atom   38 type  1   force =     0.00087547   -0.00026967   -0.00013349
     atom   39 type  2   force =    -0.00010560   -0.00051988    0.00007940
     atom   40 type  2   force =     0.00007391   -0.00012536   -0.00015418
     atom   41 type  2   force =     0.00022933   -0.00046006   -0.00010138
     atom   42 type  2   force =     0.00000934   -0.00009839   -0.00062675
     atom   43 type  1   force =     0.00012706    0.00069795    0.00075134
     atom   44 type  1   force =    -0.00056744   -0.00045267   -0.00024743
     atom   45 type  2   force =     0.00004591   -0.00007060    0.09973982
     atom   46 type  2   force =    -0.07928992   -0.00004082   -0.03248065
     atom   47 type  2   force =     0.07916105    0.00040122   -0.03250066
     atom   48 type  3   force =     0.00190562   -0.00053173    0.00165099
     atom   49 type  4   force =     0.00062308    0.00019360    0.00186819
     atom   50 type  5   force =    -0.00025126   -0.00010684   -0.00013995
     atom   51 type  5   force =    -0.00038293   -0.00039879    0.00028975
     atom   52 type  5   force =    -0.00180539   -0.00028226   -0.00176791

     Total force =     0.425620     Total SCF correction =     0.000547
  @ DRIVER MODE: Message from server: STATUS
  @ DRIVER MODE: Message from server: GETFORCE
  @ DRIVER MODE: Returning v,forces,stress,ensemble 

     Writing output data file ./calc.save/
  @ DRIVER MODE: Message from server: EXIT
  @ DRIVE MODE: Exiting  
 
     init_run     :     14.37s CPU     14.55s WALL (       1 calls)
     electrons    :   1110.56s CPU   1128.81s WALL (       1 calls)
     forces       :      3.16s CPU      3.22s WALL (       1 calls)

     Called by init_run:
     wfcinit      :      8.43s CPU      8.51s WALL (       1 calls)
     potinit      :      4.43s CPU      4.48s WALL (       1 calls)
     hinit0       :      0.77s CPU      0.78s WALL (       1 calls)

     Called by electrons:
     c_bands      :    948.62s CPU    962.26s WALL (      47 calls)
     sum_band     :    126.56s CPU    128.72s WALL (      47 calls)
     v_of_rho     :     27.09s CPU     27.63s WALL (      48 calls)
     newd         :      9.36s CPU     11.08s WALL (      48 calls)
     mix_rho      :      2.24s CPU      2.28s WALL (      47 calls)
     vdW_kernel   :      3.75s CPU      3.76s WALL (       1 calls)

     Called by c_bands:
     init_us_2    :      5.94s CPU      5.97s WALL (    1920 calls)
     cegterg      :    931.45s CPU    944.72s WALL (     940 calls)

     Called by *egterg:
     cdiaghg      :    195.90s CPU    199.44s WALL (    7198 calls)
     h_psi        :    473.32s CPU    480.98s WALL (    7218 calls)
     s_psi        :     51.39s CPU     51.58s WALL (    7218 calls)
     g_psi        :      1.44s CPU      1.45s WALL (    6258 calls)

     Called by h_psi:
     h_psi:calbec :     54.48s CPU     54.84s WALL (    7218 calls)
     vloc_psi     :    364.10s CPU    371.15s WALL (    7218 calls)
     add_vuspsi   :     51.84s CPU     52.05s WALL (    7218 calls)

     General routines
     calbec       :     74.84s CPU     75.27s WALL (    8238 calls)
     fft          :     15.13s CPU     15.22s WALL (    4269 calls)
     ffts         :      0.20s CPU      0.23s WALL (     190 calls)
     fftw         :    431.54s CPU    439.36s WALL ( 1256790 calls)
     interpolate  :      0.46s CPU      0.49s WALL (      96 calls)
     davcio       :      0.00s CPU      0.34s WALL (      20 calls)
 
     Parallel routines
 
     PWSCF        :  18m56.51s CPU  19m15.54s WALL

 
   This run was terminated on:   5: 5:28  16Jul2021            

=------------------------------------------------------------------------------=
   JOB DONE.
=------------------------------------------------------------------------------=
