
     Program PWSCF v.6.7GPU starts on 10Sep2021 at 18:39:23 

     This program is part of the open-source Quantum ESPRESSO suite
     for quantum simulation of materials; please cite
         "P. Giannozzi et al., J. Phys.:Condens. Matter 21 395502 (2009);
         "P. Giannozzi et al., J. Phys.:Condens. Matter 29 465901 (2017);
         "P. Giannozzi et al., J. Chem. Phys. 152 154105 (2020);
          URL http://www.quantum-espresso.org", 
     in publications or presentations arising from this work. More details at
     http://www.quantum-espresso.org/quote

     Parallel version (MPI), running on    10 processors

     MPI processes distributed on     1 nodes
     R & G space division:  proc/nbgrp/npool/nimage =      10
     Reading input from /storage/home/hcoda1/3/ntian30/research/carbon/CxH_vib/CH2_calc/ads_slab/CH2OH_f/out_0003/pw.inp
Warning: card &CELL ignored
Warning: card   CELL_DYNAMICS='IPI', ignored
Warning: card / ignored

     Current dimensions of program PWSCF are:
     Max number of different atomic species (ntypx) = 10
     Max number of k-points (npk) =  40000
     Max angular momentum in pseudopotentials (lmaxx) =  3
     Presently no symmetry can be used with electric field

     Message from routine cell_base_init:
     DEPRECATED: use true lattice parameter, not A to a.u. conversion factor

     **************************************************************************
     Initializing libbeef V0.1.2 with the BEEF-vdW functional.
     Citation: Wellendorff et al., PRB 85, 235149 (2012).
     **************************************************************************


     IMPORTANT: XC functional enforced from input :
     Exchange-correlation= BEEF-VDW
                           (   1   4  43  14   2   0   0)
     Any further DFT definition will be discarded
     Please, verify this is what you really want


     Subspace diagonalization in iterative solution of the eigenvalue problem:
     one sub-group per band group will be used
     scalapack distributed-memory algorithm (size of sub-group:  3*  3 procs)

  @ DRIVER MODE: Connecting to 
 qe_1139763_2792042.sched-torque.pace.gatech.eduydehozl6_scratch
  using UNIX socket
  @ DRIVER MODE: Message from server: STATUS
  @ DRIVER MODE: Message from server: INIT
  @ DRIVER MODE: Receiving replica           0          -1
  @ DRIVER MODE: Receiving encoded integer          25
  @ DRIVER MODE:  SCF:  T  FORCE:  T  STRESS:  F  VC:  F  ENSEMBLE:  F
  @ DRIVER MODE:  SCF:  T  FORCE:  T  STRESS:  F  VC:  F  ENSEMBLE:  F
 
     Parallelization info
     --------------------
     sticks:   dense  smooth     PW     G-vecs:    dense   smooth      PW
     Min         327     131     37                56683    14340    2191
     Max         328     133     38                56694    14346    2206
     Sum        3275    1317    379               566857   143421   21985
 
     Using Slab Decomposition
 


     bravais-lattice index     =            0
     lattice parameter (alat)  =       1.8897  a.u.
     unit-cell volume          =    6658.9804 (a.u.)^3
     number of atoms/cell      =           52
     number of atomic types    =            4
     number of electrons       =       391.00
     number of Kohn-Sham states=          205
     kinetic-energy cutoff     =      29.3995  Ry
     charge density cutoff     =     293.9946  Ry
     scf convergence threshold =      7.3E-08
     mixing beta               =       0.0500
     number of iterations used =            8  plain     mixing
     Exchange-correlation= BEEF-VDW
                           (   1   4  43  14   2   0   0)

     celldm(1)=   1.889726  celldm(2)=   0.000000  celldm(3)=   0.000000
     celldm(4)=   0.000000  celldm(5)=   0.000000  celldm(6)=   0.000000

     crystal axes: (cart. coord. in units of alat)
               a(1) = (   6.579727   0.000000   0.000000 )  
               a(2) = (  -0.000775   5.961596   0.000000 )  
               a(3) = (   0.000000   0.000000  25.155947 )  

     reciprocal axes: (cart. coord. in units 2 pi/alat)
               b(1) = (  0.151982  0.000020  0.000000 )  
               b(2) = (  0.000000  0.167740  0.000000 )  
               b(3) = (  0.000000  0.000000  0.039752 )  


     PseudoPot. # 1 for O  read from file:
     /storage/coda1/p-amedford6/0/shared/rich_project_chbe-medford/medford-share/data/pseudos_module/espresso/nninc/pbe/van/O.UPF
     MD5 check sum: 78c19812648e8988a0fe644b0f25305e
     Pseudo is Ultrasoft, Zval =  6.0
     Generated by new atomic code, or converted to UPF format
     Using radial grid of  737 points,  4 beta functions with: 
                l(1) =   0
                l(2) =   0
                l(3) =   1
                l(4) =   1
     Q(r) pseudized with  8 coefficients,  rinner =    0.800   0.800   0.800


     PseudoPot. # 2 for Ti read from file:
     /storage/coda1/p-amedford6/0/shared/rich_project_chbe-medford/medford-share/data/pseudos_module/espresso/nninc/pbe/van/Ti.UPF
     MD5 check sum: 8e4df49b7f0d34bbd5052bf3f5ea0213
     Pseudo is Ultrasoft, Zval = 12.0
     Generated by new atomic code, or converted to UPF format
     Using radial grid of  851 points,  6 beta functions with: 
                l(1) =   0
                l(2) =   0
                l(3) =   1
                l(4) =   1
                l(5) =   2
                l(6) =   2
     Q(r) pseudized with  8 coefficients,  rinner =    1.000   1.000   1.000
                                                       1.000   1.000

     PseudoPot. # 3 for H  read from file:
     /storage/coda1/p-amedford6/0/shared/rich_project_chbe-medford/medford-share/data/pseudos_module/espresso/nninc/pbe/van/H.UPF
     MD5 check sum: b5ee9d7bfd3a09ee7748110bda690ff7
     Pseudo is Ultrasoft, Zval =  1.0
     Generated by new atomic code, or converted to UPF format
     Using radial grid of  615 points,  1 beta functions with: 
                l(1) =   0
     Q(r) pseudized with  8 coefficients,  rinner =    0.800

     PseudoPot. # 4 for C  read from file:
     /storage/coda1/p-amedford6/0/shared/rich_project_chbe-medford/medford-share/data/pseudos_module/espresso/nninc/pbe/van/C.UPF
     MD5 check sum: 1a69bf6b8db32088f5b2163dbdb77a27
     Pseudo is Ultrasoft, Zval =  4.0
     Generated by new atomic code, or converted to UPF format
     Using radial grid of  721 points,  4 beta functions with: 
                l(1) =   0
                l(2) =   0
                l(3) =   1
                l(4) =   1
     Q(r) pseudized with  8 coefficients,  rinner =    0.800   0.800   0.800


     atomic species   valence    mass     pseudopotential
        O1             6.00    15.99900     O ( 1.00)
        Ti1           12.00    47.86700     Ti( 1.00)
        H1             1.00     1.00800     H ( 1.00)
        C1             4.00    12.01100     C ( 1.00)

     No symmetry found



   Cartesian axes

     site n.     atom                  positions (alat units)
         1           O1  tau(   1) = (   3.2904802   0.0005063   4.7018136  )
         2           O1  tau(   2) = (   3.2900926   2.9813045   4.7018136  )
         3           Ti1 tau(   3) = (   0.0004258   2.9801865   6.0000000  )
         4           Ti1 tau(   4) = (   0.0000382   5.9609847   6.0000000  )
         5           Ti1 tau(   5) = (   3.2906075   1.4906267   6.0002472  )
         6           Ti1 tau(   6) = (   3.2902200   4.4714249   6.0002472  )
         7           O1  tau(   7) = (   1.3043587   1.4918075   6.0039043  )
         8           O1  tau(   8) = (   1.3039711   4.4726057   6.0039043  )
         9           O1  tau(   9) = (   5.2767064   1.4903225   6.0039473  )
        10           O1  tau(  10) = (   5.2763189   4.4711207   6.0039473  )
        11           O1  tau(  11) = (   3.2906025   0.0005020   7.3038282  )
        12           O1  tau(  12) = (   3.2902150   2.9813002   7.3038282  )
        13           O1  tau(  13) = (   0.0006271   0.0005054   7.9858123  )
        14           O1  tau(  14) = (   0.0002396   2.9813036   7.9858123  )
        15           Ti1 tau(  15) = (   3.3208325   5.9232416   9.1783542  )
        16           Ti1 tau(  16) = (   3.3324863   2.9377666   9.1648094  )
        17           Ti1 tau(  17) = (   0.0524917   1.4788520   9.2606301  )
        18           Ti1 tau(  18) = (   0.0483789   4.4105323   9.3105966  )
        19           O1  tau(  19) = (   4.5942328   1.4918067   9.2879030  )
        20           O1  tau(  20) = (   4.5938453   4.4726049   9.2879030  )
        21           O1  tau(  21) = (   1.9868534   1.4903216   9.2879459  )
        22           O1  tau(  22) = (   1.9864658   4.4711199   9.2879459  )
        23           O1  tau(  23) = (   6.5712937   0.0017758  10.5841540  )
        24           O1  tau(  24) = (   0.0002036   2.9871675  10.5944109  )
        25           O1  tau(  25) = (   3.2216619   2.9970402  11.3379169  )
        26           O1  tau(  26) = (   3.2239595   0.0054171  11.3328765  )
        27           Ti1 tau(  27) = (   6.5319223   0.0329622  12.4533321  )
        28           Ti1 tau(  28) = (   3.1914638   1.6317768  12.6145244  )
        29           Ti1 tau(  29) = (   3.1843358   4.5420783  12.4476223  )
        30           Ti1 tau(  30) = (   6.4449355   3.0101977  12.6586491  )
        31           O1  tau(  31) = (   5.2440064   1.5124744  12.5792363  )
        32           O1  tau(  32) = (   5.2402295   4.4617308  12.5795526  )
        33           O1  tau(  33) = (   1.2196697   1.4730338  12.6667888  )
        34           O1  tau(  34) = (   1.2190574   4.4979232  12.6669875  )
        35           O1  tau(  35) = (   3.2067865   2.9341989  13.9395670  )
        36           O1  tau(  36) = (   3.3440650   5.9513154  13.9008253  )
        37           O1  tau(  37) = (   6.3267833   5.9539684  14.6370341  )
        38           O1  tau(  38) = (   6.3913104   2.9714873  14.7475579  )
        39           Ti1 tau(  39) = (   3.1260420   2.9476348  15.9752747  )
        40           Ti1 tau(  40) = (   3.1986908   5.9292636  15.6746755  )
        41           Ti1 tau(  41) = (   6.4744102   1.3498976  15.9078779  )
        42           Ti1 tau(  42) = (   6.4721656   4.5656371  15.8700466  )
        43           O1  tau(  43) = (   1.8677001   4.5604514  15.8157410  )
        44           O1  tau(  44) = (   1.8686447   1.3618557  15.8396546  )
        45           O1  tau(  45) = (   4.4008848   1.5192286  16.2292034  )
        46           O1  tau(  46) = (   4.3978686   4.4066597  16.2143399  )
        47           O1  tau(  47) = (   6.4830960   5.9408203  17.1431429  )
        48           O1  tau(  48) = (   0.4828407   2.9669521  17.4917737  )
        49           H1  tau(  49) = (   6.5026766   3.0145448  18.2851392  )
        50           C1  tau(  50) = (   1.9555054   2.9805414  17.9097346  )
        51           H1  tau(  51) = (   2.0761010   2.0893267  18.5304525  )
        52           H1  tau(  52) = (   2.0801140   3.8867162  18.5073456  )

     number of k points=    10  Fermi-Dirac smearing, width (Ry)=  0.0073
                       cart. coord. in units 2pi/alat
        k(    1) = (   0.0000000   0.0000000   0.0000000), wk =   0.1250000
        k(    2) = (   0.0000000   0.0419351   0.0000000), wk =   0.2500000
        k(    3) = (   0.0000000  -0.0838702   0.0000000), wk =   0.1250000
        k(    4) = (   0.0379955   0.0000049   0.0000000), wk =   0.2500000
        k(    5) = (   0.0379955   0.0419400   0.0000000), wk =   0.2500000
        k(    6) = (   0.0379955  -0.0838652   0.0000000), wk =   0.2500000
        k(    7) = (   0.0379955  -0.0419301   0.0000000), wk =   0.2500000
        k(    8) = (  -0.0759910  -0.0000099   0.0000000), wk =   0.1250000
        k(    9) = (  -0.0759910   0.0419252   0.0000000), wk =   0.2500000
        k(   10) = (  -0.0759910  -0.0838800   0.0000000), wk =   0.1250000

     Dense  grid:   566857 G-vectors     FFT dimensions: (  72,  64, 270)

     Smooth grid:   143421 G-vectors     FFT dimensions: (  45,  40, 180)

     Estimated max dynamical RAM per process >     362.08 MB

     Estimated total dynamical RAM >       3.54 GB
     Cannot read rho : file not found

     Initial potential from superposition of free atoms

     starting charge  374.99918, renormalised to  391.00000

     negative rho (up, down):  1.928E-02 0.000E+00


     %%%%%%%%%%%%%%%%%%%%%%%%%%%%%%%%%%%%%%%%%%%%%%%%%%%%%%%%%%%%%%%%%%%%%%%%
     %                                                                      %
     % You are using vdW-DF, which was implemented by the Thonhauser group. %
     % Please cite the following two papers that made this development      %
     % possible and the two reviews that describe the various versions:     %
     %                                                                      %
     %   T. Thonhauser et al., PRL 115, 136402 (2015).                      %
     %   T. Thonhauser et al., PRB 76, 125112 (2007).                       %
     %   K. Berland et al., Rep. Prog. Phys. 78, 066501 (2015).             %
     %   D.C. Langreth et al., J. Phys.: Condens. Matter 21, 084203 (2009). %
     %                                                                      %
     %                                                                      %
     % If you are calculating the stress with vdW-DF, please also cite:     %
     %                                                                      %
     %   R. Sabatini et al., J. Phys.: Condens. Matter 24, 424209 (2012).   %
     %                                                                      %
     %%%%%%%%%%%%%%%%%%%%%%%%%%%%%%%%%%%%%%%%%%%%%%%%%%%%%%%%%%%%%%%%%%%%%%%%


 
     Adding external electric field

     Computed dipole along edir(3) : 
        Dipole               -5.2494 Ry au,        -13.3426 Debye
        Dipole field         -0.0099 Ry au, 
 
        Potential amp.        0.9183 Ry
        Total length         46.3494 bohr
 
     Starting wfcs are  295 atomic wfcs
  @ DRIVER MODE: Message from server: STATUS
  @ DRIVER MODE: Message from server: POSDATA
  @ DRIVER MODE: Reading and sharing cell 
  @ DRIVER MODE: Reading and sharing positions 
  @ DRIVER MODE: Received positions 

     total cpu time spent up to now is       12.7 secs

     Self-consistent Calculation

     iteration #  1     ecut=    29.40 Ry     beta= 0.05
     Davidson diagonalization with overlap
     c_bands:  1 eigenvalues not converged
     c_bands:  4 eigenvalues not converged
     c_bands:  1 eigenvalues not converged
     c_bands:  2 eigenvalues not converged
     c_bands:  4 eigenvalues not converged
     c_bands:  1 eigenvalues not converged
     c_bands:  1 eigenvalues not converged
     c_bands:  3 eigenvalues not converged
     ethr =  1.00E-05,  avg # of iterations = 19.6

     negative rho (up, down):  1.860E-02 0.000E+00
 
     Adding external electric field

     Computed dipole along edir(3) : 
        Dipole               24.3521 Ry au,         61.8969 Debye
        Dipole field          0.0460 Ry au, 
 
        Potential amp.       -4.2600 Ry
        Total length         46.3494 bohr
 

     total cpu time spent up to now is       51.7 secs

     total energy              =   -2799.55858369 Ry
     estimated scf accuracy    <    1448.01348003 Ry

     iteration #  2     ecut=    29.40 Ry     beta= 0.05
     Davidson diagonalization with overlap
     ethr =  1.00E-02,  avg # of iterations = 16.7

     negative rho (up, down):  8.058E-03 0.000E+00
 
     Adding external electric field

     Computed dipole along edir(3) : 
        Dipole               -2.1043 Ry au,         -5.3486 Debye
        Dipole field         -0.0040 Ry au, 
 
        Potential amp.        0.3681 Ry
        Total length         46.3494 bohr
 

     total cpu time spent up to now is       95.4 secs

     total energy              =   -2668.08036209 Ry
     estimated scf accuracy    <   33748.80696957 Ry

     iteration #  3     ecut=    29.40 Ry     beta= 0.05
     Davidson diagonalization with overlap
     ethr =  1.00E-02,  avg # of iterations = 15.1

     negative rho (up, down):  8.087E-03 0.000E+00
 
     Adding external electric field

     Computed dipole along edir(3) : 
        Dipole               -3.1425 Ry au,         -7.9874 Debye
        Dipole field         -0.0059 Ry au, 
 
        Potential amp.        0.5497 Ry
        Total length         46.3494 bohr
 

     total cpu time spent up to now is      132.6 secs

     total energy              =   -2918.68249553 Ry
     estimated scf accuracy    <    1175.33481998 Ry

     iteration #  4     ecut=    29.40 Ry     beta= 0.05
     Davidson diagonalization with overlap
     c_bands:  4 eigenvalues not converged
     ethr =  1.00E-02,  avg # of iterations =  8.3

     negative rho (up, down):  8.148E-03 0.000E+00
 
     Adding external electric field

     Computed dipole along edir(3) : 
        Dipole               -3.9588 Ry au,        -10.0622 Debye
        Dipole field         -0.0075 Ry au, 
 
        Potential amp.        0.6925 Ry
        Total length         46.3494 bohr
 

     total cpu time spent up to now is      145.6 secs

     total energy              =   -2918.60922917 Ry
     estimated scf accuracy    <     567.43887171 Ry

     iteration #  5     ecut=    29.40 Ry     beta= 0.05
     Davidson diagonalization with overlap
     ethr =  1.00E-02,  avg # of iterations = 10.0

     negative rho (up, down):  8.049E-03 0.000E+00
 
     Adding external electric field

     Computed dipole along edir(3) : 
        Dipole               -3.7176 Ry au,         -9.4492 Debye
        Dipole field         -0.0070 Ry au, 
 
        Potential amp.        0.6503 Ry
        Total length         46.3494 bohr
 

     total cpu time spent up to now is      161.9 secs

     total energy              =   -2933.02516051 Ry
     estimated scf accuracy    <      11.63739427 Ry

     iteration #  6     ecut=    29.40 Ry     beta= 0.05
     Davidson diagonalization with overlap
     ethr =  2.98E-03,  avg # of iterations =  3.1

     negative rho (up, down):  8.013E-03 0.000E+00
 
     Adding external electric field

     Computed dipole along edir(3) : 
        Dipole               -2.9471 Ry au,         -7.4908 Debye
        Dipole field         -0.0056 Ry au, 
 
        Potential amp.        0.5156 Ry
        Total length         46.3494 bohr
 

     total cpu time spent up to now is      173.2 secs

     total energy              =   -2932.28548888 Ry
     estimated scf accuracy    <      10.95204230 Ry

     iteration #  7     ecut=    29.40 Ry     beta= 0.05
     Davidson diagonalization with overlap
     ethr =  2.80E-03,  avg # of iterations =  1.5

     negative rho (up, down):  8.307E-03 0.000E+00
 
     Adding external electric field

     Computed dipole along edir(3) : 
        Dipole               -0.2168 Ry au,         -0.5511 Debye
        Dipole field         -0.0004 Ry au, 
 
        Potential amp.        0.0379 Ry
        Total length         46.3494 bohr
 

     total cpu time spent up to now is      183.5 secs

     total energy              =   -2929.58672080 Ry
     estimated scf accuracy    <       7.16683244 Ry

     iteration #  8     ecut=    29.40 Ry     beta= 0.05
     Davidson diagonalization with overlap
     ethr =  1.83E-03,  avg # of iterations = 14.0

     negative rho (up, down):  8.227E-03 0.000E+00
 
     Adding external electric field

     Computed dipole along edir(3) : 
        Dipole               -0.3911 Ry au,         -0.9941 Debye
        Dipole field         -0.0007 Ry au, 
 
        Potential amp.        0.0684 Ry
        Total length         46.3494 bohr
 

     total cpu time spent up to now is      205.8 secs

     total energy              =   -2937.24598637 Ry
     estimated scf accuracy    <     433.54331446 Ry

     iteration #  9     ecut=    29.40 Ry     beta= 0.05
     Davidson diagonalization with overlap
     ethr =  1.83E-03,  avg # of iterations =  1.8

     negative rho (up, down):  8.184E-03 0.000E+00
 
     Adding external electric field

     Computed dipole along edir(3) : 
        Dipole               -0.4112 Ry au,         -1.0452 Debye
        Dipole field         -0.0008 Ry au, 
 
        Potential amp.        0.0719 Ry
        Total length         46.3494 bohr
 

     total cpu time spent up to now is      216.4 secs

     total energy              =   -2937.21690446 Ry
     estimated scf accuracy    <     366.32830278 Ry

     iteration # 10     ecut=    29.40 Ry     beta= 0.05
     Davidson diagonalization with overlap
     ethr =  1.83E-03,  avg # of iterations =  1.0

     negative rho (up, down):  8.274E-03 0.000E+00
 
     Adding external electric field

     Computed dipole along edir(3) : 
        Dipole                0.1349 Ry au,          0.3429 Debye
        Dipole field          0.0003 Ry au, 
 
        Potential amp.       -0.0236 Ry
        Total length         46.3494 bohr
 

     total cpu time spent up to now is      226.3 secs

     total energy              =   -2940.27050699 Ry
     estimated scf accuracy    <     363.94780656 Ry

     iteration # 11     ecut=    29.40 Ry     beta= 0.05
     Davidson diagonalization with overlap
     ethr =  1.83E-03,  avg # of iterations =  1.1

     negative rho (up, down):  8.245E-03 0.000E+00
 
     Adding external electric field

     Computed dipole along edir(3) : 
        Dipole               -0.2809 Ry au,         -0.7140 Debye
        Dipole field         -0.0005 Ry au, 
 
        Potential amp.        0.0491 Ry
        Total length         46.3494 bohr
 

     total cpu time spent up to now is      236.3 secs

     total energy              =   -2935.91775601 Ry
     estimated scf accuracy    <     573.22426963 Ry

     iteration # 12     ecut=    29.40 Ry     beta= 0.05
     Davidson diagonalization with overlap
     ethr =  1.83E-03,  avg # of iterations =  1.3

     negative rho (up, down):  8.264E-03 0.000E+00
 
     Adding external electric field

     Computed dipole along edir(3) : 
        Dipole                0.0827 Ry au,          0.2101 Debye
        Dipole field          0.0002 Ry au, 
 
        Potential amp.       -0.0145 Ry
        Total length         46.3494 bohr
 

     total cpu time spent up to now is      246.4 secs

     total energy              =   -2938.58368549 Ry
     estimated scf accuracy    <     251.38003474 Ry

     iteration # 13     ecut=    29.40 Ry     beta= 0.05
     Davidson diagonalization with overlap
     ethr =  1.83E-03,  avg # of iterations =  1.0

     negative rho (up, down):  8.305E-03 0.000E+00
 
     Adding external electric field

     Computed dipole along edir(3) : 
        Dipole                0.2155 Ry au,          0.5478 Debye
        Dipole field          0.0004 Ry au, 
 
        Potential amp.       -0.0377 Ry
        Total length         46.3494 bohr
 

     total cpu time spent up to now is      256.3 secs

     total energy              =   -2938.44904446 Ry
     estimated scf accuracy    <     294.86436577 Ry

     iteration # 14     ecut=    29.40 Ry     beta= 0.05
     Davidson diagonalization with overlap
     ethr =  1.83E-03,  avg # of iterations =  8.0

     negative rho (up, down):  8.295E-03 0.000E+00
 
     Adding external electric field

     Computed dipole along edir(3) : 
        Dipole                0.3861 Ry au,          0.9813 Debye
        Dipole field          0.0007 Ry au, 
 
        Potential amp.       -0.0675 Ry
        Total length         46.3494 bohr
 

     total cpu time spent up to now is      269.3 secs

     total energy              =   -2940.27954616 Ry
     estimated scf accuracy    <     186.54016193 Ry

     iteration # 15     ecut=    29.40 Ry     beta= 0.05
     Davidson diagonalization with overlap
     ethr =  1.83E-03,  avg # of iterations =  1.1

     negative rho (up, down):  8.390E-03 0.000E+00
 
     Adding external electric field

     Computed dipole along edir(3) : 
        Dipole               -1.6084 Ry au,         -4.0882 Debye
        Dipole field         -0.0030 Ry au, 
 
        Potential amp.        0.2814 Ry
        Total length         46.3494 bohr
 

     total cpu time spent up to now is      279.4 secs

     total energy              =   -2926.83376750 Ry
     estimated scf accuracy    <     202.06993072 Ry

     iteration # 16     ecut=    29.40 Ry     beta= 0.05
     Davidson diagonalization with overlap
     c_bands:  2 eigenvalues not converged
     c_bands:  4 eigenvalues not converged
     c_bands:  3 eigenvalues not converged
     c_bands:  1 eigenvalues not converged
     c_bands:  2 eigenvalues not converged
     c_bands:  2 eigenvalues not converged
     ethr =  1.83E-03,  avg # of iterations = 19.0

     negative rho (up, down):  8.246E-03 0.000E+00
 
     Adding external electric field

     Computed dipole along edir(3) : 
        Dipole               -4.6928 Ry au,        -11.9279 Debye
        Dipole field         -0.0089 Ry au, 
 
        Potential amp.        0.8209 Ry
        Total length         46.3494 bohr
 

     total cpu time spent up to now is      302.2 secs

     total energy              =   -2923.20863311 Ry
     estimated scf accuracy    <      79.80602846 Ry

     iteration # 17     ecut=    29.40 Ry     beta= 0.05
     Davidson diagonalization with overlap
     ethr =  1.83E-03,  avg # of iterations = 11.6

     negative rho (up, down):  5.074E-03 0.000E+00
 
     Adding external electric field

     Computed dipole along edir(3) : 
        Dipole               -3.4285 Ry au,         -8.7143 Debye
        Dipole field         -0.0065 Ry au, 
 
        Potential amp.        0.5998 Ry
        Total length         46.3494 bohr
 

     total cpu time spent up to now is      324.7 secs

     total energy              =   -2934.93211223 Ry
     estimated scf accuracy    <     121.29059068 Ry

     iteration # 18     ecut=    29.40 Ry     beta= 0.05
     Davidson diagonalization with overlap
     ethr =  1.83E-03,  avg # of iterations = 11.4

     negative rho (up, down):  1.438E-02 0.000E+00
 
     Adding external electric field

     Computed dipole along edir(3) : 
        Dipole               -2.4063 Ry au,         -6.1163 Debye
        Dipole field         -0.0045 Ry au, 
 
        Potential amp.        0.4209 Ry
        Total length         46.3494 bohr
 

     total cpu time spent up to now is      339.8 secs

     total energy              =   -2931.19753477 Ry
     estimated scf accuracy    <      40.51189517 Ry

     iteration # 19     ecut=    29.40 Ry     beta= 0.05
     Davidson diagonalization with overlap
     c_bands:  1 eigenvalues not converged
     ethr =  1.83E-03,  avg # of iterations = 12.5

     negative rho (up, down):  1.241E-02 0.000E+00
 
     Adding external electric field

     Computed dipole along edir(3) : 
        Dipole               -1.7445 Ry au,         -4.4342 Debye
        Dipole field         -0.0033 Ry au, 
 
        Potential amp.        0.3052 Ry
        Total length         46.3494 bohr
 

     total cpu time spent up to now is      355.2 secs

     total energy              =   -2931.70627020 Ry
     estimated scf accuracy    <       7.79988353 Ry

     iteration # 20     ecut=    29.40 Ry     beta= 0.05
     Davidson diagonalization with overlap
     ethr =  1.83E-03,  avg # of iterations =  2.0

     negative rho (up, down):  1.226E-02 0.000E+00
 
     Adding external electric field

     Computed dipole along edir(3) : 
        Dipole               -0.3615 Ry au,         -0.9189 Debye
        Dipole field         -0.0007 Ry au, 
 
        Potential amp.        0.0632 Ry
        Total length         46.3494 bohr
 

     total cpu time spent up to now is      366.1 secs

     total energy              =   -2930.33298694 Ry
     estimated scf accuracy    <       4.47358293 Ry

     iteration # 21     ecut=    29.40 Ry     beta= 0.05
     Davidson diagonalization with overlap
     ethr =  1.14E-03,  avg # of iterations = 14.3

     negative rho (up, down):  1.299E-02 0.000E+00
 
     Adding external electric field

     Computed dipole along edir(3) : 
        Dipole               -0.5230 Ry au,         -1.3292 Debye
        Dipole field         -0.0010 Ry au, 
 
        Potential amp.        0.0915 Ry
        Total length         46.3494 bohr
 

     total cpu time spent up to now is      384.8 secs

     total energy              =   -2931.34664258 Ry
     estimated scf accuracy    <       4.33253028 Ry

     iteration # 22     ecut=    29.40 Ry     beta= 0.05
     Davidson diagonalization with overlap
     ethr =  1.11E-03,  avg # of iterations =  2.4

     negative rho (up, down):  1.355E-02 0.000E+00
 
     Adding external electric field

     Computed dipole along edir(3) : 
        Dipole               -0.6985 Ry au,         -1.7755 Debye
        Dipole field         -0.0013 Ry au, 
 
        Potential amp.        0.1222 Ry
        Total length         46.3494 bohr
 

     total cpu time spent up to now is      396.5 secs

     total energy              =   -2931.29720323 Ry
     estimated scf accuracy    <       5.05699852 Ry

     iteration # 23     ecut=    29.40 Ry     beta= 0.05
     Davidson diagonalization with overlap
     ethr =  1.11E-03,  avg # of iterations =  5.0

     negative rho (up, down):  1.741E-02 0.000E+00
 
     Adding external electric field

     Computed dipole along edir(3) : 
        Dipole               -0.7715 Ry au,         -1.9610 Debye
        Dipole field         -0.0015 Ry au, 
 
        Potential amp.        0.1350 Ry
        Total length         46.3494 bohr
 

     total cpu time spent up to now is      408.0 secs

     total energy              =   -2931.36841644 Ry
     estimated scf accuracy    <       1.44223273 Ry

     iteration # 24     ecut=    29.40 Ry     beta= 0.05
     Davidson diagonalization with overlap
     c_bands:  1 eigenvalues not converged
     c_bands:  4 eigenvalues not converged
     ethr =  3.69E-04,  avg # of iterations =  8.1

     negative rho (up, down):  2.356E-02 0.000E+00
 
     Adding external electric field

     Computed dipole along edir(3) : 
        Dipole               -0.7382 Ry au,         -1.8763 Debye
        Dipole field         -0.0014 Ry au, 
 
        Potential amp.        0.1291 Ry
        Total length         46.3494 bohr
 

     total cpu time spent up to now is      420.8 secs

     total energy              =   -2931.40341133 Ry
     estimated scf accuracy    <       1.09143423 Ry

     iteration # 25     ecut=    29.40 Ry     beta= 0.05
     Davidson diagonalization with overlap
     ethr =  2.79E-04,  avg # of iterations =  5.4

     negative rho (up, down):  3.446E-02 0.000E+00
 
     Adding external electric field

     Computed dipole along edir(3) : 
        Dipole               -1.1195 Ry au,         -2.8456 Debye
        Dipole field         -0.0021 Ry au, 
 
        Potential amp.        0.1958 Ry
        Total length         46.3494 bohr
 

     total cpu time spent up to now is      432.6 secs

     total energy              =   -2931.32540736 Ry
     estimated scf accuracy    <       0.73721702 Ry

     iteration # 26     ecut=    29.40 Ry     beta= 0.05
     Davidson diagonalization with overlap
     ethr =  1.89E-04,  avg # of iterations = 11.9

     negative rho (up, down):  7.957E-02 0.000E+00
 
     Adding external electric field

     Computed dipole along edir(3) : 
        Dipole               -1.3140 Ry au,         -3.3399 Debye
        Dipole field         -0.0025 Ry au, 
 
        Potential amp.        0.2299 Ry
        Total length         46.3494 bohr
 

     total cpu time spent up to now is      447.8 secs

     total energy              =   -2931.33209386 Ry
     estimated scf accuracy    <       0.67871217 Ry

     iteration # 27     ecut=    29.40 Ry     beta= 0.05
     Davidson diagonalization with overlap
     c_bands:  1 eigenvalues not converged
     c_bands:  1 eigenvalues not converged
     ethr =  1.74E-04,  avg # of iterations = 17.5

     negative rho (up, down):  8.212E-02 0.000E+00
 
     Adding external electric field

     Computed dipole along edir(3) : 
        Dipole               -1.2654 Ry au,         -3.2162 Debye
        Dipole field         -0.0024 Ry au, 
 
        Potential amp.        0.2214 Ry
        Total length         46.3494 bohr
 

     total cpu time spent up to now is      468.5 secs

     total energy              =   -2931.45460868 Ry
     estimated scf accuracy    <       1.29866722 Ry

     iteration # 28     ecut=    29.40 Ry     beta= 0.05
     Davidson diagonalization with overlap
     ethr =  1.74E-04,  avg # of iterations =  1.0

     negative rho (up, down):  7.331E-02 0.000E+00
 
     Adding external electric field

     Computed dipole along edir(3) : 
        Dipole               -1.0169 Ry au,         -2.5847 Debye
        Dipole field         -0.0019 Ry au, 
 
        Potential amp.        0.1779 Ry
        Total length         46.3494 bohr
 

     total cpu time spent up to now is      478.4 secs

     total energy              =   -2931.37657850 Ry
     estimated scf accuracy    <       1.29433188 Ry

     iteration # 29     ecut=    29.40 Ry     beta= 0.05
     Davidson diagonalization with overlap
     ethr =  1.74E-04,  avg # of iterations =  6.8

     negative rho (up, down):  5.602E-02 0.000E+00
 
     Adding external electric field

     Computed dipole along edir(3) : 
        Dipole               -0.5934 Ry au,         -1.5083 Debye
        Dipole field         -0.0011 Ry au, 
 
        Potential amp.        0.1038 Ry
        Total length         46.3494 bohr
 

     total cpu time spent up to now is      490.3 secs

     total energy              =   -2931.30010202 Ry
     estimated scf accuracy    <       0.88662951 Ry

     iteration # 30     ecut=    29.40 Ry     beta= 0.05
     Davidson diagonalization with overlap
     ethr =  1.74E-04,  avg # of iterations = 11.8

     negative rho (up, down):  5.710E-02 0.000E+00
 
     Adding external electric field

     Computed dipole along edir(3) : 
        Dipole               -0.5118 Ry au,         -1.3010 Debye
        Dipole field         -0.0010 Ry au, 
 
        Potential amp.        0.0895 Ry
        Total length         46.3494 bohr
 

     total cpu time spent up to now is      504.5 secs

     total energy              =   -2931.33031889 Ry
     estimated scf accuracy    <       0.25360684 Ry

     iteration # 31     ecut=    29.40 Ry     beta= 0.05
     Davidson diagonalization with overlap
     ethr =  6.49E-05,  avg # of iterations =  7.2

     negative rho (up, down):  4.780E-02 0.000E+00
 
     Adding external electric field

     Computed dipole along edir(3) : 
        Dipole                0.0072 Ry au,          0.0183 Debye
        Dipole field          0.0000 Ry au, 
 
        Potential amp.       -0.0013 Ry
        Total length         46.3494 bohr
 

     total cpu time spent up to now is      516.7 secs

     total energy              =   -2931.31445452 Ry
     estimated scf accuracy    <       0.31341343 Ry

     iteration # 32     ecut=    29.40 Ry     beta= 0.05
     Davidson diagonalization with overlap
     c_bands:  1 eigenvalues not converged
     c_bands:  3 eigenvalues not converged
     c_bands:  1 eigenvalues not converged
     c_bands:  3 eigenvalues not converged
     c_bands:  4 eigenvalues not converged
     c_bands:  3 eigenvalues not converged
     c_bands:  2 eigenvalues not converged
     c_bands:  3 eigenvalues not converged
     c_bands:  3 eigenvalues not converged
     ethr =  6.49E-05,  avg # of iterations = 19.5

     negative rho (up, down):  4.764E-02 0.000E+00
 
     Adding external electric field

     Computed dipole along edir(3) : 
        Dipole                0.1125 Ry au,          0.2859 Debye
        Dipole field          0.0002 Ry au, 
 
        Potential amp.       -0.0197 Ry
        Total length         46.3494 bohr
 

     total cpu time spent up to now is      536.3 secs

     total energy              =   -2931.33139109 Ry
     estimated scf accuracy    <       0.21650973 Ry

     iteration # 33     ecut=    29.40 Ry     beta= 0.05
     Davidson diagonalization with overlap
     ethr =  5.54E-05,  avg # of iterations =  6.4

     negative rho (up, down):  4.627E-02 0.000E+00
 
     Adding external electric field

     Computed dipole along edir(3) : 
        Dipole                0.3740 Ry au,          0.9507 Debye
        Dipole field          0.0007 Ry au, 
 
        Potential amp.       -0.0654 Ry
        Total length         46.3494 bohr
 

     total cpu time spent up to now is      548.2 secs

     total energy              =   -2931.32802113 Ry
     estimated scf accuracy    <       0.12427898 Ry

     iteration # 34     ecut=    29.40 Ry     beta= 0.05
     Davidson diagonalization with overlap
     c_bands:  1 eigenvalues not converged
     c_bands:  1 eigenvalues not converged
     c_bands:  2 eigenvalues not converged
     c_bands:  2 eigenvalues not converged
     c_bands:  3 eigenvalues not converged
     c_bands:  1 eigenvalues not converged
     c_bands:  2 eigenvalues not converged
     c_bands:  3 eigenvalues not converged
     ethr =  3.18E-05,  avg # of iterations = 19.7

     negative rho (up, down):  4.020E-02 0.000E+00
 
     Adding external electric field

     Computed dipole along edir(3) : 
        Dipole                0.6440 Ry au,          1.6370 Debye
        Dipole field          0.0012 Ry au, 
 
        Potential amp.       -0.1127 Ry
        Total length         46.3494 bohr
 

     total cpu time spent up to now is      568.5 secs

     total energy              =   -2931.34286112 Ry
     estimated scf accuracy    <       0.33867771 Ry

     iteration # 35     ecut=    29.40 Ry     beta= 0.05
     Davidson diagonalization with overlap
     c_bands:  3 eigenvalues not converged
     c_bands:  1 eigenvalues not converged
     c_bands:  2 eigenvalues not converged
     c_bands:  3 eigenvalues not converged
     c_bands:  3 eigenvalues not converged
     c_bands:  4 eigenvalues not converged
     c_bands:  2 eigenvalues not converged
     c_bands:  2 eigenvalues not converged
     c_bands:  3 eigenvalues not converged
     ethr =  3.18E-05,  avg # of iterations = 19.0

     negative rho (up, down):  4.076E-02 0.000E+00
 
     Adding external electric field

     Computed dipole along edir(3) : 
        Dipole                0.4142 Ry au,          1.0529 Debye
        Dipole field          0.0008 Ry au, 
 
        Potential amp.       -0.0725 Ry
        Total length         46.3494 bohr
 

     total cpu time spent up to now is      589.3 secs

     total energy              =   -2931.35567499 Ry
     estimated scf accuracy    <       0.87675818 Ry

     iteration # 36     ecut=    29.40 Ry     beta= 0.05
     Davidson diagonalization with overlap
     ethr =  3.18E-05,  avg # of iterations =  6.9

     negative rho (up, down):  3.424E-02 0.000E+00
 
     Adding external electric field

     Computed dipole along edir(3) : 
        Dipole                0.5046 Ry au,          1.2825 Debye
        Dipole field          0.0010 Ry au, 
 
        Potential amp.       -0.0883 Ry
        Total length         46.3494 bohr
 

     total cpu time spent up to now is      601.2 secs

     total energy              =   -2931.30926453 Ry
     estimated scf accuracy    <       0.59325549 Ry

     iteration # 37     ecut=    29.40 Ry     beta= 0.05
     Davidson diagonalization with overlap
     c_bands:  1 eigenvalues not converged
     c_bands:  2 eigenvalues not converged
     c_bands:  2 eigenvalues not converged
     ethr =  3.18E-05,  avg # of iterations = 11.4

     negative rho (up, down):  3.373E-02 0.000E+00
 
     Adding external electric field

     Computed dipole along edir(3) : 
        Dipole                0.5875 Ry au,          1.4934 Debye
        Dipole field          0.0011 Ry au, 
 
        Potential amp.       -0.1028 Ry
        Total length         46.3494 bohr
 

     total cpu time spent up to now is      617.4 secs

     total energy              =   -2931.32266565 Ry
     estimated scf accuracy    <       0.15251349 Ry

     iteration # 38     ecut=    29.40 Ry     beta= 0.05
     Davidson diagonalization with overlap
     c_bands:  1 eigenvalues not converged
     c_bands:  3 eigenvalues not converged
     c_bands:  1 eigenvalues not converged
     c_bands:  1 eigenvalues not converged
     ethr =  3.18E-05,  avg # of iterations = 19.1

     negative rho (up, down):  3.354E-02 0.000E+00
 
     Adding external electric field

     Computed dipole along edir(3) : 
        Dipole                0.4948 Ry au,          1.2576 Debye
        Dipole field          0.0009 Ry au, 
 
        Potential amp.       -0.0866 Ry
        Total length         46.3494 bohr
 

     total cpu time spent up to now is      638.2 secs

     total energy              =   -2931.35500742 Ry
     estimated scf accuracy    <       0.53283269 Ry

     iteration # 39     ecut=    29.40 Ry     beta= 0.05
     Davidson diagonalization with overlap
     ethr =  3.18E-05,  avg # of iterations =  1.5

     negative rho (up, down):  3.959E-02 0.000E+00
 
     Adding external electric field

     Computed dipole along edir(3) : 
        Dipole                0.2043 Ry au,          0.5192 Debye
        Dipole field          0.0004 Ry au, 
 
        Potential amp.       -0.0357 Ry
        Total length         46.3494 bohr
 

     total cpu time spent up to now is      648.6 secs

     total energy              =   -2931.30426088 Ry
     estimated scf accuracy    <       0.46501329 Ry

     iteration # 40     ecut=    29.40 Ry     beta= 0.05
     Davidson diagonalization with overlap
     c_bands:  1 eigenvalues not converged
     c_bands:  3 eigenvalues not converged
     c_bands:  1 eigenvalues not converged
     ethr =  3.18E-05,  avg # of iterations = 16.7

     negative rho (up, down):  3.315E-02 0.000E+00
 
     Adding external electric field

     Computed dipole along edir(3) : 
        Dipole                0.5324 Ry au,          1.3531 Debye
        Dipole field          0.0010 Ry au, 
 
        Potential amp.       -0.0931 Ry
        Total length         46.3494 bohr
 

     total cpu time spent up to now is      667.0 secs

     total energy              =   -2931.32574623 Ry
     estimated scf accuracy    <       0.08428073 Ry

     iteration # 41     ecut=    29.40 Ry     beta= 0.05
     Davidson diagonalization with overlap
     ethr =  2.16E-05,  avg # of iterations =  7.7

     negative rho (up, down):  3.177E-02 0.000E+00
 
     Adding external electric field

     Computed dipole along edir(3) : 
        Dipole                0.7857 Ry au,          1.9970 Debye
        Dipole field          0.0015 Ry au, 
 
        Potential amp.       -0.1374 Ry
        Total length         46.3494 bohr
 

     total cpu time spent up to now is      679.4 secs

     total energy              =   -2931.32552848 Ry
     estimated scf accuracy    <       0.03479536 Ry

     iteration # 42     ecut=    29.40 Ry     beta= 0.05
     Davidson diagonalization with overlap
     c_bands:  2 eigenvalues not converged
     c_bands:  1 eigenvalues not converged
     c_bands:  1 eigenvalues not converged
     c_bands:  1 eigenvalues not converged
     ethr =  8.90E-06,  avg # of iterations = 17.9

     negative rho (up, down):  3.223E-02 0.000E+00
 
     Adding external electric field

     Computed dipole along edir(3) : 
        Dipole                0.8358 Ry au,          2.1244 Debye
        Dipole field          0.0016 Ry au, 
 
        Potential amp.       -0.1462 Ry
        Total length         46.3494 bohr
 

     total cpu time spent up to now is      700.2 secs

     total energy              =   -2931.33149562 Ry
     estimated scf accuracy    <       0.01449845 Ry

     iteration # 43     ecut=    29.40 Ry     beta= 0.05
     Davidson diagonalization with overlap
     c_bands:  2 eigenvalues not converged
     c_bands:  1 eigenvalues not converged
     c_bands:  1 eigenvalues not converged
     ethr =  3.71E-06,  avg # of iterations = 16.7

     negative rho (up, down):  3.163E-02 0.000E+00
 
     Adding external electric field

     Computed dipole along edir(3) : 
        Dipole                0.8559 Ry au,          2.1754 Debye
        Dipole field          0.0016 Ry au, 
 
        Potential amp.       -0.1497 Ry
        Total length         46.3494 bohr
 

     total cpu time spent up to now is      715.5 secs

     total energy              =   -2931.33202261 Ry
     estimated scf accuracy    <       0.02603296 Ry

     iteration # 44     ecut=    29.40 Ry     beta= 0.05
     Davidson diagonalization with overlap
     c_bands:  1 eigenvalues not converged
     c_bands:  1 eigenvalues not converged
     ethr =  3.71E-06,  avg # of iterations = 12.3

     negative rho (up, down):  2.487E-02 0.000E+00
 
     Adding external electric field

     Computed dipole along edir(3) : 
        Dipole                0.6703 Ry au,          1.7038 Debye
        Dipole field          0.0013 Ry au, 
 
        Potential amp.       -0.1173 Ry
        Total length         46.3494 bohr
 

     total cpu time spent up to now is      731.2 secs

     total energy              =   -2931.32560104 Ry
     estimated scf accuracy    <       0.05173802 Ry

     iteration # 45     ecut=    29.40 Ry     beta= 0.05
     Davidson diagonalization with overlap
     c_bands:  4 eigenvalues not converged
     c_bands:  3 eigenvalues not converged
     c_bands:  2 eigenvalues not converged
     c_bands:  2 eigenvalues not converged
     c_bands:  5 eigenvalues not converged
     c_bands:  5 eigenvalues not converged
     c_bands:  4 eigenvalues not converged
     c_bands:  2 eigenvalues not converged
     ethr =  3.71E-06,  avg # of iterations = 26.9

     negative rho (up, down):  2.488E-02 0.000E+00
 
     Adding external electric field

     Computed dipole along edir(3) : 
        Dipole                0.6716 Ry au,          1.7071 Debye
        Dipole field          0.0013 Ry au, 
 
        Potential amp.       -0.1175 Ry
        Total length         46.3494 bohr
 

     total cpu time spent up to now is      762.1 secs

     total energy              =   -2931.33989268 Ry
     estimated scf accuracy    <       0.14648132 Ry

     iteration # 46     ecut=    29.40 Ry     beta= 0.05
     Davidson diagonalization with overlap
     c_bands:  1 eigenvalues not converged
     c_bands:  1 eigenvalues not converged
     ethr =  3.71E-06,  avg # of iterations =  8.1

     negative rho (up, down):  2.559E-02 0.000E+00
 
     Adding external electric field

     Computed dipole along edir(3) : 
        Dipole                0.7191 Ry au,          1.8278 Debye
        Dipole field          0.0014 Ry au, 
 
        Potential amp.       -0.1258 Ry
        Total length         46.3494 bohr
 

     total cpu time spent up to now is      774.1 secs

     total energy              =   -2931.33106891 Ry
     estimated scf accuracy    <       0.14879852 Ry

     iteration # 47     ecut=    29.40 Ry     beta= 0.05
     Davidson diagonalization with overlap
     c_bands:  2 eigenvalues not converged
     c_bands:  1 eigenvalues not converged
     c_bands:  1 eigenvalues not converged
     c_bands:  1 eigenvalues not converged
     ethr =  3.71E-06,  avg # of iterations = 16.1

     negative rho (up, down):  2.958E-02 0.000E+00
 
     Adding external electric field

     Computed dipole along edir(3) : 
        Dipole                0.8281 Ry au,          2.1049 Debye
        Dipole field          0.0016 Ry au, 
 
        Potential amp.       -0.1449 Ry
        Total length         46.3494 bohr
 

     total cpu time spent up to now is      790.6 secs

     total energy              =   -2931.32494000 Ry
     estimated scf accuracy    <       0.06938117 Ry

     iteration # 48     ecut=    29.40 Ry     beta= 0.05
     Davidson diagonalization with overlap
     c_bands:  1 eigenvalues not converged
     c_bands:  3 eigenvalues not converged
     c_bands:  3 eigenvalues not converged
     c_bands:  2 eigenvalues not converged
     c_bands:  3 eigenvalues not converged
     c_bands:  1 eigenvalues not converged
     c_bands:  1 eigenvalues not converged
     c_bands:  4 eigenvalues not converged
     c_bands:  2 eigenvalues not converged
     ethr =  3.71E-06,  avg # of iterations = 19.7

     negative rho (up, down):  2.793E-02 0.000E+00
 
     Adding external electric field

     Computed dipole along edir(3) : 
        Dipole                0.8470 Ry au,          2.1528 Debye
        Dipole field          0.0016 Ry au, 
 
        Potential amp.       -0.1482 Ry
        Total length         46.3494 bohr
 

     total cpu time spent up to now is      813.8 secs

     total energy              =   -2931.33146892 Ry
     estimated scf accuracy    <       0.07116729 Ry

     iteration # 49     ecut=    29.40 Ry     beta= 0.05
     Davidson diagonalization with overlap
     c_bands:  1 eigenvalues not converged
     c_bands:  3 eigenvalues not converged
     c_bands:  1 eigenvalues not converged
     c_bands:  1 eigenvalues not converged
     ethr =  3.71E-06,  avg # of iterations = 15.9

     negative rho (up, down):  2.655E-02 0.000E+00
 
     Adding external electric field

     Computed dipole along edir(3) : 
        Dipole                0.8803 Ry au,          2.2375 Debye
        Dipole field          0.0017 Ry au, 
 
        Potential amp.       -0.1540 Ry
        Total length         46.3494 bohr
 

     total cpu time spent up to now is      829.2 secs

     total energy              =   -2931.33103453 Ry
     estimated scf accuracy    <       0.10331122 Ry

     iteration # 50     ecut=    29.40 Ry     beta= 0.05
     Davidson diagonalization with overlap
     ethr =  3.71E-06,  avg # of iterations =  3.6

     negative rho (up, down):  2.600E-02 0.000E+00
 
     Adding external electric field

     Computed dipole along edir(3) : 
        Dipole                0.9013 Ry au,          2.2908 Debye
        Dipole field          0.0017 Ry au, 
 
        Potential amp.       -0.1577 Ry
        Total length         46.3494 bohr
 

     total cpu time spent up to now is      840.2 secs

     total energy              =   -2931.32923016 Ry
     estimated scf accuracy    <       0.06334148 Ry

     iteration # 51     ecut=    29.40 Ry     beta= 0.05
     Davidson diagonalization with overlap
     c_bands:  1 eigenvalues not converged
     ethr =  3.71E-06,  avg # of iterations = 12.1

     negative rho (up, down):  2.576E-02 0.000E+00
 
     Adding external electric field

     Computed dipole along edir(3) : 
        Dipole                0.9104 Ry au,          2.3140 Debye
        Dipole field          0.0017 Ry au, 
 
        Potential amp.       -0.1593 Ry
        Total length         46.3494 bohr
 

     total cpu time spent up to now is      854.5 secs

     total energy              =   -2931.33077201 Ry
     estimated scf accuracy    <       0.02570961 Ry

     iteration # 52     ecut=    29.40 Ry     beta= 0.05
     Davidson diagonalization with overlap
     ethr =  3.71E-06,  avg # of iterations = 10.2

     negative rho (up, down):  2.656E-02 0.000E+00
 
     Adding external electric field

     Computed dipole along edir(3) : 
        Dipole                0.9186 Ry au,          2.3347 Debye
        Dipole field          0.0017 Ry au, 
 
        Potential amp.       -0.1607 Ry
        Total length         46.3494 bohr
 

     total cpu time spent up to now is      867.8 secs

     total energy              =   -2931.33129335 Ry
     estimated scf accuracy    <       0.04948468 Ry

     iteration # 53     ecut=    29.40 Ry     beta= 0.05
     Davidson diagonalization with overlap
     ethr =  3.71E-06,  avg # of iterations =  1.4

     negative rho (up, down):  2.886E-02 0.000E+00
 
     Adding external electric field

     Computed dipole along edir(3) : 
        Dipole                0.9525 Ry au,          2.4210 Debye
        Dipole field          0.0018 Ry au, 
 
        Potential amp.       -0.1666 Ry
        Total length         46.3494 bohr
 

     total cpu time spent up to now is      878.1 secs

     total energy              =   -2931.33143360 Ry
     estimated scf accuracy    <       0.04205005 Ry

     iteration # 54     ecut=    29.40 Ry     beta= 0.05
     Davidson diagonalization with overlap
     c_bands:  2 eigenvalues not converged
     c_bands:  1 eigenvalues not converged
     c_bands:  1 eigenvalues not converged
     c_bands:  1 eigenvalues not converged
     ethr =  3.71E-06,  avg # of iterations = 13.7

     negative rho (up, down):  2.543E-02 0.000E+00
 
     Adding external electric field

     Computed dipole along edir(3) : 
        Dipole                0.9500 Ry au,          2.4147 Debye
        Dipole field          0.0018 Ry au, 
 
        Potential amp.       -0.1662 Ry
        Total length         46.3494 bohr
 

     total cpu time spent up to now is      892.6 secs

     total energy              =   -2931.33042341 Ry
     estimated scf accuracy    <       0.02652074 Ry

     iteration # 55     ecut=    29.40 Ry     beta= 0.05
     Davidson diagonalization with overlap
     c_bands:  2 eigenvalues not converged
     ethr =  3.71E-06,  avg # of iterations =  4.5

     negative rho (up, down):  2.486E-02 0.000E+00
 
     Adding external electric field

     Computed dipole along edir(3) : 
        Dipole                0.9711 Ry au,          2.4684 Debye
        Dipole field          0.0018 Ry au, 
 
        Potential amp.       -0.1699 Ry
        Total length         46.3494 bohr
 

     total cpu time spent up to now is      903.8 secs

     total energy              =   -2931.32964819 Ry
     estimated scf accuracy    <       0.01909404 Ry

     iteration # 56     ecut=    29.40 Ry     beta= 0.05
     Davidson diagonalization with overlap
     c_bands:  2 eigenvalues not converged
     ethr =  3.71E-06,  avg # of iterations =  8.8

     negative rho (up, down):  2.451E-02 0.000E+00
 
     Adding external electric field

     Computed dipole along edir(3) : 
        Dipole                0.9886 Ry au,          2.5127 Debye
        Dipole field          0.0019 Ry au, 
 
        Potential amp.       -0.1729 Ry
        Total length         46.3494 bohr
 

     total cpu time spent up to now is      916.7 secs

     total energy              =   -2931.32962316 Ry
     estimated scf accuracy    <       0.00980182 Ry

     iteration # 57     ecut=    29.40 Ry     beta= 0.05
     Davidson diagonalization with overlap
     ethr =  2.51E-06,  avg # of iterations =  9.3

     negative rho (up, down):  2.461E-02 0.000E+00
 
     Adding external electric field

     Computed dipole along edir(3) : 
        Dipole                0.9800 Ry au,          2.4910 Debye
        Dipole field          0.0018 Ry au, 
 
        Potential amp.       -0.1714 Ry
        Total length         46.3494 bohr
 

     total cpu time spent up to now is      929.7 secs

     total energy              =   -2931.32937781 Ry
     estimated scf accuracy    <       0.00707976 Ry

     iteration # 58     ecut=    29.40 Ry     beta= 0.05
     Davidson diagonalization with overlap
     c_bands:  1 eigenvalues not converged
     c_bands:  1 eigenvalues not converged
     ethr =  1.81E-06,  avg # of iterations =  9.6

     negative rho (up, down):  2.226E-02 0.000E+00
 
     Adding external electric field

     Computed dipole along edir(3) : 
        Dipole                0.9354 Ry au,          2.3775 Debye
        Dipole field          0.0018 Ry au, 
 
        Potential amp.       -0.1636 Ry
        Total length         46.3494 bohr
 

     total cpu time spent up to now is      943.2 secs

     total energy              =   -2931.32885778 Ry
     estimated scf accuracy    <       0.00445752 Ry

     iteration # 59     ecut=    29.40 Ry     beta= 0.05
     Davidson diagonalization with overlap
     c_bands:  1 eigenvalues not converged
     c_bands:  2 eigenvalues not converged
     c_bands:  1 eigenvalues not converged
     c_bands:  1 eigenvalues not converged
     c_bands:  1 eigenvalues not converged
     c_bands:  1 eigenvalues not converged
     ethr =  1.14E-06,  avg # of iterations = 17.4

     negative rho (up, down):  2.250E-02 0.000E+00
 
     Adding external electric field

     Computed dipole along edir(3) : 
        Dipole                0.9127 Ry au,          2.3200 Debye
        Dipole field          0.0017 Ry au, 
 
        Potential amp.       -0.1597 Ry
        Total length         46.3494 bohr
 

     total cpu time spent up to now is      961.9 secs

     total energy              =   -2931.32923627 Ry
     estimated scf accuracy    <       0.00167964 Ry

     iteration # 60     ecut=    29.40 Ry     beta= 0.05
     Davidson diagonalization with overlap
     c_bands:  1 eigenvalues not converged
     ethr =  4.30E-07,  avg # of iterations =  9.8

     negative rho (up, down):  2.284E-02 0.000E+00
 
     Adding external electric field

     Computed dipole along edir(3) : 
        Dipole                0.9127 Ry au,          2.3200 Debye
        Dipole field          0.0017 Ry au, 
 
        Potential amp.       -0.1597 Ry
        Total length         46.3494 bohr
 

     total cpu time spent up to now is      974.9 secs

     total energy              =   -2931.32919938 Ry
     estimated scf accuracy    <       0.00077252 Ry

     iteration # 61     ecut=    29.40 Ry     beta= 0.05
     Davidson diagonalization with overlap
     ethr =  1.98E-07,  avg # of iterations = 13.2

     negative rho (up, down):  2.190E-02 0.000E+00
 
     Adding external electric field

     Computed dipole along edir(3) : 
        Dipole                0.9051 Ry au,          2.3004 Debye
        Dipole field          0.0017 Ry au, 
 
        Potential amp.       -0.1583 Ry
        Total length         46.3494 bohr
 

     total cpu time spent up to now is      992.5 secs

     total energy              =   -2931.32912501 Ry
     estimated scf accuracy    <       0.00074865 Ry

     iteration # 62     ecut=    29.40 Ry     beta= 0.05
     Davidson diagonalization with overlap
     ethr =  1.91E-07,  avg # of iterations =  9.4

     negative rho (up, down):  2.198E-02 0.000E+00
 
     Adding external electric field

     Computed dipole along edir(3) : 
        Dipole                0.9071 Ry au,          2.3056 Debye
        Dipole field          0.0017 Ry au, 
 
        Potential amp.       -0.1587 Ry
        Total length         46.3494 bohr
 

     total cpu time spent up to now is     1007.4 secs

     total energy              =   -2931.32919390 Ry
     estimated scf accuracy    <       0.00021919 Ry

     iteration # 63     ecut=    29.40 Ry     beta= 0.05
     Davidson diagonalization with overlap
     ethr =  5.61E-08,  avg # of iterations =  8.4

     negative rho (up, down):  2.129E-02 0.000E+00
 
     Adding external electric field

     Computed dipole along edir(3) : 
        Dipole                0.9139 Ry au,          2.3229 Debye
        Dipole field          0.0017 Ry au, 
 
        Potential amp.       -0.1599 Ry
        Total length         46.3494 bohr
 

     total cpu time spent up to now is     1021.4 secs

     total energy              =   -2931.32922080 Ry
     estimated scf accuracy    <       0.00014518 Ry

     iteration # 64     ecut=    29.40 Ry     beta= 0.05
     Davidson diagonalization with overlap
     ethr =  3.71E-08,  avg # of iterations =  6.9

     negative rho (up, down):  2.059E-02 0.000E+00
 
     Adding external electric field

     Computed dipole along edir(3) : 
        Dipole                0.9198 Ry au,          2.3378 Debye
        Dipole field          0.0017 Ry au, 
 
        Potential amp.       -0.1609 Ry
        Total length         46.3494 bohr
 

     total cpu time spent up to now is     1033.8 secs

     total energy              =   -2931.32922275 Ry
     estimated scf accuracy    <       0.00008717 Ry

     iteration # 65     ecut=    29.40 Ry     beta= 0.05
     Davidson diagonalization with overlap
     ethr =  2.23E-08,  avg # of iterations =  9.3

     negative rho (up, down):  2.015E-02 0.000E+00
 
     Adding external electric field

     Computed dipole along edir(3) : 
        Dipole                0.9298 Ry au,          2.3634 Debye
        Dipole field          0.0018 Ry au, 
 
        Potential amp.       -0.1627 Ry
        Total length         46.3494 bohr
 

     total cpu time spent up to now is     1047.8 secs

     total energy              =   -2931.32924329 Ry
     estimated scf accuracy    <       0.00007953 Ry

     iteration # 66     ecut=    29.40 Ry     beta= 0.05
     Davidson diagonalization with overlap
     ethr =  2.03E-08,  avg # of iterations =  8.7

     negative rho (up, down):  1.977E-02 0.000E+00
 
     Adding external electric field

     Computed dipole along edir(3) : 
        Dipole                0.9467 Ry au,          2.4062 Debye
        Dipole field          0.0018 Ry au, 
 
        Potential amp.       -0.1656 Ry
        Total length         46.3494 bohr
 

     total cpu time spent up to now is     1060.4 secs

     total energy              =   -2931.32924745 Ry
     estimated scf accuracy    <       0.00004488 Ry

     iteration # 67     ecut=    29.40 Ry     beta= 0.05
     Davidson diagonalization with overlap
     ethr =  1.15E-08,  avg # of iterations =  9.4

     negative rho (up, down):  1.950E-02 0.000E+00
 
     Adding external electric field

     Computed dipole along edir(3) : 
        Dipole                0.9475 Ry au,          2.4084 Debye
        Dipole field          0.0018 Ry au, 
 
        Potential amp.       -0.1658 Ry
        Total length         46.3494 bohr
 

     total cpu time spent up to now is     1075.6 secs

     total energy              =   -2931.32925629 Ry
     estimated scf accuracy    <       0.00001913 Ry

     iteration # 68     ecut=    29.40 Ry     beta= 0.05
     Davidson diagonalization with overlap
     ethr =  4.89E-09,  avg # of iterations =  8.6

     negative rho (up, down):  1.932E-02 0.000E+00
 
     Adding external electric field

     Computed dipole along edir(3) : 
        Dipole                0.9483 Ry au,          2.4105 Debye
        Dipole field          0.0018 Ry au, 
 
        Potential amp.       -0.1659 Ry
        Total length         46.3494 bohr
 

     total cpu time spent up to now is     1088.4 secs

     total energy              =   -2931.32925911 Ry
     estimated scf accuracy    <       0.00000917 Ry

     iteration # 69     ecut=    29.40 Ry     beta= 0.05
     Davidson diagonalization with overlap
     c_bands:  1 eigenvalues not converged
     ethr =  2.34E-09,  avg # of iterations = 11.2

     negative rho (up, down):  1.921E-02 0.000E+00
 
     Adding external electric field

     Computed dipole along edir(3) : 
        Dipole                0.9532 Ry au,          2.4228 Debye
        Dipole field          0.0018 Ry au, 
 
        Potential amp.       -0.1667 Ry
        Total length         46.3494 bohr
 

     total cpu time spent up to now is     1103.9 secs

     total energy              =   -2931.32926251 Ry
     estimated scf accuracy    <       0.00000450 Ry

     iteration # 70     ecut=    29.40 Ry     beta= 0.05
     Davidson diagonalization with overlap
     ethr =  1.15E-09,  avg # of iterations =  9.4

     negative rho (up, down):  1.914E-02 0.000E+00
 
     Adding external electric field

     Computed dipole along edir(3) : 
        Dipole                0.9527 Ry au,          2.4214 Debye
        Dipole field          0.0018 Ry au, 
 
        Potential amp.       -0.1667 Ry
        Total length         46.3494 bohr
 

     total cpu time spent up to now is     1120.3 secs

     total energy              =   -2931.32926504 Ry
     estimated scf accuracy    <       0.00000455 Ry

     iteration # 71     ecut=    29.40 Ry     beta= 0.05
     Davidson diagonalization with overlap
     ethr =  1.15E-09,  avg # of iterations =  5.0

     negative rho (up, down):  1.907E-02 0.000E+00
 
     Adding external electric field

     Computed dipole along edir(3) : 
        Dipole                0.9517 Ry au,          2.4191 Debye
        Dipole field          0.0018 Ry au, 
 
        Potential amp.       -0.1665 Ry
        Total length         46.3494 bohr
 

     total cpu time spent up to now is     1132.9 secs

     total energy              =   -2931.32926661 Ry
     estimated scf accuracy    <       0.00000203 Ry

     iteration # 72     ecut=    29.40 Ry     beta= 0.05
     Davidson diagonalization with overlap
     ethr =  5.20E-10,  avg # of iterations =  8.6

     negative rho (up, down):  1.903E-02 0.000E+00
 
     Adding external electric field

     Computed dipole along edir(3) : 
        Dipole                0.9536 Ry au,          2.4238 Debye
        Dipole field          0.0018 Ry au, 
 
        Potential amp.       -0.1668 Ry
        Total length         46.3494 bohr
 

     total cpu time spent up to now is     1147.2 secs

     total energy              =   -2931.32926831 Ry
     estimated scf accuracy    <       0.00000176 Ry

     iteration # 73     ecut=    29.40 Ry     beta= 0.05
     Davidson diagonalization with overlap
     ethr =  4.49E-10,  avg # of iterations =  7.3

     negative rho (up, down):  1.896E-02 0.000E+00
 
     Adding external electric field

     Computed dipole along edir(3) : 
        Dipole                0.9537 Ry au,          2.4242 Debye
        Dipole field          0.0018 Ry au, 
 
        Potential amp.       -0.1668 Ry
        Total length         46.3494 bohr
 

     total cpu time spent up to now is     1160.6 secs

     total energy              =   -2931.32927005 Ry
     estimated scf accuracy    <       0.00000113 Ry

     iteration # 74     ecut=    29.40 Ry     beta= 0.05
     Davidson diagonalization with overlap
     ethr =  2.89E-10,  avg # of iterations =  6.5

     negative rho (up, down):  1.894E-02 0.000E+00
 
     Adding external electric field

     Computed dipole along edir(3) : 
        Dipole                0.9533 Ry au,          2.4231 Debye
        Dipole field          0.0018 Ry au, 
 
        Potential amp.       -0.1668 Ry
        Total length         46.3494 bohr
 

     total cpu time spent up to now is     1172.7 secs

     total energy              =   -2931.32927130 Ry
     estimated scf accuracy    <       0.00000058 Ry

     iteration # 75     ecut=    29.40 Ry     beta= 0.05
     Davidson diagonalization with overlap
     ethr =  1.49E-10,  avg # of iterations =  8.7

     negative rho (up, down):  1.893E-02 0.000E+00
 
     Adding external electric field

     Computed dipole along edir(3) : 
        Dipole                0.9534 Ry au,          2.4233 Debye
        Dipole field          0.0018 Ry au, 
 
        Potential amp.       -0.1668 Ry
        Total length         46.3494 bohr
 

     total cpu time spent up to now is     1187.2 secs

     total energy              =   -2931.32927252 Ry
     estimated scf accuracy    <       0.00000024 Ry

     iteration # 76     ecut=    29.40 Ry     beta= 0.05
     Davidson diagonalization with overlap
     ethr =  6.18E-11,  avg # of iterations = 10.0

     negative rho (up, down):  1.890E-02 0.000E+00
 
     Adding external electric field

     Computed dipole along edir(3) : 
        Dipole                0.9535 Ry au,          2.4236 Debye
        Dipole field          0.0018 Ry au, 
 
        Potential amp.       -0.1668 Ry
        Total length         46.3494 bohr
 

     total cpu time spent up to now is     1201.2 secs

     total energy              =   -2931.32927360 Ry
     estimated scf accuracy    <       0.00000016 Ry

     iteration # 77     ecut=    29.40 Ry     beta= 0.05
     Davidson diagonalization with overlap
     ethr =  4.07E-11,  avg # of iterations = 10.8

     negative rho (up, down):  1.889E-02 0.000E+00
 
     Adding external electric field

     Computed dipole along edir(3) : 
        Dipole                0.9531 Ry au,          2.4225 Debye
        Dipole field          0.0018 Ry au, 
 
        Potential amp.       -0.1667 Ry
        Total length         46.3494 bohr
 

     total cpu time spent up to now is     1221.5 secs

     total energy              =   -2931.32927458 Ry
     estimated scf accuracy    <       0.00000034 Ry

     iteration # 78     ecut=    29.40 Ry     beta= 0.05
     Davidson diagonalization with overlap
     ethr =  4.07E-11,  avg # of iterations = 11.7

     negative rho (up, down):  1.888E-02 0.000E+00
 
     Adding external electric field

     Computed dipole along edir(3) : 
        Dipole                0.9532 Ry au,          2.4227 Debye
        Dipole field          0.0018 Ry au, 
 
        Potential amp.       -0.1667 Ry
        Total length         46.3494 bohr
 

     total cpu time spent up to now is     1242.1 secs

     total energy              =   -2931.32927552 Ry
     estimated scf accuracy    <       0.00000010 Ry

     iteration # 79     ecut=    29.40 Ry     beta= 0.05
     Davidson diagonalization with overlap
     ethr =  2.63E-11,  avg # of iterations =  5.9

     negative rho (up, down):  1.889E-02 0.000E+00
 
     Adding external electric field

     Computed dipole along edir(3) : 
        Dipole                0.9537 Ry au,          2.4240 Debye
        Dipole field          0.0018 Ry au, 
 
        Potential amp.       -0.1668 Ry
        Total length         46.3494 bohr
 

     total cpu time spent up to now is     1255.1 secs

     End of self-consistent calculation

          k = 0.0000 0.0000 0.0000 ( 18029 PWs)   bands (ev):

   -55.8496 -55.8120 -55.7578 -55.7454 -55.6919 -55.6842 -55.6693 -55.6649
   -55.6345 -55.6156 -55.6138 -55.5881 -55.5814 -55.5644 -54.8246 -54.7905
   -32.3594 -32.3238 -32.2333 -32.2042 -32.1586 -32.1336 -32.1214 -32.0970
   -32.0882 -32.0608 -32.0348 -32.0127 -32.0043 -31.9914 -31.9644 -31.9568
   -31.9458 -31.9346 -31.9162 -31.9136 -31.9089 -31.9033 -31.8755 -31.8573
   -31.8520 -31.8490 -31.8475 -31.8376 -31.8311 -31.8215 -31.8132 -31.8107
   -31.8005 -31.7882 -31.7845 -31.7837 -31.7707 -31.7650 -31.7476 -31.7363
   -31.7172 -31.6438 -31.2318 -31.1423 -31.1198 -31.0488 -30.9626 -30.8510
   -19.5411 -16.5534 -16.3375 -16.1508 -16.0518 -16.0012 -15.8327 -15.7504
   -15.5403 -15.4878 -15.4762 -15.4499 -15.3938 -15.3774 -15.3709 -15.3522
   -15.3408 -15.3156 -15.2560 -15.2473 -15.2389 -15.2042 -15.1467 -15.1169
   -14.9895 -14.9806 -14.9649 -14.9461 -14.8626 -14.7328 -13.3247 -13.2078
    -9.6097  -6.4428  -4.1990  -4.0010  -3.8646  -3.7676  -3.7523  -3.7313
    -3.5697  -3.4954  -3.2707  -3.1386  -3.0875  -3.0204  -2.9797  -2.9182
    -2.8257  -2.7630  -2.7214  -2.6812  -2.6473  -2.6463  -2.6304  -2.5764
    -2.5465  -2.5028  -2.4005  -2.3980  -2.3459  -2.2893  -2.2492  -2.2072
    -2.1658  -2.1504  -2.1299  -2.0933  -2.0602  -2.0501  -2.0176  -1.9874
    -1.9305  -1.8496  -1.8206  -1.5581  -1.4662  -1.3807  -1.3674  -1.2998
    -1.2760  -1.2467  -1.2315  -1.1935  -1.1810  -1.0938  -1.0842  -1.0123
    -0.9710  -0.8900  -0.8296  -0.7528  -0.6896  -0.6311  -0.6089  -0.5799
    -0.5638  -0.5543  -0.3935  -0.3817  -0.3543  -0.2438  -0.2277  -0.1631
    -0.1395  -0.0772  -0.0540   0.0109   0.0690   0.0906   0.1125   0.1487
     0.1592   0.1711   0.2136   0.2954   0.3852   0.3991   0.4163   0.4795
     0.6452   0.7189   0.8226   0.8867   1.1247   1.2002   1.2376   1.2833
     1.3865   1.7741   1.8271   3.2983   3.3675   3.4156   3.4258   3.4647
     3.5467   3.7369   3.7449   3.8034   3.8921

          k = 0.0000 0.0419 0.0000 ( 17933 PWs)   bands (ev):

   -55.8452 -55.8162 -55.7557 -55.7424 -55.6948 -55.6861 -55.6674 -55.6624
   -55.6309 -55.6175 -55.6100 -55.5916 -55.5860 -55.5656 -54.8195 -54.7954
   -32.3238 -32.2700 -32.1809 -32.1540 -32.1432 -32.1141 -32.0767 -32.0707
   -32.0523 -32.0431 -32.0218 -32.0023 -32.0005 -31.9907 -31.9810 -31.9771
   -31.9526 -31.9293 -31.9251 -31.9226 -31.9130 -31.9028 -31.9006 -31.8891
   -31.8644 -31.8535 -31.8446 -31.8404 -31.8348 -31.8303 -31.8270 -31.8247
   -31.8190 -31.8133 -31.8085 -31.7999 -31.7973 -31.7785 -31.7714 -31.7674
   -31.7593 -31.6437 -31.1777 -31.1388 -31.1228 -31.0363 -30.9751 -30.9081
   -19.5384 -16.4310 -16.2221 -16.0448 -15.9896 -15.8981 -15.7902 -15.7043
   -15.6009 -15.5050 -15.4951 -15.4356 -15.3959 -15.3897 -15.3766 -15.3333
   -15.3262 -15.3116 -15.2999 -15.2897 -15.2286 -15.1915 -15.1839 -15.1626
   -15.0467 -15.0389 -15.0246 -14.9985 -14.9188 -14.8423 -13.3286 -13.2472
    -9.6084  -6.4387  -4.2009  -3.9297  -3.7036  -3.5923  -3.5861  -3.5604
    -3.4381  -3.3497  -3.0903  -3.0559  -3.0011  -2.9851  -2.9076  -2.8528
    -2.8364  -2.8074  -2.7831  -2.7660  -2.7458  -2.7136  -2.6388  -2.6158
    -2.6046  -2.5613  -2.5222  -2.4953  -2.4595  -2.3912  -2.3477  -2.3051
    -2.2612  -2.2453  -2.2357  -2.1866  -2.1254  -2.0916  -1.9991  -1.9293
    -1.8088  -1.6628  -1.6265  -1.5589  -1.5017  -1.4507  -1.3605  -1.2762
    -1.2496  -1.1335  -1.0625  -1.0239  -1.0031  -0.9870  -0.9280  -0.9027
    -0.8714  -0.8131  -0.7887  -0.7739  -0.6908  -0.6640  -0.6474  -0.6076
    -0.5885  -0.5138  -0.4974  -0.4769  -0.3918  -0.3457  -0.3074  -0.2769
    -0.2434  -0.2045  -0.1382  -0.0373  -0.0248  -0.0147   0.0226   0.0368
     0.0949   0.1342   0.1872   0.2462   0.2896   0.3158   0.3837   0.4919
     0.5166   0.5376   0.6365   0.7654   0.8180   1.1238   1.2906   1.3901
     1.4814   1.7261   1.7394   3.4757   3.5369   3.5648   3.6194   3.6393
     3.6605   3.6995   3.7829   3.8297   3.8390

          k = 0.0000-0.0839 0.0000 ( 17884 PWs)   bands (ev):

   -55.8387 -55.8226 -55.7535 -55.7389 -55.6982 -55.6882 -55.6657 -55.6593
   -55.6265 -55.6208 -55.5996 -55.5983 -55.5941 -55.5669 -54.8075 -54.8073
   -32.2817 -32.1460 -32.1358 -32.1303 -32.1083 -32.0793 -32.0783 -32.0507
   -32.0131 -32.0027 -31.9919 -31.9837 -31.9756 -31.9732 -31.9660 -31.9651
   -31.9624 -31.9511 -31.9509 -31.9332 -31.9269 -31.9157 -31.9127 -31.9114
   -31.9031 -31.8954 -31.8943 -31.8764 -31.8717 -31.8567 -31.8551 -31.8424
   -31.8359 -31.8318 -31.8284 -31.8225 -31.8127 -31.7947 -31.7942 -31.7720
   -31.7574 -31.6438 -31.1308 -31.1304 -31.0454 -31.0444 -31.0059 -31.0051
   -19.5356 -16.2356 -16.0002 -15.9284 -15.8834 -15.8608 -15.7605 -15.7470
   -15.6722 -15.6001 -15.5728 -15.5215 -15.4935 -15.3876 -15.2993 -15.2920
   -15.2816 -15.2579 -15.2272 -15.1926 -15.1853 -15.1790 -15.1705 -15.1665
   -15.1644 -15.1426 -15.1074 -15.0657 -15.0436 -15.0422 -13.3119 -13.3080
    -9.6071  -6.4349  -4.2073  -3.8686  -3.3234  -3.3066  -3.2154  -3.1836
    -3.1740  -3.1620  -3.1518  -3.1270  -3.1204  -3.0908  -3.0224  -2.9894
    -2.9285  -2.8904  -2.8618  -2.8487  -2.8038  -2.7714  -2.7401  -2.7202
    -2.6872  -2.6223  -2.5856  -2.5735  -2.5546  -2.4270  -2.3920  -2.3767
    -2.2090  -2.1876  -2.1363  -2.0866  -1.9405  -1.8349  -1.8208  -1.7807
    -1.6920  -1.6423  -1.5483  -1.5360  -1.5193  -1.4678  -1.3073  -1.2953
    -1.2555  -1.2485  -1.2252  -1.2050  -1.1850  -1.1748  -1.1228  -1.0686
    -0.8896  -0.8453  -0.8007  -0.7657  -0.6825  -0.5665  -0.4998  -0.4729
    -0.4446  -0.4015  -0.3699  -0.3528  -0.3413  -0.3368  -0.3122  -0.2829
    -0.2206  -0.2053  -0.1765  -0.1619  -0.1593  -0.1075  -0.0849  -0.0670
    -0.0213   0.0038   0.0147   0.0633   0.1225   0.1546   0.3429   0.4056
     0.4133   0.4431   0.6462   0.7169   0.8368   0.9155   1.2997   1.5302
     1.5366   1.6650   1.6670   3.5097   3.6716   3.7069   3.7243   3.7549
     3.8423   3.8808   3.8991   3.9024   3.9211

          k = 0.0380 0.0000 0.0000 ( 17913 PWs)   bands (ev):

   -55.8495 -55.8119 -55.7576 -55.7452 -55.6918 -55.6841 -55.6693 -55.6648
   -55.6341 -55.6156 -55.6138 -55.5880 -55.5813 -55.5643 -54.8245 -54.7904
   -32.3595 -32.3247 -32.2360 -32.2045 -32.1587 -32.1335 -32.1263 -32.1013
   -32.0882 -32.0605 -32.0349 -32.0015 -32.0006 -31.9742 -31.9641 -31.9564
   -31.9455 -31.9348 -31.9135 -31.9087 -31.8974 -31.8964 -31.8740 -31.8725
   -31.8521 -31.8487 -31.8463 -31.8387 -31.8373 -31.8210 -31.8132 -31.8105
   -31.8037 -31.7883 -31.7854 -31.7842 -31.7832 -31.7643 -31.7477 -31.7350
   -31.7180 -31.6441 -31.2313 -31.1456 -31.1178 -31.0486 -30.9625 -30.8508
   -19.5407 -16.4686 -16.2491 -16.1189 -16.0393 -15.9131 -15.8352 -15.7622
   -15.5890 -15.5730 -15.5280 -15.5262 -15.5069 -15.4708 -15.4218 -15.3909
   -15.3780 -15.3144 -15.2199 -15.2095 -15.1630 -15.1025 -15.0804 -15.0447
   -15.0362 -14.9866 -14.9809 -14.9628 -14.9299 -14.7328 -13.3214 -13.2075
    -9.6124  -6.4399  -4.2005  -3.9853  -3.7016  -3.5968  -3.5362  -3.5026
    -3.4625  -3.3783  -3.2559  -3.2447  -3.1438  -3.1118  -3.0380  -2.9585
    -2.9249  -2.9172  -2.8108  -2.7281  -2.6106  -2.5552  -2.5338  -2.4814
    -2.4201  -2.4034  -2.3645  -2.3500  -2.2814  -2.2476  -2.2238  -2.1958
    -2.1903  -2.1334  -2.1105  -2.0522  -2.0107  -1.9870  -1.9501  -1.7905
    -1.7788  -1.7353  -1.6810  -1.6326  -1.4749  -1.4610  -1.4290  -1.4152
    -1.3591  -1.3208  -1.2713  -1.2611  -1.2299  -1.1627  -1.1412  -1.1156
    -1.0614  -0.9841  -0.8675  -0.7847  -0.6973  -0.6649  -0.6449  -0.6012
    -0.5542  -0.4812  -0.4284  -0.4061  -0.3624  -0.3103  -0.2029  -0.1766
    -0.1691  -0.1267  -0.0917  -0.0682  -0.0405  -0.0190   0.0094   0.0508
     0.0752   0.1500   0.1950   0.2148   0.3007   0.3294   0.3987   0.4745
     0.4989   0.5374   0.7434   0.8586   1.0977   1.1481   1.2121   1.3097
     1.3556   1.6617   1.7416   3.3346   3.3605   3.5777   3.6081   3.6351
     3.6806   3.7210   3.7349   3.7513   3.7678

          k = 0.0380 0.0419 0.0000 ( 17878 PWs)   bands (ev):

   -55.8451 -55.8162 -55.7556 -55.7422 -55.6948 -55.6860 -55.6674 -55.6624
   -55.6306 -55.6174 -55.6100 -55.5915 -55.5861 -55.5655 -54.8194 -54.7954
   -32.3240 -32.2708 -32.1836 -32.1545 -32.1431 -32.1141 -32.0813 -32.0709
   -32.0535 -32.0479 -32.0219 -32.0024 -31.9902 -31.9882 -31.9775 -31.9659
   -31.9523 -31.9296 -31.9251 -31.9222 -31.9039 -31.8993 -31.8869 -31.8846
   -31.8680 -31.8641 -31.8466 -31.8406 -31.8358 -31.8343 -31.8273 -31.8188
   -31.8178 -31.8122 -31.8084 -31.8023 -31.7986 -31.7935 -31.7726 -31.7677
   -31.7634 -31.6441 -31.1773 -31.1414 -31.1218 -31.0361 -30.9752 -30.9079
   -19.5380 -16.3559 -16.1420 -16.0499 -15.9349 -15.8292 -15.7612 -15.7242
   -15.6029 -15.5642 -15.5264 -15.5031 -15.4700 -15.4381 -15.4244 -15.3891
   -15.3285 -15.3108 -15.3031 -15.2225 -15.2050 -15.1808 -15.1626 -15.0994
   -15.0889 -15.0598 -15.0317 -15.0146 -14.9786 -14.8425 -13.3263 -13.2475
    -9.6105  -6.4349  -4.2014  -3.9264  -3.5378  -3.4539  -3.3716  -3.3497
    -3.2878  -3.2273  -3.1305  -3.0596  -2.9926  -2.9823  -2.9287  -2.8698
    -2.8290  -2.7566  -2.7439  -2.7169  -2.6694  -2.6507  -2.6118  -2.5765
    -2.5610  -2.5517  -2.5131  -2.4713  -2.4565  -2.4230  -2.3328  -2.2957
    -2.2783  -2.2453  -2.1800  -2.1322  -2.0470  -1.9862  -1.9287  -1.8491
    -1.7900  -1.7452  -1.6328  -1.5606  -1.5000  -1.4591  -1.4116  -1.3311
    -1.2690  -1.2233  -1.1733  -1.1377  -1.0690  -1.0468  -1.0257  -0.9694
    -0.9290  -0.8965  -0.8652  -0.7779  -0.7710  -0.7481  -0.6731  -0.6434
    -0.5964  -0.5739  -0.5472  -0.5345  -0.4806  -0.4544  -0.4228  -0.3797
    -0.3501  -0.2707  -0.2645  -0.2190  -0.1305  -0.0992  -0.0368  -0.0089
     0.0221   0.0853   0.1740   0.2669   0.3276   0.3689   0.4267   0.4807
     0.5311   0.5470   0.6176   0.7300   0.7850   1.0687   1.2965   1.4010
     1.4847   1.6489   1.7169   3.4830   3.5272   3.5939   3.6655   3.7085
     3.7565   3.7837   3.8286   3.8494   3.8689

          k = 0.0380-0.0839 0.0000 ( 17916 PWs)   bands (ev):

   -55.8387 -55.8226 -55.7535 -55.7388 -55.6983 -55.6882 -55.6657 -55.6594
   -55.6264 -55.6208 -55.5994 -55.5981 -55.5947 -55.5669 -54.8076 -54.8073
   -32.2820 -32.1467 -32.1359 -32.1311 -32.1084 -32.0816 -32.0791 -32.0515
   -32.0170 -32.0032 -31.9924 -31.9827 -31.9763 -31.9742 -31.9652 -31.9621
   -31.9612 -31.9517 -31.9498 -31.9330 -31.9248 -31.9181 -31.9110 -31.9002
   -31.8991 -31.8953 -31.8947 -31.8722 -31.8576 -31.8547 -31.8517 -31.8393
   -31.8370 -31.8349 -31.8331 -31.8226 -31.8126 -31.8014 -31.7944 -31.7835
   -31.7686 -31.6446 -31.1318 -31.1313 -31.0453 -31.0443 -31.0059 -31.0052
   -19.5354 -16.1956 -15.9384 -15.9188 -15.8668 -15.8011 -15.6997 -15.6964
   -15.6363 -15.6045 -15.5400 -15.5113 -15.4767 -15.4344 -15.3622 -15.3593
   -15.3498 -15.2729 -15.2597 -15.2483 -15.2100 -15.2055 -15.1865 -15.1751
   -15.1401 -15.1360 -15.1193 -15.0942 -15.0810 -15.0327 -13.3117 -13.3078
    -9.6086  -6.4305  -4.2063  -3.8683  -3.2877  -3.2220  -3.1090  -3.0477
    -3.0053  -2.9971  -2.9682  -2.9617  -2.9366  -2.9194  -2.9124  -2.8972
    -2.8774  -2.8280  -2.7954  -2.7569  -2.7468  -2.7223  -2.7118  -2.6776
    -2.6363  -2.6043  -2.5881  -2.5292  -2.5034  -2.4534  -2.4377  -2.3390
    -2.2262  -2.1615  -2.0932  -2.0149  -1.8861  -1.8461  -1.8146  -1.7611
    -1.7209  -1.6865  -1.6566  -1.6025  -1.5834  -1.5724  -1.5537  -1.5227
    -1.4664  -1.4454  -1.3813  -1.3737  -1.2411  -1.2117  -1.0300  -0.9967
    -0.9749  -0.9394  -0.8686  -0.8245  -0.7886  -0.6725  -0.6305  -0.6018
    -0.5828  -0.5619  -0.5264  -0.5023  -0.4683  -0.4359  -0.4273  -0.3909
    -0.3827  -0.3770  -0.2883  -0.2647  -0.2370  -0.1408  -0.1211  -0.0785
     0.0250   0.0430   0.2181   0.2577   0.2794   0.2943   0.3212   0.4063
     0.4626   0.5068   0.6191   0.6736   0.8299   0.8902   1.2697   1.5439
     1.5500   1.6543   1.6576   3.5607   3.6479   3.7033   3.7258   3.7626
     3.8640   3.8720   3.9175   3.9266   3.9621

          k = 0.0380-0.0419 0.0000 ( 17876 PWs)   bands (ev):

   -55.8451 -55.8162 -55.7556 -55.7422 -55.6948 -55.6860 -55.6674 -55.6624
   -55.6306 -55.6174 -55.6100 -55.5915 -55.5861 -55.5655 -54.8194 -54.7954
   -32.3240 -32.2708 -32.1836 -32.1544 -32.1431 -32.1141 -32.0812 -32.0709
   -32.0536 -32.0479 -32.0219 -32.0024 -31.9903 -31.9882 -31.9774 -31.9663
   -31.9523 -31.9294 -31.9257 -31.9222 -31.9041 -31.9015 -31.8856 -31.8823
   -31.8676 -31.8639 -31.8457 -31.8405 -31.8363 -31.8353 -31.8272 -31.8186
   -31.8180 -31.8125 -31.8086 -31.8023 -31.7988 -31.7940 -31.7718 -31.7682
   -31.7632 -31.6442 -31.1773 -31.1414 -31.1218 -31.0361 -30.9752 -30.9079
   -19.5380 -16.3559 -16.1419 -16.0498 -15.9355 -15.8287 -15.7616 -15.7240
   -15.6035 -15.5646 -15.5255 -15.5032 -15.4698 -15.4368 -15.4250 -15.3893
   -15.3312 -15.3088 -15.3034 -15.2224 -15.2070 -15.1796 -15.1621 -15.0990
   -15.0891 -15.0591 -15.0302 -15.0135 -14.9808 -14.8427 -13.3263 -13.2475
    -9.6105  -6.4351  -4.2008  -3.9253  -3.5398  -3.4500  -3.3747  -3.3485
    -3.2874  -3.2305  -3.1323  -3.0591  -2.9935  -2.9845  -2.9351  -2.8753
    -2.8257  -2.7635  -2.7403  -2.7328  -2.6551  -2.6477  -2.6137  -2.5678
    -2.5607  -2.5439  -2.5131  -2.4776  -2.4598  -2.4227  -2.3357  -2.3151
    -2.2755  -2.2479  -2.1767  -2.1424  -2.0582  -1.9604  -1.9384  -1.8506
    -1.7784  -1.7350  -1.6298  -1.5533  -1.4967  -1.4598  -1.4028  -1.3235
    -1.2618  -1.2126  -1.1775  -1.1239  -1.0794  -1.0421  -1.0122  -0.9905
    -0.9380  -0.8926  -0.8473  -0.7939  -0.7692  -0.7239  -0.6674  -0.6343
    -0.5843  -0.5678  -0.5430  -0.5352  -0.4814  -0.4472  -0.4265  -0.3918
    -0.3627  -0.2981  -0.2786  -0.2116  -0.1246  -0.1046  -0.0541  -0.0101
     0.0286   0.0728   0.1802   0.2636   0.3239   0.3486   0.4263   0.4844
     0.5195   0.5467   0.6182   0.7345   0.7832   1.0673   1.2939   1.4015
     1.4848   1.6490   1.7173   3.4734   3.5338   3.5886   3.6548   3.7372
     3.7564   3.7921   3.8450   3.8749   3.8858

          k =-0.0760-0.0000 0.0000 ( 17886 PWs)   bands (ev):

   -55.8494 -55.8119 -55.7576 -55.7451 -55.6918 -55.6840 -55.6694 -55.6648
   -55.6338 -55.6158 -55.6138 -55.5880 -55.5813 -55.5643 -54.8244 -54.7904
   -32.3598 -32.3256 -32.2387 -32.2049 -32.1587 -32.1335 -32.1311 -32.1055
   -32.0882 -32.0603 -32.0351 -31.9986 -31.9868 -31.9640 -31.9561 -31.9472
   -31.9455 -31.9349 -31.9136 -31.9090 -31.8999 -31.8920 -31.8704 -31.8553
   -31.8522 -31.8517 -31.8483 -31.8452 -31.8422 -31.8361 -31.8209 -31.8130
   -31.8049 -31.7918 -31.7886 -31.7841 -31.7828 -31.7642 -31.7481 -31.7338
   -31.7194 -31.6444 -31.2309 -31.1488 -31.1165 -31.0486 -30.9623 -30.8508
   -19.5402 -16.2987 -16.2541 -16.1003 -15.9552 -15.8249 -15.8213 -15.7421
   -15.6548 -15.6412 -15.6107 -15.6011 -15.5400 -15.5039 -15.4970 -15.4799
   -15.3848 -15.3120 -15.2169 -15.2029 -15.1514 -15.1099 -15.0811 -15.0503
   -15.0232 -14.9912 -14.9817 -14.9382 -14.8970 -14.7334 -13.3184 -13.2072
    -9.6151  -6.4370  -4.2020  -3.9726  -3.6238  -3.5947  -3.3701  -3.3518
    -3.2490  -3.2391  -3.1966  -3.1762  -3.1015  -3.0841  -3.0544  -3.0480
    -2.9904  -2.8023  -2.7743  -2.6598  -2.4819  -2.4468  -2.3884  -2.3739
    -2.3649  -2.3367  -2.3128  -2.2988  -2.2851  -2.2765  -2.2450  -2.1831
    -2.1610  -2.1344  -2.1078  -2.0855  -2.0683  -1.9924  -1.9700  -1.9280
    -1.8544  -1.6194  -1.6060  -1.5460  -1.4849  -1.4538  -1.4512  -1.4210
    -1.4100  -1.3865  -1.3037  -1.2994  -1.2920  -1.2411  -1.1879  -1.1503
    -1.1174  -1.0715  -0.9906  -0.9879  -0.9303  -0.7197  -0.6566  -0.6039
    -0.5930  -0.4919  -0.4481  -0.4236  -0.3940  -0.3794  -0.2779  -0.2564
    -0.2441  -0.2261  -0.1888  -0.1286  -0.1103  -0.0579  -0.0188   0.0028
     0.0625   0.1026   0.1429   0.2054   0.2551   0.2990   0.3822   0.4384
     0.5667   0.6171   0.7749   0.8493   0.8549   1.1504   1.2336   1.3291
     1.3369   1.5299   1.6816   3.3319   3.3436   3.4408   3.5415   3.5817
     3.6656   3.6962   3.7500   3.7613   3.8011

          k =-0.0760 0.0419 0.0000 ( 17914 PWs)   bands (ev):

   -55.8451 -55.8162 -55.7556 -55.7422 -55.6948 -55.6860 -55.6675 -55.6624
   -55.6304 -55.6175 -55.6102 -55.5915 -55.5863 -55.5656 -54.8194 -54.7954
   -32.3242 -32.2718 -32.1865 -32.1551 -32.1432 -32.1143 -32.0861 -32.0711
   -32.0545 -32.0526 -32.0221 -32.0027 -31.9862 -31.9785 -31.9773 -31.9522
   -31.9453 -31.9296 -31.9264 -31.9221 -31.9027 -31.8946 -31.8897 -31.8775
   -31.8638 -31.8486 -31.8470 -31.8438 -31.8430 -31.8389 -31.8338 -31.8303
   -31.8172 -31.8112 -31.8088 -31.8066 -31.7981 -31.7970 -31.7771 -31.7688
   -31.7671 -31.6448 -31.1771 -31.1442 -31.1211 -31.0361 -30.9752 -30.9080
   -19.5377 -16.2198 -16.1476 -16.0173 -15.8584 -15.7468 -15.7447 -15.6698
   -15.6217 -15.5927 -15.5769 -15.5730 -15.5320 -15.4998 -15.4503 -15.4420
   -15.3964 -15.3388 -15.2684 -15.2328 -15.2156 -15.1548 -15.1385 -15.1168
   -15.1140 -15.0857 -15.0248 -15.0123 -14.9766 -14.8438 -13.3242 -13.2478
    -9.6126  -6.4314  -4.2012  -3.9184  -3.4689  -3.4562  -3.1562  -3.1386
    -3.1047  -3.0309  -3.0093  -2.9547  -2.9442  -2.8816  -2.8782  -2.8609
    -2.8014  -2.7811  -2.7159  -2.6945  -2.6181  -2.6113  -2.5719  -2.5488
    -2.5143  -2.4960  -2.4539  -2.4249  -2.3884  -2.3451  -2.3321  -2.3143
    -2.2922  -2.2547  -2.2377  -2.0644  -1.9533  -1.9120  -1.8797  -1.8508
    -1.8085  -1.7368  -1.6416  -1.6176  -1.5137  -1.4443  -1.3834  -1.3618
    -1.3365  -1.3158  -1.2357  -1.2146  -1.1786  -1.1377  -1.1251  -1.0712
    -1.0455  -1.0208  -0.9932  -0.9677  -0.9422  -0.9006  -0.8483  -0.7882
    -0.7559  -0.7190  -0.6191  -0.5888  -0.5477  -0.5348  -0.4888  -0.4557
    -0.3946  -0.3637  -0.3239  -0.3103  -0.1762  -0.1525  -0.0936   0.0009
     0.0268   0.0978   0.1481   0.3245   0.3399   0.4233   0.4683   0.5491
     0.6155   0.6404   0.6683   0.7066   0.7838   0.8961   1.2983   1.4157
     1.4870   1.5725   1.7037   3.4806   3.5098   3.5437   3.5960   3.6534
     3.6597   3.7608   3.7945   3.9015   3.9226

          k =-0.0760-0.0839 0.0000 ( 17948 PWs)   bands (ev):

   -55.8387 -55.8227 -55.7534 -55.7388 -55.6983 -55.6881 -55.6658 -55.6594
   -55.6263 -55.6209 -55.5993 -55.5974 -55.5956 -55.5669 -54.8076 -54.8074
   -32.2823 -32.1474 -32.1361 -32.1318 -32.1084 -32.0841 -32.0796 -32.0521
   -32.0204 -32.0034 -31.9928 -31.9895 -31.9765 -31.9668 -31.9650 -31.9600
   -31.9590 -31.9513 -31.9485 -31.9329 -31.9309 -31.9231 -31.9000 -31.8966
   -31.8924 -31.8856 -31.8841 -31.8741 -31.8659 -31.8596 -31.8461 -31.8434
   -31.8338 -31.8250 -31.8229 -31.8133 -31.8102 -31.8081 -31.8062 -31.7942
   -31.7904 -31.6453 -31.1327 -31.1323 -31.0453 -31.0443 -31.0059 -31.0052
   -19.5352 -16.1426 -15.9584 -15.8044 -15.7907 -15.7848 -15.6331 -15.6295
   -15.6047 -15.5683 -15.5352 -15.5172 -15.4794 -15.4752 -15.4319 -15.3804
   -15.3740 -15.3619 -15.3354 -15.2844 -15.2720 -15.2571 -15.1802 -15.1694
   -15.1611 -15.1348 -15.1320 -15.1003 -15.0996 -15.0258 -13.3115 -13.3076
    -9.6102  -6.4261  -4.2053  -3.8661  -3.2829  -3.2096  -3.0169  -3.0021
    -2.9274  -2.8927  -2.8668  -2.8268  -2.7764  -2.7694  -2.7547  -2.6804
    -2.6564  -2.6520  -2.6073  -2.5943  -2.5840  -2.5676  -2.5539  -2.5165
    -2.4935  -2.4692  -2.4461  -2.4308  -2.4090  -2.4002  -2.3956  -2.3503
    -2.3298  -2.2092  -2.1182  -2.0555  -2.0095  -1.9682  -1.9420  -1.9236
    -1.9056  -1.8911  -1.8781  -1.8379  -1.7694  -1.6042  -1.5248  -1.5198
    -1.4570  -1.4356  -1.3862  -1.3650  -1.2904  -1.2622  -1.2127  -1.1989
    -1.1834  -1.0798  -1.0568  -0.9626  -0.9310  -0.8250  -0.8015  -0.7882
    -0.7691  -0.7276  -0.7052  -0.6419  -0.6186  -0.5812  -0.5537  -0.5029
    -0.4578  -0.4409  -0.3433  -0.3021  -0.2485  -0.2012  -0.1346  -0.0250
     0.1535   0.1757   0.2111   0.3154   0.3544   0.4258   0.4823   0.5008
     0.5648   0.6014   0.6454   0.6943   0.7575   0.7941   1.2460   1.5617
     1.5703   1.6349   1.6465   3.6005   3.6498   3.7693   3.7823   3.8122
     3.8227   3.8358   3.8512   3.9004   3.9547

     the Fermi energy is     3.2915 ev

!    total energy              =   -2931.32928304 Ry
     estimated scf accuracy    <       0.00000003 Ry
     smearing contrib. (-TS)   =      -0.02172939 Ry
     internal energy E=F+TS    =   -2931.30755366 Ry

     The total energy is F=E-TS. E is the sum of the following terms:
     one-electron contribution =  -24944.47661931 Ry
     hartree contribution      =   12558.64735446 Ry
     xc contribution           =    -482.04069251 Ry
     ewald contribution        =    9936.56068740 Ry
     electric field correction =       0.00171631 Ry

     convergence has been achieved in  79 iterations

     Forces acting on atoms (cartesian axes, Ry/au):

     atom    1 type  1   force =    -0.00001326    0.00010089    0.10311830
     atom    2 type  1   force =     0.00000505    0.00011286    0.10344746
     atom    3 type  2   force =    -0.00029324    0.00098670    0.09591372
     atom    4 type  2   force =    -0.00015218   -0.00100156    0.10944925
     atom    5 type  2   force =    -0.00014929   -0.00319100   -0.17644538
     atom    6 type  2   force =    -0.00014161    0.00267648   -0.17605454
     atom    7 type  1   force =    -0.07085155    0.00113889   -0.02853775
     atom    8 type  1   force =    -0.07119874   -0.00152430   -0.02856527
     atom    9 type  1   force =     0.07069681    0.00155265   -0.02856596
     atom   10 type  1   force =     0.07091856   -0.00114798   -0.02861021
     atom   11 type  1   force =     0.00048644   -0.00020686    0.05106761
     atom   12 type  1   force =     0.00072236   -0.00042040    0.05033796
     atom   13 type  1   force =     0.00061263    0.00264442   -0.02979893
     atom   14 type  1   force =     0.00055647   -0.00111774   -0.02627622
     atom   15 type  2   force =     0.00019460   -0.00145743   -0.00050105
     atom   16 type  2   force =    -0.00010731    0.00157108   -0.00009730
     atom   17 type  2   force =    -0.00007992   -0.00004164    0.00029681
     atom   18 type  2   force =     0.00008394    0.00060925    0.00040819
     atom   19 type  1   force =    -0.01648171    0.00013064    0.00405521
     atom   20 type  1   force =    -0.01693288   -0.00138112    0.00405456
     atom   21 type  1   force =     0.01272379    0.00185646    0.00029722
     atom   22 type  1   force =     0.01237163    0.00142495    0.00046545
     atom   23 type  1   force =     0.00020230   -0.00009583   -0.00057716
     atom   24 type  1   force =     0.00017408   -0.00040811   -0.00044102
     atom   25 type  1   force =     0.00035379   -0.00003620    0.00000067
     atom   26 type  1   force =     0.00006732   -0.00043989   -0.00066493
     atom   27 type  2   force =    -0.00001748   -0.00060784   -0.00026568
     atom   28 type  2   force =     0.00016281    0.00006880   -0.00030784
     atom   29 type  2   force =    -0.00012309   -0.00110831    0.00029772
     atom   30 type  2   force =     0.00035578    0.00035276    0.00018158
     atom   31 type  1   force =     0.00013702    0.00005492   -0.00006101
     atom   32 type  1   force =    -0.00010555   -0.00034783    0.00039231
     atom   33 type  1   force =     0.00023817   -0.00016798   -0.00012426
     atom   34 type  1   force =     0.00050843   -0.00037830    0.00025409
     atom   35 type  1   force =    -0.00011471    0.00015919    0.00176646
     atom   36 type  1   force =     0.00034715    0.00013347    0.00034855
     atom   37 type  1   force =     0.00014671   -0.00034681   -0.00008900
     atom   38 type  1   force =     0.00043320   -0.00040635    0.00012682
     atom   39 type  2   force =     0.00043321    0.00122702   -0.00083448
     atom   40 type  2   force =     0.00044699   -0.00016367    0.00004732
     atom   41 type  2   force =     0.00005629   -0.00063828    0.00064979
     atom   42 type  2   force =     0.00018204    0.00061706   -0.00033271
     atom   43 type  1   force =     0.00076357    0.00003181    0.00017458
     atom   44 type  1   force =     0.00081053   -0.00019888   -0.00011815
     atom   45 type  1   force =     0.00011044   -0.00003909   -0.00000727
     atom   46 type  1   force =     0.00043515   -0.00028463    0.00025351
     atom   47 type  1   force =     0.00053207   -0.00035733   -0.00039695
     atom   48 type  1   force =    -0.00028290    0.00317187    0.00079869
     atom   49 type  3   force =     0.00058124   -0.00093393   -0.00067524
     atom   50 type  4   force =    -0.00042296   -0.00260389    0.00021834
     atom   51 type  3   force =     0.00133147    0.00016713    0.00028348
     atom   52 type  3   force =    -0.00071368    0.00026388   -0.00035737

     Total force =     0.368424     Total SCF correction =     0.000473
  @ DRIVER MODE: Message from server: STATUS
  @ DRIVER MODE: Message from server: GETFORCE
  @ DRIVER MODE: Returning v,forces,stress,ensemble 

     Writing output data file ./calc.save/
  @ DRIVER MODE: Message from server: EXIT
  @ DRIVE MODE: Exiting  
 
     init_run     :     11.03s CPU     11.41s WALL (       1 calls)
     electrons    :   1179.20s CPU   1242.41s WALL (       1 calls)
     forces       :      2.28s CPU      2.38s WALL (       1 calls)

     Called by init_run:
     wfcinit      :      4.94s CPU      5.05s WALL (       1 calls)
     potinit      :      5.53s CPU      5.67s WALL (       1 calls)
     hinit0       :      0.24s CPU      0.26s WALL (       1 calls)

     Called by electrons:
     c_bands      :    996.55s CPU   1043.42s WALL (      79 calls)
     sum_band     :    123.27s CPU    131.51s WALL (      79 calls)
     v_of_rho     :     45.10s CPU     48.64s WALL (      80 calls)
     newd         :     17.06s CPU     21.45s WALL (      80 calls)
     mix_rho      :      1.65s CPU      1.81s WALL (      79 calls)
     vdW_kernel   :      4.74s CPU      4.76s WALL (       1 calls)

     Called by c_bands:
     init_us_2    :      6.92s CPU      7.30s WALL (    1600 calls)
     cegterg      :    975.77s CPU   1021.18s WALL (     795 calls)

     Called by *egterg:
     cdiaghg      :    174.48s CPU    181.45s WALL (    8619 calls)
     h_psi        :    514.40s CPU    539.62s WALL (    8629 calls)
     s_psi        :     69.09s CPU     72.07s WALL (    8629 calls)
     g_psi        :      1.79s CPU      1.87s WALL (    7824 calls)

     Called by h_psi:
     h_psi:calbec :     64.68s CPU     67.84s WALL (    8629 calls)
     vloc_psi     :    376.95s CPU    395.44s WALL (    8629 calls)
     add_vuspsi   :     69.71s CPU     72.84s WALL (    8629 calls)

     General routines
     calbec       :     86.21s CPU     90.10s WALL (    9459 calls)
     fft          :     24.17s CPU     25.09s WALL (    5040 calls)
     ffts         :      0.19s CPU      0.19s WALL (     159 calls)
     fftw         :    428.53s CPU    448.81s WALL ( 1008272 calls)
     interpolate  :      0.56s CPU      0.58s WALL (      80 calls)
     davcio       :      0.00s CPU      0.49s WALL (      10 calls)
 
     Parallel routines
 
     PWSCF        :  19m52.92s CPU  20m58.80s WALL

 
   This run was terminated on:  19: 0:22  10Sep2021            

=------------------------------------------------------------------------------=
   JOB DONE.
=------------------------------------------------------------------------------=
