
     Program PWSCF v.6.7GPU starts on 26Sep2021 at 17:29:45 

     This program is part of the open-source Quantum ESPRESSO suite
     for quantum simulation of materials; please cite
         "P. Giannozzi et al., J. Phys.:Condens. Matter 21 395502 (2009);
         "P. Giannozzi et al., J. Phys.:Condens. Matter 29 465901 (2017);
         "P. Giannozzi et al., J. Chem. Phys. 152 154105 (2020);
          URL http://www.quantum-espresso.org", 
     in publications or presentations arising from this work. More details at
     http://www.quantum-espresso.org/quote

     Parallel version (MPI), running on     8 processors

     MPI processes distributed on     1 nodes
     R & G space division:  proc/nbgrp/npool/nimage =       8
     Reading input from /storage/home/hcoda1/3/ntian30/research/carbon/CxH_vib/H2O_calc/ads_slab/CH3N2OHHO_l/out_0055/pw.inp
Warning: card &CELL ignored
Warning: card   CELL_DYNAMICS='IPI', ignored
Warning: card / ignored

     Current dimensions of program PWSCF are:
     Max number of different atomic species (ntypx) = 10
     Max number of k-points (npk) =  40000
     Max angular momentum in pseudopotentials (lmaxx) =  3
     Presently no symmetry can be used with electric field

     Message from routine cell_base_init:
     DEPRECATED: use true lattice parameter, not A to a.u. conversion factor

     **************************************************************************
     Initializing libbeef V0.1.2 with the BEEF-vdW functional.
     Citation: Wellendorff et al., PRB 85, 235149 (2012).
     **************************************************************************


     IMPORTANT: XC functional enforced from input :
     Exchange-correlation= BEEF-VDW
                           (   1   4  43  14   2   0   0)
     Any further DFT definition will be discarded
     Please, verify this is what you really want


     Subspace diagonalization in iterative solution of the eigenvalue problem:
     one sub-group per band group will be used
     scalapack distributed-memory algorithm (size of sub-group:  2*  2 procs)

  @ DRIVER MODE: Connecting to 
 qe_1139763_2971669.sched-torque.pace.gatech.edunert35z7_scratch
  using UNIX socket
  @ DRIVER MODE: Message from server: STATUS
  @ DRIVER MODE: Message from server: INIT
  @ DRIVER MODE: Receiving replica           0          -1
  @ DRIVER MODE: Receiving encoded integer          25
  @ DRIVER MODE:  SCF:  T  FORCE:  T  STRESS:  F  VC:  F  ENSEMBLE:  F
  @ DRIVER MODE:  SCF:  T  FORCE:  T  STRESS:  F  VC:  F  ENSEMBLE:  F
 
     Parallelization info
     --------------------
     sticks:   dense  smooth     PW     G-vecs:    dense   smooth      PW
     Min         409     164     47                70857    17926    2743
     Max         411     165     48                70858    17931    2751
     Sum        3275    1317    379               566857   143421   21985
 
     Using Slab Decomposition
 


     bravais-lattice index     =            0
     lattice parameter (alat)  =       1.8897  a.u.
     unit-cell volume          =    6658.9804 (a.u.)^3
     number of atoms/cell      =           57
     number of atomic types    =            5
     number of electrons       =       409.00
     number of Kohn-Sham states=          214
     kinetic-energy cutoff     =      29.3995  Ry
     charge density cutoff     =     293.9946  Ry
     scf convergence threshold =      7.3E-08
     mixing beta               =       0.0500
     number of iterations used =            8  plain     mixing
     Exchange-correlation= BEEF-VDW
                           (   1   4  43  14   2   0   0)

     celldm(1)=   1.889726  celldm(2)=   0.000000  celldm(3)=   0.000000
     celldm(4)=   0.000000  celldm(5)=   0.000000  celldm(6)=   0.000000

     crystal axes: (cart. coord. in units of alat)
               a(1) = (   6.579727   0.000000   0.000000 )  
               a(2) = (  -0.000775   5.961596   0.000000 )  
               a(3) = (   0.000000   0.000000  25.155947 )  

     reciprocal axes: (cart. coord. in units 2 pi/alat)
               b(1) = (  0.151982  0.000020  0.000000 )  
               b(2) = (  0.000000  0.167740  0.000000 )  
               b(3) = (  0.000000  0.000000  0.039752 )  


     PseudoPot. # 1 for Ti read from file:
     /storage/coda1/p-amedford6/0/shared/rich_project_chbe-medford/medford-share/data/pseudos_module/espresso/nninc/pbe/van/Ti.UPF
     MD5 check sum: 8e4df49b7f0d34bbd5052bf3f5ea0213
     Pseudo is Ultrasoft, Zval = 12.0
     Generated by new atomic code, or converted to UPF format
     Using radial grid of  851 points,  6 beta functions with: 
                l(1) =   0
                l(2) =   0
                l(3) =   1
                l(4) =   1
                l(5) =   2
                l(6) =   2
     Q(r) pseudized with  8 coefficients,  rinner =    1.000   1.000   1.000
                                                       1.000   1.000

     PseudoPot. # 2 for O  read from file:
     /storage/coda1/p-amedford6/0/shared/rich_project_chbe-medford/medford-share/data/pseudos_module/espresso/nninc/pbe/van/O.UPF
     MD5 check sum: 78c19812648e8988a0fe644b0f25305e
     Pseudo is Ultrasoft, Zval =  6.0
     Generated by new atomic code, or converted to UPF format
     Using radial grid of  737 points,  4 beta functions with: 
                l(1) =   0
                l(2) =   0
                l(3) =   1
                l(4) =   1
     Q(r) pseudized with  8 coefficients,  rinner =    0.800   0.800   0.800


     PseudoPot. # 3 for N  read from file:
     /storage/coda1/p-amedford6/0/shared/rich_project_chbe-medford/medford-share/data/pseudos_module/espresso/nninc/pbe/van/N.UPF
     MD5 check sum: 90d10febe142ad51ac9d5be1deb811c4
     Pseudo is Ultrasoft, Zval =  5.0
     Generated by new atomic code, or converted to UPF format
     Using radial grid of  729 points,  4 beta functions with: 
                l(1) =   0
                l(2) =   0
                l(3) =   1
                l(4) =   1
     Q(r) pseudized with  8 coefficients,  rinner =    0.800   0.800   0.800


     PseudoPot. # 4 for C  read from file:
     /storage/coda1/p-amedford6/0/shared/rich_project_chbe-medford/medford-share/data/pseudos_module/espresso/nninc/pbe/van/C.UPF
     MD5 check sum: 1a69bf6b8db32088f5b2163dbdb77a27
     Pseudo is Ultrasoft, Zval =  4.0
     Generated by new atomic code, or converted to UPF format
     Using radial grid of  721 points,  4 beta functions with: 
                l(1) =   0
                l(2) =   0
                l(3) =   1
                l(4) =   1
     Q(r) pseudized with  8 coefficients,  rinner =    0.800   0.800   0.800


     PseudoPot. # 5 for H  read from file:
     /storage/coda1/p-amedford6/0/shared/rich_project_chbe-medford/medford-share/data/pseudos_module/espresso/nninc/pbe/van/H.UPF
     MD5 check sum: b5ee9d7bfd3a09ee7748110bda690ff7
     Pseudo is Ultrasoft, Zval =  1.0
     Generated by new atomic code, or converted to UPF format
     Using radial grid of  615 points,  1 beta functions with: 
                l(1) =   0
     Q(r) pseudized with  8 coefficients,  rinner =    0.800

     atomic species   valence    mass     pseudopotential
        Ti1           12.00    47.86700     Ti( 1.00)
        O1             6.00    15.99900     O ( 1.00)
        N1             5.00    14.00700     N ( 1.00)
        C1             4.00    12.01100     C ( 1.00)
        H1             1.00     1.00800     H ( 1.00)

     No symmetry found



   Cartesian axes

     site n.     atom                  positions (alat units)
         1           Ti1 tau(   1) = (   0.0004258   2.9801865   6.0000000  )
         2           Ti1 tau(   2) = (   3.2906075   1.4906267   6.0002472  )
         3           O1  tau(   3) = (   0.0006271   0.0005054   7.9858123  )
         4           O1  tau(   4) = (   3.2906025   0.0005020   7.3038282  )
         5           O1  tau(   5) = (   4.5942328   1.4918067   9.2879030  )
         6           O1  tau(   6) = (   1.9868534   1.4903216   9.2879459  )
         7           Ti1 tau(   7) = (   3.2907910   2.8959150   9.1758416  )
         8           Ti1 tau(   8) = (   0.0015273   1.4827037   9.2680791  )
         9           O1  tau(   9) = (   3.2779673   5.9607700  11.3423085  )
        10           O1  tau(  10) = (   0.0116148   5.9584955  10.6183126  )
        11           O1  tau(  11) = (   1.2787083   1.4818767  12.6451794  )
        12           O1  tau(  12) = (   5.2707140   1.4872516  12.6060838  )
        13           Ti1 tau(  13) = (   0.0520196   2.9452147  12.6012095  )
        14           Ti1 tau(  14) = (   3.3669591   1.4706787  12.5087448  )
        15           O1  tau(  15) = (   6.5166736   5.9505275  14.6414754  )
        16           O1  tau(  16) = (   3.3002175   0.0041348  13.9548274  )
        17           O1  tau(  17) = (   4.5235890   1.5203341  16.0633414  )
        18           O1  tau(  18) = (   1.9992342   1.5602939  15.9747780  )
        19           Ti1 tau(  19) = (   3.2541499   3.0080313  15.6961896  )
        20           Ti1 tau(  20) = (   6.5591015   1.5323982  15.7823192  )
        21           O1  tau(  21) = (   3.2904802   0.0005063   4.7018136  )
        22           O1  tau(  22) = (   0.0960927   0.0099221  17.2178370  )
        23           O1  tau(  23) = (   1.3043587   1.4918075   6.0039043  )
        24           O1  tau(  24) = (   5.2767064   1.4903225   6.0039473  )
        25           Ti1 tau(  25) = (   0.0000382   5.9609847   6.0000000  )
        26           Ti1 tau(  26) = (   3.2902200   4.4714249   6.0002472  )
        27           O1  tau(  27) = (   0.0002396   2.9813036   7.9858123  )
        28           O1  tau(  28) = (   3.2902150   2.9813002   7.3038282  )
        29           O1  tau(  29) = (   4.5938453   4.4726049   9.2879030  )
        30           O1  tau(  30) = (   1.9864658   4.4711199   9.2879459  )
        31           Ti1 tau(  31) = (   3.2891106   5.8743827   9.1763621  )
        32           Ti1 tau(  32) = (   0.0006254   4.4649316   9.2693709  )
        33           O1  tau(  33) = (   3.2807211   2.9768430  11.3440791  )
        34           O1  tau(  34) = (   0.0092240   2.9805883  10.6323155  )
        35           O1  tau(  35) = (   1.2789702   4.4681595  12.6395138  )
        36           O1  tau(  36) = (   5.2737968   4.4775610  12.6008310  )
        37           Ti1 tau(  37) = (   0.0460201   5.9176504  12.5434570  )
        38           Ti1 tau(  38) = (   3.3658678   4.4646095  12.4976877  )
        39           O1  tau(  39) = (   6.5297297   2.9761478  14.6509524  )
        40           O1  tau(  40) = (   3.3085871   2.9961499  13.9017917  )
        41           O1  tau(  41) = (   4.5138497   4.4896837  16.1272785  )
        42           O1  tau(  42) = (   1.9961282   4.4344792  16.0060688  )
        43           Ti1 tau(  43) = (   3.3116018   0.0224549  15.7990204  )
        44           Ti1 tau(  44) = (   6.5775847   4.6577750  16.0638065  )
        45           O1  tau(  45) = (   3.2900926   2.9813045   4.7018136  )
        46           O1  tau(  46) = (   1.3039711   4.4726057   6.0039043  )
        47           O1  tau(  47) = (   5.2763189   4.4711207   6.0039473  )
        48           N1  tau(  48) = (   6.5065777   2.6139801  18.6303060  )
        49           N1  tau(  49) = (   6.5364102   2.8728423  17.4370429  )
        50           C1  tau(  50) = (   6.4341180   3.7235584  19.6105657  )
        51           H1  tau(  51) = (   6.3066687   4.7022679  19.1488110  )
        52           H1  tau(  52) = (   5.6164842   3.4805663  20.2913871  )
        53           H1  tau(  53) = (   0.7823074   3.6964598  20.1845303  )
        54           O1  tau(  54) = (   3.0314481   5.0835218  18.9911038  )
        55           H1  tau(  55) = (   1.7414717   0.2044793  18.0242669  )
        56           O1  tau(  56) = (   2.7372941   0.2572207  18.0778760  )
        57           H1  tau(  57) = (   3.9243361   5.3466317  19.2487757  )

     number of k points=    10  Fermi-Dirac smearing, width (Ry)=  0.0073
                       cart. coord. in units 2pi/alat
        k(    1) = (   0.0000000   0.0000000   0.0000000), wk =   0.1250000
        k(    2) = (   0.0000000   0.0419351   0.0000000), wk =   0.2500000
        k(    3) = (   0.0000000  -0.0838702   0.0000000), wk =   0.1250000
        k(    4) = (   0.0379955   0.0000049   0.0000000), wk =   0.2500000
        k(    5) = (   0.0379955   0.0419400   0.0000000), wk =   0.2500000
        k(    6) = (   0.0379955  -0.0838652   0.0000000), wk =   0.2500000
        k(    7) = (   0.0379955  -0.0419301   0.0000000), wk =   0.2500000
        k(    8) = (  -0.0759910  -0.0000099   0.0000000), wk =   0.1250000
        k(    9) = (  -0.0759910   0.0419252   0.0000000), wk =   0.2500000
        k(   10) = (  -0.0759910  -0.0838800   0.0000000), wk =   0.1250000

     Dense  grid:   566857 G-vectors     FFT dimensions: (  72,  64, 270)

     Smooth grid:   143421 G-vectors     FFT dimensions: (  45,  40, 180)

     Estimated max dynamical RAM per process >     462.31 MB

     Estimated total dynamical RAM >       3.61 GB
     Cannot read rho : file not found

     Initial potential from superposition of free atoms

     starting charge  392.99914, renormalised to  409.00000

     negative rho (up, down):  1.422E-02 0.000E+00


     %%%%%%%%%%%%%%%%%%%%%%%%%%%%%%%%%%%%%%%%%%%%%%%%%%%%%%%%%%%%%%%%%%%%%%%%
     %                                                                      %
     % You are using vdW-DF, which was implemented by the Thonhauser group. %
     % Please cite the following two papers that made this development      %
     % possible and the two reviews that describe the various versions:     %
     %                                                                      %
     %   T. Thonhauser et al., PRL 115, 136402 (2015).                      %
     %   T. Thonhauser et al., PRB 76, 125112 (2007).                       %
     %   K. Berland et al., Rep. Prog. Phys. 78, 066501 (2015).             %
     %   D.C. Langreth et al., J. Phys.: Condens. Matter 21, 084203 (2009). %
     %                                                                      %
     %                                                                      %
     % If you are calculating the stress with vdW-DF, please also cite:     %
     %                                                                      %
     %   R. Sabatini et al., J. Phys.: Condens. Matter 24, 424209 (2012).   %
     %                                                                      %
     %%%%%%%%%%%%%%%%%%%%%%%%%%%%%%%%%%%%%%%%%%%%%%%%%%%%%%%%%%%%%%%%%%%%%%%%


 
     Adding external electric field

     Computed dipole along edir(3) : 
        Dipole              -16.7505 Ry au,        -42.5754 Debye
        Dipole field         -0.0316 Ry au, 
 
        Potential amp.        2.9302 Ry
        Total length         46.3494 bohr
 
     Starting wfcs are  309 atomic wfcs
  @ DRIVER MODE: Message from server: STATUS
  @ DRIVER MODE: Message from server: POSDATA
  @ DRIVER MODE: Reading and sharing cell 
  @ DRIVER MODE: Reading and sharing positions 
  @ DRIVER MODE: Received positions 

     total cpu time spent up to now is       16.4 secs

     Self-consistent Calculation

     iteration #  1     ecut=    29.40 Ry     beta= 0.05
     Davidson diagonalization with overlap
     c_bands:  5 eigenvalues not converged
     c_bands:  5 eigenvalues not converged
     c_bands:  3 eigenvalues not converged
     c_bands:  1 eigenvalues not converged
     c_bands:  4 eigenvalues not converged
     c_bands:  2 eigenvalues not converged
     c_bands:  5 eigenvalues not converged
     ethr =  1.00E-05,  avg # of iterations = 26.6

     negative rho (up, down):  7.762E-03 0.000E+00
 
     Adding external electric field

     Computed dipole along edir(3) : 
        Dipole               65.4203 Ry au,        166.2817 Debye
        Dipole field          0.1235 Ry au, 
 
        Potential amp.      -11.4443 Ry
        Total length         46.3494 bohr
 

     total cpu time spent up to now is       85.2 secs

     total energy              =   -2110.42922962 Ry
     estimated scf accuracy    <   10326.56116037 Ry

     iteration #  2     ecut=    29.40 Ry     beta= 0.05
     Davidson diagonalization with overlap
     ethr =  1.00E-02,  avg # of iterations = 31.8

     negative rho (up, down):  1.474E-04 0.000E+00
 
     Adding external electric field

     Computed dipole along edir(3) : 
        Dipole                1.0801 Ry au,          2.7452 Debye
        Dipole field          0.0020 Ry au, 
 
        Potential amp.       -0.1889 Ry
        Total length         46.3494 bohr
 

     total cpu time spent up to now is      216.1 secs

     total energy              =   -2480.32987459 Ry
     estimated scf accuracy    <   79852.76715306 Ry

     iteration #  3     ecut=    29.40 Ry     beta= 0.05
     Davidson diagonalization with overlap
     ethr =  1.00E-02,  avg # of iterations = 17.8

     negative rho (up, down):  1.810E-04 0.000E+00
 
     Adding external electric field

     Computed dipole along edir(3) : 
        Dipole               -2.8908 Ry au,         -7.3476 Debye
        Dipole field         -0.0055 Ry au, 
 
        Potential amp.        0.5057 Ry
        Total length         46.3494 bohr
 

     total cpu time spent up to now is      284.8 secs

     total energy              =   -2997.53764830 Ry
     estimated scf accuracy    <    8733.29830330 Ry

     iteration #  4     ecut=    29.40 Ry     beta= 0.05
     Davidson diagonalization with overlap
     ethr =  1.00E-02,  avg # of iterations = 12.0

     negative rho (up, down):  1.931E-04 0.000E+00
 
     Adding external electric field

     Computed dipole along edir(3) : 
        Dipole               -4.8092 Ry au,        -12.2237 Debye
        Dipole field         -0.0091 Ry au, 
 
        Potential amp.        0.8413 Ry
        Total length         46.3494 bohr
 

     total cpu time spent up to now is      316.9 secs

     total energy              =   -2998.87396068 Ry
     estimated scf accuracy    <    2804.47304836 Ry

     iteration #  5     ecut=    29.40 Ry     beta= 0.05
     Davidson diagonalization with overlap
     ethr =  1.00E-02,  avg # of iterations =  9.5

     negative rho (up, down):  2.193E-04 0.000E+00
 
     Adding external electric field

     Computed dipole along edir(3) : 
        Dipole               -7.0754 Ry au,        -17.9839 Debye
        Dipole field         -0.0134 Ry au, 
 
        Potential amp.        1.2377 Ry
        Total length         46.3494 bohr
 

     total cpu time spent up to now is      336.7 secs

     total energy              =   -2986.60635548 Ry
     estimated scf accuracy    <    1735.47509791 Ry

     iteration #  6     ecut=    29.40 Ry     beta= 0.05
     Davidson diagonalization with overlap
     ethr =  1.00E-02,  avg # of iterations = 11.7

     negative rho (up, down):  2.165E-04 0.000E+00
 
     Adding external electric field

     Computed dipole along edir(3) : 
        Dipole               -6.0466 Ry au,        -15.3688 Debye
        Dipole field         -0.0114 Ry au, 
 
        Potential amp.        1.0578 Ry
        Total length         46.3494 bohr
 

     total cpu time spent up to now is      367.5 secs

     total energy              =   -3010.52238422 Ry
     estimated scf accuracy    <      80.31007223 Ry

     iteration #  7     ecut=    29.40 Ry     beta= 0.05
     Davidson diagonalization with overlap
     ethr =  1.00E-02,  avg # of iterations =  1.2

     negative rho (up, down):  2.184E-04 0.000E+00
 
     Adding external electric field

     Computed dipole along edir(3) : 
        Dipole               -5.2090 Ry au,        -13.2399 Debye
        Dipole field         -0.0098 Ry au, 
 
        Potential amp.        0.9112 Ry
        Total length         46.3494 bohr
 

     total cpu time spent up to now is      382.9 secs

     total energy              =   -3010.35976701 Ry
     estimated scf accuracy    <      30.76539273 Ry

     iteration #  8     ecut=    29.40 Ry     beta= 0.05
     Davidson diagonalization with overlap
     ethr =  7.52E-03,  avg # of iterations =  1.0

     negative rho (up, down):  2.573E-04 0.000E+00
 
     Adding external electric field

     Computed dipole along edir(3) : 
        Dipole                0.5545 Ry au,          1.4094 Debye
        Dipole field          0.0010 Ry au, 
 
        Potential amp.       -0.0970 Ry
        Total length         46.3494 bohr
 

     total cpu time spent up to now is      396.3 secs

     total energy              =   -3005.78594595 Ry
     estimated scf accuracy    <      28.23040303 Ry

     iteration #  9     ecut=    29.40 Ry     beta= 0.05
     Davidson diagonalization with overlap
     ethr =  6.90E-03,  avg # of iterations = 11.9

     negative rho (up, down):  2.691E-04 0.000E+00
 
     Adding external electric field

     Computed dipole along edir(3) : 
        Dipole                0.4024 Ry au,          1.0229 Debye
        Dipole field          0.0008 Ry au, 
 
        Potential amp.       -0.0704 Ry
        Total length         46.3494 bohr
 

     total cpu time spent up to now is      418.9 secs

     total energy              =   -3021.42963339 Ry
     estimated scf accuracy    <    1262.28026785 Ry

     iteration # 10     ecut=    29.40 Ry     beta= 0.05
     Davidson diagonalization with overlap
     ethr =  6.90E-03,  avg # of iterations =  1.3

     negative rho (up, down):  3.923E-04 0.000E+00
 
     Adding external electric field

     Computed dipole along edir(3) : 
        Dipole               -4.6028 Ry au,        -11.6990 Debye
        Dipole field         -0.0087 Ry au, 
 
        Potential amp.        0.8052 Ry
        Total length         46.3494 bohr
 

     total cpu time spent up to now is      432.7 secs

     total energy              =   -2989.24810506 Ry
     estimated scf accuracy    <    1266.89434982 Ry

     iteration # 11     ecut=    29.40 Ry     beta= 0.05
     Davidson diagonalization with overlap
     ethr =  6.90E-03,  avg # of iterations = 10.1

     negative rho (up, down):  3.841E-04 0.000E+00
 
     Adding external electric field

     Computed dipole along edir(3) : 
        Dipole               -5.2925 Ry au,        -13.4521 Debye
        Dipole field         -0.0100 Ry au, 
 
        Potential amp.        0.9258 Ry
        Total length         46.3494 bohr
 

     total cpu time spent up to now is      460.7 secs

     total energy              =   -3008.25228695 Ry
     estimated scf accuracy    <     291.10999874 Ry

     iteration # 12     ecut=    29.40 Ry     beta= 0.05
     Davidson diagonalization with overlap
     ethr =  6.90E-03,  avg # of iterations =  1.9

     negative rho (up, down):  3.853E-04 0.000E+00
 
     Adding external electric field

     Computed dipole along edir(3) : 
        Dipole               -4.5816 Ry au,        -11.6453 Debye
        Dipole field         -0.0086 Ry au, 
 
        Potential amp.        0.8015 Ry
        Total length         46.3494 bohr
 

     total cpu time spent up to now is      475.0 secs

     total energy              =   -3008.85122519 Ry
     estimated scf accuracy    <      78.29218488 Ry

     iteration # 13     ecut=    29.40 Ry     beta= 0.05
     Davidson diagonalization with overlap
     ethr =  6.90E-03,  avg # of iterations =  1.0

     negative rho (up, down):  3.811E-04 0.000E+00
 
     Adding external electric field

     Computed dipole along edir(3) : 
        Dipole               -1.4180 Ry au,         -3.6043 Debye
        Dipole field         -0.0027 Ry au, 
 
        Potential amp.        0.2481 Ry
        Total length         46.3494 bohr
 

     total cpu time spent up to now is      488.7 secs

     total energy              =   -3004.11795454 Ry
     estimated scf accuracy    <     168.21649180 Ry

     iteration # 14     ecut=    29.40 Ry     beta= 0.05
     Davidson diagonalization with overlap
     ethr =  6.90E-03,  avg # of iterations =  9.0

     negative rho (up, down):  3.819E-04 0.000E+00
 
     Adding external electric field

     Computed dipole along edir(3) : 
        Dipole               -1.4397 Ry au,         -3.6593 Debye
        Dipole field         -0.0027 Ry au, 
 
        Potential amp.        0.2518 Ry
        Total length         46.3494 bohr
 

     total cpu time spent up to now is      507.1 secs

     total energy              =   -3006.98787589 Ry
     estimated scf accuracy    <     389.31073025 Ry

     iteration # 15     ecut=    29.40 Ry     beta= 0.05
     Davidson diagonalization with overlap
     ethr =  6.90E-03,  avg # of iterations =  2.0

     negative rho (up, down):  4.166E-04 0.000E+00
 
     Adding external electric field

     Computed dipole along edir(3) : 
        Dipole               -2.3976 Ry au,         -6.0941 Debye
        Dipole field         -0.0045 Ry au, 
 
        Potential amp.        0.4194 Ry
        Total length         46.3494 bohr
 

     total cpu time spent up to now is      521.3 secs

     total energy              =   -3004.58098698 Ry
     estimated scf accuracy    <     185.68459259 Ry

     iteration # 16     ecut=    29.40 Ry     beta= 0.05
     Davidson diagonalization with overlap
     ethr =  6.90E-03,  avg # of iterations =  3.2

     negative rho (up, down):  4.786E-04 0.000E+00
 
     Adding external electric field

     Computed dipole along edir(3) : 
        Dipole               -2.6332 Ry au,         -6.6929 Debye
        Dipole field         -0.0050 Ry au, 
 
        Potential amp.        0.4606 Ry
        Total length         46.3494 bohr
 

     total cpu time spent up to now is      535.8 secs

     total energy              =   -3006.58047046 Ry
     estimated scf accuracy    <      11.36414357 Ry

     iteration # 17     ecut=    29.40 Ry     beta= 0.05
     Davidson diagonalization with overlap
     ethr =  2.78E-03,  avg # of iterations =  2.3

     negative rho (up, down):  6.711E-04 0.000E+00
 
     Adding external electric field

     Computed dipole along edir(3) : 
        Dipole               -3.1216 Ry au,         -7.9344 Debye
        Dipole field         -0.0059 Ry au, 
 
        Potential amp.        0.5461 Ry
        Total length         46.3494 bohr
 

     total cpu time spent up to now is      549.8 secs

     total energy              =   -3006.27546747 Ry
     estimated scf accuracy    <       8.74894137 Ry

     iteration # 18     ecut=    29.40 Ry     beta= 0.05
     Davidson diagonalization with overlap
     ethr =  2.14E-03,  avg # of iterations =  3.4

     negative rho (up, down):  7.018E-04 0.000E+00
 
     Adding external electric field

     Computed dipole along edir(3) : 
        Dipole               -2.8291 Ry au,         -7.1908 Debye
        Dipole field         -0.0053 Ry au, 
 
        Potential amp.        0.4949 Ry
        Total length         46.3494 bohr
 

     total cpu time spent up to now is      565.1 secs

     total energy              =   -3006.48219808 Ry
     estimated scf accuracy    <       6.57419808 Ry

     iteration # 19     ecut=    29.40 Ry     beta= 0.05
     Davidson diagonalization with overlap
     ethr =  1.61E-03,  avg # of iterations =  2.1

     negative rho (up, down):  1.063E-03 0.000E+00
 
     Adding external electric field

     Computed dipole along edir(3) : 
        Dipole               -1.8219 Ry au,         -4.6308 Debye
        Dipole field         -0.0034 Ry au, 
 
        Potential amp.        0.3187 Ry
        Total length         46.3494 bohr
 

     total cpu time spent up to now is      579.4 secs

     total energy              =   -3006.16227087 Ry
     estimated scf accuracy    <       4.88689502 Ry

     iteration # 20     ecut=    29.40 Ry     beta= 0.05
     Davidson diagonalization with overlap
     c_bands:  1 eigenvalues not converged
     ethr =  1.19E-03,  avg # of iterations = 13.1

     negative rho (up, down):  1.051E-03 0.000E+00
 
     Adding external electric field

     Computed dipole along edir(3) : 
        Dipole               -2.1367 Ry au,         -5.4310 Debye
        Dipole field         -0.0040 Ry au, 
 
        Potential amp.        0.3738 Ry
        Total length         46.3494 bohr
 

     total cpu time spent up to now is      604.8 secs

     total energy              =   -3008.24859164 Ry
     estimated scf accuracy    <     114.88050227 Ry

     iteration # 21     ecut=    29.40 Ry     beta= 0.05
     Davidson diagonalization with overlap
     c_bands:  1 eigenvalues not converged
     ethr =  1.19E-03,  avg # of iterations =  5.9

     negative rho (up, down):  1.165E-03 0.000E+00
 
     Adding external electric field

     Computed dipole along edir(3) : 
        Dipole               -1.6317 Ry au,         -4.1475 Debye
        Dipole field         -0.0031 Ry au, 
 
        Potential amp.        0.2854 Ry
        Total length         46.3494 bohr
 

     total cpu time spent up to now is      621.8 secs

     total energy              =   -3007.99775404 Ry
     estimated scf accuracy    <     221.29548015 Ry

     iteration # 22     ecut=    29.40 Ry     beta= 0.05
     Davidson diagonalization with overlap
     ethr =  1.19E-03,  avg # of iterations =  1.9

     negative rho (up, down):  1.205E-03 0.000E+00
 
     Adding external electric field

     Computed dipole along edir(3) : 
        Dipole               -0.7944 Ry au,         -2.0191 Debye
        Dipole field         -0.0015 Ry au, 
 
        Potential amp.        0.1390 Ry
        Total length         46.3494 bohr
 

     total cpu time spent up to now is      635.9 secs

     total energy              =   -3006.09500343 Ry
     estimated scf accuracy    <     194.54926791 Ry

     iteration # 23     ecut=    29.40 Ry     beta= 0.05
     Davidson diagonalization with overlap
     ethr =  1.19E-03,  avg # of iterations =  3.1

     negative rho (up, down):  1.185E-03 0.000E+00
 
     Adding external electric field

     Computed dipole along edir(3) : 
        Dipole               -0.6955 Ry au,         -1.7677 Debye
        Dipole field         -0.0013 Ry au, 
 
        Potential amp.        0.1217 Ry
        Total length         46.3494 bohr
 

     total cpu time spent up to now is      650.9 secs

     total energy              =   -3006.45993846 Ry
     estimated scf accuracy    <      36.25280761 Ry

     iteration # 24     ecut=    29.40 Ry     beta= 0.05
     Davidson diagonalization with overlap
     ethr =  1.19E-03,  avg # of iterations =  2.2

     negative rho (up, down):  1.134E-03 0.000E+00
 
     Adding external electric field

     Computed dipole along edir(3) : 
        Dipole               -0.3372 Ry au,         -0.8570 Debye
        Dipole field         -0.0006 Ry au, 
 
        Potential amp.        0.0590 Ry
        Total length         46.3494 bohr
 

     total cpu time spent up to now is      665.8 secs

     total energy              =   -3006.08498027 Ry
     estimated scf accuracy    <      25.28284074 Ry

     iteration # 25     ecut=    29.40 Ry     beta= 0.05
     Davidson diagonalization with overlap
     ethr =  1.19E-03,  avg # of iterations =  1.9

     negative rho (up, down):  1.342E-03 0.000E+00
 
     Adding external electric field

     Computed dipole along edir(3) : 
        Dipole               -0.1294 Ry au,         -0.3289 Debye
        Dipole field         -0.0002 Ry au, 
 
        Potential amp.        0.0226 Ry
        Total length         46.3494 bohr
 

     total cpu time spent up to now is      679.8 secs

     total energy              =   -3006.24157832 Ry
     estimated scf accuracy    <      10.16032167 Ry

     iteration # 26     ecut=    29.40 Ry     beta= 0.05
     Davidson diagonalization with overlap
     ethr =  1.19E-03,  avg # of iterations =  3.2

     negative rho (up, down):  1.479E-03 0.000E+00
 
     Adding external electric field

     Computed dipole along edir(3) : 
        Dipole                0.1254 Ry au,          0.3187 Debye
        Dipole field          0.0002 Ry au, 
 
        Potential amp.       -0.0219 Ry
        Total length         46.3494 bohr
 

     total cpu time spent up to now is      694.2 secs

     total energy              =   -3006.13573536 Ry
     estimated scf accuracy    <      11.73908549 Ry

     iteration # 27     ecut=    29.40 Ry     beta= 0.05
     Davidson diagonalization with overlap
     ethr =  1.19E-03,  avg # of iterations =  1.4

     negative rho (up, down):  1.732E-03 0.000E+00
 
     Adding external electric field

     Computed dipole along edir(3) : 
        Dipole                0.5709 Ry au,          1.4512 Debye
        Dipole field          0.0011 Ry au, 
 
        Potential amp.       -0.0999 Ry
        Total length         46.3494 bohr
 

     total cpu time spent up to now is      708.4 secs

     total energy              =   -3005.97581905 Ry
     estimated scf accuracy    <       9.80594687 Ry

     iteration # 28     ecut=    29.40 Ry     beta= 0.05
     Davidson diagonalization with overlap
     ethr =  1.19E-03,  avg # of iterations =  2.3

     negative rho (up, down):  1.919E-03 0.000E+00
 
     Adding external electric field

     Computed dipole along edir(3) : 
        Dipole                0.7193 Ry au,          1.8282 Debye
        Dipole field          0.0014 Ry au, 
 
        Potential amp.       -0.1258 Ry
        Total length         46.3494 bohr
 

     total cpu time spent up to now is      722.6 secs

     total energy              =   -3006.01456701 Ry
     estimated scf accuracy    <       4.89404986 Ry

     iteration # 29     ecut=    29.40 Ry     beta= 0.05
     Davidson diagonalization with overlap
     ethr =  1.19E-03,  avg # of iterations =  3.5

     negative rho (up, down):  2.041E-03 0.000E+00
 
     Adding external electric field

     Computed dipole along edir(3) : 
        Dipole                0.7011 Ry au,          1.7821 Debye
        Dipole field          0.0013 Ry au, 
 
        Potential amp.       -0.1227 Ry
        Total length         46.3494 bohr
 

     total cpu time spent up to now is      737.2 secs

     total energy              =   -3006.12712602 Ry
     estimated scf accuracy    <       2.98159715 Ry

     iteration # 30     ecut=    29.40 Ry     beta= 0.05
     Davidson diagonalization with overlap
     ethr =  7.29E-04,  avg # of iterations =  1.1

     negative rho (up, down):  2.182E-03 0.000E+00
 
     Adding external electric field

     Computed dipole along edir(3) : 
        Dipole                0.6187 Ry au,          1.5727 Debye
        Dipole field          0.0012 Ry au, 
 
        Potential amp.       -0.1082 Ry
        Total length         46.3494 bohr
 

     total cpu time spent up to now is      750.5 secs

     total energy              =   -3006.11378690 Ry
     estimated scf accuracy    <       3.03393005 Ry

     iteration # 31     ecut=    29.40 Ry     beta= 0.05
     Davidson diagonalization with overlap
     ethr =  7.29E-04,  avg # of iterations =  2.7

     negative rho (up, down):  2.068E-03 0.000E+00
 
     Adding external electric field

     Computed dipole along edir(3) : 
        Dipole                0.2846 Ry au,          0.7233 Debye
        Dipole field          0.0005 Ry au, 
 
        Potential amp.       -0.0498 Ry
        Total length         46.3494 bohr
 

     total cpu time spent up to now is      765.2 secs

     total energy              =   -3006.17554071 Ry
     estimated scf accuracy    <       1.32739197 Ry

     iteration # 32     ecut=    29.40 Ry     beta= 0.05
     Davidson diagonalization with overlap
     c_bands:  2 eigenvalues not converged
     ethr =  3.25E-04,  avg # of iterations =  8.6

     negative rho (up, down):  2.211E-03 0.000E+00
 
     Adding external electric field

     Computed dipole along edir(3) : 
        Dipole                0.1636 Ry au,          0.4160 Debye
        Dipole field          0.0003 Ry au, 
 
        Potential amp.       -0.0286 Ry
        Total length         46.3494 bohr
 

     total cpu time spent up to now is      783.6 secs

     total energy              =   -3006.20411281 Ry
     estimated scf accuracy    <       2.75849886 Ry

     iteration # 33     ecut=    29.40 Ry     beta= 0.05
     Davidson diagonalization with overlap
     ethr =  3.25E-04,  avg # of iterations =  1.5

     negative rho (up, down):  3.207E-03 0.000E+00
 
     Adding external electric field

     Computed dipole along edir(3) : 
        Dipole                0.0462 Ry au,          0.1175 Debye
        Dipole field          0.0001 Ry au, 
 
        Potential amp.       -0.0081 Ry
        Total length         46.3494 bohr
 

     total cpu time spent up to now is      799.5 secs

     total energy              =   -3006.18310782 Ry
     estimated scf accuracy    <       2.72427493 Ry

     iteration # 34     ecut=    29.40 Ry     beta= 0.05
     Davidson diagonalization with overlap
     ethr =  3.25E-04,  avg # of iterations =  4.6

     negative rho (up, down):  3.938E-03 0.000E+00
 
     Adding external electric field

     Computed dipole along edir(3) : 
        Dipole                0.1996 Ry au,          0.5075 Debye
        Dipole field          0.0004 Ry au, 
 
        Potential amp.       -0.0349 Ry
        Total length         46.3494 bohr
 

     total cpu time spent up to now is      814.9 secs

     total energy              =   -3006.18203960 Ry
     estimated scf accuracy    <       7.09010481 Ry

     iteration # 35     ecut=    29.40 Ry     beta= 0.05
     Davidson diagonalization with overlap
     ethr =  3.25E-04,  avg # of iterations =  1.6

     negative rho (up, down):  4.137E-03 0.000E+00
 
     Adding external electric field

     Computed dipole along edir(3) : 
        Dipole                0.2056 Ry au,          0.5225 Debye
        Dipole field          0.0004 Ry au, 
 
        Potential amp.       -0.0360 Ry
        Total length         46.3494 bohr
 

     total cpu time spent up to now is      828.7 secs

     total energy              =   -3006.19313241 Ry
     estimated scf accuracy    <       3.33422101 Ry

     iteration # 36     ecut=    29.40 Ry     beta= 0.05
     Davidson diagonalization with overlap
     ethr =  3.25E-04,  avg # of iterations =  1.1

     negative rho (up, down):  2.861E-03 0.000E+00
 
     Adding external electric field

     Computed dipole along edir(3) : 
        Dipole                0.3153 Ry au,          0.8014 Debye
        Dipole field          0.0006 Ry au, 
 
        Potential amp.       -0.0552 Ry
        Total length         46.3494 bohr
 

     total cpu time spent up to now is      842.7 secs

     total energy              =   -3006.17660350 Ry
     estimated scf accuracy    <       3.45848835 Ry

     iteration # 37     ecut=    29.40 Ry     beta= 0.05
     Davidson diagonalization with overlap
     ethr =  3.25E-04,  avg # of iterations =  4.8

     negative rho (up, down):  2.795E-03 0.000E+00
 
     Adding external electric field

     Computed dipole along edir(3) : 
        Dipole                0.3908 Ry au,          0.9932 Debye
        Dipole field          0.0007 Ry au, 
 
        Potential amp.       -0.0684 Ry
        Total length         46.3494 bohr
 

     total cpu time spent up to now is      858.7 secs

     total energy              =   -3006.21912407 Ry
     estimated scf accuracy    <       1.36007916 Ry

     iteration # 38     ecut=    29.40 Ry     beta= 0.05
     Davidson diagonalization with overlap
     ethr =  3.25E-04,  avg # of iterations =  1.2

     negative rho (up, down):  3.224E-03 0.000E+00
 
     Adding external electric field

     Computed dipole along edir(3) : 
        Dipole                0.4898 Ry au,          1.2449 Debye
        Dipole field          0.0009 Ry au, 
 
        Potential amp.       -0.0857 Ry
        Total length         46.3494 bohr
 

     total cpu time spent up to now is      872.1 secs

     total energy              =   -3006.24209618 Ry
     estimated scf accuracy    <       1.41030530 Ry

     iteration # 39     ecut=    29.40 Ry     beta= 0.05
     Davidson diagonalization with overlap
     ethr =  3.25E-04,  avg # of iterations =  2.3

     negative rho (up, down):  6.326E-03 0.000E+00
 
     Adding external electric field

     Computed dipole along edir(3) : 
        Dipole                1.0453 Ry au,          2.6569 Debye
        Dipole field          0.0020 Ry au, 
 
        Potential amp.       -0.1829 Ry
        Total length         46.3494 bohr
 

     total cpu time spent up to now is      885.8 secs

     total energy              =   -3006.15630922 Ry
     estimated scf accuracy    <       1.09430010 Ry

     iteration # 40     ecut=    29.40 Ry     beta= 0.05
     Davidson diagonalization with overlap
     c_bands:  4 eigenvalues not converged
     c_bands:  3 eigenvalues not converged
     ethr =  2.68E-04,  avg # of iterations = 12.8

     negative rho (up, down):  3.771E-03 0.000E+00
 
     Adding external electric field

     Computed dipole along edir(3) : 
        Dipole                1.0497 Ry au,          2.6681 Debye
        Dipole field          0.0020 Ry au, 
 
        Potential amp.       -0.1836 Ry
        Total length         46.3494 bohr
 

     total cpu time spent up to now is      905.4 secs

     total energy              =   -3006.16423699 Ry
     estimated scf accuracy    <       0.79918273 Ry

     iteration # 41     ecut=    29.40 Ry     beta= 0.05
     Davidson diagonalization with overlap
     c_bands:  2 eigenvalues not converged
     c_bands:  2 eigenvalues not converged
     c_bands:  2 eigenvalues not converged
     c_bands:  2 eigenvalues not converged
     c_bands:  3 eigenvalues not converged
     ethr =  1.95E-04,  avg # of iterations = 20.0

     negative rho (up, down):  4.888E-03 0.000E+00
 
     Adding external electric field

     Computed dipole along edir(3) : 
        Dipole                0.7065 Ry au,          1.7956 Debye
        Dipole field          0.0013 Ry au, 
 
        Potential amp.       -0.1236 Ry
        Total length         46.3494 bohr
 

     total cpu time spent up to now is      932.5 secs

     total energy              =   -3006.08454057 Ry
     estimated scf accuracy    <       1.18582227 Ry

     iteration # 42     ecut=    29.40 Ry     beta= 0.05
     Davidson diagonalization with overlap
     c_bands:  2 eigenvalues not converged
     c_bands:  1 eigenvalues not converged
     ethr =  1.95E-04,  avg # of iterations = 14.2

     negative rho (up, down):  4.121E-03 0.000E+00
 
     Adding external electric field

     Computed dipole along edir(3) : 
        Dipole                0.6374 Ry au,          1.6200 Debye
        Dipole field          0.0012 Ry au, 
 
        Potential amp.       -0.1115 Ry
        Total length         46.3494 bohr
 

     total cpu time spent up to now is      952.3 secs

     total energy              =   -3006.13483037 Ry
     estimated scf accuracy    <       0.28488439 Ry

     iteration # 43     ecut=    29.40 Ry     beta= 0.05
     Davidson diagonalization with overlap
     c_bands:  5 eigenvalues not converged
     ethr =  6.97E-05,  avg # of iterations = 12.1

     negative rho (up, down):  4.395E-03 0.000E+00
 
     Adding external electric field

     Computed dipole along edir(3) : 
        Dipole                0.5948 Ry au,          1.5118 Debye
        Dipole field          0.0011 Ry au, 
 
        Potential amp.       -0.1040 Ry
        Total length         46.3494 bohr
 

     total cpu time spent up to now is      971.0 secs

     total energy              =   -3006.14381713 Ry
     estimated scf accuracy    <       0.14154737 Ry

     iteration # 44     ecut=    29.40 Ry     beta= 0.05
     Davidson diagonalization with overlap
     c_bands:  2 eigenvalues not converged
     ethr =  3.46E-05,  avg # of iterations = 10.9

     negative rho (up, down):  5.114E-03 0.000E+00
 
     Adding external electric field

     Computed dipole along edir(3) : 
        Dipole                0.6480 Ry au,          1.6470 Debye
        Dipole field          0.0012 Ry au, 
 
        Potential amp.       -0.1134 Ry
        Total length         46.3494 bohr
 

     total cpu time spent up to now is      989.6 secs

     total energy              =   -3006.13835155 Ry
     estimated scf accuracy    <       0.15935143 Ry

     iteration # 45     ecut=    29.40 Ry     beta= 0.05
     Davidson diagonalization with overlap
     c_bands:  1 eigenvalues not converged
     ethr =  3.46E-05,  avg # of iterations =  8.8

     negative rho (up, down):  5.383E-03 0.000E+00
 
     Adding external electric field

     Computed dipole along edir(3) : 
        Dipole                0.6693 Ry au,          1.7011 Debye
        Dipole field          0.0013 Ry au, 
 
        Potential amp.       -0.1171 Ry
        Total length         46.3494 bohr
 

     total cpu time spent up to now is     1006.6 secs

     total energy              =   -3006.13203288 Ry
     estimated scf accuracy    <       0.08630372 Ry

     iteration # 46     ecut=    29.40 Ry     beta= 0.05
     Davidson diagonalization with overlap
     c_bands:  1 eigenvalues not converged
     c_bands:  2 eigenvalues not converged
     c_bands:  1 eigenvalues not converged
     c_bands:  2 eigenvalues not converged
     c_bands:  2 eigenvalues not converged
     c_bands:  1 eigenvalues not converged
     c_bands:  1 eigenvalues not converged
     c_bands:  2 eigenvalues not converged
     c_bands:  2 eigenvalues not converged
     ethr =  2.11E-05,  avg # of iterations = 19.9

     negative rho (up, down):  7.160E-03 0.000E+00
 
     Adding external electric field

     Computed dipole along edir(3) : 
        Dipole                0.6679 Ry au,          1.6977 Debye
        Dipole field          0.0013 Ry au, 
 
        Potential amp.       -0.1168 Ry
        Total length         46.3494 bohr
 

     total cpu time spent up to now is     1033.4 secs

     total energy              =   -3006.13417035 Ry
     estimated scf accuracy    <       0.07418711 Ry

     iteration # 47     ecut=    29.40 Ry     beta= 0.05
     Davidson diagonalization with overlap
     c_bands:  1 eigenvalues not converged
     c_bands:  1 eigenvalues not converged
     c_bands:  1 eigenvalues not converged
     c_bands:  1 eigenvalues not converged
     ethr =  1.81E-05,  avg # of iterations = 15.5

     negative rho (up, down):  6.773E-03 0.000E+00
 
     Adding external electric field

     Computed dipole along edir(3) : 
        Dipole                0.6440 Ry au,          1.6368 Debye
        Dipole field          0.0012 Ry au, 
 
        Potential amp.       -0.1127 Ry
        Total length         46.3494 bohr
 

     total cpu time spent up to now is     1055.1 secs

     total energy              =   -3006.13614931 Ry
     estimated scf accuracy    <       0.05584186 Ry

     iteration # 48     ecut=    29.40 Ry     beta= 0.05
     Davidson diagonalization with overlap
     ethr =  1.37E-05,  avg # of iterations = 12.2

     negative rho (up, down):  7.810E-03 0.000E+00
 
     Adding external electric field

     Computed dipole along edir(3) : 
        Dipole                0.7209 Ry au,          1.8323 Debye
        Dipole field          0.0014 Ry au, 
 
        Potential amp.       -0.1261 Ry
        Total length         46.3494 bohr
 

     total cpu time spent up to now is     1074.4 secs

     total energy              =   -3006.13641112 Ry
     estimated scf accuracy    <       0.07323949 Ry

     iteration # 49     ecut=    29.40 Ry     beta= 0.05
     Davidson diagonalization with overlap
     ethr =  1.37E-05,  avg # of iterations =  6.3

     negative rho (up, down):  9.137E-03 0.000E+00
 
     Adding external electric field

     Computed dipole along edir(3) : 
        Dipole                0.7726 Ry au,          1.9637 Debye
        Dipole field          0.0015 Ry au, 
 
        Potential amp.       -0.1352 Ry
        Total length         46.3494 bohr
 

     total cpu time spent up to now is     1090.4 secs

     total energy              =   -3006.13811944 Ry
     estimated scf accuracy    <       0.02416142 Ry

     iteration # 50     ecut=    29.40 Ry     beta= 0.05
     Davidson diagonalization with overlap
     c_bands:  1 eigenvalues not converged
     ethr =  5.91E-06,  avg # of iterations = 12.5

     negative rho (up, down):  1.221E-02 0.000E+00
 
     Adding external electric field

     Computed dipole along edir(3) : 
        Dipole                0.8134 Ry au,          2.0674 Debye
        Dipole field          0.0015 Ry au, 
 
        Potential amp.       -0.1423 Ry
        Total length         46.3494 bohr
 

     total cpu time spent up to now is     1110.2 secs

     total energy              =   -3006.13613603 Ry
     estimated scf accuracy    <       0.02541697 Ry

     iteration # 51     ecut=    29.40 Ry     beta= 0.05
     Davidson diagonalization with overlap
     ethr =  5.91E-06,  avg # of iterations = 10.0

     negative rho (up, down):  1.278E-02 0.000E+00
 
     Adding external electric field

     Computed dipole along edir(3) : 
        Dipole                0.7985 Ry au,          2.0295 Debye
        Dipole field          0.0015 Ry au, 
 
        Potential amp.       -0.1397 Ry
        Total length         46.3494 bohr
 

     total cpu time spent up to now is     1127.9 secs

     total energy              =   -3006.13680579 Ry
     estimated scf accuracy    <       0.00915229 Ry

     iteration # 52     ecut=    29.40 Ry     beta= 0.05
     Davidson diagonalization with overlap
     c_bands:  1 eigenvalues not converged
     c_bands:  1 eigenvalues not converged
     c_bands:  1 eigenvalues not converged
     c_bands:  1 eigenvalues not converged
     c_bands:  3 eigenvalues not converged
     ethr =  2.24E-06,  avg # of iterations = 17.3

     negative rho (up, down):  1.265E-02 0.000E+00
 
     Adding external electric field

     Computed dipole along edir(3) : 
        Dipole                0.8121 Ry au,          2.0642 Debye
        Dipole field          0.0015 Ry au, 
 
        Potential amp.       -0.1421 Ry
        Total length         46.3494 bohr
 

     total cpu time spent up to now is     1151.0 secs

     total energy              =   -3006.13691132 Ry
     estimated scf accuracy    <       0.00533483 Ry

     iteration # 53     ecut=    29.40 Ry     beta= 0.05
     Davidson diagonalization with overlap
     c_bands:  1 eigenvalues not converged
     c_bands:  1 eigenvalues not converged
     ethr =  1.30E-06,  avg # of iterations = 13.3

     negative rho (up, down):  1.497E-02 0.000E+00
 
     Adding external electric field

     Computed dipole along edir(3) : 
        Dipole                0.8186 Ry au,          2.0807 Debye
        Dipole field          0.0015 Ry au, 
 
        Potential amp.       -0.1432 Ry
        Total length         46.3494 bohr
 

     total cpu time spent up to now is     1170.3 secs

     total energy              =   -3006.13685922 Ry
     estimated scf accuracy    <       0.00403945 Ry

     iteration # 54     ecut=    29.40 Ry     beta= 0.05
     Davidson diagonalization with overlap
     c_bands:  1 eigenvalues not converged
     c_bands:  4 eigenvalues not converged
     ethr =  9.88E-07,  avg # of iterations = 14.3

     negative rho (up, down):  1.641E-02 0.000E+00
 
     Adding external electric field

     Computed dipole along edir(3) : 
        Dipole                0.8314 Ry au,          2.1133 Debye
        Dipole field          0.0016 Ry au, 
 
        Potential amp.       -0.1454 Ry
        Total length         46.3494 bohr
 

     total cpu time spent up to now is     1195.5 secs

     total energy              =   -3006.13665846 Ry
     estimated scf accuracy    <       0.00528550 Ry

     iteration # 55     ecut=    29.40 Ry     beta= 0.05
     Davidson diagonalization with overlap
     c_bands:  1 eigenvalues not converged
     c_bands:  1 eigenvalues not converged
     ethr =  9.88E-07,  avg # of iterations = 12.6

     negative rho (up, down):  1.611E-02 0.000E+00
 
     Adding external electric field

     Computed dipole along edir(3) : 
        Dipole                0.8311 Ry au,          2.1124 Debye
        Dipole field          0.0016 Ry au, 
 
        Potential amp.       -0.1454 Ry
        Total length         46.3494 bohr
 

     total cpu time spent up to now is     1214.7 secs

     total energy              =   -3006.13676438 Ry
     estimated scf accuracy    <       0.00116158 Ry

     iteration # 56     ecut=    29.40 Ry     beta= 0.05
     Davidson diagonalization with overlap
     c_bands:  1 eigenvalues not converged
     c_bands:  3 eigenvalues not converged
     c_bands:  1 eigenvalues not converged
     ethr =  2.84E-07,  avg # of iterations = 16.7

     negative rho (up, down):  1.601E-02 0.000E+00
 
     Adding external electric field

     Computed dipole along edir(3) : 
        Dipole                0.8295 Ry au,          2.1084 Debye
        Dipole field          0.0016 Ry au, 
 
        Potential amp.       -0.1451 Ry
        Total length         46.3494 bohr
 

     total cpu time spent up to now is     1244.1 secs

     total energy              =   -3006.13704974 Ry
     estimated scf accuracy    <       0.00110287 Ry

     iteration # 57     ecut=    29.40 Ry     beta= 0.05
     Davidson diagonalization with overlap
     ethr =  2.70E-07,  avg # of iterations =  3.2

     negative rho (up, down):  1.519E-02 0.000E+00
 
     Adding external electric field

     Computed dipole along edir(3) : 
        Dipole                0.8153 Ry au,          2.0723 Debye
        Dipole field          0.0015 Ry au, 
 
        Potential amp.       -0.1426 Ry
        Total length         46.3494 bohr
 

     total cpu time spent up to now is     1258.5 secs

     total energy              =   -3006.13691658 Ry
     estimated scf accuracy    <       0.00069006 Ry

     iteration # 58     ecut=    29.40 Ry     beta= 0.05
     Davidson diagonalization with overlap
     ethr =  1.69E-07,  avg # of iterations = 10.4

     negative rho (up, down):  1.537E-02 0.000E+00
 
     Adding external electric field

     Computed dipole along edir(3) : 
        Dipole                0.8175 Ry au,          2.0780 Debye
        Dipole field          0.0015 Ry au, 
 
        Potential amp.       -0.1430 Ry
        Total length         46.3494 bohr
 

     total cpu time spent up to now is     1281.3 secs

     total energy              =   -3006.13703279 Ry
     estimated scf accuracy    <       0.00016194 Ry

     iteration # 59     ecut=    29.40 Ry     beta= 0.05
     Davidson diagonalization with overlap
     ethr =  3.96E-08,  avg # of iterations = 10.1

     negative rho (up, down):  1.563E-02 0.000E+00
 
     Adding external electric field

     Computed dipole along edir(3) : 
        Dipole                0.8206 Ry au,          2.0858 Debye
        Dipole field          0.0015 Ry au, 
 
        Potential amp.       -0.1436 Ry
        Total length         46.3494 bohr
 

     total cpu time spent up to now is     1299.4 secs

     total energy              =   -3006.13703702 Ry
     estimated scf accuracy    <       0.00013297 Ry

     iteration # 60     ecut=    29.40 Ry     beta= 0.05
     Davidson diagonalization with overlap
     ethr =  3.25E-08,  avg # of iterations =  8.0

     negative rho (up, down):  1.481E-02 0.000E+00
 
     Adding external electric field

     Computed dipole along edir(3) : 
        Dipole                0.8096 Ry au,          2.0577 Debye
        Dipole field          0.0015 Ry au, 
 
        Potential amp.       -0.1416 Ry
        Total length         46.3494 bohr
 

     total cpu time spent up to now is     1316.5 secs

     total energy              =   -3006.13703715 Ry
     estimated scf accuracy    <       0.00008446 Ry

     iteration # 61     ecut=    29.40 Ry     beta= 0.05
     Davidson diagonalization with overlap
     ethr =  2.07E-08,  avg # of iterations = 12.4

     negative rho (up, down):  1.483E-02 0.000E+00
 
     Adding external electric field

     Computed dipole along edir(3) : 
        Dipole                0.8114 Ry au,          2.0624 Debye
        Dipole field          0.0015 Ry au, 
 
        Potential amp.       -0.1419 Ry
        Total length         46.3494 bohr
 

     total cpu time spent up to now is     1341.6 secs

     total energy              =   -3006.13705503 Ry
     estimated scf accuracy    <       0.00004669 Ry

     iteration # 62     ecut=    29.40 Ry     beta= 0.05
     Davidson diagonalization with overlap
     ethr =  1.14E-08,  avg # of iterations =  7.0

     negative rho (up, down):  1.482E-02 0.000E+00
 
     Adding external electric field

     Computed dipole along edir(3) : 
        Dipole                0.8121 Ry au,          2.0642 Debye
        Dipole field          0.0015 Ry au, 
 
        Potential amp.       -0.1421 Ry
        Total length         46.3494 bohr
 

     total cpu time spent up to now is     1357.4 secs

     total energy              =   -3006.13706070 Ry
     estimated scf accuracy    <       0.00003209 Ry

     iteration # 63     ecut=    29.40 Ry     beta= 0.05
     Davidson diagonalization with overlap
     ethr =  7.85E-09,  avg # of iterations =  9.8

     negative rho (up, down):  1.466E-02 0.000E+00
 
     Adding external electric field

     Computed dipole along edir(3) : 
        Dipole                0.8094 Ry au,          2.0574 Debye
        Dipole field          0.0015 Ry au, 
 
        Potential amp.       -0.1416 Ry
        Total length         46.3494 bohr
 

     total cpu time spent up to now is     1375.0 secs

     total energy              =   -3006.13706816 Ry
     estimated scf accuracy    <       0.00002002 Ry

     iteration # 64     ecut=    29.40 Ry     beta= 0.05
     Davidson diagonalization with overlap
     ethr =  4.90E-09,  avg # of iterations =  7.0

     negative rho (up, down):  1.462E-02 0.000E+00
 
     Adding external electric field

     Computed dipole along edir(3) : 
        Dipole                0.8081 Ry au,          2.0540 Debye
        Dipole field          0.0015 Ry au, 
 
        Potential amp.       -0.1414 Ry
        Total length         46.3494 bohr
 

     total cpu time spent up to now is     1391.1 secs

     total energy              =   -3006.13707383 Ry
     estimated scf accuracy    <       0.00001121 Ry

     iteration # 65     ecut=    29.40 Ry     beta= 0.05
     Davidson diagonalization with overlap
     ethr =  2.74E-09,  avg # of iterations = 11.4

     negative rho (up, down):  1.464E-02 0.000E+00
 
     Adding external electric field

     Computed dipole along edir(3) : 
        Dipole                0.8085 Ry au,          2.0551 Debye
        Dipole field          0.0015 Ry au, 
 
        Potential amp.       -0.1414 Ry
        Total length         46.3494 bohr
 

     total cpu time spent up to now is     1416.1 secs

     total energy              =   -3006.13707909 Ry
     estimated scf accuracy    <       0.00001437 Ry

     iteration # 66     ecut=    29.40 Ry     beta= 0.05
     Davidson diagonalization with overlap
     ethr =  2.74E-09,  avg # of iterations =  3.8

     negative rho (up, down):  1.467E-02 0.000E+00
 
     Adding external electric field

     Computed dipole along edir(3) : 
        Dipole                0.8091 Ry au,          2.0566 Debye
        Dipole field          0.0015 Ry au, 
 
        Potential amp.       -0.1415 Ry
        Total length         46.3494 bohr
 

     total cpu time spent up to now is     1431.5 secs

     total energy              =   -3006.13708238 Ry
     estimated scf accuracy    <       0.00000869 Ry

     iteration # 67     ecut=    29.40 Ry     beta= 0.05
     Davidson diagonalization with overlap
     ethr =  2.12E-09,  avg # of iterations = 14.4

     negative rho (up, down):  1.470E-02 0.000E+00
 
     Adding external electric field

     Computed dipole along edir(3) : 
        Dipole                0.8095 Ry au,          2.0576 Debye
        Dipole field          0.0015 Ry au, 
 
        Potential amp.       -0.1416 Ry
        Total length         46.3494 bohr
 

     total cpu time spent up to now is     1458.8 secs

     total energy              =   -3006.13708361 Ry
     estimated scf accuracy    <       0.00001706 Ry

     iteration # 68     ecut=    29.40 Ry     beta= 0.05
     Davidson diagonalization with overlap
     ethr =  2.12E-09,  avg # of iterations =  8.4

     negative rho (up, down):  1.468E-02 0.000E+00
 
     Adding external electric field

     Computed dipole along edir(3) : 
        Dipole                0.8090 Ry au,          2.0564 Debye
        Dipole field          0.0015 Ry au, 
 
        Potential amp.       -0.1415 Ry
        Total length         46.3494 bohr
 

     total cpu time spent up to now is     1486.5 secs

     total energy              =   -3006.13708966 Ry
     estimated scf accuracy    <       0.00000963 Ry

     iteration # 69     ecut=    29.40 Ry     beta= 0.05
     Davidson diagonalization with overlap
     ethr =  2.12E-09,  avg # of iterations =  3.8

     negative rho (up, down):  1.463E-02 0.000E+00
 
     Adding external electric field

     Computed dipole along edir(3) : 
        Dipole                0.8085 Ry au,          2.0551 Debye
        Dipole field          0.0015 Ry au, 
 
        Potential amp.       -0.1414 Ry
        Total length         46.3494 bohr
 

     total cpu time spent up to now is     1502.2 secs

     total energy              =   -3006.13709252 Ry
     estimated scf accuracy    <       0.00000399 Ry

     iteration # 70     ecut=    29.40 Ry     beta= 0.05
     Davidson diagonalization with overlap
     ethr =  9.76E-10,  avg # of iterations =  9.9

     negative rho (up, down):  1.469E-02 0.000E+00
 
     Adding external electric field

     Computed dipole along edir(3) : 
        Dipole                0.8097 Ry au,          2.0580 Debye
        Dipole field          0.0015 Ry au, 
 
        Potential amp.       -0.1416 Ry
        Total length         46.3494 bohr
 

     total cpu time spent up to now is     1528.1 secs

     total energy              =   -3006.13709587 Ry
     estimated scf accuracy    <       0.00000195 Ry

     iteration # 71     ecut=    29.40 Ry     beta= 0.05
     Davidson diagonalization with overlap
     ethr =  4.77E-10,  avg # of iterations =  9.0

     negative rho (up, down):  1.466E-02 0.000E+00
 
     Adding external electric field

     Computed dipole along edir(3) : 
        Dipole                0.8092 Ry au,          2.0567 Debye
        Dipole field          0.0015 Ry au, 
 
        Potential amp.       -0.1416 Ry
        Total length         46.3494 bohr
 

     total cpu time spent up to now is     1545.2 secs

     total energy              =   -3006.13709811 Ry
     estimated scf accuracy    <       0.00000138 Ry

     iteration # 72     ecut=    29.40 Ry     beta= 0.05
     Davidson diagonalization with overlap
     ethr =  3.37E-10,  avg # of iterations =  9.7

     negative rho (up, down):  1.467E-02 0.000E+00
 
     Adding external electric field

     Computed dipole along edir(3) : 
        Dipole                0.8093 Ry au,          2.0571 Debye
        Dipole field          0.0015 Ry au, 
 
        Potential amp.       -0.1416 Ry
        Total length         46.3494 bohr
 

     total cpu time spent up to now is     1569.1 secs

     total energy              =   -3006.13710068 Ry
     estimated scf accuracy    <       0.00000099 Ry

     iteration # 73     ecut=    29.40 Ry     beta= 0.05
     Davidson diagonalization with overlap
     ethr =  2.41E-10,  avg # of iterations =  2.0

     negative rho (up, down):  1.465E-02 0.000E+00
 
     Adding external electric field

     Computed dipole along edir(3) : 
        Dipole                0.8092 Ry au,          2.0567 Debye
        Dipole field          0.0015 Ry au, 
 
        Potential amp.       -0.1416 Ry
        Total length         46.3494 bohr
 

     total cpu time spent up to now is     1586.2 secs

     total energy              =   -3006.13710252 Ry
     estimated scf accuracy    <       0.00000114 Ry

     iteration # 74     ecut=    29.40 Ry     beta= 0.05
     Davidson diagonalization with overlap
     ethr =  2.41E-10,  avg # of iterations = 11.8

     negative rho (up, down):  1.465E-02 0.000E+00
 
     Adding external electric field

     Computed dipole along edir(3) : 
        Dipole                0.8091 Ry au,          2.0565 Debye
        Dipole field          0.0015 Ry au, 
 
        Potential amp.       -0.1415 Ry
        Total length         46.3494 bohr
 

     total cpu time spent up to now is     1605.5 secs

     total energy              =   -3006.13710433 Ry
     estimated scf accuracy    <       0.00000046 Ry

     iteration # 75     ecut=    29.40 Ry     beta= 0.05
     Davidson diagonalization with overlap
     ethr =  1.12E-10,  avg # of iterations =  7.3

     negative rho (up, down):  1.465E-02 0.000E+00
 
     Adding external electric field

     Computed dipole along edir(3) : 
        Dipole                0.8091 Ry au,          2.0565 Debye
        Dipole field          0.0015 Ry au, 
 
        Potential amp.       -0.1415 Ry
        Total length         46.3494 bohr
 

     total cpu time spent up to now is     1622.8 secs

     total energy              =   -3006.13710590 Ry
     estimated scf accuracy    <       0.00000017 Ry

     iteration # 76     ecut=    29.40 Ry     beta= 0.05
     Davidson diagonalization with overlap
     ethr =  4.21E-11,  avg # of iterations = 10.0

     negative rho (up, down):  1.470E-02 0.000E+00
 
     Adding external electric field

     Computed dipole along edir(3) : 
        Dipole                0.8083 Ry au,          2.0546 Debye
        Dipole field          0.0015 Ry au, 
 
        Potential amp.       -0.1414 Ry
        Total length         46.3494 bohr
 

     total cpu time spent up to now is     1647.0 secs

     End of self-consistent calculation

          k = 0.0000 0.0000 0.0000 ( 18029 PWs)   bands (ev):

   -55.6050 -55.5709 -55.5630 -55.5349 -55.5268 -55.4412 -55.4199 -55.4043
   -55.3859 -55.3835 -55.3664 -55.3498 -54.9883 -54.9182 -54.5856 -54.5516
   -32.1038 -32.0881 -31.9494 -31.9410 -31.9182 -31.8976 -31.8734 -31.8604
   -31.8490 -31.7947 -31.7801 -31.7646 -31.7572 -31.7408 -31.7295 -31.7191
   -31.7099 -31.7016 -31.6899 -31.6632 -31.6621 -31.6424 -31.6104 -31.6094
   -31.6000 -31.5954 -31.5930 -31.5821 -31.5644 -31.5600 -31.5543 -31.5494
   -31.5387 -31.5368 -31.5276 -31.5153 -31.4956 -31.2663 -31.2097 -31.1787
   -31.1249 -31.1024 -30.9928 -30.9041 -30.8817 -30.8095 -30.7230 -30.6119
   -20.7664 -18.2966 -16.3057 -16.0800 -15.9021 -15.7669 -15.7109 -15.5847
   -15.4986 -15.4101 -15.3395 -15.2029 -15.1505 -15.1416 -15.1358 -15.1169
   -15.1116 -15.0509 -15.0402 -15.0386 -15.0273 -14.9997 -14.9607 -14.9473
   -14.9423 -14.8596 -14.7666 -14.7434 -14.7233 -14.7199 -14.6620 -14.2766
   -13.0878 -12.9713 -11.2788  -6.8122  -5.7780  -5.3727  -4.1813  -3.8028
    -3.7692  -3.6729  -3.5502  -3.5112  -3.4327  -3.3854  -3.2310  -3.0807
    -3.0351  -2.8519  -2.7832  -2.7559  -2.7123  -2.6290  -2.5215  -2.4681
    -2.4128  -2.4089  -2.3951  -2.3789  -2.3618  -2.3449  -2.2385  -2.2191
    -2.1672  -2.1461  -2.1198  -1.9850  -1.9572  -1.9294  -1.9184  -1.8917
    -1.8783  -1.8646  -1.8378  -1.8191  -1.7806  -1.7554  -1.6234  -1.5817
    -1.5401  -1.4493  -1.3890  -1.3306  -1.2335  -1.2013  -1.1323  -1.0623
    -1.0566  -1.0365  -1.0033  -0.9951  -0.8687  -0.7644  -0.7542  -0.6807
    -0.6195  -0.5700  -0.5283  -0.4631  -0.3794  -0.3620  -0.3542  -0.3340
    -0.2819  -0.2578  -0.0982  -0.0596  -0.0113   0.0140   0.0709   0.1042
     0.1471   0.1874   0.2273   0.2772   0.3114   0.3445   0.3629   0.3772
     0.3925   0.4237   0.4446   0.6103   0.6457   0.6689   0.7299   0.7593
     0.8401   0.9027   0.9628   1.0503   1.1580   1.3639   1.4367   1.5278
     1.6286   2.0081   2.0539   2.8309   3.5241   3.6160   3.6571   3.6874
     3.7689   3.7804   3.9820   4.0038   4.0335   4.1091

          k = 0.0000 0.0419 0.0000 ( 17933 PWs)   bands (ev):

   -55.5999 -55.5758 -55.5578 -55.5340 -55.5318 -55.4366 -55.4149 -55.4088
   -55.3908 -55.3785 -55.3672 -55.3546 -54.9863 -54.9200 -54.5805 -54.5565
   -32.0471 -32.0341 -31.9006 -31.8929 -31.8880 -31.8856 -31.8469 -31.8316
   -31.8200 -31.7879 -31.7815 -31.7745 -31.7666 -31.7588 -31.7434 -31.7331
   -31.7287 -31.7194 -31.6884 -31.6760 -31.6530 -31.6389 -31.6233 -31.6128
   -31.6060 -31.6028 -31.6015 -31.5940 -31.5908 -31.5854 -31.5777 -31.5700
   -31.5562 -31.5555 -31.5513 -31.5396 -31.4763 -31.2656 -31.2106 -31.1811
   -31.1548 -31.1133 -30.9386 -30.9007 -30.8848 -30.7969 -30.7356 -30.6691
   -20.7662 -18.2947 -16.1702 -15.9616 -15.8129 -15.6653 -15.6151 -15.5642
   -15.4584 -15.4176 -15.3628 -15.3294 -15.1719 -15.1315 -15.1214 -15.1023
   -15.0935 -15.0827 -15.0666 -15.0605 -15.0532 -15.0352 -14.9938 -14.9474
   -14.9201 -14.8713 -14.8213 -14.8004 -14.7789 -14.7361 -14.7188 -14.3503
   -13.0919 -13.0108 -11.2776  -6.8214  -5.7772  -5.3719  -4.1474  -3.7933
    -3.7697  -3.4847  -3.3826  -3.3361  -3.2849  -3.2436  -3.0755  -3.0229
    -2.8412  -2.7619  -2.7463  -2.6521  -2.6378  -2.6203  -2.5660  -2.5482
    -2.4999  -2.4790  -2.4710  -2.4354  -2.3941  -2.3555  -2.3443  -2.3168
    -2.2842  -2.2694  -2.2453  -2.1726  -2.1181  -2.0951  -2.0784  -2.0254
    -1.9722  -1.8651  -1.8503  -1.7814  -1.7153  -1.6995  -1.5637  -1.4735
    -1.4033  -1.3634  -1.2940  -1.2619  -1.2343  -1.1850  -1.0816  -0.9902
    -0.9602  -0.8489  -0.8353  -0.8198  -0.7950  -0.6813  -0.6240  -0.5936
    -0.5589  -0.5156  -0.4984  -0.4875  -0.4457  -0.4256  -0.4077  -0.3419
    -0.2658  -0.2265  -0.1761  -0.1232  -0.1090  -0.0621  -0.0105  -0.0029
     0.0957   0.1350   0.1856   0.1908   0.2126   0.2268   0.2509   0.2744
     0.3811   0.4010   0.4547   0.5232   0.5768   0.6273   0.6537   0.7182
     0.7369   0.7603   0.8715   0.9213   1.0548   1.0813   1.4031   1.6257
     1.7100   1.9623   1.9658   2.7934   3.7209   3.7642   3.8016   3.8581
     3.8821   3.9258   3.9523   4.0232   4.0560   4.0903

          k = 0.0000-0.0839 0.0000 ( 17884 PWs)   bands (ev):

   -55.5883 -55.5873 -55.5479 -55.5418 -55.5330 -55.4293 -55.4161 -55.4033
   -55.4022 -55.3681 -55.3678 -55.3652 -54.9843 -54.9220 -54.5686 -54.5683
   -31.9174 -31.9022 -31.9014 -31.8999 -31.8835 -31.8824 -31.8253 -31.8177
   -31.8054 -31.7589 -31.7572 -31.7550 -31.7539 -31.7505 -31.7441 -31.7219
   -31.7161 -31.7156 -31.7102 -31.7092 -31.6882 -31.6851 -31.6721 -31.6570
   -31.6552 -31.6298 -31.6260 -31.6198 -31.6123 -31.5979 -31.5926 -31.5765
   -31.5730 -31.5709 -31.5485 -31.5464 -31.4175 -31.2650 -31.2488 -31.1848
   -31.1633 -31.1261 -30.8926 -30.8924 -30.8058 -30.8055 -30.7663 -30.7662
   -20.7660 -18.2929 -15.8374 -15.8246 -15.7378 -15.6729 -15.6141 -15.4791
   -15.4460 -15.3872 -15.3731 -15.3453 -15.3364 -15.2958 -15.2191 -15.1449
   -15.1321 -15.0471 -15.0065 -14.9864 -14.9632 -14.9568 -14.9511 -14.9419
   -14.9409 -14.9185 -14.9062 -14.8698 -14.8617 -14.8482 -14.7144 -14.4535
   -13.0736 -13.0734 -11.2765  -6.8304  -5.7766  -5.3712  -4.1164  -3.7930
    -3.7672  -3.1433  -3.0391  -2.9948  -2.9885  -2.9687  -2.9535  -2.9001
    -2.8967  -2.8770  -2.8120  -2.7584  -2.7138  -2.6899  -2.6774  -2.6636
    -2.6447  -2.5867  -2.5586  -2.5508  -2.4781  -2.4205  -2.4059  -2.3743
    -2.3436  -2.3134  -2.2741  -2.1885  -2.1805  -2.1282  -2.0075  -1.9845
    -1.9609  -1.9165  -1.7136  -1.6464  -1.5953  -1.5206  -1.5006  -1.4605
    -1.3906  -1.2954  -1.2488  -1.2448  -1.2005  -1.0956  -1.0655  -1.0192
    -1.0078  -0.9996  -0.9757  -0.9416  -0.8528  -0.7937  -0.7547  -0.6177
    -0.5981  -0.5548  -0.5074  -0.3519  -0.2744  -0.2371  -0.2264  -0.2175
    -0.1741  -0.1583  -0.1313  -0.0889  -0.0731  -0.0500  -0.0194  -0.0121
     0.0225   0.0538   0.0831   0.1052   0.1158   0.1429   0.1638   0.1941
     0.2147   0.2553   0.2826   0.2981   0.3923   0.5344   0.6304   0.6351
     0.6482   0.6627   0.9163   0.9742   1.0170   1.1010   1.1269   1.7687
     1.7694   1.8990   1.8997   2.7842   3.8537   3.8724   3.9113   3.9470
     3.9669   3.9737   3.9814   4.0978   4.1190   4.1349

          k = 0.0380 0.0000 0.0000 ( 17913 PWs)   bands (ev):

   -55.6049 -55.5708 -55.5629 -55.5348 -55.5267 -55.4412 -55.4196 -55.4042
   -55.3858 -55.3835 -55.3663 -55.3497 -54.9882 -54.9181 -54.5855 -54.5515
   -32.1039 -32.0889 -31.9507 -31.9466 -31.9184 -31.8974 -31.8781 -31.8602
   -31.8490 -31.7818 -31.7756 -31.7615 -31.7543 -31.7406 -31.7293 -31.7124
   -31.7096 -31.6895 -31.6813 -31.6636 -31.6619 -31.6593 -31.6101 -31.6025
   -31.6001 -31.5950 -31.5932 -31.5820 -31.5809 -31.5643 -31.5540 -31.5493
   -31.5385 -31.5370 -31.5267 -31.5127 -31.4958 -31.2688 -31.2096 -31.1786
   -31.1248 -31.1023 -30.9923 -30.9075 -30.8797 -30.8093 -30.7229 -30.6117
   -20.7662 -18.2965 -16.2244 -15.9955 -15.8347 -15.7401 -15.6671 -15.5703
   -15.5158 -15.4390 -15.3376 -15.2983 -15.2885 -15.2406 -15.2274 -15.1980
   -15.1705 -15.1555 -15.0399 -14.9820 -14.9507 -14.9033 -14.8742 -14.8516
   -14.8489 -14.8225 -14.7991 -14.7910 -14.7859 -14.7604 -14.6958 -14.2746
   -13.0846 -12.9710 -11.2788  -6.8116  -5.7782  -5.3602  -4.1521  -3.8104
    -3.7819  -3.5636  -3.3388  -3.2952  -3.2346  -3.2062  -3.1519  -3.0735
    -3.0422  -3.0062  -2.8546  -2.8458  -2.7105  -2.6898  -2.6822  -2.5959
    -2.4155  -2.3905  -2.3637  -2.3059  -2.2748  -2.2227  -2.1997  -2.1853
    -2.1292  -2.1043  -2.0768  -2.0006  -1.9695  -1.9416  -1.8789  -1.8611
    -1.8292  -1.8043  -1.7777  -1.6531  -1.6315  -1.6194  -1.5483  -1.4981
    -1.4638  -1.4076  -1.3860  -1.3438  -1.3237  -1.2176  -1.1995  -1.1227
    -1.0890  -1.0399  -1.0236  -0.9896  -0.8910  -0.8795  -0.8540  -0.8460
    -0.7470  -0.6564  -0.6128  -0.4878  -0.4306  -0.3890  -0.3447  -0.3160
    -0.2789  -0.2668  -0.1618  -0.0934  -0.0027   0.0164   0.0395   0.0635
     0.1256   0.1448   0.1812   0.1936   0.2119   0.2509   0.2620   0.2887
     0.2972   0.3772   0.4594   0.5146   0.5711   0.5856   0.6532   0.7254
     0.7727   0.8008   0.9023   1.0552   1.0833   1.3663   1.3958   1.4486
     1.5981   1.8965   1.9711   2.8431   3.5546   3.5859   3.8627   3.8836
     3.9212   3.9244   3.9556   3.9811   4.0106   4.0463

          k = 0.0380 0.0419 0.0000 ( 17878 PWs)   bands (ev):

   -55.5998 -55.5758 -55.5577 -55.5340 -55.5317 -55.4365 -55.4147 -55.4088
   -55.3908 -55.3786 -55.3672 -55.3546 -54.9863 -54.9200 -54.5805 -54.5564
   -32.0473 -32.0349 -31.9018 -31.8930 -31.8927 -31.8874 -31.8467 -31.8318
   -31.8253 -31.7867 -31.7757 -31.7676 -31.7667 -31.7563 -31.7408 -31.7324
   -31.7206 -31.7181 -31.6757 -31.6712 -31.6551 -31.6519 -31.6122 -31.6118
   -31.6058 -31.6043 -31.6023 -31.5940 -31.5911 -31.5854 -31.5799 -31.5757
   -31.5686 -31.5550 -31.5473 -31.5442 -31.4753 -31.2676 -31.2106 -31.1814
   -31.1549 -31.1132 -30.9383 -30.9033 -30.8838 -30.7967 -30.7356 -30.6689
   -20.7660 -18.2945 -16.0955 -15.8845 -15.7640 -15.6380 -15.5853 -15.5219
   -15.4661 -15.4257 -15.3658 -15.3604 -15.2630 -15.2297 -15.2004 -15.1818
   -15.1296 -15.1023 -15.0751 -15.0250 -14.9900 -14.9787 -14.9316 -14.9270
   -14.8864 -14.8713 -14.8586 -14.8429 -14.8207 -14.7989 -14.7160 -14.3488
   -13.0896 -13.0111 -11.2777  -6.8216  -5.7768  -5.3598  -4.1305  -3.8088
    -3.7668  -3.3934  -3.1769  -3.1256  -3.1142  -3.0608  -2.9965  -2.9583
    -2.8699  -2.8185  -2.7113  -2.7016  -2.6110  -2.5716  -2.5453  -2.5072
    -2.4988  -2.4653  -2.4331  -2.4019  -2.3742  -2.3307  -2.3138  -2.3021
    -2.2711  -2.2488  -2.2296  -2.1664  -2.0958  -2.0744  -2.0574  -1.9435
    -1.8991  -1.8108  -1.7789  -1.7437  -1.6774  -1.5994  -1.5581  -1.5157
    -1.4520  -1.3436  -1.3037  -1.2674  -1.2189  -1.1756  -1.0930  -1.0251
    -0.9998  -0.9436  -0.9007  -0.8897  -0.8372  -0.8029  -0.7364  -0.7125
    -0.6512  -0.6398  -0.5717  -0.5351  -0.5012  -0.4510  -0.4093  -0.3933
    -0.3345  -0.3107  -0.2589  -0.2437  -0.2222  -0.1823  -0.1373  -0.0683
    -0.0311   0.0086   0.0469   0.0922   0.1076   0.1603   0.1966   0.2729
     0.3397   0.4116   0.4737   0.5361   0.5994   0.6300   0.7016   0.7139
     0.7729   0.7858   0.8323   0.9257   0.9958   1.0657   1.3370   1.6364
     1.7141   1.8847   1.9465   2.8108   3.7079   3.7631   3.8247   3.9109
     3.9345   3.9822   4.0170   4.0714   4.0966   4.1216

          k = 0.0380-0.0839 0.0000 ( 17916 PWs)   bands (ev):

   -55.5884 -55.5873 -55.5479 -55.5418 -55.5330 -55.4293 -55.4161 -55.4032
   -55.4021 -55.3681 -55.3679 -55.3653 -54.9843 -54.9220 -54.5686 -54.5683
   -31.9177 -31.9029 -31.9022 -31.9003 -31.8835 -31.8825 -31.8261 -31.8180
   -31.8054 -31.7782 -31.7706 -31.7539 -31.7510 -31.7270 -31.7223 -31.7217
   -31.7165 -31.7150 -31.7091 -31.7081 -31.6990 -31.6963 -31.6735 -31.6348
   -31.6338 -31.6319 -31.6298 -31.6206 -31.6200 -31.5978 -31.5925 -31.5743
   -31.5730 -31.5709 -31.5603 -31.5580 -31.4174 -31.2666 -31.2485 -31.1858
   -31.1636 -31.1262 -30.8936 -30.8934 -30.8057 -30.8054 -30.7663 -30.7662
   -20.7659 -18.2927 -15.7953 -15.7740 -15.7081 -15.6212 -15.5690 -15.4453
   -15.4304 -15.3634 -15.3593 -15.3215 -15.2956 -15.2898 -15.2577 -15.1517
   -15.1448 -15.0519 -15.0392 -15.0297 -15.0215 -15.0047 -14.9946 -14.9711
   -14.9614 -14.9577 -14.9271 -14.9109 -14.8967 -14.8362 -14.7057 -14.4492
   -13.0734 -13.0732 -11.2768  -6.8327  -5.7759  -5.3604  -4.1128  -3.7982
    -3.7617  -3.1296  -3.0221  -2.8593  -2.8268  -2.7991  -2.7789  -2.7547
    -2.7282  -2.7070  -2.6848  -2.6643  -2.6183  -2.5968  -2.5895  -2.5815
    -2.5615  -2.5312  -2.4603  -2.4515  -2.4431  -2.4110  -2.3828  -2.3404
    -2.3067  -2.2940  -2.2766  -2.2492  -2.1765  -2.1568  -2.0669  -2.0206
    -1.7694  -1.7167  -1.6998  -1.6467  -1.5647  -1.5037  -1.4880  -1.4742
    -1.4519  -1.4075  -1.3903  -1.3491  -1.3251  -1.2851  -1.2544  -1.2394
    -1.2088  -1.1698  -1.0684  -1.0493  -0.8792  -0.7228  -0.6945  -0.6688
    -0.6440  -0.6303  -0.5629  -0.4565  -0.4344  -0.4159  -0.3785  -0.3566
    -0.3417  -0.3220  -0.3084  -0.2801  -0.2178  -0.2002  -0.1865  -0.1591
    -0.1492  -0.1289  -0.0283   0.0249   0.0502   0.1524   0.2018   0.2833
     0.3202   0.4123   0.4860   0.4972   0.5277   0.5504   0.5797   0.6659
     0.7319   0.7508   0.8925   0.9386   0.9852   1.0773   1.1236   1.7819
     1.7827   1.8882   1.8891   2.8020   3.7862   3.8529   3.9154   3.9404
     3.9491   3.9909   4.0505   4.1335   4.1501   4.1571

          k = 0.0380-0.0419 0.0000 ( 17876 PWs)   bands (ev):

   -55.5998 -55.5758 -55.5577 -55.5340 -55.5317 -55.4365 -55.4147 -55.4087
   -55.3908 -55.3786 -55.3672 -55.3546 -54.9863 -54.9200 -54.5805 -54.5564
   -32.0473 -32.0349 -31.9018 -31.8930 -31.8927 -31.8874 -31.8467 -31.8319
   -31.8253 -31.7868 -31.7757 -31.7674 -31.7666 -31.7563 -31.7409 -31.7325
   -31.7206 -31.7180 -31.6756 -31.6711 -31.6555 -31.6517 -31.6121 -31.6116
   -31.6058 -31.6047 -31.6020 -31.5941 -31.5912 -31.5854 -31.5799 -31.5759
   -31.5687 -31.5550 -31.5471 -31.5442 -31.4751 -31.2676 -31.2106 -31.1818
   -31.1547 -31.1131 -30.9383 -30.9033 -30.8838 -30.7967 -30.7356 -30.6689
   -20.7660 -18.2946 -16.0959 -15.8850 -15.7667 -15.6384 -15.5818 -15.5175
   -15.4656 -15.4251 -15.3638 -15.3581 -15.2634 -15.2373 -15.2013 -15.1822
   -15.1313 -15.1024 -15.0752 -15.0317 -14.9869 -14.9729 -14.9309 -14.9258
   -14.8885 -14.8720 -14.8572 -14.8433 -14.8203 -14.7992 -14.7165 -14.3484
   -13.0896 -13.0111 -11.2777  -6.8229  -5.7773  -5.3605  -4.1318  -3.7977
    -3.7707  -3.3924  -3.1772  -3.1306  -3.1031  -3.0602  -2.9956  -2.9585
    -2.8726  -2.8196  -2.7108  -2.6961  -2.6064  -2.5780  -2.5437  -2.5209
    -2.4954  -2.4640  -2.4396  -2.4032  -2.3704  -2.3274  -2.3147  -2.2952
    -2.2538  -2.2450  -2.2226  -2.1709  -2.1182  -2.0904  -2.0689  -1.9533
    -1.9013  -1.8342  -1.7702  -1.7301  -1.6459  -1.5960  -1.5645  -1.5449
    -1.4112  -1.3516  -1.2937  -1.2723  -1.1935  -1.1760  -1.0927  -1.0247
    -1.0056  -0.9546  -0.9011  -0.8759  -0.8535  -0.7981  -0.7457  -0.7085
    -0.6890  -0.6515  -0.5545  -0.5386  -0.4783  -0.4422  -0.4216  -0.3427
    -0.3320  -0.3114  -0.2795  -0.2373  -0.2244  -0.1914  -0.1425  -0.0873
    -0.0311  -0.0024   0.0486   0.0950   0.1109   0.1563   0.1855   0.2758
     0.3372   0.4160   0.4778   0.5320   0.6018   0.6387   0.6782   0.7259
     0.7761   0.8095   0.8327   0.9219   0.9926   1.0597   1.3380   1.6365
     1.7142   1.8845   1.9472   2.8078   3.7085   3.7642   3.8116   3.9016
     3.9619   3.9923   4.0090   4.0760   4.1025   4.1142

          k =-0.0760-0.0000 0.0000 ( 17886 PWs)   bands (ev):

   -55.6048 -55.5708 -55.5628 -55.5347 -55.5267 -55.4412 -55.4194 -55.4042
   -55.3858 -55.3836 -55.3663 -55.3497 -54.9881 -54.9181 -54.5854 -54.5514
   -32.1041 -32.0898 -31.9520 -31.9518 -31.9186 -31.8973 -31.8827 -31.8600
   -31.8490 -31.7807 -31.7594 -31.7514 -31.7502 -31.7405 -31.7291 -31.7096
   -31.7067 -31.6897 -31.6862 -31.6624 -31.6623 -31.6364 -31.6269 -31.6093
   -31.6003 -31.5963 -31.5951 -31.5934 -31.5818 -31.5645 -31.5541 -31.5492
   -31.5385 -31.5378 -31.5260 -31.5104 -31.4965 -31.2718 -31.2095 -31.1788
   -31.1248 -31.1022 -30.9919 -30.9108 -30.8784 -30.8092 -30.7228 -30.6118
   -20.7660 -18.2963 -16.1037 -15.9259 -15.7827 -15.7005 -15.6432 -15.5132
   -15.4691 -15.4685 -15.3813 -15.3685 -15.3344 -15.3100 -15.3046 -15.2824
   -15.2472 -15.1874 -15.0266 -15.0112 -14.9533 -14.9064 -14.8986 -14.8537
   -14.8418 -14.8369 -14.8061 -14.7629 -14.7613 -14.6989 -14.6965 -14.2731
   -13.0816 -12.9707 -11.2789  -6.8112  -5.7785  -5.3474  -4.1276  -3.8270
    -3.7840  -3.5366  -3.2940  -3.1552  -3.1255  -3.0414  -3.0126  -2.9648
    -2.8935  -2.8680  -2.8624  -2.8539  -2.8332  -2.8145  -2.6040  -2.4421
    -2.4093  -2.3957  -2.2976  -2.2208  -2.1993  -2.1811  -2.1219  -2.1107
    -2.1010  -2.0354  -2.0223  -1.9584  -1.9505  -1.9080  -1.8866  -1.8491
    -1.8358  -1.8151  -1.7798  -1.7555  -1.7233  -1.6578  -1.6135  -1.4912
    -1.3776  -1.3662  -1.2868  -1.2524  -1.2232  -1.2184  -1.2016  -1.1897
    -1.1859  -1.1140  -1.0717  -1.0688  -0.9817  -0.8874  -0.8765  -0.8320
    -0.8111  -0.7870  -0.7660  -0.7337  -0.6273  -0.4208  -0.3466  -0.3075
    -0.2626  -0.2279  -0.2133  -0.2050  -0.1126  -0.0951  -0.0799  -0.0299
     0.0070   0.0543   0.1080   0.1356   0.1723   0.2117   0.2301   0.2522
     0.2790   0.3656   0.4731   0.4809   0.5559   0.5727   0.6440   0.7073
     0.8676   0.8778   0.9327   1.0166   1.0846   1.1117   1.3777   1.4697
     1.5736   1.7674   1.9155   2.8535   3.5581   3.5625   3.7107   3.8076
     3.8664   3.9059   3.9802   3.9889   4.0427   4.0651

          k =-0.0760 0.0419 0.0000 ( 17914 PWs)   bands (ev):

   -55.5999 -55.5758 -55.5577 -55.5340 -55.5317 -55.4366 -55.4145 -55.4088
   -55.3908 -55.3787 -55.3672 -55.3546 -54.9863 -54.9200 -54.5805 -54.5565
   -32.0476 -32.0359 -31.9032 -31.8991 -31.8927 -31.8878 -31.8468 -31.8319
   -31.8308 -31.7865 -31.7753 -31.7669 -31.7549 -31.7484 -31.7387 -31.7328
   -31.7198 -31.7095 -31.6756 -31.6748 -31.6525 -31.6379 -31.6171 -31.6110
   -31.6073 -31.6051 -31.6021 -31.5996 -31.5925 -31.5918 -31.5853 -31.5760
   -31.5676 -31.5549 -31.5508 -31.5472 -31.4741 -31.2699 -31.2106 -31.1823
   -31.1549 -31.1132 -30.9380 -30.9061 -30.8831 -30.7968 -30.7356 -30.6690
   -20.7659 -18.2944 -15.9872 -15.8128 -15.7380 -15.5997 -15.5789 -15.4488
   -15.4222 -15.4079 -15.3716 -15.3626 -15.3400 -15.2787 -15.2488 -15.2400
   -15.2039 -15.1932 -15.0668 -15.0614 -14.9810 -14.9611 -14.9480 -14.9362
   -14.8932 -14.8917 -14.8740 -14.8624 -14.7943 -14.7890 -14.7138 -14.3473
   -13.0875 -13.0114 -11.2779  -6.8233  -5.7767  -5.3485  -4.1180  -3.8154
    -3.7642  -3.3741  -3.1340  -3.0737  -2.8900  -2.8409  -2.7805  -2.7283
    -2.7215  -2.6679  -2.6595  -2.6509  -2.6338  -2.5846  -2.5587  -2.5179
    -2.4959  -2.4786  -2.4289  -2.3807  -2.3549  -2.3009  -2.2848  -2.2569
    -2.1868  -2.1679  -2.1531  -2.1113  -2.0961  -2.0818  -2.0055  -1.9402
    -1.8860  -1.7339  -1.7143  -1.6803  -1.6402  -1.6072  -1.5395  -1.4734
    -1.4399  -1.3919  -1.3319  -1.2810  -1.2160  -1.1706  -1.1248  -1.0939
    -1.0540  -1.0119  -0.9961  -0.9796  -0.9075  -0.8645  -0.8459  -0.8347
    -0.8129  -0.7888  -0.7636  -0.6951  -0.6521  -0.6095  -0.5654  -0.5140
    -0.4850  -0.4174  -0.3788  -0.3314  -0.3158  -0.2585  -0.2217  -0.1913
    -0.1454  -0.1039  -0.0397   0.0367   0.0805   0.1011   0.2220   0.2915
     0.3688   0.3815   0.5635   0.6031   0.6486   0.6841   0.7415   0.7773
     0.8484   0.8778   0.9080   0.9453   0.9687   0.9990   1.1638   1.6511
     1.7171   1.8080   1.9358   2.8251   3.6987   3.7604   3.7684   3.8437
     3.8741   3.8929   3.9749   4.0340   4.1177   4.1721

          k =-0.0760-0.0839 0.0000 ( 17948 PWs)   bands (ev):

   -55.5884 -55.5873 -55.5479 -55.5418 -55.5330 -55.4294 -55.4162 -55.4032
   -55.4021 -55.3681 -55.3680 -55.3654 -54.9843 -54.9220 -54.5687 -54.5684
   -31.9180 -31.9037 -31.9029 -31.9006 -31.8835 -31.8825 -31.8270 -31.8183
   -31.8056 -31.7859 -31.7774 -31.7539 -31.7493 -31.7231 -31.7173 -31.7166
   -31.7080 -31.7076 -31.7072 -31.7057 -31.7035 -31.7015 -31.6749 -31.6465
   -31.6328 -31.6289 -31.6201 -31.6038 -31.6029 -31.5976 -31.5923 -31.5834
   -31.5804 -31.5732 -31.5723 -31.5705 -31.4172 -31.2680 -31.2484 -31.1868
   -31.1639 -31.1262 -30.8946 -30.8943 -30.8057 -30.8054 -30.7664 -30.7662
   -20.7658 -18.2926 -15.7469 -15.7209 -15.6379 -15.5644 -15.5291 -15.4591
   -15.4156 -15.3755 -15.3217 -15.2835 -15.2751 -15.2152 -15.1962 -15.1621
   -15.1533 -15.1232 -15.1154 -15.1122 -15.0578 -15.0519 -15.0458 -15.0388
   -15.0325 -14.9740 -14.9341 -14.9258 -14.9208 -14.8226 -14.7003 -14.4454
   -13.0732 -13.0730 -11.2771  -6.8350  -5.7749  -5.3498  -4.1097  -3.8047
    -3.7548  -3.1221  -3.0216  -2.8282  -2.7994  -2.7146  -2.7107  -2.6677
    -2.5455  -2.5126  -2.4666  -2.4485  -2.4273  -2.4186  -2.4131  -2.3931
    -2.3870  -2.3685  -2.3398  -2.3191  -2.2864  -2.2738  -2.2609  -2.2529
    -2.2385  -2.2156  -2.2133  -2.1650  -2.1446  -2.1264  -2.0631  -2.0297
    -1.8435  -1.7944  -1.7493  -1.7424  -1.7216  -1.6914  -1.6748  -1.6581
    -1.6115  -1.5914  -1.5129  -1.4676  -1.3291  -1.3098  -1.2937  -1.2733
    -1.2067  -1.1488  -1.0988  -1.0128  -1.0077  -0.9587  -0.8659  -0.8067
    -0.7984  -0.7671  -0.7119  -0.7021  -0.6616  -0.5681  -0.5624  -0.5444
    -0.5388  -0.4628  -0.4190  -0.3563  -0.3482  -0.3284  -0.2975  -0.2694
    -0.2361  -0.1976  -0.1013  -0.0680   0.0254   0.1311   0.2082   0.3432
     0.4621   0.4745   0.5593   0.5835   0.6843   0.6965   0.7087   0.7497
     0.7856   0.8085   0.9301   0.9436   0.9648   0.9896   1.0815   1.8001
     1.8011   1.8736   1.8738   2.8204   3.7655   3.8795   3.9114   3.9221
     4.0071   4.0439   4.0630   4.0648   4.1297   4.2021

     the Fermi energy is     3.5269 ev

!    total energy              =   -3006.13712055 Ry
     estimated scf accuracy    <       0.00000006 Ry
     smearing contrib. (-TS)   =      -0.02167007 Ry
     internal energy E=F+TS    =   -3006.11545048 Ry

     The total energy is F=E-TS. E is the sum of the following terms:
     one-electron contribution =  -23514.03503575 Ry
     hartree contribution      =   11854.98527734 Ry
     xc contribution           =    -501.17675845 Ry
     ewald contribution        =    9154.10983335 Ry
     electric field correction =       0.00123302 Ry

     convergence has been achieved in  76 iterations

     Forces acting on atoms (cartesian axes, Ry/au):

     atom    1 type  1   force =     0.00021113   -0.00031375    0.09615171
     atom    2 type  1   force =    -0.00012610   -0.00050608   -0.17560317
     atom    3 type  2   force =    -0.00002948   -0.00015658   -0.02418032
     atom    4 type  2   force =     0.00000551   -0.00156078    0.05346516
     atom    5 type  2   force =    -0.01167680   -0.00075645    0.00385805
     atom    6 type  2   force =     0.01286507   -0.00002160    0.00197103
     atom    7 type  1   force =    -0.00131954    0.00026261   -0.00662074
     atom    8 type  1   force =     0.00074060    0.00793717    0.02425094
     atom    9 type  2   force =     0.00001004    0.00003196    0.00003438
     atom   10 type  2   force =    -0.00082809    0.00166816   -0.01689805
     atom   11 type  2   force =    -0.00002943    0.00003713   -0.00000930
     atom   12 type  2   force =    -0.00001612    0.00001949   -0.00001365
     atom   13 type  1   force =    -0.00000430   -0.00001815    0.00001756
     atom   14 type  1   force =     0.00002210    0.00004355   -0.00002373
     atom   15 type  2   force =    -0.00001121    0.00001627   -0.00001904
     atom   16 type  2   force =    -0.00000415   -0.00002974   -0.00001261
     atom   17 type  2   force =    -0.00002647   -0.00000265    0.00003441
     atom   18 type  2   force =    -0.00001279   -0.00001940    0.00001233
     atom   19 type  1   force =     0.00006604   -0.00005770   -0.00002842
     atom   20 type  1   force =     0.00001603    0.00000603   -0.00002376
     atom   21 type  2   force =     0.00005956   -0.00004935    0.10324453
     atom   22 type  2   force =     0.00002819   -0.00001959   -0.00008274
     atom   23 type  2   force =    -0.07146138   -0.00011848   -0.02771027
     atom   24 type  2   force =     0.07136458    0.00029078   -0.02771870
     atom   25 type  1   force =    -0.00003238   -0.00028817    0.09576740
     atom   26 type  1   force =    -0.00022951   -0.00034822   -0.17585750
     atom   27 type  2   force =     0.00004892   -0.00017288   -0.02323004
     atom   28 type  2   force =     0.00007045   -0.00125676    0.05306671
     atom   29 type  2   force =    -0.01202413    0.00042517    0.00403387
     atom   30 type  2   force =     0.01310988    0.00077002    0.00211917
     atom   31 type  1   force =    -0.00118098    0.00400338   -0.00991811
     atom   32 type  1   force =     0.00067583   -0.01005017    0.02473081
     atom   33 type  2   force =     0.00001817   -0.00000953    0.00001700
     atom   34 type  2   force =    -0.00025193    0.00012549   -0.02259939
     atom   35 type  2   force =    -0.00001468   -0.00000448   -0.00002667
     atom   36 type  2   force =    -0.00002253    0.00001546   -0.00003547
     atom   37 type  1   force =    -0.00001797   -0.00003704    0.00002364
     atom   38 type  1   force =     0.00003413    0.00006879    0.00001446
     atom   39 type  2   force =    -0.00005392   -0.00002315   -0.00004016
     atom   40 type  2   force =    -0.00000453   -0.00004120   -0.00000292
     atom   41 type  2   force =    -0.00002042   -0.00000725   -0.00002234
     atom   42 type  2   force =     0.00000689   -0.00000671    0.00000712
     atom   43 type  1   force =     0.00009529   -0.00004156   -0.00015706
     atom   44 type  1   force =     0.00002088   -0.00000935    0.00004501
     atom   45 type  2   force =     0.00004584   -0.00008813    0.10325545
     atom   46 type  2   force =    -0.07147424   -0.00008351   -0.02772962
     atom   47 type  2   force =     0.07138721    0.00035715   -0.02772092
     atom   48 type  3   force =     0.00009120   -0.00003285    0.00015854
     atom   49 type  3   force =    -0.00000114    0.00001327   -0.00016332
     atom   50 type  4   force =    -0.00001697    0.00011642   -0.00007144
     atom   51 type  5   force =    -0.00005543   -0.00006216    0.00006818
     atom   52 type  5   force =     0.00001269    0.00000958    0.00003208
     atom   53 type  5   force =    -0.00008633   -0.00001106   -0.00001738
     atom   54 type  2   force =    -0.01551400   -0.00465992   -0.00624959
     atom   55 type  5   force =    -0.00016077    0.00002971   -0.00007057
     atom   56 type  2   force =    -0.00125710   -0.00016335    0.00146286
     atom   57 type  5   force =     0.01695860    0.00478018    0.00501459

     Total force =     0.367978     Total SCF correction =     0.000663
  @ DRIVER MODE: Message from server: STATUS
  @ DRIVER MODE: Message from server: GETFORCE
  @ DRIVER MODE: Returning v,forces,stress,ensemble 

     Writing output data file ./calc.save/
  @ DRIVER MODE: Message from server: EXIT
  @ DRIVE MODE: Exiting  
 
     init_run     :     14.80s CPU     15.22s WALL (       1 calls)
     electrons    :   1588.21s CPU   1630.61s WALL (       1 calls)
     forces       :      2.98s CPU      3.18s WALL (       1 calls)

     Called by init_run:
     wfcinit      :      6.99s CPU      7.16s WALL (       1 calls)
     potinit      :      6.91s CPU      7.01s WALL (       1 calls)
     hinit0       :      0.42s CPU      0.44s WALL (       1 calls)

     Called by electrons:
     c_bands      :   1346.80s CPU   1372.37s WALL (      76 calls)
     sum_band     :    165.27s CPU    172.98s WALL (      76 calls)
     v_of_rho     :     55.66s CPU     58.13s WALL (      77 calls)
     newd         :     22.97s CPU     29.17s WALL (      77 calls)
     mix_rho      :      3.02s CPU      3.45s WALL (      76 calls)
     vdW_kernel   :      5.85s CPU      5.88s WALL (       1 calls)

     Called by c_bands:
     init_us_2    :      8.20s CPU      8.31s WALL (    1540 calls)
     cegterg      :   1320.13s CPU   1344.76s WALL (     780 calls)

     Called by *egterg:
     cdiaghg      :    205.67s CPU    208.37s WALL (    7042 calls)
     h_psi        :    722.98s CPU    737.84s WALL (    7056 calls)
     s_psi        :     89.35s CPU     89.94s WALL (    7056 calls)
     g_psi        :      2.44s CPU      2.46s WALL (    6266 calls)

     Called by h_psi:
     h_psi:calbec :     89.88s CPU     91.45s WALL (    7056 calls)
     vloc_psi     :    539.90s CPU    548.03s WALL (    7056 calls)
     add_vuspsi   :     89.70s CPU     92.46s WALL (    7056 calls)

     General routines
     calbec       :    119.03s CPU    120.74s WALL (    7856 calls)
     fft          :     29.85s CPU     30.08s WALL (    4851 calls)
     ffts         :      0.27s CPU      0.27s WALL (     153 calls)
     fftw         :    604.79s CPU    613.58s WALL ( 1066276 calls)
     interpolate  :      0.69s CPU      0.70s WALL (      77 calls)
     davcio       :      0.00s CPU      0.46s WALL (      10 calls)
 
     Parallel routines
 
     PWSCF        :  26m46.94s CPU  27m31.47s WALL

 
   This run was terminated on:  17:57:16  26Sep2021            

=------------------------------------------------------------------------------=
   JOB DONE.
=------------------------------------------------------------------------------=
