
     Program PWSCF v.6.7GPU starts on 23Sep2021 at 11:59:58 

     This program is part of the open-source Quantum ESPRESSO suite
     for quantum simulation of materials; please cite
         "P. Giannozzi et al., J. Phys.:Condens. Matter 21 395502 (2009);
         "P. Giannozzi et al., J. Phys.:Condens. Matter 29 465901 (2017);
         "P. Giannozzi et al., J. Chem. Phys. 152 154105 (2020);
          URL http://www.quantum-espresso.org", 
     in publications or presentations arising from this work. More details at
     http://www.quantum-espresso.org/quote

     Parallel version (MPI), running on     8 processors

     MPI processes distributed on     1 nodes
     R & G space division:  proc/nbgrp/npool/nimage =       8
     Reading input from /storage/home/hcoda1/3/ntian30/research/carbon/CxH_vib/H2O_calc/ads_slab/CH2OHO_c/out_0035/pw.inp
Warning: card &CELL ignored
Warning: card   CELL_DYNAMICS='IPI', ignored
Warning: card / ignored

     Current dimensions of program PWSCF are:
     Max number of different atomic species (ntypx) = 10
     Max number of k-points (npk) =  40000
     Max angular momentum in pseudopotentials (lmaxx) =  3
     Presently no symmetry can be used with electric field

     Message from routine cell_base_init:
     DEPRECATED: use true lattice parameter, not A to a.u. conversion factor

     **************************************************************************
     Initializing libbeef V0.1.2 with the BEEF-vdW functional.
     Citation: Wellendorff et al., PRB 85, 235149 (2012).
     **************************************************************************


     IMPORTANT: XC functional enforced from input :
     Exchange-correlation= BEEF-VDW
                           (   1   4  43  14   2   0   0)
     Any further DFT definition will be discarded
     Please, verify this is what you really want


     Subspace diagonalization in iterative solution of the eigenvalue problem:
     one sub-group per band group will be used
     scalapack distributed-memory algorithm (size of sub-group:  2*  2 procs)

  @ DRIVER MODE: Connecting to 
 qe_1139763_2941011.sched-torque.pace.gatech.edue8ai2lz8_scratch
  using UNIX socket
  @ DRIVER MODE: Message from server: STATUS
  @ DRIVER MODE: Message from server: INIT
  @ DRIVER MODE: Receiving replica           0          -1
  @ DRIVER MODE: Receiving encoded integer          25
  @ DRIVER MODE:  SCF:  T  FORCE:  T  STRESS:  F  VC:  F  ENSEMBLE:  F
  @ DRIVER MODE:  SCF:  T  FORCE:  T  STRESS:  F  VC:  F  ENSEMBLE:  F
 
     Parallelization info
     --------------------
     sticks:   dense  smooth     PW     G-vecs:    dense   smooth      PW
     Min         409     164     47                70857    17926    2743
     Max         411     165     48                70858    17931    2751
     Sum        3275    1317    379               566857   143421   21985
 
     Using Slab Decomposition
 


     bravais-lattice index     =            0
     lattice parameter (alat)  =       1.8897  a.u.
     unit-cell volume          =    6658.9804 (a.u.)^3
     number of atoms/cell      =           53
     number of atomic types    =            4
     number of electrons       =       397.00
     number of Kohn-Sham states=          208
     kinetic-energy cutoff     =      29.3995  Ry
     charge density cutoff     =     293.9946  Ry
     scf convergence threshold =      7.3E-08
     mixing beta               =       0.0500
     number of iterations used =            8  plain     mixing
     Exchange-correlation= BEEF-VDW
                           (   1   4  43  14   2   0   0)

     celldm(1)=   1.889726  celldm(2)=   0.000000  celldm(3)=   0.000000
     celldm(4)=   0.000000  celldm(5)=   0.000000  celldm(6)=   0.000000

     crystal axes: (cart. coord. in units of alat)
               a(1) = (   6.579727   0.000000   0.000000 )  
               a(2) = (  -0.000775   5.961596   0.000000 )  
               a(3) = (   0.000000   0.000000  25.155947 )  

     reciprocal axes: (cart. coord. in units 2 pi/alat)
               b(1) = (  0.151982  0.000020  0.000000 )  
               b(2) = (  0.000000  0.167740  0.000000 )  
               b(3) = (  0.000000  0.000000  0.039752 )  


     PseudoPot. # 1 for O  read from file:
     /storage/coda1/p-amedford6/0/shared/rich_project_chbe-medford/medford-share/data/pseudos_module/espresso/nninc/pbe/van/O.UPF
     MD5 check sum: 78c19812648e8988a0fe644b0f25305e
     Pseudo is Ultrasoft, Zval =  6.0
     Generated by new atomic code, or converted to UPF format
     Using radial grid of  737 points,  4 beta functions with: 
                l(1) =   0
                l(2) =   0
                l(3) =   1
                l(4) =   1
     Q(r) pseudized with  8 coefficients,  rinner =    0.800   0.800   0.800


     PseudoPot. # 2 for Ti read from file:
     /storage/coda1/p-amedford6/0/shared/rich_project_chbe-medford/medford-share/data/pseudos_module/espresso/nninc/pbe/van/Ti.UPF
     MD5 check sum: 8e4df49b7f0d34bbd5052bf3f5ea0213
     Pseudo is Ultrasoft, Zval = 12.0
     Generated by new atomic code, or converted to UPF format
     Using radial grid of  851 points,  6 beta functions with: 
                l(1) =   0
                l(2) =   0
                l(3) =   1
                l(4) =   1
                l(5) =   2
                l(6) =   2
     Q(r) pseudized with  8 coefficients,  rinner =    1.000   1.000   1.000
                                                       1.000   1.000

     PseudoPot. # 3 for C  read from file:
     /storage/coda1/p-amedford6/0/shared/rich_project_chbe-medford/medford-share/data/pseudos_module/espresso/nninc/pbe/van/C.UPF
     MD5 check sum: 1a69bf6b8db32088f5b2163dbdb77a27
     Pseudo is Ultrasoft, Zval =  4.0
     Generated by new atomic code, or converted to UPF format
     Using radial grid of  721 points,  4 beta functions with: 
                l(1) =   0
                l(2) =   0
                l(3) =   1
                l(4) =   1
     Q(r) pseudized with  8 coefficients,  rinner =    0.800   0.800   0.800


     PseudoPot. # 4 for H  read from file:
     /storage/coda1/p-amedford6/0/shared/rich_project_chbe-medford/medford-share/data/pseudos_module/espresso/nninc/pbe/van/H.UPF
     MD5 check sum: b5ee9d7bfd3a09ee7748110bda690ff7
     Pseudo is Ultrasoft, Zval =  1.0
     Generated by new atomic code, or converted to UPF format
     Using radial grid of  615 points,  1 beta functions with: 
                l(1) =   0
     Q(r) pseudized with  8 coefficients,  rinner =    0.800

     atomic species   valence    mass     pseudopotential
        O1             6.00    15.99900     O ( 1.00)
        Ti1           12.00    47.86700     Ti( 1.00)
        C1             4.00    12.01100     C ( 1.00)
        H1             1.00     1.00800     H ( 1.00)

     No symmetry found



   Cartesian axes

     site n.     atom                  positions (alat units)
         1           O1  tau(   1) = (   3.2904802   0.0005063   4.7018136  )
         2           O1  tau(   2) = (   3.2900926   2.9813045   4.7018136  )
         3           Ti1 tau(   3) = (   0.0004258   2.9801865   6.0000000  )
         4           Ti1 tau(   4) = (   0.0000382   5.9609847   6.0000000  )
         5           Ti1 tau(   5) = (   3.2906075   1.4906267   6.0002472  )
         6           Ti1 tau(   6) = (   3.2902200   4.4714249   6.0002472  )
         7           O1  tau(   7) = (   1.3043587   1.4918075   6.0039043  )
         8           O1  tau(   8) = (   1.3039711   4.4726057   6.0039043  )
         9           O1  tau(   9) = (   5.2767064   1.4903225   6.0039473  )
        10           O1  tau(  10) = (   5.2763189   4.4711207   6.0039473  )
        11           O1  tau(  11) = (   3.2906025   0.0005020   7.3038282  )
        12           O1  tau(  12) = (   3.2902150   2.9813002   7.3038282  )
        13           O1  tau(  13) = (   0.0006271   0.0005054   7.9858123  )
        14           O1  tau(  14) = (   0.0002396   2.9813036   7.9858123  )
        15           Ti1 tau(  15) = (   3.3202697   0.0919879   9.1698383  )
        16           Ti1 tau(  16) = (   3.3215697   3.0759731   9.1987478  )
        17           Ti1 tau(  17) = (   0.0419684   4.5271873   9.2680259  )
        18           Ti1 tau(  18) = (   0.0391189   1.6041453   9.3419098  )
        19           O1  tau(  19) = (   4.5942328   1.4918067   9.2879030  )
        20           O1  tau(  20) = (   4.5938453   4.4726049   9.2879030  )
        21           O1  tau(  21) = (   1.9868534   1.4903216   9.2879459  )
        22           O1  tau(  22) = (   1.9864658   4.4711199   9.2879459  )
        23           O1  tau(  23) = (   0.0125722   0.0097687  10.5830051  )
        24           O1  tau(  24) = (   0.0081120   2.9918398  10.5664780  )
        25           O1  tau(  25) = (   3.3077729   2.9680546  11.3050536  )
        26           O1  tau(  26) = (   3.3059260   0.0232323  11.3367354  )
        27           Ti1 tau(  27) = (   0.0233359   0.0627999  12.4784840  )
        28           Ti1 tau(  28) = (   3.3058864   4.6637881  12.6801991  )
        29           Ti1 tau(  29) = (   3.3037148   1.5793570  12.4293313  )
        30           Ti1 tau(  30) = (   0.0089448   3.0481173  12.7472709  )
        31           O1  tau(  31) = (   1.2933882   4.4692258  12.6303221  )
        32           O1  tau(  32) = (   1.2985301   1.4993897  12.6236677  )
        33           O1  tau(  33) = (   5.3274268   4.4793405  12.6275207  )
        34           O1  tau(  34) = (   5.3265499   1.4915365  12.6220616  )
        35           O1  tau(  35) = (   3.3295878   2.9786622  13.8932268  )
        36           O1  tau(  36) = (   3.3104420   5.9098017  13.9586718  )
        37           O1  tau(  37) = (   0.0385923   0.0024916  14.6531765  )
        38           O1  tau(  38) = (   0.0086518   2.9873893  14.7004014  )
        39           Ti1 tau(  39) = (   3.3201234   2.9526136  15.6695435  )
        40           Ti1 tau(  40) = (   3.4185286   5.9334276  16.2343674  )
        41           Ti1 tau(  41) = (   0.1049196   4.5923083  15.9423708  )
        42           Ti1 tau(  42) = (   0.0892020   1.3980244  15.8930203  )
        43           O1  tau(  43) = (   4.5900789   4.4270775  16.0984088  )
        44           O1  tau(  44) = (   4.5919070   1.5192920  16.0669747  )
        45           O1  tau(  45) = (   2.0372030   1.5514537  16.0349210  )
        46           O1  tau(  46) = (   2.0392294   4.4021701  16.0428288  )
        47           O1  tau(  47) = (   0.0638787   0.0130652  17.1658208  )
        48           O1  tau(  48) = (   6.5756481   2.9829514  17.4361268  )
        49           C1  tau(  49) = (   6.2652767   2.9703434  18.6584371  )
        50           H1  tau(  50) = (   6.1492679   3.9148029  19.1865895  )
        51           H1  tau(  51) = (   6.0998186   2.0156765  19.1535163  )
        52           O1  tau(  52) = (   3.1909063   0.0039016  18.0657888  )
        53           H1  tau(  53) = (   2.2823347   0.1153277  18.3795531  )

     number of k points=    10  Fermi-Dirac smearing, width (Ry)=  0.0073
                       cart. coord. in units 2pi/alat
        k(    1) = (   0.0000000   0.0000000   0.0000000), wk =   0.1250000
        k(    2) = (   0.0000000   0.0419351   0.0000000), wk =   0.2500000
        k(    3) = (   0.0000000  -0.0838702   0.0000000), wk =   0.1250000
        k(    4) = (   0.0379955   0.0000049   0.0000000), wk =   0.2500000
        k(    5) = (   0.0379955   0.0419400   0.0000000), wk =   0.2500000
        k(    6) = (   0.0379955  -0.0838652   0.0000000), wk =   0.2500000
        k(    7) = (   0.0379955  -0.0419301   0.0000000), wk =   0.2500000
        k(    8) = (  -0.0759910  -0.0000099   0.0000000), wk =   0.1250000
        k(    9) = (  -0.0759910   0.0419252   0.0000000), wk =   0.2500000
        k(   10) = (  -0.0759910  -0.0838800   0.0000000), wk =   0.1250000

     Dense  grid:   566857 G-vectors     FFT dimensions: (  72,  64, 270)

     Smooth grid:   143421 G-vectors     FFT dimensions: (  45,  40, 180)

     Estimated max dynamical RAM per process >     455.90 MB

     Estimated total dynamical RAM >       3.56 GB
     Cannot read rho : file not found

     Initial potential from superposition of free atoms

     starting charge  380.99918, renormalised to  397.00000

     negative rho (up, down):  1.769E-02 0.000E+00


     %%%%%%%%%%%%%%%%%%%%%%%%%%%%%%%%%%%%%%%%%%%%%%%%%%%%%%%%%%%%%%%%%%%%%%%%
     %                                                                      %
     % You are using vdW-DF, which was implemented by the Thonhauser group. %
     % Please cite the following two papers that made this development      %
     % possible and the two reviews that describe the various versions:     %
     %                                                                      %
     %   T. Thonhauser et al., PRL 115, 136402 (2015).                      %
     %   T. Thonhauser et al., PRB 76, 125112 (2007).                       %
     %   K. Berland et al., Rep. Prog. Phys. 78, 066501 (2015).             %
     %   D.C. Langreth et al., J. Phys.: Condens. Matter 21, 084203 (2009). %
     %                                                                      %
     %                                                                      %
     % If you are calculating the stress with vdW-DF, please also cite:     %
     %                                                                      %
     %   R. Sabatini et al., J. Phys.: Condens. Matter 24, 424209 (2012).   %
     %                                                                      %
     %%%%%%%%%%%%%%%%%%%%%%%%%%%%%%%%%%%%%%%%%%%%%%%%%%%%%%%%%%%%%%%%%%%%%%%%


 
     Adding external electric field

     Computed dipole along edir(3) : 
        Dipole               -8.3994 Ry au,        -21.3491 Debye
        Dipole field         -0.0159 Ry au, 
 
        Potential amp.        1.4693 Ry
        Total length         46.3494 bohr
 
     Starting wfcs are  299 atomic wfcs
  @ DRIVER MODE: Message from server: STATUS
  @ DRIVER MODE: Message from server: POSDATA
  @ DRIVER MODE: Reading and sharing cell 
  @ DRIVER MODE: Reading and sharing positions 
  @ DRIVER MODE: Received positions 

     total cpu time spent up to now is       14.5 secs

     Self-consistent Calculation

     iteration #  1     ecut=    29.40 Ry     beta= 0.05
     Davidson diagonalization with overlap
     c_bands:  1 eigenvalues not converged
     c_bands:  1 eigenvalues not converged
     c_bands:  1 eigenvalues not converged
     c_bands:  1 eigenvalues not converged
     ethr =  1.00E-05,  avg # of iterations = 18.2

     negative rho (up, down):  1.462E-02 0.000E+00
 
     Adding external electric field

     Computed dipole along edir(3) : 
        Dipole               40.1395 Ry au,        102.0246 Debye
        Dipole field          0.0757 Ry au, 
 
        Potential amp.       -7.0218 Ry
        Total length         46.3494 bohr
 

     total cpu time spent up to now is       62.2 secs

     total energy              =   -2610.74729280 Ry
     estimated scf accuracy    <    3908.81878657 Ry

     iteration #  2     ecut=    29.40 Ry     beta= 0.05
     Davidson diagonalization with overlap
     ethr =  1.00E-02,  avg # of iterations = 23.7

     negative rho (up, down):  4.754E-03 0.000E+00
 
     Adding external electric field

     Computed dipole along edir(3) : 
        Dipole               -2.2725 Ry au,         -5.7762 Debye
        Dipole field         -0.0043 Ry au, 
 
        Potential amp.        0.3975 Ry
        Total length         46.3494 bohr
 

     total cpu time spent up to now is      146.9 secs

     total energy              =   -2481.45599555 Ry
     estimated scf accuracy    <   65258.73792402 Ry

     iteration #  3     ecut=    29.40 Ry     beta= 0.05
     Davidson diagonalization with overlap
     ethr =  1.00E-02,  avg # of iterations = 14.1

     negative rho (up, down):  4.827E-03 0.000E+00
 
     Adding external electric field

     Computed dipole along edir(3) : 
        Dipole               -4.4523 Ry au,        -11.3167 Debye
        Dipole field         -0.0084 Ry au, 
 
        Potential amp.        0.7789 Ry
        Total length         46.3494 bohr
 

     total cpu time spent up to now is      201.4 secs

     total energy              =   -2941.77168688 Ry
     estimated scf accuracy    <    4075.64882329 Ry

     iteration #  4     ecut=    29.40 Ry     beta= 0.05
     Davidson diagonalization with overlap
     c_bands:  3 eigenvalues not converged
     c_bands:  5 eigenvalues not converged
     ethr =  1.00E-02,  avg # of iterations = 17.3

     negative rho (up, down):  4.874E-03 0.000E+00
 
     Adding external electric field

     Computed dipole along edir(3) : 
        Dipole               -5.4805 Ry au,        -13.9301 Debye
        Dipole field         -0.0103 Ry au, 
 
        Potential amp.        0.9587 Ry
        Total length         46.3494 bohr
 

     total cpu time spent up to now is      226.6 secs

     total energy              =   -2957.00202197 Ry
     estimated scf accuracy    <     605.32293881 Ry

     iteration #  5     ecut=    29.40 Ry     beta= 0.05
     Davidson diagonalization with overlap
     ethr =  1.00E-02,  avg # of iterations =  5.1

     negative rho (up, down):  4.874E-03 0.000E+00
 
     Adding external electric field

     Computed dipole along edir(3) : 
        Dipole               -5.8864 Ry au,        -14.9617 Debye
        Dipole field         -0.0111 Ry au, 
 
        Potential amp.        1.0297 Ry
        Total length         46.3494 bohr
 

     total cpu time spent up to now is      240.8 secs

     total energy              =   -2957.33755850 Ry
     estimated scf accuracy    <     340.77778520 Ry

     iteration #  6     ecut=    29.40 Ry     beta= 0.05
     Davidson diagonalization with overlap
     ethr =  1.00E-02,  avg # of iterations =  2.6

     negative rho (up, down):  5.059E-03 0.000E+00
 
     Adding external electric field

     Computed dipole along edir(3) : 
        Dipole               -7.6109 Ry au,        -19.3451 Debye
        Dipole field         -0.0144 Ry au, 
 
        Potential amp.        1.3314 Ry
        Total length         46.3494 bohr
 

     total cpu time spent up to now is      253.6 secs

     total energy              =   -2949.07947676 Ry
     estimated scf accuracy    <     319.07909478 Ry

     iteration #  7     ecut=    29.40 Ry     beta= 0.05
     Davidson diagonalization with overlap
     ethr =  1.00E-02,  avg # of iterations =  8.7

     negative rho (up, down):  3.843E-03 0.000E+00
 
     Adding external electric field

     Computed dipole along edir(3) : 
        Dipole               -6.3938 Ry au,        -16.2515 Debye
        Dipole field         -0.0121 Ry au, 
 
        Potential amp.        1.1185 Ry
        Total length         46.3494 bohr
 

     total cpu time spent up to now is      275.6 secs

     total energy              =   -2965.17584657 Ry
     estimated scf accuracy    <     236.64893020 Ry

     iteration #  8     ecut=    29.40 Ry     beta= 0.05
     Davidson diagonalization with overlap
     ethr =  1.00E-02,  avg # of iterations =  1.5

     negative rho (up, down):  4.020E-03 0.000E+00
 
     Adding external electric field

     Computed dipole along edir(3) : 
        Dipole               -5.7431 Ry au,        -14.5974 Debye
        Dipole field         -0.0108 Ry au, 
 
        Potential amp.        1.0047 Ry
        Total length         46.3494 bohr
 

     total cpu time spent up to now is      288.2 secs

     total energy              =   -2966.61690520 Ry
     estimated scf accuracy    <      15.63865048 Ry

     iteration #  9     ecut=    29.40 Ry     beta= 0.05
     Davidson diagonalization with overlap
     ethr =  3.94E-03,  avg # of iterations =  1.7

     negative rho (up, down):  4.020E-03 0.000E+00
 
     Adding external electric field

     Computed dipole along edir(3) : 
        Dipole               -5.7504 Ry au,        -14.6160 Debye
        Dipole field         -0.0109 Ry au, 
 
        Potential amp.        1.0059 Ry
        Total length         46.3494 bohr
 

     total cpu time spent up to now is      300.9 secs

     total energy              =   -2966.72302071 Ry
     estimated scf accuracy    <      13.69510575 Ry

     iteration # 10     ecut=    29.40 Ry     beta= 0.05
     Davidson diagonalization with overlap
     ethr =  3.45E-03,  avg # of iterations =  1.0

     negative rho (up, down):  3.580E-03 0.000E+00
 
     Adding external electric field

     Computed dipole along edir(3) : 
        Dipole               -6.4313 Ry au,        -16.3468 Debye
        Dipole field         -0.0121 Ry au, 
 
        Potential amp.        1.1251 Ry
        Total length         46.3494 bohr
 

     total cpu time spent up to now is      313.0 secs

     total energy              =   -2966.71894929 Ry
     estimated scf accuracy    <      13.66279954 Ry

     iteration # 11     ecut=    29.40 Ry     beta= 0.05
     Davidson diagonalization with overlap
     ethr =  3.44E-03,  avg # of iterations =  1.5

     negative rho (up, down):  3.104E-03 0.000E+00
 
     Adding external electric field

     Computed dipole along edir(3) : 
        Dipole               -5.8857 Ry au,        -14.9599 Debye
        Dipole field         -0.0111 Ry au, 
 
        Potential amp.        1.0296 Ry
        Total length         46.3494 bohr
 

     total cpu time spent up to now is      325.3 secs

     total energy              =   -2966.17799633 Ry
     estimated scf accuracy    <      22.59153021 Ry

     iteration # 12     ecut=    29.40 Ry     beta= 0.05
     Davidson diagonalization with overlap
     ethr =  3.44E-03,  avg # of iterations =  1.1

     negative rho (up, down):  2.680E-03 0.000E+00
 
     Adding external electric field

     Computed dipole along edir(3) : 
        Dipole               -5.4587 Ry au,        -13.8747 Debye
        Dipole field         -0.0103 Ry au, 
 
        Potential amp.        0.9549 Ry
        Total length         46.3494 bohr
 

     total cpu time spent up to now is      337.5 secs

     total energy              =   -2966.24297875 Ry
     estimated scf accuracy    <      99.97650741 Ry

     iteration # 13     ecut=    29.40 Ry     beta= 0.05
     Davidson diagonalization with overlap
     ethr =  3.44E-03,  avg # of iterations =  1.3

     negative rho (up, down):  2.334E-03 0.000E+00
 
     Adding external electric field

     Computed dipole along edir(3) : 
        Dipole               -3.9397 Ry au,        -10.0137 Debye
        Dipole field         -0.0074 Ry au, 
 
        Potential amp.        0.6892 Ry
        Total length         46.3494 bohr
 

     total cpu time spent up to now is      349.7 secs

     total energy              =   -2965.13418616 Ry
     estimated scf accuracy    <      71.21431034 Ry

     iteration # 14     ecut=    29.40 Ry     beta= 0.05
     Davidson diagonalization with overlap
     ethr =  3.44E-03,  avg # of iterations =  3.0

     negative rho (up, down):  2.021E-03 0.000E+00
 
     Adding external electric field

     Computed dipole along edir(3) : 
        Dipole               -2.5433 Ry au,         -6.4645 Debye
        Dipole field         -0.0048 Ry au, 
 
        Potential amp.        0.4449 Ry
        Total length         46.3494 bohr
 

     total cpu time spent up to now is      362.8 secs

     total energy              =   -2964.95249482 Ry
     estimated scf accuracy    <      14.87128255 Ry

     iteration # 15     ecut=    29.40 Ry     beta= 0.05
     Davidson diagonalization with overlap
     ethr =  3.44E-03,  avg # of iterations =  4.1

     negative rho (up, down):  2.053E-03 0.000E+00
 
     Adding external electric field

     Computed dipole along edir(3) : 
        Dipole                0.2660 Ry au,          0.6762 Debye
        Dipole field          0.0005 Ry au, 
 
        Potential amp.       -0.0465 Ry
        Total length         46.3494 bohr
 

     total cpu time spent up to now is      376.4 secs

     total energy              =   -2963.44386043 Ry
     estimated scf accuracy    <      92.57206088 Ry

     iteration # 16     ecut=    29.40 Ry     beta= 0.05
     Davidson diagonalization with overlap
     ethr =  3.44E-03,  avg # of iterations = 14.3

     negative rho (up, down):  2.107E-03 0.000E+00
 
     Adding external electric field

     Computed dipole along edir(3) : 
        Dipole               -0.3769 Ry au,         -0.9579 Debye
        Dipole field         -0.0007 Ry au, 
 
        Potential amp.        0.0659 Ry
        Total length         46.3494 bohr
 

     total cpu time spent up to now is      399.6 secs

     total energy              =   -2964.98824550 Ry
     estimated scf accuracy    <     223.20886362 Ry

     iteration # 17     ecut=    29.40 Ry     beta= 0.05
     Davidson diagonalization with overlap
     ethr =  3.44E-03,  avg # of iterations =  1.4

     negative rho (up, down):  2.090E-03 0.000E+00
 
     Adding external electric field

     Computed dipole along edir(3) : 
        Dipole               -2.7834 Ry au,         -7.0746 Debye
        Dipole field         -0.0053 Ry au, 
 
        Potential amp.        0.4869 Ry
        Total length         46.3494 bohr
 

     total cpu time spent up to now is      412.3 secs

     total energy              =   -2963.98863776 Ry
     estimated scf accuracy    <     146.49455871 Ry

     iteration # 18     ecut=    29.40 Ry     beta= 0.05
     Davidson diagonalization with overlap
     ethr =  3.44E-03,  avg # of iterations =  8.1

     negative rho (up, down):  2.043E-03 0.000E+00
 
     Adding external electric field

     Computed dipole along edir(3) : 
        Dipole               -3.8852 Ry au,         -9.8752 Debye
        Dipole field         -0.0073 Ry au, 
 
        Potential amp.        0.6797 Ry
        Total length         46.3494 bohr
 

     total cpu time spent up to now is      429.2 secs

     total energy              =   -2966.67582323 Ry
     estimated scf accuracy    <      87.28401686 Ry

     iteration # 19     ecut=    29.40 Ry     beta= 0.05
     Davidson diagonalization with overlap
     c_bands:  2 eigenvalues not converged
     ethr =  3.44E-03,  avg # of iterations = 11.8

     negative rho (up, down):  3.119E-03 0.000E+00
 
     Adding external electric field

     Computed dipole along edir(3) : 
        Dipole               -3.6061 Ry au,         -9.1659 Debye
        Dipole field         -0.0068 Ry au, 
 
        Potential amp.        0.6308 Ry
        Total length         46.3494 bohr
 

     total cpu time spent up to now is      449.7 secs

     total energy              =   -2963.20988616 Ry
     estimated scf accuracy    <     456.85909353 Ry

     iteration # 20     ecut=    29.40 Ry     beta= 0.05
     Davidson diagonalization with overlap
     ethr =  3.44E-03,  avg # of iterations =  4.7

     negative rho (up, down):  5.057E-02 0.000E+00
 
     Adding external electric field

     Computed dipole along edir(3) : 
        Dipole               -4.4811 Ry au,        -11.3899 Debye
        Dipole field         -0.0085 Ry au, 
 
        Potential amp.        0.7839 Ry
        Total length         46.3494 bohr
 

     total cpu time spent up to now is      463.8 secs

     total energy              =   -2962.01935269 Ry
     estimated scf accuracy    <      62.05206611 Ry

     iteration # 21     ecut=    29.40 Ry     beta= 0.05
     Davidson diagonalization with overlap
     ethr =  3.44E-03,  avg # of iterations = 10.5

     negative rho (up, down):  6.026E-02 0.000E+00
 
     Adding external electric field

     Computed dipole along edir(3) : 
        Dipole               -4.9061 Ry au,        -12.4701 Debye
        Dipole field         -0.0093 Ry au, 
 
        Potential amp.        0.8583 Ry
        Total length         46.3494 bohr
 

     total cpu time spent up to now is      484.5 secs

     total energy              =   -2964.98424309 Ry
     estimated scf accuracy    <       5.27916998 Ry

     iteration # 22     ecut=    29.40 Ry     beta= 0.05
     Davidson diagonalization with overlap
     ethr =  1.33E-03,  avg # of iterations =  3.0

     negative rho (up, down):  3.074E-02 0.000E+00
 
     Adding external electric field

     Computed dipole along edir(3) : 
        Dipole               -5.3844 Ry au,        -13.6857 Debye
        Dipole field         -0.0102 Ry au, 
 
        Potential amp.        0.9419 Ry
        Total length         46.3494 bohr
 

     total cpu time spent up to now is      498.4 secs

     total energy              =   -2965.04009113 Ry
     estimated scf accuracy    <       6.98618894 Ry

     iteration # 23     ecut=    29.40 Ry     beta= 0.05
     Davidson diagonalization with overlap
     c_bands:  1 eigenvalues not converged
     ethr =  1.33E-03,  avg # of iterations = 11.2

     negative rho (up, down):  1.767E-02 0.000E+00
 
     Adding external electric field

     Computed dipole along edir(3) : 
        Dipole               -5.6033 Ry au,        -14.2422 Debye
        Dipole field         -0.0106 Ry au, 
 
        Potential amp.        0.9802 Ry
        Total length         46.3494 bohr
 

     total cpu time spent up to now is      518.1 secs

     total energy              =   -2967.08817817 Ry
     estimated scf accuracy    <     198.98643935 Ry

     iteration # 24     ecut=    29.40 Ry     beta= 0.05
     Davidson diagonalization with overlap
     ethr =  1.33E-03,  avg # of iterations =  1.7

     negative rho (up, down):  6.054E-03 0.000E+00
 
     Adding external electric field

     Computed dipole along edir(3) : 
        Dipole               -4.8859 Ry au,        -12.4187 Debye
        Dipole field         -0.0092 Ry au, 
 
        Potential amp.        0.8547 Ry
        Total length         46.3494 bohr
 

     total cpu time spent up to now is      530.9 secs

     total energy              =   -2966.75937411 Ry
     estimated scf accuracy    <     242.01867517 Ry

     iteration # 25     ecut=    29.40 Ry     beta= 0.05
     Davidson diagonalization with overlap
     ethr =  1.33E-03,  avg # of iterations =  2.1

     negative rho (up, down):  1.153E-02 0.000E+00
 
     Adding external electric field

     Computed dipole along edir(3) : 
        Dipole               -4.1668 Ry au,        -10.5910 Debye
        Dipole field         -0.0079 Ry au, 
 
        Potential amp.        0.7289 Ry
        Total length         46.3494 bohr
 

     total cpu time spent up to now is      544.0 secs

     total energy              =   -2964.56007514 Ry
     estimated scf accuracy    <     293.31855474 Ry

     iteration # 26     ecut=    29.40 Ry     beta= 0.05
     Davidson diagonalization with overlap
     ethr =  1.33E-03,  avg # of iterations =  2.1

     negative rho (up, down):  1.558E-02 0.000E+00
 
     Adding external electric field

     Computed dipole along edir(3) : 
        Dipole               -3.2895 Ry au,         -8.3612 Debye
        Dipole field         -0.0062 Ry au, 
 
        Potential amp.        0.5755 Ry
        Total length         46.3494 bohr
 

     total cpu time spent up to now is      557.1 secs

     total energy              =   -2963.82929399 Ry
     estimated scf accuracy    <      93.27666682 Ry

     iteration # 27     ecut=    29.40 Ry     beta= 0.05
     Davidson diagonalization with overlap
     ethr =  1.33E-03,  avg # of iterations =  4.0

     negative rho (up, down):  7.166E-03 0.000E+00
 
     Adding external electric field

     Computed dipole along edir(3) : 
        Dipole               -1.1896 Ry au,         -3.0236 Debye
        Dipole field         -0.0022 Ry au, 
 
        Potential amp.        0.2081 Ry
        Total length         46.3494 bohr
 

     total cpu time spent up to now is      571.2 secs

     total energy              =   -2963.61281162 Ry
     estimated scf accuracy    <       5.59498549 Ry

     iteration # 28     ecut=    29.40 Ry     beta= 0.05
     Davidson diagonalization with overlap
     ethr =  1.33E-03,  avg # of iterations =  8.6

     negative rho (up, down):  6.626E-03 0.000E+00
 
     Adding external electric field

     Computed dipole along edir(3) : 
        Dipole               -0.9990 Ry au,         -2.5393 Debye
        Dipole field         -0.0019 Ry au, 
 
        Potential amp.        0.1748 Ry
        Total length         46.3494 bohr
 

     total cpu time spent up to now is      587.3 secs

     total energy              =   -2963.88317554 Ry
     estimated scf accuracy    <       2.80505822 Ry

     iteration # 29     ecut=    29.40 Ry     beta= 0.05
     Davidson diagonalization with overlap
     ethr =  7.07E-04,  avg # of iterations =  4.2

     negative rho (up, down):  4.785E-03 0.000E+00
 
     Adding external electric field

     Computed dipole along edir(3) : 
        Dipole               -0.4453 Ry au,         -1.1319 Debye
        Dipole field         -0.0008 Ry au, 
 
        Potential amp.        0.0779 Ry
        Total length         46.3494 bohr
 

     total cpu time spent up to now is      601.1 secs

     total energy              =   -2963.76971529 Ry
     estimated scf accuracy    <       2.38268900 Ry

     iteration # 30     ecut=    29.40 Ry     beta= 0.05
     Davidson diagonalization with overlap
     c_bands:  2 eigenvalues not converged
     ethr =  6.00E-04,  avg # of iterations = 15.5

     negative rho (up, down):  5.384E-03 0.000E+00
 
     Adding external electric field

     Computed dipole along edir(3) : 
        Dipole               -0.6431 Ry au,         -1.6347 Debye
        Dipole field         -0.0012 Ry au, 
 
        Potential amp.        0.1125 Ry
        Total length         46.3494 bohr
 

     total cpu time spent up to now is      620.7 secs

     total energy              =   -2963.83342988 Ry
     estimated scf accuracy    <       1.32910196 Ry

     iteration # 31     ecut=    29.40 Ry     beta= 0.05
     Davidson diagonalization with overlap
     ethr =  3.35E-04,  avg # of iterations =  3.2

     negative rho (up, down):  7.629E-03 0.000E+00
 
     Adding external electric field

     Computed dipole along edir(3) : 
        Dipole               -0.7911 Ry au,         -2.0107 Debye
        Dipole field         -0.0015 Ry au, 
 
        Potential amp.        0.1384 Ry
        Total length         46.3494 bohr
 

     total cpu time spent up to now is      634.4 secs

     total energy              =   -2963.78044566 Ry
     estimated scf accuracy    <       1.49009088 Ry

     iteration # 32     ecut=    29.40 Ry     beta= 0.05
     Davidson diagonalization with overlap
     c_bands:  1 eigenvalues not converged
     ethr =  3.35E-04,  avg # of iterations =  8.1

     negative rho (up, down):  1.032E-02 0.000E+00
 
     Adding external electric field

     Computed dipole along edir(3) : 
        Dipole               -0.2229 Ry au,         -0.5666 Debye
        Dipole field         -0.0004 Ry au, 
 
        Potential amp.        0.0390 Ry
        Total length         46.3494 bohr
 

     total cpu time spent up to now is      650.1 secs

     total energy              =   -2963.72778053 Ry
     estimated scf accuracy    <       1.01247808 Ry

     iteration # 33     ecut=    29.40 Ry     beta= 0.05
     Davidson diagonalization with overlap
     c_bands:  3 eigenvalues not converged
     c_bands:  3 eigenvalues not converged
     c_bands:  1 eigenvalues not converged
     c_bands:  2 eigenvalues not converged
     c_bands:  1 eigenvalues not converged
     c_bands:  3 eigenvalues not converged
     c_bands:  1 eigenvalues not converged
     ethr =  2.55E-04,  avg # of iterations = 18.8

     negative rho (up, down):  9.241E-03 0.000E+00
 
     Adding external electric field

     Computed dipole along edir(3) : 
        Dipole               -0.3229 Ry au,         -0.8208 Debye
        Dipole field         -0.0006 Ry au, 
 
        Potential amp.        0.0565 Ry
        Total length         46.3494 bohr
 

     total cpu time spent up to now is      673.1 secs

     total energy              =   -2963.79720192 Ry
     estimated scf accuracy    <       0.40635145 Ry

     iteration # 34     ecut=    29.40 Ry     beta= 0.05
     Davidson diagonalization with overlap
     ethr =  1.02E-04,  avg # of iterations =  6.8

     negative rho (up, down):  9.313E-03 0.000E+00
 
     Adding external electric field

     Computed dipole along edir(3) : 
        Dipole               -0.2296 Ry au,         -0.5835 Debye
        Dipole field         -0.0004 Ry au, 
 
        Potential amp.        0.0402 Ry
        Total length         46.3494 bohr
 

     total cpu time spent up to now is      687.9 secs

     total energy              =   -2963.81458362 Ry
     estimated scf accuracy    <       0.30587897 Ry

     iteration # 35     ecut=    29.40 Ry     beta= 0.05
     Davidson diagonalization with overlap
     c_bands:  1 eigenvalues not converged
     ethr =  7.70E-05,  avg # of iterations =  3.2

     negative rho (up, down):  8.111E-03 0.000E+00
 
     Adding external electric field

     Computed dipole along edir(3) : 
        Dipole               -0.1752 Ry au,         -0.4452 Debye
        Dipole field         -0.0003 Ry au, 
 
        Potential amp.        0.0306 Ry
        Total length         46.3494 bohr
 

     total cpu time spent up to now is      701.3 secs

     total energy              =   -2963.75602793 Ry
     estimated scf accuracy    <       0.47313336 Ry

     iteration # 36     ecut=    29.40 Ry     beta= 0.05
     Davidson diagonalization with overlap
     c_bands:  1 eigenvalues not converged
     ethr =  7.70E-05,  avg # of iterations = 11.2

     negative rho (up, down):  7.514E-03 0.000E+00
 
     Adding external electric field

     Computed dipole along edir(3) : 
        Dipole                0.8142 Ry au,          2.0696 Debye
        Dipole field          0.0015 Ry au, 
 
        Potential amp.       -0.1424 Ry
        Total length         46.3494 bohr
 

     total cpu time spent up to now is      718.2 secs

     total energy              =   -2963.75263049 Ry
     estimated scf accuracy    <       0.38574609 Ry

     iteration # 37     ecut=    29.40 Ry     beta= 0.05
     Davidson diagonalization with overlap
     c_bands:  1 eigenvalues not converged
     c_bands:  3 eigenvalues not converged
     c_bands:  5 eigenvalues not converged
     c_bands:  3 eigenvalues not converged
     c_bands:  3 eigenvalues not converged
     c_bands:  5 eigenvalues not converged
     c_bands:  2 eigenvalues not converged
     c_bands:  1 eigenvalues not converged
     c_bands:  5 eigenvalues not converged
     ethr =  7.70E-05,  avg # of iterations = 19.8

     negative rho (up, down):  8.570E-03 0.000E+00
 
     Adding external electric field

     Computed dipole along edir(3) : 
        Dipole                0.5553 Ry au,          1.4114 Debye
        Dipole field          0.0010 Ry au, 
 
        Potential amp.       -0.0971 Ry
        Total length         46.3494 bohr
 

     total cpu time spent up to now is      744.4 secs

     total energy              =   -2963.82641322 Ry
     estimated scf accuracy    <       4.81314217 Ry

     iteration # 38     ecut=    29.40 Ry     beta= 0.05
     Davidson diagonalization with overlap
     ethr =  7.70E-05,  avg # of iterations =  1.7

     negative rho (up, down):  9.342E-03 0.000E+00
 
     Adding external electric field

     Computed dipole along edir(3) : 
        Dipole                0.4597 Ry au,          1.1684 Debye
        Dipole field          0.0009 Ry au, 
 
        Potential amp.       -0.0804 Ry
        Total length         46.3494 bohr
 

     total cpu time spent up to now is      757.4 secs

     total energy              =   -2963.83126365 Ry
     estimated scf accuracy    <       1.06722542 Ry

     iteration # 39     ecut=    29.40 Ry     beta= 0.05
     Davidson diagonalization with overlap
     ethr =  7.70E-05,  avg # of iterations =  2.9

     negative rho (up, down):  7.802E-03 0.000E+00
 
     Adding external electric field

     Computed dipole along edir(3) : 
        Dipole                0.6822 Ry au,          1.7340 Debye
        Dipole field          0.0013 Ry au, 
 
        Potential amp.       -0.1193 Ry
        Total length         46.3494 bohr
 

     total cpu time spent up to now is      771.1 secs

     total energy              =   -2963.80733057 Ry
     estimated scf accuracy    <       0.76513022 Ry

     iteration # 40     ecut=    29.40 Ry     beta= 0.05
     Davidson diagonalization with overlap
     c_bands:  2 eigenvalues not converged
     ethr =  7.70E-05,  avg # of iterations =  3.9

     negative rho (up, down):  7.150E-03 0.000E+00
 
     Adding external electric field

     Computed dipole along edir(3) : 
        Dipole                0.6066 Ry au,          1.5418 Debye
        Dipole field          0.0011 Ry au, 
 
        Potential amp.       -0.1061 Ry
        Total length         46.3494 bohr
 

     total cpu time spent up to now is      785.5 secs

     total energy              =   -2963.78946985 Ry
     estimated scf accuracy    <       0.68708025 Ry

     iteration # 41     ecut=    29.40 Ry     beta= 0.05
     Davidson diagonalization with overlap
     ethr =  7.70E-05,  avg # of iterations =  3.9

     negative rho (up, down):  6.783E-03 0.000E+00
 
     Adding external electric field

     Computed dipole along edir(3) : 
        Dipole                0.6062 Ry au,          1.5409 Debye
        Dipole field          0.0011 Ry au, 
 
        Potential amp.       -0.1061 Ry
        Total length         46.3494 bohr
 

     total cpu time spent up to now is      799.6 secs

     total energy              =   -2963.79754795 Ry
     estimated scf accuracy    <       0.47495921 Ry

     iteration # 42     ecut=    29.40 Ry     beta= 0.05
     Davidson diagonalization with overlap
     ethr =  7.70E-05,  avg # of iterations = 11.3

     negative rho (up, down):  6.402E-03 0.000E+00
 
     Adding external electric field

     Computed dipole along edir(3) : 
        Dipole                0.7435 Ry au,          1.8898 Debye
        Dipole field          0.0014 Ry au, 
 
        Potential amp.       -0.1301 Ry
        Total length         46.3494 bohr
 

     total cpu time spent up to now is      816.7 secs

     total energy              =   -2963.81360903 Ry
     estimated scf accuracy    <       0.44794660 Ry

     iteration # 43     ecut=    29.40 Ry     beta= 0.05
     Davidson diagonalization with overlap
     ethr =  7.70E-05,  avg # of iterations =  4.0

     negative rho (up, down):  6.512E-03 0.000E+00
 
     Adding external electric field

     Computed dipole along edir(3) : 
        Dipole                0.5075 Ry au,          1.2899 Debye
        Dipole field          0.0010 Ry au, 
 
        Potential amp.       -0.0888 Ry
        Total length         46.3494 bohr
 

     total cpu time spent up to now is      830.5 secs

     total energy              =   -2963.79093214 Ry
     estimated scf accuracy    <       0.46219643 Ry

     iteration # 44     ecut=    29.40 Ry     beta= 0.05
     Davidson diagonalization with overlap
     ethr =  7.70E-05,  avg # of iterations =  5.9

     negative rho (up, down):  6.506E-03 0.000E+00
 
     Adding external electric field

     Computed dipole along edir(3) : 
        Dipole                0.6639 Ry au,          1.6873 Debye
        Dipole field          0.0013 Ry au, 
 
        Potential amp.       -0.1161 Ry
        Total length         46.3494 bohr
 

     total cpu time spent up to now is      844.9 secs

     total energy              =   -2963.81011933 Ry
     estimated scf accuracy    <       0.30644283 Ry

     iteration # 45     ecut=    29.40 Ry     beta= 0.05
     Davidson diagonalization with overlap
     ethr =  7.70E-05,  avg # of iterations =  3.1

     negative rho (up, down):  6.555E-03 0.000E+00
 
     Adding external electric field

     Computed dipole along edir(3) : 
        Dipole               -0.1263 Ry au,         -0.3210 Debye
        Dipole field         -0.0002 Ry au, 
 
        Potential amp.        0.0221 Ry
        Total length         46.3494 bohr
 

     total cpu time spent up to now is      858.3 secs

     total energy              =   -2963.72722324 Ry
     estimated scf accuracy    <       0.42613283 Ry

     iteration # 46     ecut=    29.40 Ry     beta= 0.05
     Davidson diagonalization with overlap
     c_bands:  4 eigenvalues not converged
     c_bands:  4 eigenvalues not converged
     c_bands:  4 eigenvalues not converged
     c_bands:  3 eigenvalues not converged
     c_bands:  4 eigenvalues not converged
     c_bands:  1 eigenvalues not converged
     c_bands:  3 eigenvalues not converged
     ethr =  7.70E-05,  avg # of iterations = 22.2

     negative rho (up, down):  6.246E-03 0.000E+00
 
     Adding external electric field

     Computed dipole along edir(3) : 
        Dipole                0.5674 Ry au,          1.4421 Debye
        Dipole field          0.0011 Ry au, 
 
        Potential amp.       -0.0992 Ry
        Total length         46.3494 bohr
 

     total cpu time spent up to now is      886.8 secs

     total energy              =   -2963.76151843 Ry
     estimated scf accuracy    <       1.32276353 Ry

     iteration # 47     ecut=    29.40 Ry     beta= 0.05
     Davidson diagonalization with overlap
     c_bands:  4 eigenvalues not converged
     c_bands:  1 eigenvalues not converged
     c_bands:  4 eigenvalues not converged
     c_bands:  1 eigenvalues not converged
     c_bands:  5 eigenvalues not converged
     c_bands:  5 eigenvalues not converged
     c_bands:  3 eigenvalues not converged
     c_bands:  3 eigenvalues not converged
     c_bands:  3 eigenvalues not converged
     ethr =  7.70E-05,  avg # of iterations = 21.4

     negative rho (up, down):  6.277E-03 0.000E+00
 
     Adding external electric field

     Computed dipole along edir(3) : 
        Dipole                0.6889 Ry au,          1.7510 Debye
        Dipole field          0.0013 Ry au, 
 
        Potential amp.       -0.1205 Ry
        Total length         46.3494 bohr
 

     total cpu time spent up to now is      911.3 secs

     total energy              =   -2963.79383771 Ry
     estimated scf accuracy    <       0.10513427 Ry

     iteration # 48     ecut=    29.40 Ry     beta= 0.05
     Davidson diagonalization with overlap
     c_bands:  2 eigenvalues not converged
     c_bands:  2 eigenvalues not converged
     c_bands:  2 eigenvalues not converged
     c_bands:  2 eigenvalues not converged
     c_bands:  2 eigenvalues not converged
     c_bands:  1 eigenvalues not converged
     c_bands:  4 eigenvalues not converged
     ethr =  2.65E-05,  avg # of iterations = 18.7

     negative rho (up, down):  6.451E-03 0.000E+00
 
     Adding external electric field

     Computed dipole along edir(3) : 
        Dipole                0.5020 Ry au,          1.2760 Debye
        Dipole field          0.0009 Ry au, 
 
        Potential amp.       -0.0878 Ry
        Total length         46.3494 bohr
 

     total cpu time spent up to now is      932.8 secs

     total energy              =   -2963.78165819 Ry
     estimated scf accuracy    <       0.10181838 Ry

     iteration # 49     ecut=    29.40 Ry     beta= 0.05
     Davidson diagonalization with overlap
     c_bands:  2 eigenvalues not converged
     c_bands:  3 eigenvalues not converged
     c_bands:  1 eigenvalues not converged
     c_bands:  4 eigenvalues not converged
     c_bands:  1 eigenvalues not converged
     c_bands:  4 eigenvalues not converged
     ethr =  2.56E-05,  avg # of iterations = 18.7

     negative rho (up, down):  6.401E-03 0.000E+00
 
     Adding external electric field

     Computed dipole along edir(3) : 
        Dipole                0.5988 Ry au,          1.5221 Debye
        Dipole field          0.0011 Ry au, 
 
        Potential amp.       -0.1048 Ry
        Total length         46.3494 bohr
 

     total cpu time spent up to now is      954.6 secs

     total energy              =   -2963.78722865 Ry
     estimated scf accuracy    <       1.01605096 Ry

     iteration # 50     ecut=    29.40 Ry     beta= 0.05
     Davidson diagonalization with overlap
     c_bands:  2 eigenvalues not converged
     ethr =  2.56E-05,  avg # of iterations =  6.9

     negative rho (up, down):  6.249E-03 0.000E+00
 
     Adding external electric field

     Computed dipole along edir(3) : 
        Dipole                0.0781 Ry au,          0.1984 Debye
        Dipole field          0.0001 Ry au, 
 
        Potential amp.       -0.0137 Ry
        Total length         46.3494 bohr
 

     total cpu time spent up to now is      969.6 secs

     total energy              =   -2963.83063909 Ry
     estimated scf accuracy    <       0.31616522 Ry

     iteration # 51     ecut=    29.40 Ry     beta= 0.05
     Davidson diagonalization with overlap
     c_bands:  1 eigenvalues not converged
     c_bands:  1 eigenvalues not converged
     c_bands:  3 eigenvalues not converged
     c_bands:  1 eigenvalues not converged
     c_bands:  3 eigenvalues not converged
     c_bands:  3 eigenvalues not converged
     c_bands:  1 eigenvalues not converged
     ethr =  2.56E-05,  avg # of iterations = 19.6

     negative rho (up, down):  6.723E-03 0.000E+00
 
     Adding external electric field

     Computed dipole along edir(3) : 
        Dipole                0.4289 Ry au,          1.0901 Debye
        Dipole field          0.0008 Ry au, 
 
        Potential amp.       -0.0750 Ry
        Total length         46.3494 bohr
 

     total cpu time spent up to now is      993.4 secs

     total energy              =   -2963.80408020 Ry
     estimated scf accuracy    <       1.52960590 Ry

     iteration # 52     ecut=    29.40 Ry     beta= 0.05
     Davidson diagonalization with overlap
     c_bands:  1 eigenvalues not converged
     c_bands:  1 eigenvalues not converged
     c_bands:  2 eigenvalues not converged
     c_bands:  1 eigenvalues not converged
     c_bands:  3 eigenvalues not converged
     c_bands:  2 eigenvalues not converged
     c_bands:  2 eigenvalues not converged
     c_bands:  1 eigenvalues not converged
     ethr =  2.56E-05,  avg # of iterations = 17.9

     negative rho (up, down):  6.658E-03 0.000E+00
 
     Adding external electric field

     Computed dipole along edir(3) : 
        Dipole                0.1328 Ry au,          0.3376 Debye
        Dipole field          0.0003 Ry au, 
 
        Potential amp.       -0.0232 Ry
        Total length         46.3494 bohr
 

     total cpu time spent up to now is     1013.1 secs

     total energy              =   -2963.85146974 Ry
     estimated scf accuracy    <       1.08786639 Ry

     iteration # 53     ecut=    29.40 Ry     beta= 0.05
     Davidson diagonalization with overlap
     c_bands:  1 eigenvalues not converged
     c_bands:  1 eigenvalues not converged
     ethr =  2.56E-05,  avg # of iterations = 16.1

     negative rho (up, down):  6.972E-03 0.000E+00
 
     Adding external electric field

     Computed dipole along edir(3) : 
        Dipole                0.7343 Ry au,          1.8664 Debye
        Dipole field          0.0014 Ry au, 
 
        Potential amp.       -0.1285 Ry
        Total length         46.3494 bohr
 

     total cpu time spent up to now is     1031.9 secs

     total energy              =   -2963.74432249 Ry
     estimated scf accuracy    <       1.40178216 Ry

     iteration # 54     ecut=    29.40 Ry     beta= 0.05
     Davidson diagonalization with overlap
     c_bands:  1 eigenvalues not converged
     c_bands:  4 eigenvalues not converged
     c_bands:  3 eigenvalues not converged
     c_bands:  3 eigenvalues not converged
     c_bands:  4 eigenvalues not converged
     c_bands:  2 eigenvalues not converged
     c_bands:  5 eigenvalues not converged
     c_bands:  1 eigenvalues not converged
     c_bands:  5 eigenvalues not converged
     ethr =  2.56E-05,  avg # of iterations = 25.4

     negative rho (up, down):  7.220E-03 0.000E+00
 
     Adding external electric field

     Computed dipole along edir(3) : 
        Dipole                0.8128 Ry au,          2.0660 Debye
        Dipole field          0.0015 Ry au, 
 
        Potential amp.       -0.1422 Ry
        Total length         46.3494 bohr
 

     total cpu time spent up to now is     1064.7 secs

     total energy              =   -2963.78009440 Ry
     estimated scf accuracy    <       0.08612741 Ry

     iteration # 55     ecut=    29.40 Ry     beta= 0.05
     Davidson diagonalization with overlap
     c_bands:  1 eigenvalues not converged
     c_bands:  1 eigenvalues not converged
     ethr =  2.17E-05,  avg # of iterations = 14.5

     negative rho (up, down):  8.689E-03 0.000E+00
 
     Adding external electric field

     Computed dipole along edir(3) : 
        Dipole                0.9608 Ry au,          2.4422 Debye
        Dipole field          0.0018 Ry au, 
 
        Potential amp.       -0.1681 Ry
        Total length         46.3494 bohr
 

     total cpu time spent up to now is     1082.8 secs

     total energy              =   -2963.78344475 Ry
     estimated scf accuracy    <       0.02180534 Ry

     iteration # 56     ecut=    29.40 Ry     beta= 0.05
     Davidson diagonalization with overlap
     c_bands:  1 eigenvalues not converged
     c_bands:  2 eigenvalues not converged
     c_bands:  1 eigenvalues not converged
     c_bands:  3 eigenvalues not converged
     c_bands:  1 eigenvalues not converged
     c_bands:  4 eigenvalues not converged
     c_bands:  1 eigenvalues not converged
     c_bands:  1 eigenvalues not converged
     ethr =  5.49E-06,  avg # of iterations = 19.5

     negative rho (up, down):  1.017E-02 0.000E+00
 
     Adding external electric field

     Computed dipole along edir(3) : 
        Dipole                1.0634 Ry au,          2.7029 Debye
        Dipole field          0.0020 Ry au, 
 
        Potential amp.       -0.1860 Ry
        Total length         46.3494 bohr
 

     total cpu time spent up to now is     1110.1 secs

     total energy              =   -2963.79019722 Ry
     estimated scf accuracy    <       0.13933380 Ry

     iteration # 57     ecut=    29.40 Ry     beta= 0.05
     Davidson diagonalization with overlap
     c_bands:  2 eigenvalues not converged
     c_bands:  1 eigenvalues not converged
     c_bands:  4 eigenvalues not converged
     c_bands:  1 eigenvalues not converged
     c_bands:  2 eigenvalues not converged
     c_bands:  2 eigenvalues not converged
     c_bands:  1 eigenvalues not converged
     c_bands:  2 eigenvalues not converged
     c_bands:  1 eigenvalues not converged
     c_bands:  2 eigenvalues not converged
     ethr =  5.49E-06,  avg # of iterations = 22.0

     negative rho (up, down):  1.071E-02 0.000E+00
 
     Adding external electric field

     Computed dipole along edir(3) : 
        Dipole                1.0874 Ry au,          2.7638 Debye
        Dipole field          0.0021 Ry au, 
 
        Potential amp.       -0.1902 Ry
        Total length         46.3494 bohr
 

     total cpu time spent up to now is     1134.9 secs

     total energy              =   -2963.79465047 Ry
     estimated scf accuracy    <       0.24397454 Ry

     iteration # 58     ecut=    29.40 Ry     beta= 0.05
     Davidson diagonalization with overlap
     c_bands:  1 eigenvalues not converged
     c_bands:  1 eigenvalues not converged
     c_bands:  1 eigenvalues not converged
     ethr =  5.49E-06,  avg # of iterations = 11.4

     negative rho (up, down):  1.132E-02 0.000E+00
 
     Adding external electric field

     Computed dipole along edir(3) : 
        Dipole                1.1743 Ry au,          2.9846 Debye
        Dipole field          0.0022 Ry au, 
 
        Potential amp.       -0.2054 Ry
        Total length         46.3494 bohr
 

     total cpu time spent up to now is     1151.3 secs

     total energy              =   -2963.80452354 Ry
     estimated scf accuracy    <       0.26144211 Ry

     iteration # 59     ecut=    29.40 Ry     beta= 0.05
     Davidson diagonalization with overlap
     c_bands:  2 eigenvalues not converged
     c_bands:  4 eigenvalues not converged
     c_bands:  2 eigenvalues not converged
     c_bands:  1 eigenvalues not converged
     c_bands:  3 eigenvalues not converged
     c_bands:  4 eigenvalues not converged
     c_bands:  3 eigenvalues not converged
     c_bands:  2 eigenvalues not converged
     c_bands:  2 eigenvalues not converged
     ethr =  5.49E-06,  avg # of iterations = 19.3

     negative rho (up, down):  1.066E-02 0.000E+00
 
     Adding external electric field

     Computed dipole along edir(3) : 
        Dipole                1.0438 Ry au,          2.6531 Debye
        Dipole field          0.0020 Ry au, 
 
        Potential amp.       -0.1826 Ry
        Total length         46.3494 bohr
 

     total cpu time spent up to now is     1174.0 secs

     total energy              =   -2963.79597596 Ry
     estimated scf accuracy    <       0.33432975 Ry

     iteration # 60     ecut=    29.40 Ry     beta= 0.05
     Davidson diagonalization with overlap
     c_bands:  2 eigenvalues not converged
     c_bands:  1 eigenvalues not converged
     c_bands:  1 eigenvalues not converged
     c_bands:  1 eigenvalues not converged
     c_bands:  2 eigenvalues not converged
     c_bands:  3 eigenvalues not converged
     c_bands:  1 eigenvalues not converged
     c_bands:  2 eigenvalues not converged
     ethr =  5.49E-06,  avg # of iterations = 18.7

     negative rho (up, down):  9.862E-03 0.000E+00
 
     Adding external electric field

     Computed dipole along edir(3) : 
        Dipole                0.9511 Ry au,          2.4174 Debye
        Dipole field          0.0018 Ry au, 
 
        Potential amp.       -0.1664 Ry
        Total length         46.3494 bohr
 

     total cpu time spent up to now is     1194.5 secs

     total energy              =   -2963.79030405 Ry
     estimated scf accuracy    <       0.27685650 Ry

     iteration # 61     ecut=    29.40 Ry     beta= 0.05
     Davidson diagonalization with overlap
     c_bands:  2 eigenvalues not converged
     c_bands:  2 eigenvalues not converged
     c_bands:  1 eigenvalues not converged
     c_bands:  1 eigenvalues not converged
     c_bands:  1 eigenvalues not converged
     c_bands:  1 eigenvalues not converged
     c_bands:  2 eigenvalues not converged
     ethr =  5.49E-06,  avg # of iterations = 15.8

     negative rho (up, down):  9.484E-03 0.000E+00
 
     Adding external electric field

     Computed dipole along edir(3) : 
        Dipole                0.7427 Ry au,          1.8877 Debye
        Dipole field          0.0014 Ry au, 
 
        Potential amp.       -0.1299 Ry
        Total length         46.3494 bohr
 

     total cpu time spent up to now is     1214.3 secs

     total energy              =   -2963.76876181 Ry
     estimated scf accuracy    <       0.22120818 Ry

     iteration # 62     ecut=    29.40 Ry     beta= 0.05
     Davidson diagonalization with overlap
     c_bands:  4 eigenvalues not converged
     c_bands:  5 eigenvalues not converged
     c_bands:  3 eigenvalues not converged
     c_bands:  1 eigenvalues not converged
     c_bands:  5 eigenvalues not converged
     c_bands:  2 eigenvalues not converged
     c_bands:  4 eigenvalues not converged
     c_bands:  4 eigenvalues not converged
     ethr =  5.49E-06,  avg # of iterations = 26.8

     negative rho (up, down):  1.019E-02 0.000E+00
 
     Adding external electric field

     Computed dipole along edir(3) : 
        Dipole                1.0214 Ry au,          2.5960 Debye
        Dipole field          0.0019 Ry au, 
 
        Potential amp.       -0.1787 Ry
        Total length         46.3494 bohr
 

     total cpu time spent up to now is     1249.2 secs

     total energy              =   -2963.75475651 Ry
     estimated scf accuracy    <       0.68184488 Ry

     iteration # 63     ecut=    29.40 Ry     beta= 0.05
     Davidson diagonalization with overlap
     c_bands:  3 eigenvalues not converged
     c_bands:  2 eigenvalues not converged
     c_bands:  1 eigenvalues not converged
     c_bands:  1 eigenvalues not converged
     c_bands:  4 eigenvalues not converged
     c_bands:  5 eigenvalues not converged
     c_bands:  1 eigenvalues not converged
     ethr =  5.49E-06,  avg # of iterations = 32.7

     negative rho (up, down):  1.034E-02 0.000E+00
 
     Adding external electric field

     Computed dipole along edir(3) : 
        Dipole                1.0081 Ry au,          2.5623 Debye
        Dipole field          0.0019 Ry au, 
 
        Potential amp.       -0.1763 Ry
        Total length         46.3494 bohr
 

     total cpu time spent up to now is     1289.1 secs

     total energy              =   -2963.78920829 Ry
     estimated scf accuracy    <       0.24165631 Ry

     iteration # 64     ecut=    29.40 Ry     beta= 0.05
     Davidson diagonalization with overlap
     ethr =  5.49E-06,  avg # of iterations =  2.7

     negative rho (up, down):  1.224E-02 0.000E+00
 
     Adding external electric field

     Computed dipole along edir(3) : 
        Dipole                0.8709 Ry au,          2.2136 Debye
        Dipole field          0.0016 Ry au, 
 
        Potential amp.       -0.1524 Ry
        Total length         46.3494 bohr
 

     total cpu time spent up to now is     1302.3 secs

     total energy              =   -2963.77860745 Ry
     estimated scf accuracy    <       0.21122356 Ry

     iteration # 65     ecut=    29.40 Ry     beta= 0.05
     Davidson diagonalization with overlap
     c_bands:  1 eigenvalues not converged
     c_bands:  3 eigenvalues not converged
     c_bands:  5 eigenvalues not converged
     c_bands:  4 eigenvalues not converged
     c_bands:  3 eigenvalues not converged
     c_bands:  3 eigenvalues not converged
     ethr =  5.49E-06,  avg # of iterations = 22.0

     negative rho (up, down):  1.205E-02 0.000E+00
 
     Adding external electric field

     Computed dipole along edir(3) : 
        Dipole                0.9305 Ry au,          2.3652 Debye
        Dipole field          0.0018 Ry au, 
 
        Potential amp.       -0.1628 Ry
        Total length         46.3494 bohr
 

     total cpu time spent up to now is     1330.3 secs

     total energy              =   -2963.78162170 Ry
     estimated scf accuracy    <       0.05420221 Ry

     iteration # 66     ecut=    29.40 Ry     beta= 0.05
     Davidson diagonalization with overlap
     c_bands:  1 eigenvalues not converged
     c_bands:  2 eigenvalues not converged
     c_bands:  2 eigenvalues not converged
     c_bands:  1 eigenvalues not converged
     c_bands:  4 eigenvalues not converged
     c_bands:  2 eigenvalues not converged
     c_bands:  1 eigenvalues not converged
     ethr =  5.49E-06,  avg # of iterations = 18.5

     negative rho (up, down):  1.274E-02 0.000E+00
 
     Adding external electric field

     Computed dipole along edir(3) : 
        Dipole                0.9240 Ry au,          2.3487 Debye
        Dipole field          0.0017 Ry au, 
 
        Potential amp.       -0.1616 Ry
        Total length         46.3494 bohr
 

     total cpu time spent up to now is     1351.0 secs

     total energy              =   -2963.78496585 Ry
     estimated scf accuracy    <       0.06273531 Ry

     iteration # 67     ecut=    29.40 Ry     beta= 0.05
     Davidson diagonalization with overlap
     ethr =  5.49E-06,  avg # of iterations =  3.5

     negative rho (up, down):  1.396E-02 0.000E+00
 
     Adding external electric field

     Computed dipole along edir(3) : 
        Dipole                0.9309 Ry au,          2.3661 Debye
        Dipole field          0.0018 Ry au, 
 
        Potential amp.       -0.1628 Ry
        Total length         46.3494 bohr
 

     total cpu time spent up to now is     1364.5 secs

     total energy              =   -2963.78475892 Ry
     estimated scf accuracy    <       0.03526508 Ry

     iteration # 68     ecut=    29.40 Ry     beta= 0.05
     Davidson diagonalization with overlap
     ethr =  5.49E-06,  avg # of iterations =  3.0

     negative rho (up, down):  1.488E-02 0.000E+00
 
     Adding external electric field

     Computed dipole along edir(3) : 
        Dipole                0.9225 Ry au,          2.3448 Debye
        Dipole field          0.0017 Ry au, 
 
        Potential amp.       -0.1614 Ry
        Total length         46.3494 bohr
 

     total cpu time spent up to now is     1377.8 secs

     total energy              =   -2963.78452008 Ry
     estimated scf accuracy    <       0.01846937 Ry

     iteration # 69     ecut=    29.40 Ry     beta= 0.05
     Davidson diagonalization with overlap
     ethr =  4.65E-06,  avg # of iterations =  4.9

     negative rho (up, down):  1.540E-02 0.000E+00
 
     Adding external electric field

     Computed dipole along edir(3) : 
        Dipole                0.9333 Ry au,          2.3722 Debye
        Dipole field          0.0018 Ry au, 
 
        Potential amp.       -0.1633 Ry
        Total length         46.3494 bohr
 

     total cpu time spent up to now is     1392.0 secs

     total energy              =   -2963.78477840 Ry
     estimated scf accuracy    <       0.00062307 Ry

     iteration # 70     ecut=    29.40 Ry     beta= 0.05
     Davidson diagonalization with overlap
     c_bands:  1 eigenvalues not converged
     c_bands:  1 eigenvalues not converged
     ethr =  1.57E-07,  avg # of iterations = 13.7

     negative rho (up, down):  1.604E-02 0.000E+00
 
     Adding external electric field

     Computed dipole along edir(3) : 
        Dipole                0.9187 Ry au,          2.3351 Debye
        Dipole field          0.0017 Ry au, 
 
        Potential amp.       -0.1607 Ry
        Total length         46.3494 bohr
 

     total cpu time spent up to now is     1410.8 secs

     total energy              =   -2963.78465021 Ry
     estimated scf accuracy    <       0.00885111 Ry

     iteration # 71     ecut=    29.40 Ry     beta= 0.05
     Davidson diagonalization with overlap
     c_bands:  2 eigenvalues not converged
     c_bands:  1 eigenvalues not converged
     c_bands:  2 eigenvalues not converged
     c_bands:  1 eigenvalues not converged
     ethr =  1.57E-07,  avg # of iterations = 15.4

     negative rho (up, down):  1.647E-02 0.000E+00
 
     Adding external electric field

     Computed dipole along edir(3) : 
        Dipole                0.9007 Ry au,          2.2892 Debye
        Dipole field          0.0017 Ry au, 
 
        Potential amp.       -0.1576 Ry
        Total length         46.3494 bohr
 

     total cpu time spent up to now is     1429.5 secs

     total energy              =   -2963.78476197 Ry
     estimated scf accuracy    <       0.00030713 Ry

     iteration # 72     ecut=    29.40 Ry     beta= 0.05
     Davidson diagonalization with overlap
     c_bands:  1 eigenvalues not converged
     c_bands:  1 eigenvalues not converged
     ethr =  7.74E-08,  avg # of iterations = 15.0

     negative rho (up, down):  1.665E-02 0.000E+00
 
     Adding external electric field

     Computed dipole along edir(3) : 
        Dipole                0.8969 Ry au,          2.2797 Debye
        Dipole field          0.0017 Ry au, 
 
        Potential amp.       -0.1569 Ry
        Total length         46.3494 bohr
 

     total cpu time spent up to now is     1456.2 secs

     total energy              =   -2963.78468158 Ry
     estimated scf accuracy    <       0.00154180 Ry

     iteration # 73     ecut=    29.40 Ry     beta= 0.05
     Davidson diagonalization with overlap
     ethr =  7.74E-08,  avg # of iterations = 10.6

     negative rho (up, down):  1.707E-02 0.000E+00
 
     Adding external electric field

     Computed dipole along edir(3) : 
        Dipole                0.8912 Ry au,          2.2653 Debye
        Dipole field          0.0017 Ry au, 
 
        Potential amp.       -0.1559 Ry
        Total length         46.3494 bohr
 

     total cpu time spent up to now is     1477.3 secs

     total energy              =   -2963.78475859 Ry
     estimated scf accuracy    <       0.00037394 Ry

     iteration # 74     ecut=    29.40 Ry     beta= 0.05
     Davidson diagonalization with overlap
     ethr =  7.74E-08,  avg # of iterations =  4.3

     negative rho (up, down):  1.685E-02 0.000E+00
 
     Adding external electric field

     Computed dipole along edir(3) : 
        Dipole                0.8901 Ry au,          2.2623 Debye
        Dipole field          0.0017 Ry au, 
 
        Potential amp.       -0.1557 Ry
        Total length         46.3494 bohr
 

     total cpu time spent up to now is     1491.4 secs

     total energy              =   -2963.78477147 Ry
     estimated scf accuracy    <       0.00022537 Ry

     iteration # 75     ecut=    29.40 Ry     beta= 0.05
     Davidson diagonalization with overlap
     ethr =  5.68E-08,  avg # of iterations =  5.7

     negative rho (up, down):  1.681E-02 0.000E+00
 
     Adding external electric field

     Computed dipole along edir(3) : 
        Dipole                0.8852 Ry au,          2.2501 Debye
        Dipole field          0.0017 Ry au, 
 
        Potential amp.       -0.1549 Ry
        Total length         46.3494 bohr
 

     total cpu time spent up to now is     1506.4 secs

     total energy              =   -2963.78478448 Ry
     estimated scf accuracy    <       0.00013880 Ry

     iteration # 76     ecut=    29.40 Ry     beta= 0.05
     Davidson diagonalization with overlap
     ethr =  3.50E-08,  avg # of iterations =  2.8

     negative rho (up, down):  1.691E-02 0.000E+00
 
     Adding external electric field

     Computed dipole along edir(3) : 
        Dipole                0.8855 Ry au,          2.2508 Debye
        Dipole field          0.0017 Ry au, 
 
        Potential amp.       -0.1549 Ry
        Total length         46.3494 bohr
 

     total cpu time spent up to now is     1519.6 secs

     total energy              =   -2963.78478851 Ry
     estimated scf accuracy    <       0.00001137 Ry

     iteration # 77     ecut=    29.40 Ry     beta= 0.05
     Davidson diagonalization with overlap
     ethr =  2.86E-09,  avg # of iterations = 11.8

     negative rho (up, down):  1.695E-02 0.000E+00
 
     Adding external electric field

     Computed dipole along edir(3) : 
        Dipole                0.8860 Ry au,          2.2520 Debye
        Dipole field          0.0017 Ry au, 
 
        Potential amp.       -0.1550 Ry
        Total length         46.3494 bohr
 

     total cpu time spent up to now is     1543.8 secs

     total energy              =   -2963.78479270 Ry
     estimated scf accuracy    <       0.00000688 Ry

     iteration # 78     ecut=    29.40 Ry     beta= 0.05
     Davidson diagonalization with overlap
     ethr =  1.73E-09,  avg # of iterations =  6.7

     negative rho (up, down):  1.696E-02 0.000E+00
 
     Adding external electric field

     Computed dipole along edir(3) : 
        Dipole                0.8852 Ry au,          2.2501 Debye
        Dipole field          0.0017 Ry au, 
 
        Potential amp.       -0.1549 Ry
        Total length         46.3494 bohr
 

     total cpu time spent up to now is     1558.7 secs

     total energy              =   -2963.78479381 Ry
     estimated scf accuracy    <       0.00000428 Ry

     iteration # 79     ecut=    29.40 Ry     beta= 0.05
     Davidson diagonalization with overlap
     ethr =  1.08E-09,  avg # of iterations =  7.7

     negative rho (up, down):  1.704E-02 0.000E+00
 
     Adding external electric field

     Computed dipole along edir(3) : 
        Dipole                0.8838 Ry au,          2.2464 Debye
        Dipole field          0.0017 Ry au, 
 
        Potential amp.       -0.1546 Ry
        Total length         46.3494 bohr
 

     total cpu time spent up to now is     1574.3 secs

     total energy              =   -2963.78479499 Ry
     estimated scf accuracy    <       0.00000245 Ry

     iteration # 80     ecut=    29.40 Ry     beta= 0.05
     Davidson diagonalization with overlap
     ethr =  6.18E-10,  avg # of iterations =  8.0

     negative rho (up, down):  1.708E-02 0.000E+00
 
     Adding external electric field

     Computed dipole along edir(3) : 
        Dipole                0.8840 Ry au,          2.2469 Debye
        Dipole field          0.0017 Ry au, 
 
        Potential amp.       -0.1546 Ry
        Total length         46.3494 bohr
 

     total cpu time spent up to now is     1594.2 secs

     total energy              =   -2963.78479637 Ry
     estimated scf accuracy    <       0.00000200 Ry

     iteration # 81     ecut=    29.40 Ry     beta= 0.05
     Davidson diagonalization with overlap
     ethr =  5.03E-10,  avg # of iterations =  5.0

     negative rho (up, down):  1.710E-02 0.000E+00
 
     Adding external electric field

     Computed dipole along edir(3) : 
        Dipole                0.8842 Ry au,          2.2473 Debye
        Dipole field          0.0017 Ry au, 
 
        Potential amp.       -0.1547 Ry
        Total length         46.3494 bohr
 

     total cpu time spent up to now is     1608.8 secs

     total energy              =   -2963.78479722 Ry
     estimated scf accuracy    <       0.00000088 Ry

     iteration # 82     ecut=    29.40 Ry     beta= 0.05
     Davidson diagonalization with overlap
     ethr =  2.21E-10,  avg # of iterations =  7.8

     negative rho (up, down):  1.710E-02 0.000E+00
 
     Adding external electric field

     Computed dipole along edir(3) : 
        Dipole                0.8834 Ry au,          2.2455 Debye
        Dipole field          0.0017 Ry au, 
 
        Potential amp.       -0.1545 Ry
        Total length         46.3494 bohr
 

     total cpu time spent up to now is     1625.5 secs

     total energy              =   -2963.78479796 Ry
     estimated scf accuracy    <       0.00000063 Ry

     iteration # 83     ecut=    29.40 Ry     beta= 0.05
     Davidson diagonalization with overlap
     ethr =  1.59E-10,  avg # of iterations =  7.3

     negative rho (up, down):  1.712E-02 0.000E+00
 
     Adding external electric field

     Computed dipole along edir(3) : 
        Dipole                0.8833 Ry au,          2.2452 Debye
        Dipole field          0.0017 Ry au, 
 
        Potential amp.       -0.1545 Ry
        Total length         46.3494 bohr
 

     total cpu time spent up to now is     1642.0 secs

     total energy              =   -2963.78479867 Ry
     estimated scf accuracy    <       0.00000056 Ry

     iteration # 84     ecut=    29.40 Ry     beta= 0.05
     Davidson diagonalization with overlap
     ethr =  1.42E-10,  avg # of iterations =  8.0

     negative rho (up, down):  1.713E-02 0.000E+00
 
     Adding external electric field

     Computed dipole along edir(3) : 
        Dipole                0.8831 Ry au,          2.2445 Debye
        Dipole field          0.0017 Ry au, 
 
        Potential amp.       -0.1545 Ry
        Total length         46.3494 bohr
 

     total cpu time spent up to now is     1659.9 secs

     total energy              =   -2963.78479934 Ry
     estimated scf accuracy    <       0.00000019 Ry

     iteration # 85     ecut=    29.40 Ry     beta= 0.05
     Davidson diagonalization with overlap
     ethr =  4.86E-11,  avg # of iterations =  5.7

     negative rho (up, down):  1.714E-02 0.000E+00
 
     Adding external electric field

     Computed dipole along edir(3) : 
        Dipole                0.8827 Ry au,          2.2436 Debye
        Dipole field          0.0017 Ry au, 
 
        Potential amp.       -0.1544 Ry
        Total length         46.3494 bohr
 

     total cpu time spent up to now is     1674.7 secs

     total energy              =   -2963.78479987 Ry
     estimated scf accuracy    <       0.00000012 Ry

     iteration # 86     ecut=    29.40 Ry     beta= 0.05
     Davidson diagonalization with overlap
     c_bands:  1 eigenvalues not converged
     ethr =  2.95E-11,  avg # of iterations = 13.3

     negative rho (up, down):  1.714E-02 0.000E+00
 
     Adding external electric field

     Computed dipole along edir(3) : 
        Dipole                0.8829 Ry au,          2.2441 Debye
        Dipole field          0.0017 Ry au, 
 
        Potential amp.       -0.1544 Ry
        Total length         46.3494 bohr
 

     total cpu time spent up to now is     1698.7 secs

     total energy              =   -2963.78480036 Ry
     estimated scf accuracy    <       0.00000027 Ry

     iteration # 87     ecut=    29.40 Ry     beta= 0.05
     Davidson diagonalization with overlap
     ethr =  2.95E-11,  avg # of iterations =  9.4

     negative rho (up, down):  1.717E-02 0.000E+00
 
     Adding external electric field

     Computed dipole along edir(3) : 
        Dipole                0.8814 Ry au,          2.2402 Debye
        Dipole field          0.0017 Ry au, 
 
        Potential amp.       -0.1542 Ry
        Total length         46.3494 bohr
 

     total cpu time spent up to now is     1720.5 secs

     End of self-consistent calculation

          k = 0.0000 0.0000 0.0000 ( 18029 PWs)   bands (ev):

   -55.9307 -55.8895 -55.7876 -55.7100 -55.6760 -55.6694 -55.6590 -55.6041
   -55.5676 -55.5462 -55.5245 -55.4882 -55.4678 -55.3759 -54.7754 -54.7414
   -32.3829 -32.2508 -32.2245 -32.1884 -32.1871 -32.1377 -32.1263 -32.0893
   -32.0700 -32.0169 -32.0143 -32.0060 -32.0019 -31.9947 -31.9761 -31.9588
   -31.9429 -31.9314 -31.8892 -31.8857 -31.8722 -31.8559 -31.8525 -31.8400
   -31.8116 -31.8085 -31.7797 -31.7731 -31.7709 -31.7611 -31.7495 -31.7436
   -31.7373 -31.7264 -31.7027 -31.6900 -31.6845 -31.6598 -31.6404 -31.6229
   -31.5820 -31.5808 -31.1777 -31.1020 -31.0787 -30.9947 -30.9088 -30.7975
   -20.2093 -16.5923 -16.4280 -16.2556 -16.0652 -15.9700 -15.9084 -15.6939
   -15.6396 -15.5417 -15.4198 -15.3849 -15.3415 -15.3140 -15.2962 -15.2829
   -15.2651 -15.2461 -15.2132 -15.1919 -15.1862 -15.1423 -15.0737 -15.0276
   -15.0201 -14.9794 -14.9206 -14.8787 -14.8422 -14.8015 -14.6245 -13.2761
   -13.1623  -9.4702  -5.7829  -5.7268  -4.1651  -3.7962  -3.7696  -3.7388
    -3.6530  -3.6156  -3.5103  -3.3459  -3.1643  -3.0363  -2.9472  -2.9286
    -2.8900  -2.7772  -2.7263  -2.6947  -2.6510  -2.6219  -2.6033  -2.5619
    -2.5393  -2.4986  -2.4656  -2.4373  -2.3462  -2.3390  -2.2791  -2.2182
    -2.1855  -2.1762  -2.1712  -2.1476  -2.1124  -2.0580  -2.0226  -1.9879
    -1.9506  -1.8329  -1.8151  -1.7991  -1.7274  -1.4857  -1.3550  -1.3151
    -1.2609  -1.2189  -1.1959  -1.1710  -1.1652  -1.1464  -1.1137  -1.0642
    -0.9613  -0.9025  -0.8327  -0.8274  -0.8101  -0.7483  -0.6676  -0.5971
    -0.5617  -0.5282  -0.5048  -0.4296  -0.4291  -0.3546  -0.3243  -0.2529
    -0.1388  -0.0903  -0.0668  -0.0483  -0.0357   0.0180   0.0645   0.1317
     0.1519   0.1680   0.1965   0.2761   0.2853   0.3083   0.3265   0.4234
     0.4872   0.4955   0.5645   0.6555   0.6882   0.7718   0.9000   0.9755
     1.2222   1.2467   1.3319   1.4623   1.8082   1.8522   3.2848   3.3556
     3.3928   3.4937   3.5763   3.5959   3.6742   3.7340   3.8213   3.8649

          k = 0.0000 0.0419 0.0000 ( 17933 PWs)   bands (ev):

   -55.9268 -55.8933 -55.7871 -55.7053 -55.6806 -55.6682 -55.6561 -55.6069
   -55.5679 -55.5473 -55.5199 -55.4926 -55.4662 -55.3774 -54.7703 -54.7463
   -32.3293 -32.2208 -32.2106 -32.1821 -32.1356 -32.0955 -32.0937 -32.0760
   -32.0652 -32.0622 -32.0080 -32.0013 -31.9859 -31.9655 -31.9633 -31.9443
   -31.9266 -31.9216 -31.8978 -31.8826 -31.8728 -31.8712 -31.8618 -31.8523
   -31.8484 -31.8200 -31.8033 -31.7966 -31.7817 -31.7813 -31.7652 -31.7627
   -31.7455 -31.7265 -31.7080 -31.6961 -31.6914 -31.6840 -31.6588 -31.6458
[...]
    -1.0794  -1.0076  -0.9754  -0.9097  -0.8739  -0.8525  -0.7381  -0.6701
    -0.5482  -0.5396  -0.4612  -0.4113  -0.4005  -0.3687  -0.2909  -0.2459
    -0.2009  -0.1438  -0.1092  -0.0733  -0.0621  -0.0274  -0.0029   0.0134
     0.0453   0.0799   0.1322   0.1582   0.1916   0.2785   0.3016   0.4202
     0.4636   0.4794   0.4979   0.5567   0.6028   0.6338   0.8642   0.9224
     1.1879   1.2450   1.2585   1.4330   1.6983   1.7688   3.3023   3.3684
     3.4030   3.6021   3.6955   3.7332   3.7417   3.7505   3.7949   3.8293

          k = 0.0380 0.0419 0.0000 ( 17878 PWs)   bands (ev):

   -55.9267 -55.8933 -55.7870 -55.7052 -55.6806 -55.6681 -55.6561 -55.6069
   -55.5679 -55.5472 -55.5199 -55.4926 -55.4661 -55.3773 -54.7702 -54.7462
   -32.3300 -32.2206 -32.2109 -32.1821 -32.1374 -32.0961 -32.0957 -32.0740
   -32.0622 -32.0609 -32.0076 -32.0007 -31.9864 -31.9706 -31.9654 -31.9387
   -31.9264 -31.9234 -31.8980 -31.8727 -31.8690 -31.8672 -31.8623 -31.8502
   -31.8491 -31.8195 -31.8034 -31.7917 -31.7817 -31.7717 -31.7643 -31.7626
   -31.7531 -31.7267 -31.7215 -31.6946 -31.6916 -31.6876 -31.6620 -31.6456
   -31.6120 -31.5820 -31.1234 -31.1007 -31.0809 -30.9820 -30.9215 -30.8543
   -20.2063 -16.5716 -16.2280 -16.0614 -15.9226 -15.8657 -15.7524 -15.6624
   -15.6177 -15.5432 -15.5151 -15.4629 -15.4392 -15.4222 -15.3733 -15.2851
   -15.2742 -15.2476 -15.2323 -15.1810 -15.1747 -15.1288 -15.0982 -15.0808
   -15.0420 -14.9947 -14.9600 -14.9429 -14.9377 -14.9226 -14.6808 -13.2793
   -13.2027  -9.4708  -5.7754  -5.7166  -4.1477  -3.8149  -3.4534  -3.3542
    -3.2970  -3.2353  -3.2093  -3.1389  -2.9976  -2.9675  -2.9140  -2.8925
    -2.8355  -2.7844  -2.7589  -2.6997  -2.6678  -2.6287  -2.6141  -2.5628
    -2.5360  -2.5219  -2.4909  -2.4535  -2.4397  -2.4229  -2.3940  -2.3259
    -2.2534  -2.2415  -2.2127  -2.1604  -2.1279  -2.0248  -1.9670  -1.8969
    -1.8738  -1.8123  -1.7323  -1.6919  -1.5090  -1.4469  -1.4165  -1.3551
    -1.3030  -1.2452  -1.2254  -1.1483  -1.0993  -1.0513  -1.0149  -0.9623
    -0.9360  -0.8902  -0.8706  -0.8586  -0.7854  -0.7570  -0.7387  -0.7012
    -0.6503  -0.5823  -0.5673  -0.5512  -0.5115  -0.4739  -0.4337  -0.4015
    -0.3723  -0.3604  -0.2859  -0.2310  -0.1728  -0.1327  -0.0947  -0.0660
    -0.0245   0.0122   0.0620   0.1377   0.2056   0.2612   0.3194   0.4055
     0.4317   0.4869   0.5310   0.5736   0.5886   0.6636   0.6747   0.8237
     0.8679   1.1504   1.4546   1.5523   1.6836   1.7443   3.3123   3.4762
     3.5824   3.7391   3.7675   3.7963   3.8496   3.8725   3.8848   3.9244

          k = 0.0380-0.0839 0.0000 ( 17916 PWs)   bands (ev):

   -55.9217 -55.8983 -55.7866 -55.6968 -55.6890 -55.6669 -55.6528 -55.6102
   -55.5683 -55.5485 -55.5130 -55.4996 -55.4646 -55.3789 -54.7588 -54.7578
   -32.2185 -32.2072 -32.1876 -32.1819 -32.1604 -32.0629 -32.0494 -32.0461
   -32.0326 -32.0186 -32.0115 -32.0053 -32.0011 -31.9579 -31.9517 -31.9251
   -31.9104 -31.9058 -31.9012 -31.8828 -31.8770 -31.8760 -31.8740 -31.8685
   -31.8604 -31.8398 -31.8337 -31.8189 -31.8166 -31.8112 -31.7750 -31.7636
   -31.7528 -31.7518 -31.7282 -31.7228 -31.7188 -31.6963 -31.6832 -31.6604
   -31.6252 -31.5826 -31.0913 -31.0904 -30.9921 -30.9904 -30.9520 -30.9508
   -20.2035 -16.5648 -15.9787 -15.9438 -15.8125 -15.8004 -15.6509 -15.6270
   -15.5954 -15.5829 -15.5343 -15.4983 -15.4356 -15.4300 -15.3224 -15.3018
   -15.2617 -15.2436 -15.2380 -15.2202 -15.1832 -15.1668 -15.1266 -15.1257
   -15.1121 -15.0781 -15.0475 -15.0392 -15.0076 -14.9329 -14.7662 -13.2660
   -13.2639  -9.4723  -5.7686  -5.7140  -4.1414  -3.7775  -3.1775  -3.1333
    -3.0001  -2.9920  -2.9346  -2.9241  -2.9116  -2.8923  -2.8761  -2.8574
    -2.8350  -2.8132  -2.7594  -2.7286  -2.7155  -2.6824  -2.6712  -2.6355
    -2.6165  -2.6034  -2.5587  -2.5260  -2.4758  -2.4267  -2.4092  -2.3804
    -2.3534  -2.2801  -2.1189  -2.0099  -1.9542  -1.9282  -1.8370  -1.7837
    -1.7255  -1.7118  -1.6453  -1.6304  -1.5894  -1.5765  -1.5524  -1.5216
    -1.4985  -1.4589  -1.4459  -1.4140  -1.2894  -1.2512  -1.1961  -1.1416
    -1.0191  -0.9423  -0.8728  -0.8615  -0.8157  -0.7628  -0.6325  -0.6240
    -0.5906  -0.5569  -0.5115  -0.5055  -0.4753  -0.4558  -0.4295  -0.4077
    -0.3805  -0.3668  -0.3390  -0.3099  -0.2539  -0.2036  -0.1564  -0.1123
    -0.0784   0.0017   0.1086   0.1202   0.2232   0.2474   0.2897   0.3283
     0.3482   0.3874   0.4411   0.4840   0.5387   0.5907   0.6983   0.7819
     0.9217   0.9682   1.5972   1.6128   1.6835   1.6909   3.2822   3.6981
     3.7127   3.7886   3.8397   3.8675   3.8973   3.9513   4.0172   4.0276

          k = 0.0380-0.0419 0.0000 ( 17876 PWs)   bands (ev):

   -55.9267 -55.8933 -55.7870 -55.7052 -55.6805 -55.6681 -55.6561 -55.6069
   -55.5679 -55.5472 -55.5199 -55.4926 -55.4661 -55.3773 -54.7702 -54.7462
   -32.3300 -32.2206 -32.2109 -32.1821 -32.1374 -32.0965 -32.0957 -32.0740
   -32.0622 -32.0602 -32.0076 -32.0008 -31.9863 -31.9705 -31.9654 -31.9387
   -31.9264 -31.9234 -31.8980 -31.8726 -31.8692 -31.8673 -31.8621 -31.8535
   -31.8477 -31.8166 -31.8035 -31.7926 -31.7820 -31.7716 -31.7644 -31.7629
   -31.7532 -31.7266 -31.7206 -31.6949 -31.6915 -31.6880 -31.6618 -31.6457
   -31.6120 -31.5820 -31.1234 -31.1007 -31.0809 -30.9820 -30.9215 -30.8543
   -20.2063 -16.5716 -16.2281 -16.0613 -15.9227 -15.8656 -15.7528 -15.6623
   -15.6180 -15.5442 -15.5121 -15.4631 -15.4417 -15.4214 -15.3740 -15.2849
   -15.2707 -15.2467 -15.2328 -15.1827 -15.1743 -15.1287 -15.0986 -15.0816
   -15.0420 -14.9928 -14.9610 -14.9463 -14.9390 -14.9193 -14.6810 -13.2793
   -13.2027  -9.4708  -5.7752  -5.7165  -4.1454  -3.8203  -3.4538  -3.3560
    -3.2964  -3.2315  -3.2016  -3.1386  -2.9884  -2.9684  -2.9195  -2.8902
    -2.8409  -2.7845  -2.7578  -2.6975  -2.6590  -2.6404  -2.6300  -2.5493
    -2.5404  -2.5182  -2.4916  -2.4494  -2.4343  -2.4245  -2.3958  -2.3223
    -2.2504  -2.2341  -2.2102  -2.1588  -2.1251  -2.0054  -1.9715  -1.9117
    -1.8845  -1.8185  -1.7361  -1.6887  -1.5193  -1.4366  -1.4163  -1.3746
    -1.3130  -1.2583  -1.2253  -1.1498  -1.0919  -1.0522  -1.0207  -0.9596
    -0.9260  -0.8938  -0.8689  -0.8364  -0.7868  -0.7542  -0.7460  -0.7290
    -0.6532  -0.5772  -0.5664  -0.5435  -0.5209  -0.4688  -0.4390  -0.4169
    -0.3954  -0.3320  -0.2874  -0.2262  -0.1756  -0.1496  -0.0886  -0.0536
    -0.0184   0.0229   0.0577   0.1318   0.1909   0.2530   0.3181   0.4183
     0.4635   0.4932   0.5312   0.5816   0.5913   0.6658   0.6754   0.8308
     0.8701   1.1497   1.4541   1.5531   1.6827   1.7453   3.3088   3.4808
     3.5805   3.7182   3.7724   3.8051   3.8437   3.8672   3.8796   3.8950

          k =-0.0760-0.0000 0.0000 ( 17886 PWs)   bands (ev):

   -55.9305 -55.8894 -55.7874 -55.7099 -55.6759 -55.6692 -55.6589 -55.6040
   -55.5675 -55.5459 -55.5245 -55.4881 -55.4676 -55.3758 -54.7752 -54.7413
   -32.3844 -32.2513 -32.2242 -32.1919 -32.1871 -32.1380 -32.1326 -32.0844
   -32.0586 -32.0281 -32.0154 -32.0057 -32.0003 -31.9947 -31.9758 -31.9452
   -31.9444 -31.9311 -31.8855 -31.8721 -31.8545 -31.8522 -31.8491 -31.8398
   -31.8110 -31.8025 -31.7735 -31.7720 -31.7711 -31.7644 -31.7572 -31.7455
   -31.7366 -31.7322 -31.7257 -31.6897 -31.6842 -31.6680 -31.6404 -31.6227
   -31.5826 -31.5813 -31.1769 -31.1078 -31.0756 -30.9945 -30.9086 -30.7973
   -20.2089 -16.5710 -16.1911 -16.1264 -16.0039 -15.8363 -15.7855 -15.7318
   -15.6510 -15.6250 -15.6137 -15.5402 -15.4962 -15.4553 -15.4406 -15.4322
   -15.2712 -15.2576 -15.2484 -15.1489 -15.0803 -15.0741 -15.0368 -15.0062
   -14.9840 -14.9380 -14.9295 -14.9113 -14.8407 -14.8283 -14.6224 -13.2702
   -13.1617  -9.4688  -5.7819  -5.7151  -4.1366  -3.9137  -3.5697  -3.4306
    -3.2483  -3.1956  -3.1522  -3.1284  -3.1251  -3.0971  -3.0813  -3.0457
    -2.9821  -2.9572  -2.8664  -2.7425  -2.6910  -2.5559  -2.4096  -2.3820
    -2.3401  -2.3352  -2.3115  -2.2894  -2.2799  -2.2335  -2.2029  -2.1646
    -2.1458  -2.1039  -2.0953  -2.0711  -2.0620  -2.0276  -2.0158  -1.9191
    -1.8512  -1.8510  -1.6847  -1.5547  -1.5228  -1.5041  -1.4239  -1.3570
    -1.3350  -1.3310  -1.3100  -1.2905  -1.2414  -1.1973  -1.1666  -1.1557
    -1.1130  -1.0736  -1.0718  -1.0353  -0.9578  -0.8806  -0.8180  -0.7767
    -0.6693  -0.6127  -0.5463  -0.4746  -0.3755  -0.3545  -0.3386  -0.2973
    -0.2650  -0.2529  -0.2019  -0.1868  -0.1144  -0.0882  -0.0475  -0.0001
     0.0122   0.0653   0.1306   0.1595   0.1813   0.2591   0.2748   0.2996
     0.3561   0.4410   0.5085   0.5487   0.6213   0.7723   0.8933   0.9013
     0.9231   1.2454   1.2791   1.4099   1.5715   1.7096   3.2673   3.3571
     3.4151   3.5771   3.6285   3.6647   3.6942   3.7312   3.7695   3.8217

          k =-0.0760 0.0419 0.0000 ( 17914 PWs)   bands (ev):

   -55.9267 -55.8933 -55.7870 -55.7052 -55.6806 -55.6681 -55.6561 -55.6069
   -55.5679 -55.5472 -55.5200 -55.4926 -55.4662 -55.3773 -54.7703 -54.7463
   -32.3310 -32.2207 -32.2113 -32.1822 -32.1394 -32.0993 -32.0960 -32.0722
   -32.0625 -32.0558 -32.0075 -32.0003 -31.9869 -31.9772 -31.9654 -31.9330
   -31.9262 -31.9253 -31.8982 -31.8727 -31.8647 -31.8627 -31.8537 -31.8531
   -31.8491 -31.8110 -31.8042 -31.7892 -31.7823 -31.7661 -31.7644 -31.7625
   -31.7573 -31.7366 -31.7263 -31.6973 -31.6922 -31.6897 -31.6655 -31.6457
   -31.6120 -31.5834 -31.1232 -31.1032 -31.0803 -30.9820 -30.9215 -30.8543
   -20.2062 -16.5660 -16.0862 -16.0306 -15.9161 -15.7480 -15.6922 -15.6520
   -15.6248 -15.5856 -15.5491 -15.4921 -15.4837 -15.4687 -15.4184 -15.3863
   -15.2965 -15.2761 -15.2640 -15.1883 -15.1721 -15.1140 -15.1027 -15.0660
   -15.0520 -15.0281 -14.9606 -14.9498 -14.9293 -14.9101 -14.6800 -13.2773
   -13.2030  -9.4704  -5.7754  -5.7133  -4.1321  -3.8484  -3.4151  -3.2978
    -3.0384  -2.9926  -2.9710  -2.9332  -2.9148  -2.8894  -2.8712  -2.8417
    -2.8081  -2.7898  -2.7240  -2.6964  -2.6551  -2.5966  -2.5939  -2.5427
    -2.5134  -2.4763  -2.4621  -2.4210  -2.3879  -2.3436  -2.3184  -2.2943
    -2.2788  -2.2509  -2.2178  -2.1678  -2.1345  -1.9340  -1.8595  -1.8251
    -1.8068  -1.7327  -1.7063  -1.6393  -1.6282  -1.5647  -1.3967  -1.3482
    -1.3261  -1.3152  -1.2989  -1.2417  -1.1980  -1.1316  -1.0921  -1.0715
    -1.0462  -1.0199  -0.9917  -0.9520  -0.9186  -0.9021  -0.8841  -0.8130
    -0.7859  -0.7488  -0.6903  -0.6725  -0.6434  -0.5632  -0.5325  -0.5287
    -0.4481  -0.3852  -0.3579  -0.2773  -0.2512  -0.2269  -0.1386  -0.0584
    -0.0249   0.0639   0.0825   0.1165   0.1990   0.2691   0.3403   0.3933
     0.4605   0.5184   0.5657   0.6261   0.6993   0.7397   0.7718   0.7797
     0.8881   0.9542   1.4688   1.5553   1.6081   1.7319   3.2770   3.4670
     3.5807   3.6541   3.6657   3.7273   3.8114   3.8283   3.9222   3.9693

          k =-0.0760-0.0839 0.0000 ( 17948 PWs)   bands (ev):

   -55.9217 -55.8984 -55.7866 -55.6968 -55.6890 -55.6669 -55.6528 -55.6102
   -55.5684 -55.5484 -55.5130 -55.4997 -55.4646 -55.3789 -54.7588 -54.7578
   -32.2186 -32.2079 -32.1883 -32.1820 -32.1609 -32.0605 -32.0484 -32.0465
   -32.0316 -32.0196 -32.0124 -32.0053 -32.0027 -31.9581 -31.9519 -31.9251
   -31.9079 -31.9058 -31.8995 -31.8862 -31.8841 -31.8779 -31.8757 -31.8687
   -31.8591 -31.8452 -31.8231 -31.8138 -31.8052 -31.8032 -31.7748 -31.7653
   -31.7530 -31.7323 -31.7288 -31.7271 -31.7233 -31.7215 -31.6831 -31.6632
   -31.6253 -31.5846 -31.0920 -31.0911 -30.9921 -30.9904 -30.9521 -30.9508
   -20.2034 -16.5617 -15.9378 -15.8833 -15.7327 -15.7063 -15.6623 -15.6082
   -15.5496 -15.5080 -15.4978 -15.4628 -15.4435 -15.4186 -15.3981 -15.3689
   -15.3433 -15.2968 -15.2891 -15.2423 -15.2329 -15.2133 -15.1875 -15.1551
   -15.1013 -15.0882 -15.0701 -15.0366 -15.0154 -14.9267 -14.7612 -13.2658
   -13.2638  -9.4721  -5.7693  -5.7129  -4.1283  -3.7907  -3.1742  -3.1020
    -2.9563  -2.8786  -2.8121  -2.7907  -2.7750  -2.7440  -2.6783  -2.6579
    -2.6033  -2.5987  -2.5901  -2.5798  -2.5662  -2.5230  -2.4942  -2.4786
    -2.4719  -2.4538  -2.4254  -2.4114  -2.3977  -2.3858  -2.3758  -2.3692
    -2.3171  -2.2544  -2.1743  -2.1262  -2.1078  -1.9831  -1.9654  -1.9053
    -1.8925  -1.8851  -1.8537  -1.8499  -1.7774  -1.7229  -1.5690  -1.5532
    -1.5135  -1.4511  -1.4182  -1.3323  -1.3167  -1.2803  -1.2340  -1.2222
    -1.1988  -1.1780  -1.0813  -1.0009  -0.9596  -0.9207  -0.8077  -0.7915
    -0.7764  -0.7126  -0.6908  -0.6816  -0.6731  -0.6089  -0.5471  -0.4988
    -0.4810  -0.4442  -0.4249  -0.3760  -0.3177  -0.2397  -0.1686  -0.0987
    -0.0683   0.0388   0.1137   0.1527   0.2670   0.3235   0.3535   0.3818
     0.4506   0.5062   0.5235   0.6083   0.6785   0.6983   0.7565   0.7896
     0.8288   0.8637   1.6184   1.6313   1.6630   1.6737   3.2481   3.7750
     3.7849   3.7985   3.8174   3.8421   3.8654   3.9514   4.0007   4.0044

     the Fermi energy is     3.2250 ev

!    total energy              =   -2963.78480466 Ry
     estimated scf accuracy    <       0.00000006 Ry
     smearing contrib. (-TS)   =      -0.01874201 Ry
     internal energy E=F+TS    =   -2963.76606265 Ry

     The total energy is F=E-TS. E is the sum of the following terms:
     one-electron contribution =  -24352.62583053 Ry
     hartree contribution      =   12266.40945671 Ry
     xc contribution           =    -489.27801675 Ry
     ewald contribution        =    9611.72686196 Ry
     electric field correction =       0.00146596 Ry

     convergence has been achieved in  87 iterations

     Forces acting on atoms (cartesian axes, Ry/au):

     atom    1 type  1   force =    -0.00007089    0.00012749    0.10169062
     atom    2 type  1   force =    -0.00006719    0.00015793    0.10136032
     atom    3 type  2   force =    -0.00029440   -0.00136076    0.10431526
     atom    4 type  2   force =    -0.00022987    0.00134097    0.11680309
     atom    5 type  2   force =    -0.00034949    0.00600145   -0.16905726
     atom    6 type  2   force =    -0.00007910   -0.00499813   -0.16912470
     atom    7 type  1   force =    -0.07474618    0.00068133   -0.03017421
     atom    8 type  1   force =    -0.07427978   -0.00133285   -0.03017832
     atom    9 type  1   force =     0.07442007    0.00121693   -0.03022037
     atom   10 type  1   force =     0.07409256   -0.00091616   -0.03024349
     atom   11 type  1   force =     0.00083271    0.00106080    0.04727873
     atom   12 type  1   force =     0.00077808    0.00082790    0.04927733
     atom   13 type  1   force =     0.00026538   -0.00562936   -0.03769775
     atom   14 type  1   force =     0.00053804    0.00416475   -0.03208843
     atom   15 type  2   force =    -0.00044423    0.00078584   -0.00015631
     atom   16 type  2   force =    -0.00039072   -0.00081356   -0.00016477
     atom   17 type  2   force =     0.00029560   -0.00004040    0.00052140
     atom   18 type  2   force =     0.00027029    0.00013420    0.00105019
     atom   19 type  1   force =    -0.00989484   -0.00202475    0.00041132
     atom   20 type  1   force =    -0.00988178    0.00492878    0.00132576
     atom   21 type  1   force =     0.01189923   -0.00463354    0.00141852
     atom   22 type  1   force =     0.01107594    0.00174823    0.00189897
     atom   23 type  1   force =    -0.00024989    0.00003341    0.00020557
     atom   24 type  1   force =    -0.00027029    0.00003311   -0.00038240
     atom   25 type  1   force =    -0.00036809   -0.00041276   -0.00040802
     atom   26 type  1   force =    -0.00021361   -0.00006086   -0.00010046
     atom   27 type  2   force =    -0.00030835   -0.00022478   -0.00005365
     atom   28 type  2   force =     0.00016233   -0.00017750    0.00054863
     atom   29 type  2   force =     0.00033200   -0.00046267   -0.00077254
     atom   30 type  2   force =    -0.00016029    0.00030128    0.00008186
     atom   31 type  1   force =     0.00000866    0.00056697    0.00025882
     atom   32 type  1   force =     0.00038828    0.00019152   -0.00004468
     atom   33 type  1   force =    -0.00030846    0.00031156    0.00062428
     atom   34 type  1   force =    -0.00087862    0.00054957    0.00015098
     atom   35 type  1   force =    -0.00046251   -0.00046788   -0.00075351
     atom   36 type  1   force =    -0.00020208   -0.00020845   -0.00011187
     atom   37 type  1   force =    -0.00013530   -0.00038445    0.00038851
     atom   38 type  1   force =     0.00040579    0.00030087    0.00016495
     atom   39 type  2   force =     0.00004867    0.00026641    0.00059633
     atom   40 type  2   force =     0.00038777   -0.00046749   -0.00019225
     atom   41 type  2   force =    -0.00022040    0.00019242    0.00026595
     atom   42 type  2   force =    -0.00038280   -0.00015496   -0.00001734
     atom   43 type  1   force =     0.00022964   -0.00004540   -0.00020005
     atom   44 type  1   force =    -0.00043549   -0.00004782   -0.00028256
     atom   45 type  1   force =     0.00078899   -0.00009026   -0.00008889
     atom   46 type  1   force =    -0.00037499   -0.00001253   -0.00017922
     atom   47 type  1   force =     0.00034368   -0.00058124    0.00033266
     atom   48 type  1   force =    -0.00020278    0.00022710    0.00023471
     atom   49 type  3   force =    -0.00030636    0.00003310   -0.00018017
     atom   50 type  4   force =    -0.00068451    0.00016400    0.00026661
     atom   51 type  4   force =    -0.00033956   -0.00048815    0.00048941
     atom   52 type  1   force =     0.00503939   -0.00043342   -0.00115841
     atom   53 type  4   force =    -0.00537026    0.00012221    0.00207082

     Total force =     0.368694     Total SCF correction =     0.000715
  @ DRIVER MODE: Message from server: STATUS
  @ DRIVER MODE: Message from server: GETFORCE
  @ DRIVER MODE: Returning v,forces,stress,ensemble 

     Writing output data file ./calc.save/
  @ DRIVER MODE: Message from server: EXIT
  @ DRIVE MODE: Exiting  
 
     init_run     :     13.46s CPU     13.97s WALL (       1 calls)
     electrons    :   1671.70s CPU   1705.96s WALL (       1 calls)
     forces       :      2.56s CPU      2.67s WALL (       1 calls)

     Called by init_run:
     wfcinit      :      5.75s CPU      5.90s WALL (       1 calls)
     potinit      :      6.73s CPU      6.81s WALL (       1 calls)
     hinit0       :      0.29s CPU      0.31s WALL (       1 calls)

     Called by electrons:
     c_bands      :   1428.94s CPU   1447.82s WALL (      87 calls)
     sum_band     :    169.76s CPU    176.99s WALL (      87 calls)
     v_of_rho     :     56.18s CPU     58.47s WALL (      88 calls)
     newd         :     20.42s CPU     26.04s WALL (      88 calls)
     mix_rho      :      2.12s CPU      2.24s WALL (      87 calls)
     vdW_kernel   :      5.84s CPU      5.86s WALL (       1 calls)

     Called by c_bands:
     init_us_2    :      7.01s CPU      7.05s WALL (    1760 calls)
     cegterg      :   1401.44s CPU   1419.86s WALL (     901 calls)

     Called by *egterg:
     cdiaghg      :    247.32s CPU    248.31s WALL (    9664 calls)
     h_psi        :    747.43s CPU    759.45s WALL (    9674 calls)
     s_psi        :     94.69s CPU     95.03s WALL (    9674 calls)
     g_psi        :      2.46s CPU      2.47s WALL (    8763 calls)

     Called by h_psi:
     h_psi:calbec :     93.96s CPU     95.25s WALL (    9674 calls)
     vloc_psi     :    555.93s CPU    561.06s WALL (    9674 calls)
     add_vuspsi   :     95.01s CPU     97.76s WALL (    9674 calls)

     General routines
     calbec       :    123.80s CPU    125.19s WALL (   10584 calls)
     fft          :     28.69s CPU     28.83s WALL (    5544 calls)
     ffts         :      0.25s CPU      0.25s WALL (     175 calls)
     fftw         :    626.75s CPU    632.54s WALL ( 1148512 calls)
     interpolate  :      0.61s CPU      0.61s WALL (      88 calls)
     davcio       :      0.00s CPU      0.23s WALL (      10 calls)
 
     Parallel routines
 
     PWSCF        :  28m 8.34s CPU  28m44.92s WALL

 
   This run was terminated on:  12:28:43  23Sep2021            

=------------------------------------------------------------------------------=
   JOB DONE.
=------------------------------------------------------------------------------=
