
     Program PWSCF v.6.7GPU starts on  4Aug2021 at  9: 5: 5 

     This program is part of the open-source Quantum ESPRESSO suite
     for quantum simulation of materials; please cite
         "P. Giannozzi et al., J. Phys.:Condens. Matter 21 395502 (2009);
         "P. Giannozzi et al., J. Phys.:Condens. Matter 29 465901 (2017);
         "P. Giannozzi et al., J. Chem. Phys. 152 154105 (2020);
          URL http://www.quantum-espresso.org", 
     in publications or presentations arising from this work. More details at
     http://www.quantum-espresso.org/quote

     Parallel version (MPI), running on    16 processors

     MPI processes distributed on     1 nodes
     R & G space division:  proc/nbgrp/npool/nimage =      16
     Reading input from /storage/home/hcoda1/3/ntian30/research/carbon/02Aug_vib_paired/ads_slab/CH3NN_b/out_0013/pw.inp
Warning: card &CELL ignored
Warning: card   CELL_DYNAMICS='IPI', ignored
Warning: card / ignored

     Current dimensions of program PWSCF are:
     Max number of different atomic species (ntypx) = 10
     Max number of k-points (npk) =  40000
     Max angular momentum in pseudopotentials (lmaxx) =  3
     Presently no symmetry can be used with electric field

     Message from routine cell_base_init:
     DEPRECATED: use true lattice parameter, not A to a.u. conversion factor

     **************************************************************************
     Initializing libbeef V0.1.2 with the BEEF-vdW functional.
     Citation: Wellendorff et al., PRB 85, 235149 (2012).
     **************************************************************************


     IMPORTANT: XC functional enforced from input :
     Exchange-correlation= BEEF-VDW
                           (   1   4  43  14   2   0   0)
     Any further DFT definition will be discarded
     Please, verify this is what you really want


     Subspace diagonalization in iterative solution of the eigenvalue problem:
     one sub-group per band group will be used
     scalapack distributed-memory algorithm (size of sub-group:  4*  4 procs)

  @ DRIVER MODE: Connecting to 
 qe_1139763_2492023.sched-torque.pace.gatech.edughk2tdte_scratch
  using UNIX socket
  @ DRIVER MODE: Message from server: STATUS
  @ DRIVER MODE: Message from server: INIT
  @ DRIVER MODE: Receiving replica           0          -1
  @ DRIVER MODE: Receiving encoded integer          25
  @ DRIVER MODE:  SCF:  T  FORCE:  T  STRESS:  F  VC:  F  ENSEMBLE:  F
  @ DRIVER MODE:  SCF:  T  FORCE:  T  STRESS:  F  VC:  F  ENSEMBLE:  F
 
     Parallelization info
     --------------------
     sticks:   dense  smooth     PW     G-vecs:    dense   smooth      PW
     Min         204      82     23                35422     8962    1367
     Max         205      84     24                35435     8968    1382
     Sum        3275    1317    379               566857   143421   21985
 
     Using Slab Decomposition
 


     bravais-lattice index     =            0
     lattice parameter (alat)  =       1.8897  a.u.
     unit-cell volume          =    6658.9804 (a.u.)^3
     number of atoms/cell      =           53
     number of atomic types    =            5
     number of electrons       =       395.00
     number of Kohn-Sham states=          207
     kinetic-energy cutoff     =      29.3995  Ry
     charge density cutoff     =     293.9946  Ry
     scf convergence threshold =      7.3E-08
     mixing beta               =       0.0500
     number of iterations used =            8  plain     mixing
     Exchange-correlation= BEEF-VDW
                           (   1   4  43  14   2   0   0)

     celldm(1)=   1.889726  celldm(2)=   0.000000  celldm(3)=   0.000000
     celldm(4)=   0.000000  celldm(5)=   0.000000  celldm(6)=   0.000000

     crystal axes: (cart. coord. in units of alat)
               a(1) = (   6.579727   0.000000   0.000000 )  
               a(2) = (  -0.000775   5.961596   0.000000 )  
               a(3) = (   0.000000   0.000000  25.155947 )  

     reciprocal axes: (cart. coord. in units 2 pi/alat)
               b(1) = (  0.151982  0.000020  0.000000 )  
               b(2) = (  0.000000  0.167740  0.000000 )  
               b(3) = (  0.000000  0.000000  0.039752 )  


     PseudoPot. # 1 for Ti read from file:
     /storage/coda1/p-amedford6/0/shared/rich_project_chbe-medford/medford-share/data/pseudos_module/espresso/nninc/pbe/van/Ti.UPF
     MD5 check sum: 8e4df49b7f0d34bbd5052bf3f5ea0213
     Pseudo is Ultrasoft, Zval = 12.0
     Generated by new atomic code, or converted to UPF format
     Using radial grid of  851 points,  6 beta functions with: 
                l(1) =   0
                l(2) =   0
                l(3) =   1
                l(4) =   1
                l(5) =   2
                l(6) =   2
     Q(r) pseudized with  8 coefficients,  rinner =    1.000   1.000   1.000
                                                       1.000   1.000

     PseudoPot. # 2 for O  read from file:
     /storage/coda1/p-amedford6/0/shared/rich_project_chbe-medford/medford-share/data/pseudos_module/espresso/nninc/pbe/van/O.UPF
     MD5 check sum: 78c19812648e8988a0fe644b0f25305e
     Pseudo is Ultrasoft, Zval =  6.0
     Generated by new atomic code, or converted to UPF format
     Using radial grid of  737 points,  4 beta functions with: 
                l(1) =   0
                l(2) =   0
                l(3) =   1
                l(4) =   1
     Q(r) pseudized with  8 coefficients,  rinner =    0.800   0.800   0.800


     PseudoPot. # 3 for N  read from file:
     /storage/coda1/p-amedford6/0/shared/rich_project_chbe-medford/medford-share/data/pseudos_module/espresso/nninc/pbe/van/N.UPF
     MD5 check sum: 90d10febe142ad51ac9d5be1deb811c4
     Pseudo is Ultrasoft, Zval =  5.0
     Generated by new atomic code, or converted to UPF format
     Using radial grid of  729 points,  4 beta functions with: 
                l(1) =   0
                l(2) =   0
                l(3) =   1
                l(4) =   1
     Q(r) pseudized with  8 coefficients,  rinner =    0.800   0.800   0.800


     PseudoPot. # 4 for C  read from file:
     /storage/coda1/p-amedford6/0/shared/rich_project_chbe-medford/medford-share/data/pseudos_module/espresso/nninc/pbe/van/C.UPF
     MD5 check sum: 1a69bf6b8db32088f5b2163dbdb77a27
     Pseudo is Ultrasoft, Zval =  4.0
     Generated by new atomic code, or converted to UPF format
     Using radial grid of  721 points,  4 beta functions with: 
                l(1) =   0
                l(2) =   0
                l(3) =   1
                l(4) =   1
     Q(r) pseudized with  8 coefficients,  rinner =    0.800   0.800   0.800


     PseudoPot. # 5 for H  read from file:
     /storage/coda1/p-amedford6/0/shared/rich_project_chbe-medford/medford-share/data/pseudos_module/espresso/nninc/pbe/van/H.UPF
     MD5 check sum: b5ee9d7bfd3a09ee7748110bda690ff7
     Pseudo is Ultrasoft, Zval =  1.0
     Generated by new atomic code, or converted to UPF format
     Using radial grid of  615 points,  1 beta functions with: 
                l(1) =   0
     Q(r) pseudized with  8 coefficients,  rinner =    0.800

     atomic species   valence    mass     pseudopotential
        Ti1           12.00    47.86700     Ti( 1.00)
        O1             6.00    15.99900     O ( 1.00)
        N1             5.00    14.00700     N ( 1.00)
        C1             4.00    12.01100     C ( 1.00)
        H1             1.00     1.00800     H ( 1.00)

     No symmetry found



   Cartesian axes

     site n.     atom                  positions (alat units)
         1           Ti1 tau(   1) = (   0.0004258   2.9801865   6.0000000  )
         2           Ti1 tau(   2) = (   3.2906075   1.4906267   6.0002472  )
         3           O1  tau(   3) = (   0.0006271   0.0005054   7.9858123  )
         4           O1  tau(   4) = (   3.2906025   0.0005020   7.3038282  )
         5           O1  tau(   5) = (   4.5942328   1.4918067   9.2879030  )
         6           O1  tau(   6) = (   1.9868534   1.4903216   9.2879459  )
         7           Ti1 tau(   7) = (   3.2907910   2.8959150   9.1758416  )
         8           Ti1 tau(   8) = (   0.0015273   1.4827037   9.2680791  )
         9           O1  tau(   9) = (   3.2846693   5.9452209  11.3340492  )
        10           O1  tau(  10) = (   0.0116148   5.9584955  10.6183126  )
        11           O1  tau(  11) = (   1.2834543   1.4847615  12.6293855  )
        12           O1  tau(  12) = (   5.2674731   1.4768263  12.6150299  )
        13           Ti1 tau(  13) = (   0.0515077   3.0114797  12.6524288  )
        14           Ti1 tau(  14) = (   3.3730355   1.4714245  12.4820590  )
        15           O1  tau(  15) = (   6.5599962   0.0037305  14.6029173  )
        16           O1  tau(  16) = (   3.2800597   5.9387738  13.9271036  )
        17           O1  tau(  17) = (   4.5186125   1.4654914  16.0451899  )
        18           O1  tau(  18) = (   2.0258539   1.4687252  16.0523685  )
        19           Ti1 tau(  19) = (   3.2649076   2.9492218  15.6988400  )
        20           Ti1 tau(  20) = (   6.5508048   1.3556675  15.8025096  )
        21           O1  tau(  21) = (   3.2904802   0.0005063   4.7018136  )
        22           O1  tau(  22) = (   6.5741700   5.9536011  17.1303138  )
        23           O1  tau(  23) = (   1.3043587   1.4918075   6.0039043  )
        24           O1  tau(  24) = (   5.2767064   1.4903225   6.0039473  )
        25           Ti1 tau(  25) = (   0.0000382   5.9609847   6.0000000  )
        26           Ti1 tau(  26) = (   3.2902200   4.4714249   6.0002472  )
        27           O1  tau(  27) = (   0.0002396   2.9813036   7.9858123  )
        28           O1  tau(  28) = (   3.2902150   2.9813002   7.3038282  )
        29           O1  tau(  29) = (   4.5938453   4.4726049   9.2879030  )
        30           O1  tau(  30) = (   1.9864658   4.4711199   9.2879459  )
        31           Ti1 tau(  31) = (   3.2891106   5.8743827   9.1763621  )
        32           Ti1 tau(  32) = (   0.0006254   4.4649316   9.2693709  )
        33           O1  tau(  33) = (   3.2861826   2.9668924  11.3320306  )
        34           O1  tau(  34) = (   0.0092240   2.9805883  10.6323155  )
        35           O1  tau(  35) = (   1.2809698   4.4658153  12.6346578  )
        36           O1  tau(  36) = (   5.2715881   4.4563464  12.6201172  )
        37           Ti1 tau(  37) = (   0.0635592   0.0233401  12.5351680  )
        38           Ti1 tau(  38) = (   3.3726470   4.4512063  12.4842852  )
        39           O1  tau(  39) = (   6.5700678   2.9603531  14.7052597  )
        40           O1  tau(  40) = (   3.2800127   2.9650284  13.9044324  )
        41           O1  tau(  41) = (   4.5221929   4.4260918  16.0817388  )
        42           O1  tau(  42) = (   2.0277389   4.4301665  16.0727494  )
        43           Ti1 tau(  43) = (   3.2617617   5.9330256  15.7261539  )
        44           Ti1 tau(  44) = (   6.5423007   4.4542687  16.1498850  )
        45           O1  tau(  45) = (   3.2900926   2.9813045   4.7018136  )
        46           O1  tau(  46) = (   1.3039711   4.4726057   6.0039043  )
        47           O1  tau(  47) = (   5.2763189   4.4711207   6.0039473  )
        48           N1  tau(  48) = (   2.8794700   5.9070534  18.9683957  )
        49           C1  tau(  49) = (   6.5502552   3.0456858  17.8350167  )
        50           H1  tau(  50) = (   5.8927902   3.7356694  18.3776660  )
        51           H1  tau(  51) = (   6.1439290   2.0579341  18.0413002  )
        52           H1  tau(  52) = (   0.9604482   3.1013269  18.2919552  )
        53           N1  tau(  53) = (   2.0963344   5.7764004  19.7355773  )

     number of k points=    10  Fermi-Dirac smearing, width (Ry)=  0.0073
                       cart. coord. in units 2pi/alat
        k(    1) = (   0.0000000   0.0000000   0.0000000), wk =   0.1250000
        k(    2) = (   0.0000000   0.0419351   0.0000000), wk =   0.2500000
        k(    3) = (   0.0000000  -0.0838702   0.0000000), wk =   0.1250000
        k(    4) = (   0.0379955   0.0000049   0.0000000), wk =   0.2500000
        k(    5) = (   0.0379955   0.0419400   0.0000000), wk =   0.2500000
        k(    6) = (   0.0379955  -0.0838652   0.0000000), wk =   0.2500000
        k(    7) = (   0.0379955  -0.0419301   0.0000000), wk =   0.2500000
        k(    8) = (  -0.0759910  -0.0000099   0.0000000), wk =   0.1250000
        k(    9) = (  -0.0759910   0.0419252   0.0000000), wk =   0.2500000
        k(   10) = (  -0.0759910  -0.0838800   0.0000000), wk =   0.1250000

     Dense  grid:   566857 G-vectors     FFT dimensions: (  72,  64, 270)

     Smooth grid:   143421 G-vectors     FFT dimensions: (  45,  40, 180)

     Estimated max dynamical RAM per process >     229.82 MB

     Estimated total dynamical RAM >       3.59 GB
     Cannot read rho : file not found

     Initial potential from superposition of free atoms

     starting charge  378.99916, renormalised to  395.00000

     negative rho (up, down):  1.682E-02 0.000E+00


     %%%%%%%%%%%%%%%%%%%%%%%%%%%%%%%%%%%%%%%%%%%%%%%%%%%%%%%%%%%%%%%%%%%%%%%%
     %                                                                      %
     % You are using vdW-DF, which was implemented by the Thonhauser group. %
     % Please cite the following two papers that made this development      %
     % possible and the two reviews that describe the various versions:     %
     %                                                                      %
     %   T. Thonhauser et al., PRL 115, 136402 (2015).                      %
     %   T. Thonhauser et al., PRB 76, 125112 (2007).                       %
     %   K. Berland et al., Rep. Prog. Phys. 78, 066501 (2015).             %
     %   D.C. Langreth et al., J. Phys.: Condens. Matter 21, 084203 (2009). %
     %                                                                      %
     %                                                                      %
     % If you are calculating the stress with vdW-DF, please also cite:     %
     %                                                                      %
     %   R. Sabatini et al., J. Phys.: Condens. Matter 24, 424209 (2012).   %
     %                                                                      %
     %%%%%%%%%%%%%%%%%%%%%%%%%%%%%%%%%%%%%%%%%%%%%%%%%%%%%%%%%%%%%%%%%%%%%%%%


 
     Adding external electric field

     Computed dipole along edir(3) : 
        Dipole               -8.8648 Ry au,        -22.5320 Debye
        Dipole field         -0.0167 Ry au, 
 
        Potential amp.        1.5508 Ry
        Total length         46.3494 bohr
 
     Starting wfcs are  299 atomic wfcs
  @ DRIVER MODE: Message from server: STATUS
  @ DRIVER MODE: Message from server: POSDATA
  @ DRIVER MODE: Reading and sharing cell 
  @ DRIVER MODE: Reading and sharing positions 
  @ DRIVER MODE: Received positions 

     total cpu time spent up to now is        9.4 secs

     Self-consistent Calculation

     iteration #  1     ecut=    29.40 Ry     beta= 0.05
     Davidson diagonalization with overlap
     c_bands:  2 eigenvalues not converged
     c_bands:  1 eigenvalues not converged
     c_bands:  1 eigenvalues not converged
     c_bands:  3 eigenvalues not converged
     c_bands:  3 eigenvalues not converged
     c_bands:  1 eigenvalues not converged
     c_bands:  1 eigenvalues not converged
     ethr =  1.00E-05,  avg # of iterations = 19.2

     negative rho (up, down):  1.499E-02 0.000E+00
 
     Adding external electric field

     Computed dipole along edir(3) : 
        Dipole               37.5880 Ry au,         95.5391 Debye
        Dipole field          0.0709 Ry au, 
 
        Potential amp.       -6.5754 Ry
        Total length         46.3494 bohr
 

     total cpu time spent up to now is       38.7 secs

     total energy              =   -2623.97622464 Ry
     estimated scf accuracy    <    3510.37711803 Ry

     iteration #  2     ecut=    29.40 Ry     beta= 0.05
     Davidson diagonalization with overlap
     c_bands:  4 eigenvalues not converged
     ethr =  1.00E-02,  avg # of iterations = 21.9

     negative rho (up, down):  5.084E-03 0.000E+00
 
     Adding external electric field

     Computed dipole along edir(3) : 
        Dipole               -3.2330 Ry au,         -8.2174 Debye
        Dipole field         -0.0061 Ry au, 
 
        Potential amp.        0.5656 Ry
        Total length         46.3494 bohr
 

     total cpu time spent up to now is      133.3 secs

     total energy              =   -2452.52904535 Ry
     estimated scf accuracy    <   63801.19391607 Ry

     iteration #  3     ecut=    29.40 Ry     beta= 0.05
     Davidson diagonalization with overlap
     ethr =  1.00E-02,  avg # of iterations = 15.3

     negative rho (up, down):  5.135E-03 0.000E+00
 
     Adding external electric field

     Computed dipole along edir(3) : 
        Dipole               -4.8945 Ry au,        -12.4407 Debye
        Dipole field         -0.0092 Ry au, 
 
        Potential amp.        0.8562 Ry
        Total length         46.3494 bohr
 

     total cpu time spent up to now is      166.3 secs

     total energy              =   -2918.42505127 Ry
     estimated scf accuracy    <    3614.85518148 Ry

     iteration #  4     ecut=    29.40 Ry     beta= 0.05
     Davidson diagonalization with overlap
     c_bands:  1 eigenvalues not converged
     c_bands:  3 eigenvalues not converged
     c_bands:  1 eigenvalues not converged
     ethr =  1.00E-02,  avg # of iterations = 17.2

     negative rho (up, down):  5.157E-03 0.000E+00
 
     Adding external electric field

     Computed dipole along edir(3) : 
        Dipole               -5.6606 Ry au,        -14.3877 Debye
        Dipole field         -0.0107 Ry au, 
 
        Potential amp.        0.9902 Ry
        Total length         46.3494 bohr
 

     total cpu time spent up to now is      182.2 secs

     total energy              =   -2934.80330070 Ry
     estimated scf accuracy    <     415.22173525 Ry

     iteration #  5     ecut=    29.40 Ry     beta= 0.05
     Davidson diagonalization with overlap
     ethr =  1.00E-02,  avg # of iterations =  6.8

     negative rho (up, down):  5.160E-03 0.000E+00
 
     Adding external electric field

     Computed dipole along edir(3) : 
        Dipole               -6.1672 Ry au,        -15.6755 Debye
        Dipole field         -0.0116 Ry au, 
 
        Potential amp.        1.0789 Ry
        Total length         46.3494 bohr
 

     total cpu time spent up to now is      191.4 secs

     total energy              =   -2936.01397526 Ry
     estimated scf accuracy    <     173.23334463 Ry

     iteration #  6     ecut=    29.40 Ry     beta= 0.05
     Davidson diagonalization with overlap
     ethr =  1.00E-02,  avg # of iterations =  4.6

     negative rho (up, down):  5.238E-03 0.000E+00
 
     Adding external electric field

     Computed dipole along edir(3) : 
        Dipole               -6.6828 Ry au,        -16.9859 Debye
        Dipole field         -0.0126 Ry au, 
 
        Potential amp.        1.1690 Ry
        Total length         46.3494 bohr
 

     total cpu time spent up to now is      328.0 secs

     total energy              =   -2934.99759884 Ry
     estimated scf accuracy    <     130.76511744 Ry

     iteration #  7     ecut=    29.40 Ry     beta= 0.05
     Davidson diagonalization with overlap
     ethr =  1.00E-02,  avg # of iterations =  6.8

     negative rho (up, down):  5.205E-03 0.000E+00
 
     Adding external electric field

     Computed dipole along edir(3) : 
        Dipole               -6.5179 Ry au,        -16.5668 Debye
        Dipole field         -0.0123 Ry au, 
 
        Potential amp.        1.1402 Ry
        Total length         46.3494 bohr
 

     total cpu time spent up to now is      338.2 secs

     total energy              =   -2941.04333938 Ry
     estimated scf accuracy    <      11.02968260 Ry

     iteration #  8     ecut=    29.40 Ry     beta= 0.05
     Davidson diagonalization with overlap
     ethr =  2.79E-03,  avg # of iterations =  3.8

     negative rho (up, down):  5.277E-03 0.000E+00
 
     Adding external electric field

     Computed dipole along edir(3) : 
        Dipole               -6.6517 Ry au,        -16.9068 Debye
        Dipole field         -0.0126 Ry au, 
 
        Potential amp.        1.1636 Ry
        Total length         46.3494 bohr
 

     total cpu time spent up to now is      346.2 secs

     total energy              =   -2941.64762127 Ry
     estimated scf accuracy    <      11.57509435 Ry

     iteration #  9     ecut=    29.40 Ry     beta= 0.05
     Davidson diagonalization with overlap
     ethr =  2.79E-03,  avg # of iterations =  1.1

     negative rho (up, down):  7.094E-03 0.000E+00
 
     Adding external electric field

     Computed dipole along edir(3) : 
        Dipole               -9.0478 Ry au,        -22.9971 Debye
        Dipole field         -0.0171 Ry au, 
 
        Potential amp.        1.5828 Ry
        Total length         46.3494 bohr
 

     total cpu time spent up to now is      353.1 secs

     total energy              =   -2942.02654471 Ry
     estimated scf accuracy    <      11.75455334 Ry

     iteration # 10     ecut=    29.40 Ry     beta= 0.05
     Davidson diagonalization with overlap
     ethr =  2.79E-03,  avg # of iterations = 12.1

     negative rho (up, down):  4.603E-03 0.000E+00
 
     Adding external electric field

     Computed dipole along edir(3) : 
        Dipole              -12.0331 Ry au,        -30.5852 Debye
        Dipole field         -0.0227 Ry au, 
 
        Potential amp.        2.1050 Ry
        Total length         46.3494 bohr
 

     total cpu time spent up to now is      369.1 secs

     total energy              =   -2969.43654328 Ry
     estimated scf accuracy    <    1124.41856715 Ry

     iteration # 11     ecut=    29.40 Ry     beta= 0.05
     Davidson diagonalization with overlap
     c_bands:  1 eigenvalues not converged
     ethr =  2.79E-03,  avg # of iterations = 15.6

     negative rho (up, down):  2.129E-03 0.000E+00
 
     Adding external electric field

     Computed dipole along edir(3) : 
        Dipole              -12.0450 Ry au,        -30.6153 Debye
        Dipole field         -0.0227 Ry au, 
 
        Potential amp.        2.1071 Ry
        Total length         46.3494 bohr
 

     total cpu time spent up to now is      390.9 secs

     total energy              =   -2994.53870906 Ry
     estimated scf accuracy    <    8864.84080921 Ry

     iteration # 12     ecut=    29.40 Ry     beta= 0.05
     Davidson diagonalization with overlap
     ethr =  2.79E-03,  avg # of iterations =  1.1

     negative rho (up, down):  5.814E-04 0.000E+00
 
     Adding external electric field

     Computed dipole along edir(3) : 
        Dipole              -10.7750 Ry au,        -27.3873 Debye
        Dipole field         -0.0203 Ry au, 
 
        Potential amp.        1.8849 Ry
        Total length         46.3494 bohr
 

     total cpu time spent up to now is      397.7 secs

     total energy              =   -2980.21525584 Ry
     estimated scf accuracy    <    8997.45444277 Ry

     iteration # 13     ecut=    29.40 Ry     beta= 0.05
     Davidson diagonalization with overlap
     ethr =  2.79E-03,  avg # of iterations =  3.4

     negative rho (up, down):  5.457E-04 0.000E+00
 
     Adding external electric field

     Computed dipole along edir(3) : 
        Dipole               -7.7645 Ry au,        -19.7353 Debye
        Dipole field         -0.0147 Ry au, 
 
        Potential amp.        1.3583 Ry
        Total length         46.3494 bohr
 

     total cpu time spent up to now is      405.5 secs

     total energy              =   -2942.42129039 Ry
     estimated scf accuracy    <    7142.32108147 Ry

     iteration # 14     ecut=    29.40 Ry     beta= 0.05
     Davidson diagonalization with overlap
     ethr =  2.79E-03,  avg # of iterations = 17.5

     negative rho (up, down):  2.468E-04 0.000E+00
 
     Adding external electric field

     Computed dipole along edir(3) : 
        Dipole               -6.1120 Ry au,        -15.5352 Debye
        Dipole field         -0.0115 Ry au, 
 
        Potential amp.        1.0692 Ry
        Total length         46.3494 bohr
 

     total cpu time spent up to now is      423.3 secs

     total energy              =   -2939.26852318 Ry
     estimated scf accuracy    <    2059.77785161 Ry

     iteration # 15     ecut=    29.40 Ry     beta= 0.05
     Davidson diagonalization with overlap
     ethr =  2.79E-03,  avg # of iterations =  3.4

     negative rho (up, down):  3.377E-04 0.000E+00
 
     Adding external electric field

     Computed dipole along edir(3) : 
        Dipole               -6.6673 Ry au,        -16.9466 Debye
        Dipole field         -0.0126 Ry au, 
 
        Potential amp.        1.1663 Ry
        Total length         46.3494 bohr
 

     total cpu time spent up to now is      431.3 secs

     total energy              =   -2944.23032356 Ry
     estimated scf accuracy    <     972.99630493 Ry

     iteration # 16     ecut=    29.40 Ry     beta= 0.05
     Davidson diagonalization with overlap
     c_bands:  4 eigenvalues not converged
     ethr =  2.79E-03,  avg # of iterations =  3.0

     negative rho (up, down):  2.237E-03 0.000E+00
 
     Adding external electric field

     Computed dipole along edir(3) : 
        Dipole               -5.5858 Ry au,        -14.1976 Debye
        Dipole field         -0.0105 Ry au, 
 
        Potential amp.        0.9771 Ry
        Total length         46.3494 bohr
 

     total cpu time spent up to now is      438.8 secs

     total energy              =   -2936.95999410 Ry
     estimated scf accuracy    <     913.98597319 Ry

     iteration # 17     ecut=    29.40 Ry     beta= 0.05
     Davidson diagonalization with overlap
     c_bands:  1 eigenvalues not converged
     c_bands:  1 eigenvalues not converged
     c_bands:  3 eigenvalues not converged
     ethr =  2.79E-03,  avg # of iterations = 17.2

     negative rho (up, down):  3.633E-03 0.000E+00
 
     Adding external electric field

     Computed dipole along edir(3) : 
        Dipole               -5.3715 Ry au,        -13.6530 Debye
        Dipole field         -0.0101 Ry au, 
 
        Potential amp.        0.9397 Ry
        Total length         46.3494 bohr
 

     total cpu time spent up to now is      470.0 secs

     total energy              =   -2941.32444045 Ry
     estimated scf accuracy    <     131.29749582 Ry

     iteration # 18     ecut=    29.40 Ry     beta= 0.05
     Davidson diagonalization with overlap
     ethr =  2.79E-03,  avg # of iterations =  1.8

     negative rho (up, down):  7.971E-02 0.000E+00
 
     Adding external electric field

     Computed dipole along edir(3) : 
        Dipole               -0.7836 Ry au,         -1.9916 Debye
        Dipole field         -0.0015 Ry au, 
 
        Potential amp.        0.1371 Ry
        Total length         46.3494 bohr
 

     total cpu time spent up to now is      506.3 secs

     total energy              =   -2933.87291830 Ry
     estimated scf accuracy    <     117.38814830 Ry

     iteration # 19     ecut=    29.40 Ry     beta= 0.05
     Davidson diagonalization with overlap
     c_bands:  1 eigenvalues not converged
     c_bands:  1 eigenvalues not converged
     c_bands:  1 eigenvalues not converged
     c_bands:  1 eigenvalues not converged
     c_bands:  1 eigenvalues not converged
     ethr =  2.79E-03,  avg # of iterations = 19.9

     negative rho (up, down):  2.556E-02 0.000E+00
 
     Adding external electric field

     Computed dipole along edir(3) : 
        Dipole               -1.0704 Ry au,         -2.7206 Debye
        Dipole field         -0.0020 Ry au, 
 
        Potential amp.        0.1872 Ry
        Total length         46.3494 bohr
 

     total cpu time spent up to now is      535.2 secs

     total energy              =   -2938.47409942 Ry
     estimated scf accuracy    <     357.26245854 Ry

     iteration # 20     ecut=    29.40 Ry     beta= 0.05
     Davidson diagonalization with overlap
     ethr =  2.79E-03,  avg # of iterations =  5.5

     negative rho (up, down):  1.152E-02 0.000E+00
 
     Adding external electric field

     Computed dipole along edir(3) : 
        Dipole               -0.8022 Ry au,         -2.0390 Debye
        Dipole field         -0.0015 Ry au, 
 
        Potential amp.        0.1403 Ry
        Total length         46.3494 bohr
 

     total cpu time spent up to now is      543.6 secs

     total energy              =   -2938.92892071 Ry
     estimated scf accuracy    <      61.15047264 Ry

     iteration # 21     ecut=    29.40 Ry     beta= 0.05
     Davidson diagonalization with overlap
     ethr =  2.79E-03,  avg # of iterations =  5.9

     negative rho (up, down):  3.244E-03 0.000E+00
 
     Adding external electric field

     Computed dipole along edir(3) : 
        Dipole               -0.3382 Ry au,         -0.8596 Debye
        Dipole field         -0.0006 Ry au, 
 
        Potential amp.        0.0592 Ry
        Total length         46.3494 bohr
 

     total cpu time spent up to now is      552.1 secs

     total energy              =   -2938.96518232 Ry
     estimated scf accuracy    <      34.72535898 Ry

     iteration # 22     ecut=    29.40 Ry     beta= 0.05
     Davidson diagonalization with overlap
     c_bands:  1 eigenvalues not converged
     ethr =  2.79E-03,  avg # of iterations =  7.5

     negative rho (up, down):  3.950E-03 0.000E+00
 
     Adding external electric field

     Computed dipole along edir(3) : 
        Dipole               -0.1140 Ry au,         -0.2899 Debye
        Dipole field         -0.0002 Ry au, 
 
        Potential amp.        0.0200 Ry
        Total length         46.3494 bohr
 

     total cpu time spent up to now is      561.2 secs

     total energy              =   -2939.31460226 Ry
     estimated scf accuracy    <      12.77125505 Ry

     iteration # 23     ecut=    29.40 Ry     beta= 0.05
     Davidson diagonalization with overlap
     ethr =  2.79E-03,  avg # of iterations =  2.6

     negative rho (up, down):  1.304E-02 0.000E+00
 
     Adding external electric field

     Computed dipole along edir(3) : 
        Dipole                0.2641 Ry au,          0.6713 Debye
        Dipole field          0.0005 Ry au, 
 
        Potential amp.       -0.0462 Ry
        Total length         46.3494 bohr
 

     total cpu time spent up to now is      568.5 secs

     total energy              =   -2938.96799413 Ry
     estimated scf accuracy    <       9.77383776 Ry

     iteration # 24     ecut=    29.40 Ry     beta= 0.05
     Davidson diagonalization with overlap
     ethr =  2.47E-03,  avg # of iterations =  4.7

     negative rho (up, down):  1.304E-02 0.000E+00
 
     Adding external electric field

     Computed dipole along edir(3) : 
        Dipole                0.2620 Ry au,          0.6659 Debye
        Dipole field          0.0005 Ry au, 
 
        Potential amp.       -0.0458 Ry
        Total length         46.3494 bohr
 

     total cpu time spent up to now is      577.1 secs

     total energy              =   -2940.11995743 Ry
     estimated scf accuracy    <       4.53192088 Ry

     iteration # 25     ecut=    29.40 Ry     beta= 0.05
     Davidson diagonalization with overlap
     ethr =  1.15E-03,  avg # of iterations =  1.3

     negative rho (up, down):  2.892E-02 0.000E+00
 
     Adding external electric field

     Computed dipole along edir(3) : 
        Dipole                0.1225 Ry au,          0.3113 Debye
        Dipole field          0.0002 Ry au, 
 
        Potential amp.       -0.0214 Ry
        Total length         46.3494 bohr
 

     total cpu time spent up to now is      584.1 secs

     total energy              =   -2939.49322628 Ry
     estimated scf accuracy    <       4.72181667 Ry

     iteration # 26     ecut=    29.40 Ry     beta= 0.05
     Davidson diagonalization with overlap
     ethr =  1.15E-03,  avg # of iterations =  2.9

     negative rho (up, down):  6.272E-02 0.000E+00
 
     Adding external electric field

     Computed dipole along edir(3) : 
        Dipole               -0.2986 Ry au,         -0.7590 Debye
        Dipole field         -0.0006 Ry au, 
 
        Potential amp.        0.0522 Ry
        Total length         46.3494 bohr
 

     total cpu time spent up to now is      604.6 secs

     total energy              =   -2938.56088969 Ry
     estimated scf accuracy    <       2.83843781 Ry

     iteration # 27     ecut=    29.40 Ry     beta= 0.05
     Davidson diagonalization with overlap
     c_bands:  1 eigenvalues not converged
     c_bands:  1 eigenvalues not converged
     ethr =  7.19E-04,  avg # of iterations = 16.7

     negative rho (up, down):  4.486E-02 0.000E+00
 
     Adding external electric field

     Computed dipole along edir(3) : 
        Dipole               -0.0700 Ry au,         -0.1779 Debye
        Dipole field         -0.0001 Ry au, 
 
        Potential amp.        0.0122 Ry
        Total length         46.3494 bohr
 

     total cpu time spent up to now is      630.2 secs

     total energy              =   -2939.49046768 Ry
     estimated scf accuracy    <     157.17962579 Ry

     iteration # 28     ecut=    29.40 Ry     beta= 0.05
     Davidson diagonalization with overlap
     ethr =  7.19E-04,  avg # of iterations =  7.0

     negative rho (up, down):  3.510E-02 0.000E+00
 
     Adding external electric field

     Computed dipole along edir(3) : 
        Dipole                0.0193 Ry au,          0.0492 Debye
        Dipole field          0.0000 Ry au, 
 
        Potential amp.       -0.0034 Ry
        Total length         46.3494 bohr
 

     total cpu time spent up to now is      673.3 secs

     total energy              =   -2938.38505348 Ry
     estimated scf accuracy    <      70.47348424 Ry

     iteration # 29     ecut=    29.40 Ry     beta= 0.05
     Davidson diagonalization with overlap
     ethr =  7.19E-04,  avg # of iterations = 13.2

     negative rho (up, down):  2.267E-02 0.000E+00
 
     Adding external electric field

     Computed dipole along edir(3) : 
        Dipole                0.2871 Ry au,          0.7297 Debye
        Dipole field          0.0005 Ry au, 
 
        Potential amp.       -0.0502 Ry
        Total length         46.3494 bohr
 

     total cpu time spent up to now is     1021.0 secs

     total energy              =   -2939.08392294 Ry
     estimated scf accuracy    <       1.55031545 Ry

     iteration # 30     ecut=    29.40 Ry     beta= 0.05
     Davidson diagonalization with overlap
     ethr =  3.92E-04,  avg # of iterations =  9.6

     negative rho (up, down):  1.050E-02 0.000E+00
 
     Adding external electric field

     Computed dipole along edir(3) : 
        Dipole                0.4209 Ry au,          1.0698 Debye
        Dipole field          0.0008 Ry au, 
 
        Potential amp.       -0.0736 Ry
        Total length         46.3494 bohr
 

     total cpu time spent up to now is     1031.3 secs

     total energy              =   -2939.23685685 Ry
     estimated scf accuracy    <       0.41580800 Ry

     iteration # 31     ecut=    29.40 Ry     beta= 0.05
     Davidson diagonalization with overlap
     c_bands:  1 eigenvalues not converged
     c_bands:  3 eigenvalues not converged
     c_bands:  4 eigenvalues not converged
     c_bands:  2 eigenvalues not converged
     c_bands:  3 eigenvalues not converged
     c_bands:  1 eigenvalues not converged
     ethr =  1.05E-04,  avg # of iterations = 19.4

     negative rho (up, down):  1.846E-02 0.000E+00
 
     Adding external electric field

     Computed dipole along edir(3) : 
        Dipole                0.3635 Ry au,          0.9239 Debye
        Dipole field          0.0007 Ry au, 
 
        Potential amp.       -0.0636 Ry
        Total length         46.3494 bohr
 

     total cpu time spent up to now is     1050.2 secs

     total energy              =   -2939.23054995 Ry
     estimated scf accuracy    <       1.01355819 Ry

     iteration # 32     ecut=    29.40 Ry     beta= 0.05
     Davidson diagonalization with overlap
     ethr =  1.05E-04,  avg # of iterations =  3.1

     negative rho (up, down):  3.300E-02 0.000E+00
 
     Adding external electric field

     Computed dipole along edir(3) : 
        Dipole                0.2494 Ry au,          0.6339 Debye
        Dipole field          0.0005 Ry au, 
 
        Potential amp.       -0.0436 Ry
        Total length         46.3494 bohr
 

     total cpu time spent up to now is     1133.4 secs

     total energy              =   -2939.15958870 Ry
     estimated scf accuracy    <       0.63004620 Ry

     iteration # 33     ecut=    29.40 Ry     beta= 0.05
     Davidson diagonalization with overlap
     ethr =  1.05E-04,  avg # of iterations = 12.4

     negative rho (up, down):  1.471E-02 0.000E+00
 
     Adding external electric field

     Computed dipole along edir(3) : 
        Dipole                0.3769 Ry au,          0.9581 Debye
        Dipole field          0.0007 Ry au, 
 
        Potential amp.       -0.0659 Ry
        Total length         46.3494 bohr
 

     total cpu time spent up to now is     1174.0 secs

     total energy              =   -2939.17821697 Ry
     estimated scf accuracy    <       0.37172406 Ry

     iteration # 34     ecut=    29.40 Ry     beta= 0.05
     Davidson diagonalization with overlap
     ethr =  9.41E-05,  avg # of iterations = 12.1

     negative rho (up, down):  8.503E-03 0.000E+00
 
     Adding external electric field

     Computed dipole along edir(3) : 
        Dipole                0.3665 Ry au,          0.9316 Debye
        Dipole field          0.0007 Ry au, 
 
        Potential amp.       -0.0641 Ry
        Total length         46.3494 bohr
 

     total cpu time spent up to now is     1266.8 secs

     total energy              =   -2939.23329692 Ry
     estimated scf accuracy    <       0.41308007 Ry

     iteration # 35     ecut=    29.40 Ry     beta= 0.05
     Davidson diagonalization with overlap
     ethr =  9.41E-05,  avg # of iterations =  2.9

     negative rho (up, down):  1.349E-02 0.000E+00
 
     Adding external electric field

     Computed dipole along edir(3) : 
        Dipole                0.2984 Ry au,          0.7584 Debye
        Dipole field          0.0006 Ry au, 
 
        Potential amp.       -0.0522 Ry
        Total length         46.3494 bohr
 

     total cpu time spent up to now is     1363.0 secs

     total energy              =   -2939.21476265 Ry
     estimated scf accuracy    <       0.43291333 Ry

     iteration # 36     ecut=    29.40 Ry     beta= 0.05
     Davidson diagonalization with overlap
     ethr =  9.41E-05,  avg # of iterations =  2.0

     negative rho (up, down):  1.061E-02 0.000E+00
 
     Adding external electric field

     Computed dipole along edir(3) : 
        Dipole                0.2694 Ry au,          0.6848 Debye
        Dipole field          0.0005 Ry au, 
 
        Potential amp.       -0.0471 Ry
        Total length         46.3494 bohr
 

     total cpu time spent up to now is     1482.2 secs

     total energy              =   -2939.22032281 Ry
     estimated scf accuracy    <       0.27723756 Ry

     iteration # 37     ecut=    29.40 Ry     beta= 0.05
     Davidson diagonalization with overlap
     ethr =  7.02E-05,  avg # of iterations =  1.1

     negative rho (up, down):  9.748E-03 0.000E+00
 
     Adding external electric field

     Computed dipole along edir(3) : 
        Dipole                0.1795 Ry au,          0.4563 Debye
        Dipole field          0.0003 Ry au, 
 
        Potential amp.       -0.0314 Ry
        Total length         46.3494 bohr
 

     total cpu time spent up to now is     1489.5 secs

     total energy              =   -2939.20145260 Ry
     estimated scf accuracy    <       0.25509878 Ry

     iteration # 38     ecut=    29.40 Ry     beta= 0.05
     Davidson diagonalization with overlap
     ethr =  6.46E-05,  avg # of iterations =  7.4

     negative rho (up, down):  1.157E-02 0.000E+00
 
     Adding external electric field

     Computed dipole along edir(3) : 
        Dipole                0.2785 Ry au,          0.7080 Debye
        Dipole field          0.0005 Ry au, 
 
        Potential amp.       -0.0487 Ry
        Total length         46.3494 bohr
 

     total cpu time spent up to now is     1527.5 secs

     total energy              =   -2939.20421606 Ry
     estimated scf accuracy    <       0.07211035 Ry

     iteration # 39     ecut=    29.40 Ry     beta= 0.05
     Davidson diagonalization with overlap
     c_bands:  2 eigenvalues not converged
     c_bands:  2 eigenvalues not converged
     c_bands:  2 eigenvalues not converged
     c_bands:  1 eigenvalues not converged
     c_bands:  4 eigenvalues not converged
     c_bands:  5 eigenvalues not converged
     c_bands:  1 eigenvalues not converged
     ethr =  1.83E-05,  avg # of iterations = 19.1

     negative rho (up, down):  1.248E-02 0.000E+00
 
     Adding external electric field

     Computed dipole along edir(3) : 
        Dipole                0.2142 Ry au,          0.5445 Debye
        Dipole field          0.0004 Ry au, 
 
        Potential amp.       -0.0375 Ry
        Total length         46.3494 bohr
 

     total cpu time spent up to now is     1792.0 secs

     total energy              =   -2939.20572949 Ry
     estimated scf accuracy    <       0.18775621 Ry

     iteration # 40     ecut=    29.40 Ry     beta= 0.05
     Davidson diagonalization with overlap
     c_bands:  1 eigenvalues not converged
     c_bands:  1 eigenvalues not converged
     ethr =  1.83E-05,  avg # of iterations = 12.6

     negative rho (up, down):  1.284E-02 0.000E+00
 
     Adding external electric field

     Computed dipole along edir(3) : 
        Dipole                0.3416 Ry au,          0.8682 Debye
        Dipole field          0.0006 Ry au, 
 
        Potential amp.       -0.0598 Ry
        Total length         46.3494 bohr
 

     total cpu time spent up to now is     1813.1 secs

     total energy              =   -2939.20483794 Ry
     estimated scf accuracy    <       0.03199423 Ry

     iteration # 41     ecut=    29.40 Ry     beta= 0.05
     Davidson diagonalization with overlap
     c_bands:  1 eigenvalues not converged
     c_bands:  1 eigenvalues not converged
     c_bands:  4 eigenvalues not converged
     ethr =  8.10E-06,  avg # of iterations = 15.3

     negative rho (up, down):  1.325E-02 0.000E+00
 
     Adding external electric field

     Computed dipole along edir(3) : 
        Dipole                0.3787 Ry au,          0.9626 Debye
        Dipole field          0.0007 Ry au, 
 
        Potential amp.       -0.0663 Ry
        Total length         46.3494 bohr
 

     total cpu time spent up to now is     2061.2 secs

     total energy              =   -2939.20896133 Ry
     estimated scf accuracy    <       0.02204094 Ry

     iteration # 42     ecut=    29.40 Ry     beta= 0.05
     Davidson diagonalization with overlap
     ethr =  5.58E-06,  avg # of iterations =  8.1

     negative rho (up, down):  1.368E-02 0.000E+00
 
     Adding external electric field

     Computed dipole along edir(3) : 
        Dipole                0.3504 Ry au,          0.8905 Debye
        Dipole field          0.0007 Ry au, 
 
        Potential amp.       -0.0613 Ry
        Total length         46.3494 bohr
 

     total cpu time spent up to now is     2070.1 secs

     total energy              =   -2939.20893125 Ry
     estimated scf accuracy    <       0.00687739 Ry

     iteration # 43     ecut=    29.40 Ry     beta= 0.05
     Davidson diagonalization with overlap
     c_bands:  1 eigenvalues not converged
     c_bands:  1 eigenvalues not converged
     c_bands:  1 eigenvalues not converged
     ethr =  1.74E-06,  avg # of iterations = 17.6

     negative rho (up, down):  1.430E-02 0.000E+00
 
     Adding external electric field

     Computed dipole along edir(3) : 
        Dipole                0.3458 Ry au,          0.8789 Debye
        Dipole field          0.0007 Ry au, 
 
        Potential amp.       -0.0605 Ry
        Total length         46.3494 bohr
 

     total cpu time spent up to now is     2086.4 secs

     total energy              =   -2939.20996810 Ry
     estimated scf accuracy    <       0.00405347 Ry

     iteration # 44     ecut=    29.40 Ry     beta= 0.05
     Davidson diagonalization with overlap
     ethr =  1.03E-06,  avg # of iterations =  7.0

     negative rho (up, down):  1.529E-02 0.000E+00
 
     Adding external electric field

     Computed dipole along edir(3) : 
        Dipole                0.4076 Ry au,          1.0361 Debye
        Dipole field          0.0008 Ry au, 
 
        Potential amp.       -0.0713 Ry
        Total length         46.3494 bohr
 

     total cpu time spent up to now is     2182.8 secs

     total energy              =   -2939.20944957 Ry
     estimated scf accuracy    <       0.00405195 Ry

     iteration # 45     ecut=    29.40 Ry     beta= 0.05
     Davidson diagonalization with overlap
     c_bands:  1 eigenvalues not converged
     ethr =  1.03E-06,  avg # of iterations = 11.8

     negative rho (up, down):  1.610E-02 0.000E+00
 
     Adding external electric field

     Computed dipole along edir(3) : 
        Dipole                0.4184 Ry au,          1.0634 Debye
        Dipole field          0.0008 Ry au, 
 
        Potential amp.       -0.0732 Ry
        Total length         46.3494 bohr
 

     total cpu time spent up to now is     2196.4 secs

     total energy              =   -2939.20988044 Ry
     estimated scf accuracy    <       0.00155800 Ry

     iteration # 46     ecut=    29.40 Ry     beta= 0.05
     Davidson diagonalization with overlap
     c_bands:  2 eigenvalues not converged
     c_bands:  2 eigenvalues not converged
     ethr =  3.94E-07,  avg # of iterations = 13.5

     negative rho (up, down):  1.627E-02 0.000E+00
 
     Adding external electric field

     Computed dipole along edir(3) : 
        Dipole                0.4342 Ry au,          1.1038 Debye
        Dipole field          0.0008 Ry au, 
 
        Potential amp.       -0.0760 Ry
        Total length         46.3494 bohr
 

     total cpu time spent up to now is     2210.7 secs

     total energy              =   -2939.21007282 Ry
     estimated scf accuracy    <       0.00502668 Ry

     iteration # 47     ecut=    29.40 Ry     beta= 0.05
     Davidson diagonalization with overlap
     ethr =  3.94E-07,  avg # of iterations =  5.5

     negative rho (up, down):  1.642E-02 0.000E+00
 
     Adding external electric field

     Computed dipole along edir(3) : 
        Dipole                0.4441 Ry au,          1.1289 Debye
        Dipole field          0.0008 Ry au, 
 
        Potential amp.       -0.0777 Ry
        Total length         46.3494 bohr
 

     total cpu time spent up to now is     2224.7 secs

     total energy              =   -2939.20996852 Ry
     estimated scf accuracy    <       0.00126126 Ry

     iteration # 48     ecut=    29.40 Ry     beta= 0.05
     Davidson diagonalization with overlap
     c_bands:  1 eigenvalues not converged
     c_bands:  1 eigenvalues not converged
     ethr =  3.19E-07,  avg # of iterations = 14.3

     negative rho (up, down):  1.688E-02 0.000E+00
 
     Adding external electric field

     Computed dipole along edir(3) : 
        Dipole                0.4437 Ry au,          1.1278 Debye
        Dipole field          0.0008 Ry au, 
 
        Potential amp.       -0.0776 Ry
        Total length         46.3494 bohr
 

     total cpu time spent up to now is     2237.0 secs

     total energy              =   -2939.21012202 Ry
     estimated scf accuracy    <       0.00026453 Ry

     iteration # 49     ecut=    29.40 Ry     beta= 0.05
     Davidson diagonalization with overlap
     ethr =  6.70E-08,  avg # of iterations = 11.5

     negative rho (up, down):  1.696E-02 0.000E+00
 
     Adding external electric field

     Computed dipole along edir(3) : 
        Dipole                0.4447 Ry au,          1.1303 Debye
        Dipole field          0.0008 Ry au, 
 
        Potential amp.       -0.0778 Ry
        Total length         46.3494 bohr
 

     total cpu time spent up to now is     2252.8 secs

     total energy              =   -2939.21013798 Ry
     estimated scf accuracy    <       0.00019922 Ry

     iteration # 50     ecut=    29.40 Ry     beta= 0.05
     Davidson diagonalization with overlap
     ethr =  5.04E-08,  avg # of iterations = 13.9

     negative rho (up, down):  1.698E-02 0.000E+00
 
     Adding external electric field

     Computed dipole along edir(3) : 
        Dipole                0.4528 Ry au,          1.1508 Debye
        Dipole field          0.0009 Ry au, 
 
        Potential amp.       -0.0792 Ry
        Total length         46.3494 bohr
 

     total cpu time spent up to now is     2266.6 secs

     total energy              =   -2939.21016330 Ry
     estimated scf accuracy    <       0.00012970 Ry

     iteration # 51     ecut=    29.40 Ry     beta= 0.05
     Davidson diagonalization with overlap
     ethr =  3.28E-08,  avg # of iterations =  8.1

     negative rho (up, down):  1.697E-02 0.000E+00
 
     Adding external electric field

     Computed dipole along edir(3) : 
        Dipole                0.4587 Ry au,          1.1659 Debye
        Dipole field          0.0009 Ry au, 
 
        Potential amp.       -0.0802 Ry
        Total length         46.3494 bohr
 

     total cpu time spent up to now is     2276.3 secs

     total energy              =   -2939.21018115 Ry
     estimated scf accuracy    <       0.00006009 Ry

     iteration # 52     ecut=    29.40 Ry     beta= 0.05
     Davidson diagonalization with overlap
     ethr =  1.52E-08,  avg # of iterations = 12.2

     negative rho (up, down):  1.692E-02 0.000E+00
 
     Adding external electric field

     Computed dipole along edir(3) : 
        Dipole                0.4564 Ry au,          1.1599 Debye
        Dipole field          0.0009 Ry au, 
 
        Potential amp.       -0.0798 Ry
        Total length         46.3494 bohr
 

     total cpu time spent up to now is     2290.4 secs

     total energy              =   -2939.21018970 Ry
     estimated scf accuracy    <       0.00008754 Ry

     iteration # 53     ecut=    29.40 Ry     beta= 0.05
     Davidson diagonalization with overlap
     ethr =  1.52E-08,  avg # of iterations = 10.3

     negative rho (up, down):  1.686E-02 0.000E+00
 
     Adding external electric field

     Computed dipole along edir(3) : 
        Dipole                0.4566 Ry au,          1.1606 Debye
        Dipole field          0.0009 Ry au, 
 
        Potential amp.       -0.0799 Ry
        Total length         46.3494 bohr
 

     total cpu time spent up to now is     2301.0 secs

     total energy              =   -2939.21020301 Ry
     estimated scf accuracy    <       0.00002553 Ry

     iteration # 54     ecut=    29.40 Ry     beta= 0.05
     Davidson diagonalization with overlap
     c_bands:  1 eigenvalues not converged
     ethr =  6.46E-09,  avg # of iterations = 11.6

     negative rho (up, down):  1.683E-02 0.000E+00
 
     Adding external electric field

     Computed dipole along edir(3) : 
        Dipole                0.4585 Ry au,          1.1654 Debye
        Dipole field          0.0009 Ry au, 
 
        Potential amp.       -0.0802 Ry
        Total length         46.3494 bohr
 

     total cpu time spent up to now is     2316.8 secs

     total energy              =   -2939.21021560 Ry
     estimated scf accuracy    <       0.00002962 Ry

     iteration # 55     ecut=    29.40 Ry     beta= 0.05
     Davidson diagonalization with overlap
     ethr =  6.46E-09,  avg # of iterations =  9.2

     negative rho (up, down):  1.676E-02 0.000E+00
 
     Adding external electric field

     Computed dipole along edir(3) : 
        Dipole                0.4577 Ry au,          1.1633 Debye
        Dipole field          0.0009 Ry au, 
 
        Potential amp.       -0.0801 Ry
        Total length         46.3494 bohr
 

     total cpu time spent up to now is     2327.1 secs

     total energy              =   -2939.21022493 Ry
     estimated scf accuracy    <       0.00001211 Ry

     iteration # 56     ecut=    29.40 Ry     beta= 0.05
     Davidson diagonalization with overlap
     ethr =  3.07E-09,  avg # of iterations =  7.1

     negative rho (up, down):  1.654E-02 0.000E+00
 
     Adding external electric field

     Computed dipole along edir(3) : 
        Dipole                0.4558 Ry au,          1.1585 Debye
        Dipole field          0.0009 Ry au, 
 
        Potential amp.       -0.0797 Ry
        Total length         46.3494 bohr
 

     total cpu time spent up to now is     2337.5 secs

     total energy              =   -2939.21023276 Ry
     estimated scf accuracy    <       0.00000822 Ry

     iteration # 57     ecut=    29.40 Ry     beta= 0.05
     Davidson diagonalization with overlap
     ethr =  2.08E-09,  avg # of iterations =  6.4

     negative rho (up, down):  1.646E-02 0.000E+00
 
     Adding external electric field

     Computed dipole along edir(3) : 
        Dipole                0.4557 Ry au,          1.1583 Debye
        Dipole field          0.0009 Ry au, 
 
        Potential amp.       -0.0797 Ry
        Total length         46.3494 bohr
 

     total cpu time spent up to now is     2346.8 secs

     total energy              =   -2939.21024112 Ry
     estimated scf accuracy    <       0.00000313 Ry

     iteration # 58     ecut=    29.40 Ry     beta= 0.05
     Davidson diagonalization with overlap
     ethr =  7.93E-10,  avg # of iterations = 10.7

     negative rho (up, down):  1.654E-02 0.000E+00
 
     Adding external electric field

     Computed dipole along edir(3) : 
        Dipole                0.4568 Ry au,          1.1611 Debye
        Dipole field          0.0009 Ry au, 
 
        Potential amp.       -0.0799 Ry
        Total length         46.3494 bohr
 

     total cpu time spent up to now is     2359.2 secs

     total energy              =   -2939.21024834 Ry
     estimated scf accuracy    <       0.00000200 Ry

     iteration # 59     ecut=    29.40 Ry     beta= 0.05
     Davidson diagonalization with overlap
     ethr =  5.07E-10,  avg # of iterations =  7.2

     negative rho (up, down):  1.652E-02 0.000E+00
 
     Adding external electric field

     Computed dipole along edir(3) : 
        Dipole                0.4567 Ry au,          1.1607 Debye
        Dipole field          0.0009 Ry au, 
 
        Potential amp.       -0.0799 Ry
        Total length         46.3494 bohr
 

     total cpu time spent up to now is     2369.4 secs

     total energy              =   -2939.21025435 Ry
     estimated scf accuracy    <       0.00000210 Ry

     iteration # 60     ecut=    29.40 Ry     beta= 0.05
     Davidson diagonalization with overlap
     ethr =  5.07E-10,  avg # of iterations = 11.1

     negative rho (up, down):  1.650E-02 0.000E+00
 
     Adding external electric field

     Computed dipole along edir(3) : 
        Dipole                0.4570 Ry au,          1.1616 Debye
        Dipole field          0.0009 Ry au, 
 
        Potential amp.       -0.0799 Ry
        Total length         46.3494 bohr
 

     total cpu time spent up to now is     2379.7 secs

     total energy              =   -2939.21025946 Ry
     estimated scf accuracy    <       0.00000166 Ry

     iteration # 61     ecut=    29.40 Ry     beta= 0.05
     Davidson diagonalization with overlap
     ethr =  4.19E-10,  avg # of iterations =  7.2

     negative rho (up, down):  1.650E-02 0.000E+00
 
     Adding external electric field

     Computed dipole along edir(3) : 
        Dipole                0.4571 Ry au,          1.1619 Debye
        Dipole field          0.0009 Ry au, 
 
        Potential amp.       -0.0800 Ry
        Total length         46.3494 bohr
 

     total cpu time spent up to now is     2391.5 secs

     total energy              =   -2939.21026447 Ry
     estimated scf accuracy    <       0.00000046 Ry

     iteration # 62     ecut=    29.40 Ry     beta= 0.05
     Davidson diagonalization with overlap
     c_bands:  1 eigenvalues not converged
     ethr =  1.16E-10,  avg # of iterations = 13.1

     negative rho (up, down):  1.651E-02 0.000E+00
 
     Adding external electric field

     Computed dipole along edir(3) : 
        Dipole                0.4570 Ry au,          1.1615 Debye
        Dipole field          0.0009 Ry au, 
 
        Potential amp.       -0.0799 Ry
        Total length         46.3494 bohr
 

     total cpu time spent up to now is     2409.0 secs

     total energy              =   -2939.21026877 Ry
     estimated scf accuracy    <       0.00000041 Ry

     iteration # 63     ecut=    29.40 Ry     beta= 0.05
     Davidson diagonalization with overlap
     ethr =  1.04E-10,  avg # of iterations =  4.2

     negative rho (up, down):  1.651E-02 0.000E+00
 
     Adding external electric field

     Computed dipole along edir(3) : 
        Dipole                0.4570 Ry au,          1.1615 Debye
        Dipole field          0.0009 Ry au, 
 
        Potential amp.       -0.0799 Ry
        Total length         46.3494 bohr
 

     total cpu time spent up to now is     2417.4 secs

     total energy              =   -2939.21027264 Ry
     estimated scf accuracy    <       0.00000023 Ry

     iteration # 64     ecut=    29.40 Ry     beta= 0.05
     Davidson diagonalization with overlap
     ethr =  5.75E-11,  avg # of iterations = 12.0

     negative rho (up, down):  1.652E-02 0.000E+00
 
     Adding external electric field

     Computed dipole along edir(3) : 
        Dipole                0.4574 Ry au,          1.1627 Debye
        Dipole field          0.0009 Ry au, 
 
        Potential amp.       -0.0800 Ry
        Total length         46.3494 bohr
 

     total cpu time spent up to now is     2432.6 secs

     total energy              =   -2939.21027614 Ry
     estimated scf accuracy    <       0.00000027 Ry

     iteration # 65     ecut=    29.40 Ry     beta= 0.05
     Davidson diagonalization with overlap
     ethr =  5.75E-11,  avg # of iterations = 13.4

     negative rho (up, down):  1.651E-02 0.000E+00
 
     Adding external electric field

     Computed dipole along edir(3) : 
        Dipole                0.4574 Ry au,          1.1625 Debye
        Dipole field          0.0009 Ry au, 
 
        Potential amp.       -0.0800 Ry
        Total length         46.3494 bohr
 

     total cpu time spent up to now is     2448.2 secs

     total energy              =   -2939.21027936 Ry
     estimated scf accuracy    <       0.00000016 Ry

     iteration # 66     ecut=    29.40 Ry     beta= 0.05
     Davidson diagonalization with overlap
     ethr =  4.07E-11,  avg # of iterations =  3.3

     negative rho (up, down):  1.650E-02 0.000E+00
 
     Adding external electric field

     Computed dipole along edir(3) : 
        Dipole                0.4573 Ry au,          1.1622 Debye
        Dipole field          0.0009 Ry au, 
 
        Potential amp.       -0.0800 Ry
        Total length         46.3494 bohr
 

     total cpu time spent up to now is     2456.8 secs

     total energy              =   -2939.21028219 Ry
     estimated scf accuracy    <       0.00000011 Ry

     iteration # 67     ecut=    29.40 Ry     beta= 0.05
     Davidson diagonalization with overlap
     ethr =  2.85E-11,  avg # of iterations = 14.1

     negative rho (up, down):  1.664E-02 0.000E+00
 
     Adding external electric field

     Computed dipole along edir(3) : 
        Dipole                0.4573 Ry au,          1.1622 Debye
        Dipole field          0.0009 Ry au, 
 
        Potential amp.       -0.0800 Ry
        Total length         46.3494 bohr
 

     total cpu time spent up to now is     2471.6 secs

     End of self-consistent calculation

          k = 0.0000 0.0000 0.0000 ( 18029 PWs)   bands (ev):

   -56.0386 -56.0297 -56.0045 -55.9932 -55.9305 -55.8961 -55.8741 -55.8520
   -55.8451 -55.8119 -55.8111 -55.7781 -55.6085 -55.4852 -55.0157 -54.9817
   -32.5845 -32.5206 -32.3925 -32.3788 -32.3452 -32.3450 -32.3316 -32.3023
   -32.2809 -32.2611 -32.2538 -32.2372 -32.2099 -32.1907 -32.1822 -32.1692
   -32.1578 -32.1425 -32.1273 -32.1017 -32.0988 -32.0957 -32.0682 -32.0501
   -32.0459 -32.0427 -32.0331 -32.0294 -32.0162 -32.0141 -32.0064 -31.9888
   -31.9858 -31.9797 -31.9646 -31.9482 -31.9237 -31.8936 -31.8201 -31.7652
   -31.7004 -31.5923 -31.4227 -31.3344 -31.3120 -31.2396 -31.1531 -31.0419
   -20.9797 -16.7858 -16.5148 -16.2952 -16.1939 -16.1698 -16.0447 -15.8822
   -15.7588 -15.7117 -15.6105 -15.6014 -15.5743 -15.5525 -15.5380 -15.5277
   -15.4915 -15.4805 -15.4633 -15.4524 -15.4023 -15.3925 -15.3741 -15.2765
   -15.2199 -15.1734 -15.1599 -15.0941 -15.0423 -14.6812 -13.5183 -13.4019
    -9.1562  -6.2280  -4.1615  -4.1333  -4.1141  -3.9990  -3.9444  -3.9040
    -3.8768  -3.6581  -3.5874  -3.2920  -3.2298  -3.2101  -3.1957  -3.1651
    -3.0308  -2.9887  -2.9445  -2.8804  -2.8566  -2.8416  -2.8174  -2.8078
    -2.7897  -2.7575  -2.7222  -2.7182  -2.6537  -2.6061  -2.5336  -2.4535
    -2.4354  -2.3546  -2.3398  -2.3117  -2.2816  -2.2723  -2.2672  -2.2402
    -2.2115  -2.2059  -2.0174  -1.9927  -1.9326  -1.8342  -1.8102  -1.6455
    -1.5789  -1.4963  -1.4869  -1.4662  -1.4483  -1.4288  -1.3381  -1.1989
    -1.1774  -1.1553  -1.1058  -1.0449  -1.0114  -0.9162  -0.8841  -0.8070
    -0.7998  -0.7763  -0.7125  -0.6621  -0.5271  -0.4962  -0.4839  -0.4401
    -0.3947  -0.3322  -0.3166  -0.2561  -0.1904  -0.1812  -0.1051  -0.0758
    -0.0694  -0.0536  -0.0324   0.0026   0.0161   0.1434   0.1654   0.2521
     0.2926   0.3803   0.5134   0.6202   0.6461   0.7139   0.9320   1.0062
     1.1037   1.1354   1.1983   1.5776   1.6232   3.0998   3.1834   3.2313
     3.2418   3.3287   3.3462   3.5489   3.5768   3.6077   3.7457

          k = 0.0000 0.0419 0.0000 ( 17933 PWs)   bands (ev):

   -56.0335 -56.0245 -56.0094 -55.9983 -55.9276 -55.8924 -55.8768 -55.8554
   -55.8401 -55.8160 -55.8069 -55.7830 -55.6074 -55.4860 -55.0106 -54.9866
   -32.5272 -32.4666 -32.3383 -32.3329 -32.3270 -32.3238 -32.3187 -32.2693
   -32.2595 -32.2586 -32.2478 -32.2428 -32.2130 -32.2100 -32.1991 -32.1916
   -32.1769 -32.1457 -32.1139 -32.1096 -32.0983 -32.0916 -32.0653 -32.0629
   -32.0518 -32.0484 -32.0474 -32.0456 -32.0378 -32.0253 -32.0177 -32.0127
   -32.0035 -31.9822 -31.9816 -31.9755 -31.9669 -31.8883 -31.8192 -31.7651
   -31.7141 -31.6189 -31.3686 -31.3309 -31.3150 -31.2270 -31.1656 -31.0990
   -20.9797 -16.6500 -16.3946 -16.1850 -16.0870 -16.0698 -16.0082 -15.9061
   -15.8202 -15.7931 -15.6362 -15.6119 -15.5808 -15.5589 -15.5454 -15.5152
   -15.5073 -15.4949 -15.4768 -15.4725 -15.4239 -15.3903 -15.3564 -15.2750
   -15.2568 -15.2313 -15.2131 -15.1507 -15.0690 -14.7822 -13.5224 -13.4414
    -9.1640  -6.2273  -4.1387  -4.1180  -3.9645  -3.8335  -3.7676  -3.7436
    -3.7084  -3.5034  -3.3592  -3.2706  -3.2135  -3.1302  -3.0996  -3.0868
    -3.0517  -3.0000  -2.9888  -2.9739  -2.9330  -2.9227  -2.8948  -2.8840
    -2.7998  -2.7901  -2.7574  -2.7413  -2.7300  -2.6958  -2.6420  -2.6082
    -2.5386  -2.5279  -2.4810  -2.4571  -2.3754  -2.3023  -2.2900  -2.2096
    -2.1422  -2.0294  -1.9717  -1.9285  -1.8329  -1.7956  -1.7152  -1.6400
    -1.6255  -1.4536  -1.3920  -1.3473  -1.3318  -1.2542  -1.2379  -1.1024
    -1.0687  -1.0183  -0.9899  -0.9484  -0.9436  -0.9335  -0.9018  -0.8528
    -0.8345  -0.7872  -0.6988  -0.6727  -0.5969  -0.5801  -0.5429  -0.5312
    -0.5063  -0.4855  -0.3471  -0.3319  -0.2696  -0.2345  -0.2222  -0.2021
    -0.1815  -0.1569  -0.0648  -0.0092   0.0116   0.0851   0.1489   0.1818
     0.2229   0.2972   0.3009   0.3719   0.5285   0.6247   0.6542   0.9766
     1.1818   1.1954   1.2791   1.5314   1.5352   3.2939   3.3285   3.3486
     3.3965   3.4511   3.4955   3.5578   3.5892   3.6044   3.6486

          k = 0.0000-0.0839 0.0000 ( 17884 PWs)   bands (ev):

   -56.0223 -56.0206 -56.0144 -56.0084 -55.9245 -55.8879 -55.8799 -55.8599
   -55.8294 -55.8267 -55.7963 -55.7935 -55.6064 -55.4870 -54.9987 -54.9985
   -32.3903 -32.3844 -32.3349 -32.3338 -32.3176 -32.3161 -32.3049 -32.2929
   -32.2306 -32.2278 -32.2211 -32.2184 -32.2122 -32.1918 -32.1898 -32.1666
   -32.1500 -32.1442 -32.1423 -32.1403 -32.1275 -32.1174 -32.1134 -32.0868
   -32.0814 -32.0813 -32.0807 -32.0752 -32.0596 -32.0480 -32.0282 -32.0265
   -32.0069 -32.0004 -31.9745 -31.9738 -31.9733 -31.8787 -31.8183 -31.7652
   -31.7415 -31.6428 -31.3228 -31.3227 -31.2357 -31.2355 -31.1964 -31.1962
   -20.9796 -16.3085 -16.3020 -16.1106 -16.1080 -15.9523 -15.9416 -15.8566
   -15.8267 -15.8248 -15.7925 -15.7563 -15.7540 -15.6009 -15.5940 -15.4959
   -15.4248 -15.4226 -15.4162 -15.3982 -15.3747 -15.3729 -15.3724 -15.3563
   -15.3281 -15.2935 -15.2811 -15.1773 -15.0389 -14.9763 -13.5043 -13.5039
    -9.1715  -6.2266  -4.1418  -4.1184  -3.5278  -3.4873  -3.4529  -3.4274
    -3.4159  -3.4043  -3.3292  -3.3287  -3.3065  -3.2787  -3.2139  -3.1638
    -3.1437  -3.1157  -3.1051  -3.0143  -3.0061  -2.9911  -2.9812  -2.9014
    -2.8587  -2.8482  -2.8317  -2.7876  -2.7683  -2.7405  -2.6757  -2.6449
    -2.5935  -2.5471  -2.4444  -2.4147  -2.3931  -2.3662  -2.1142  -2.0189
    -2.0130  -1.9419  -1.8274  -1.7851  -1.7598  -1.7259  -1.6719  -1.6518
    -1.5142  -1.4719  -1.4536  -1.4339  -1.4127  -1.3822  -1.3163  -1.2426
    -1.2092  -1.1639  -1.1439  -1.1034  -0.8982  -0.7911  -0.7779  -0.7056
    -0.6706  -0.6687  -0.6494  -0.6315  -0.5930  -0.5637  -0.5331  -0.5050
    -0.4854  -0.4512  -0.4341  -0.3792  -0.3496  -0.3092  -0.2908  -0.2788
    -0.2501  -0.2264  -0.2190  -0.1856  -0.1436  -0.0872  -0.0122   0.0641
     0.1964   0.2048   0.2090   0.2502   0.5454   0.6038   0.6494   0.7335
     1.2246   1.3386   1.3388   1.4681   1.4698   3.4080   3.4243   3.4395
     3.4653   3.5302   3.5411   3.6182   3.6494   3.6876   3.6997

          k = 0.0380 0.0000 0.0000 ( 17913 PWs)   bands (ev):

   -56.0385 -56.0295 -56.0044 -55.9931 -55.9303 -55.8960 -55.8740 -55.8519
   -55.8448 -55.8119 -55.8110 -55.7781 -55.6084 -55.4851 -55.0156 -54.9816
   -32.5846 -32.5214 -32.3983 -32.3804 -32.3453 -32.3449 -32.3314 -32.3070
   -32.2809 -32.2598 -32.2408 -32.2345 -32.2098 -32.1878 -32.1753 -32.1688
   -32.1525 -32.1422 -32.1175 -32.1068 -32.0993 -32.0955 -32.0720 -32.0466
   -32.0459 -32.0421 -32.0293 -32.0262 -32.0151 -32.0139 -32.0068 -32.0062
   -31.9885 -31.9795 -31.9648 -31.9471 -31.9241 -31.8934 -31.8235 -31.7649
   -31.7002 -31.5922 -31.4223 -31.3377 -31.3100 -31.2394 -31.1529 -31.0417
   -20.9797 -16.7132 -16.4298 -16.2175 -16.1831 -16.0898 -16.0445 -15.9261
   -15.7574 -15.7481 -15.7296 -15.7081 -15.6563 -15.6509 -15.6184 -15.5903
   -15.5812 -15.4202 -15.3994 -15.3553 -15.3134 -15.2983 -15.2829 -15.2800
   -15.2306 -15.2166 -15.1965 -15.1853 -15.0299 -14.6803 -13.5151 -13.4016
    -9.1540  -6.2288  -4.1368  -4.1192  -4.0733  -3.7893  -3.7372  -3.6661
    -3.6594  -3.5828  -3.5728  -3.5070  -3.2879  -3.2808  -3.1591  -3.1456
    -3.1143  -3.0986  -3.0018  -2.9808  -2.9139  -2.8807  -2.7854  -2.7578
    -2.7489  -2.6894  -2.6436  -2.6294  -2.5935  -2.5046  -2.4839  -2.3980
    -2.3869  -2.3819  -2.3111  -2.2802  -2.2423  -2.2279  -2.1924  -2.1340
    -2.0671  -2.0149  -1.9623  -1.8971  -1.8875  -1.8182  -1.8035  -1.7565
    -1.6416  -1.5874  -1.5658  -1.4723  -1.4638  -1.4184  -1.3280  -1.3209
    -1.3081  -1.2673  -1.1722  -1.1143  -1.0451  -0.9489  -0.8710  -0.8570
    -0.8326  -0.8073  -0.7704  -0.7066  -0.5600  -0.5143  -0.4855  -0.4516
    -0.4210  -0.3670  -0.3380  -0.2994  -0.2664  -0.2420  -0.2170  -0.1901
    -0.1651  -0.1478  -0.1272  -0.0744   0.0385   0.0773   0.1159   0.1947
     0.2352   0.3459   0.3752   0.4353   0.6036   0.6539   0.9355   0.9684
     1.0180   1.1578   1.1678   1.4660   1.5403   3.1348   3.1577   3.4435
     3.4634   3.4780   3.5050   3.5251   3.5495   3.5622   3.6157

          k = 0.0380 0.0419 0.0000 ( 17878 PWs)   bands (ev):

   -56.0334 -56.0244 -56.0094 -55.9983 -55.9275 -55.8924 -55.8768 -55.8554
   -55.8399 -55.8159 -55.8070 -55.7830 -55.6074 -55.4860 -55.0106 -54.9865
   -32.5273 -32.4674 -32.3453 -32.3329 -32.3268 -32.3252 -32.3188 -32.2693
   -32.2599 -32.2589 -32.2520 -32.2297 -32.2130 -32.2100 -32.1992 -32.1814
   -32.1744 -32.1413 -32.1127 -32.1092 -32.0965 -32.0918 -32.0657 -32.0622
   -32.0546 -32.0471 -32.0456 -32.0375 -32.0362 -32.0253 -32.0177 -32.0124
   -32.0053 -32.0019 -31.9782 -31.9740 -31.9717 -31.8882 -31.8218 -31.7657
   -31.7139 -31.6188 -31.3683 -31.3336 -31.3140 -31.2268 -31.1657 -31.0989
   -20.9796 -16.5841 -16.3165 -16.1154 -16.0783 -16.0089 -15.9852 -15.9073
   -15.8563 -15.7951 -15.6938 -15.6649 -15.6497 -15.6308 -15.6268 -15.5471
   -15.5291 -15.4700 -15.4303 -15.4241 -15.3788 -15.3630 -15.3392 -15.3005
   -15.2838 -15.2752 -15.2422 -15.1973 -15.0570 -14.7819 -13.5201 -13.4417
    -9.1624  -6.2281  -4.1384  -4.1198  -3.8990  -3.6210  -3.5747  -3.4922
    -3.4854  -3.4304  -3.3591  -3.3380  -3.1963  -3.1393  -3.0856  -3.0475
    -3.0276  -3.0122  -2.9872  -2.9411  -2.9181  -2.9003  -2.8515  -2.8394
    -2.7881  -2.7787  -2.7512  -2.7225  -2.6862  -2.6616  -2.6237  -2.5657
    -2.5386  -2.5073  -2.4505  -2.3702  -2.3368  -2.2613  -2.2191  -2.1736
    -2.0608  -2.0435  -2.0099  -1.9505  -1.8447  -1.7808  -1.6989  -1.6188
    -1.5835  -1.5023  -1.4505  -1.4304  -1.3585  -1.3263  -1.3082  -1.2552
    -1.1826  -1.1431  -1.1100  -1.0280  -0.9969  -0.9679  -0.9433  -0.9019
    -0.8544  -0.8222  -0.7731  -0.7471  -0.7073  -0.6694  -0.6572  -0.6227
    -0.5634  -0.5270  -0.4893  -0.4533  -0.3883  -0.3566  -0.3284  -0.2913
    -0.2317  -0.1885  -0.1068  -0.0763   0.0246   0.0995   0.1601   0.1928
     0.2657   0.3071   0.3674   0.4011   0.4421   0.5525   0.6218   0.9127
     1.1911   1.2063   1.2836   1.4539   1.5159   3.2813   3.3463   3.3983
     3.4732   3.4989   3.5417   3.6129   3.6333   3.6636   3.6885

          k = 0.0380-0.0839 0.0000 ( 17916 PWs)   bands (ev):

   -56.0223 -56.0206 -56.0144 -56.0084 -55.9245 -55.8880 -55.8799 -55.8599
   -55.8293 -55.8266 -55.7964 -55.7936 -55.6065 -55.4870 -54.9987 -54.9985
   -32.3905 -32.3847 -32.3357 -32.3345 -32.3176 -32.3162 -32.3050 -32.2930
   -32.2404 -32.2307 -32.2279 -32.2244 -32.1928 -32.1882 -32.1735 -32.1680
   -32.1506 -32.1430 -32.1413 -32.1410 -32.1277 -32.1247 -32.1241 -32.0950
   -32.0793 -32.0751 -32.0675 -32.0586 -32.0579 -32.0480 -32.0282 -32.0263
   -32.0069 -32.0005 -31.9862 -31.9853 -31.9734 -31.8787 -31.8203 -31.7666
   -31.7414 -31.6427 -31.3238 -31.3237 -31.2356 -31.2354 -31.1964 -31.1963
   -20.9796 -16.2673 -16.2575 -16.0590 -16.0567 -15.9289 -15.9119 -15.8610
   -15.7907 -15.7766 -15.7698 -15.7404 -15.7295 -15.6163 -15.6063 -15.5226
   -15.4815 -15.4671 -15.4513 -15.4428 -15.4252 -15.4196 -15.3926 -15.3842
   -15.3484 -15.3383 -15.3257 -15.1575 -15.0333 -14.9699 -13.5041 -13.5037
    -9.1707  -6.2278  -4.1435  -4.1198  -3.5176  -3.4761  -3.3037  -3.2647
    -3.2325  -3.2289  -3.1980  -3.1413  -3.1214  -3.1048  -3.0907  -3.0726
    -3.0495  -3.0380  -3.0239  -2.9813  -2.9652  -2.8912  -2.8883  -2.8703
    -2.8409  -2.8335  -2.7816  -2.7619  -2.7544  -2.7381  -2.6703  -2.6551
    -2.6247  -2.5822  -2.5044  -2.4815  -2.1753  -2.1553  -2.1170  -2.0460
    -1.9931  -1.9425  -1.9239  -1.8754  -1.8587  -1.8294  -1.8044  -1.7284
    -1.7126  -1.6758  -1.6671  -1.5798  -1.5051  -1.4879  -1.4006  -1.2770
    -1.2443  -1.2073  -1.1364  -1.0641  -1.0328  -0.9696  -0.9028  -0.8403
    -0.8371  -0.7985  -0.7922  -0.7447  -0.7183  -0.7095  -0.6537  -0.6335
    -0.6125  -0.5968  -0.5834  -0.5698  -0.4734  -0.4377  -0.3962  -0.2870
    -0.2158  -0.1559  -0.0853  -0.0296   0.0470   0.0634   0.0831   0.1175
     0.1359   0.1985   0.2952   0.3560   0.4953   0.5451   0.6174   0.7329
     1.2276   1.3518   1.3523   1.4574   1.4586   3.3696   3.3942   3.4625
     3.4835   3.5159   3.5278   3.6778   3.6978   3.7260   3.7286

          k = 0.0380-0.0419 0.0000 ( 17876 PWs)   bands (ev):

   -56.0334 -56.0244 -56.0094 -55.9983 -55.9275 -55.8924 -55.8768 -55.8554
   -55.8399 -55.8159 -55.8070 -55.7830 -55.6074 -55.4860 -55.0106 -54.9865
   -32.5273 -32.4674 -32.3453 -32.3329 -32.3268 -32.3252 -32.3188 -32.2693
   -32.2599 -32.2589 -32.2520 -32.2301 -32.2125 -32.2101 -32.1992 -32.1817
   -32.1744 -32.1412 -32.1121 -32.1092 -32.0964 -32.0919 -32.0658 -32.0626
   -32.0545 -32.0474 -32.0454 -32.0375 -32.0361 -32.0254 -32.0177 -32.0123
   -32.0056 -32.0021 -31.9781 -31.9739 -31.9717 -31.8882 -31.8218 -31.7657
   -31.7139 -31.6188 -31.3682 -31.3336 -31.3140 -31.2268 -31.1657 -31.0989
   -20.9796 -16.5840 -16.3164 -16.1161 -16.0779 -16.0088 -15.9851 -15.9088
   -15.8561 -15.7956 -15.6943 -15.6615 -15.6494 -15.6298 -15.6267 -15.5508
   -15.5297 -15.4656 -15.4347 -15.4242 -15.3761 -15.3624 -15.3424 -15.2982
   -15.2837 -15.2750 -15.2424 -15.1983 -15.0571 -14.7818 -13.5201 -13.4417
    -9.1625  -6.2284  -4.1399  -4.1181  -3.8997  -3.6175  -3.5747  -3.4916
    -3.4867  -3.4293  -3.3651  -3.3352  -3.2010  -3.1397  -3.0741  -3.0432
    -3.0240  -3.0027  -2.9858  -2.9468  -2.9191  -2.8909  -2.8635  -2.8412
    -2.8054  -2.7735  -2.7497  -2.7310  -2.6862  -2.6702  -2.6108  -2.5747
    -2.5399  -2.5079  -2.4621  -2.3786  -2.3118  -2.2578  -2.1987  -2.1772
    -2.0824  -2.0261  -1.9982  -1.9533  -1.8269  -1.7796  -1.6907  -1.6318
    -1.5989  -1.5055  -1.4567  -1.4351  -1.3611  -1.3235  -1.3012  -1.2579
    -1.1789  -1.1515  -1.1198  -1.0431  -1.0113  -0.9659  -0.9445  -0.8924
    -0.8611  -0.8134  -0.7666  -0.7463  -0.7302  -0.6739  -0.6456  -0.6301
    -0.5689  -0.5028  -0.4772  -0.4601  -0.3961  -0.3582  -0.3302  -0.2762
    -0.2425  -0.1868  -0.1074  -0.0643   0.0268   0.0990   0.1652   0.1898
     0.2790   0.3060   0.3686   0.4015   0.4400   0.5540   0.6221   0.9140
     1.1874   1.2065   1.2838   1.4537   1.5165   3.2790   3.3457   3.3971
     3.4718   3.5083   3.5336   3.6064   3.6447   3.6613   3.6806

          k =-0.0760-0.0000 0.0000 ( 17886 PWs)   bands (ev):

   -56.0384 -56.0295 -56.0044 -55.9931 -55.9303 -55.8960 -55.8740 -55.8519
   -55.8446 -55.8120 -55.8110 -55.7781 -55.6084 -55.4850 -55.0155 -54.9815
   -32.5848 -32.5223 -32.4037 -32.3820 -32.3454 -32.3447 -32.3312 -32.3114
   -32.2809 -32.2595 -32.2381 -32.2136 -32.2097 -32.1849 -32.1695 -32.1684
   -32.1472 -32.1421 -32.1412 -32.0993 -32.0958 -32.0749 -32.0602 -32.0549
   -32.0463 -32.0444 -32.0410 -32.0292 -32.0200 -32.0141 -32.0138 -32.0063
   -31.9885 -31.9793 -31.9658 -31.9462 -31.9249 -31.8934 -31.8276 -31.7647
   -31.7001 -31.5922 -31.4219 -31.3410 -31.3087 -31.2393 -31.1528 -31.0418
   -20.9797 -16.6177 -16.3499 -16.1447 -16.1402 -16.0457 -16.0035 -15.9021
   -15.8281 -15.8127 -15.7527 -15.7387 -15.7201 -15.7159 -15.7051 -15.7023
   -15.5808 -15.4327 -15.4025 -15.3822 -15.3228 -15.2959 -15.2856 -15.2644
   -15.2257 -15.2006 -15.1935 -15.1282 -15.0260 -14.6796 -13.5120 -13.4013
    -9.1518  -6.2296  -4.1365  -4.1188  -4.0535  -3.7228  -3.6371  -3.5581
    -3.4412  -3.4298  -3.3979  -3.2990  -3.2911  -3.2876  -3.2862  -3.2589
    -3.0658  -3.0452  -3.0047  -2.9556  -2.8918  -2.8307  -2.7665  -2.6820
    -2.6605  -2.5986  -2.5867  -2.5388  -2.5363  -2.4738  -2.4540  -2.3687
    -2.3585  -2.3176  -2.2998  -2.2725  -2.2674  -2.2643  -2.2135  -2.1601
    -2.0770  -1.9846  -1.9794  -1.9223  -1.8255  -1.7874  -1.6794  -1.6723
    -1.6463  -1.6327  -1.6209  -1.6021  -1.5160  -1.5020  -1.4128  -1.3479
    -1.3214  -1.2903  -1.2682  -1.2319  -1.1925  -1.1905  -1.0972  -0.8850
    -0.8134  -0.7665  -0.7327  -0.7060  -0.6741  -0.6627  -0.5597  -0.5234
    -0.4883  -0.4405  -0.4080  -0.3776  -0.3259  -0.3014  -0.2854  -0.2281
    -0.2116  -0.1639  -0.1548  -0.0869  -0.0112   0.0000   0.0776   0.2246
     0.2542   0.3396   0.4299   0.4708   0.5418   0.6542   0.7094   0.9469
     1.0392   1.1434   1.1776   1.3364   1.4846   3.1380   3.1417   3.2559
     3.3769   3.4290   3.5213   3.5487   3.5724   3.6183   3.6315

          k =-0.0760 0.0419 0.0000 ( 17914 PWs)   bands (ev):

   -56.0335 -56.0243 -56.0094 -55.9983 -55.9276 -55.8924 -55.8768 -55.8554
   -55.8398 -55.8159 -55.8071 -55.7830 -55.6074 -55.4860 -55.0106 -54.9866
   -32.5277 -32.4684 -32.3519 -32.3333 -32.3268 -32.3267 -32.3190 -32.2694
   -32.2613 -32.2596 -32.2550 -32.2144 -32.2113 -32.2100 -32.1995 -32.1723
   -32.1720 -32.1370 -32.1307 -32.1091 -32.0921 -32.0669 -32.0621 -32.0618
   -32.0578 -32.0475 -32.0450 -32.0439 -32.0367 -32.0245 -32.0234 -32.0174
   -32.0107 -32.0012 -31.9788 -31.9767 -31.9753 -31.8882 -31.8249 -31.7664
   -31.7139 -31.6188 -31.3680 -31.3364 -31.3133 -31.2268 -31.1657 -31.0990
   -20.9796 -16.4987 -16.2370 -16.0587 -16.0370 -16.0050 -15.9128 -15.9066
   -15.8049 -15.7888 -15.7747 -15.7016 -15.6945 -15.6824 -15.6689 -15.6357
   -15.5886 -15.4929 -15.4354 -15.4226 -15.4030 -15.3743 -15.3235 -15.3202
   -15.3034 -15.2923 -15.2193 -15.1863 -15.0522 -14.7818 -13.5180 -13.4420
    -9.1610  -6.2293  -4.1399  -4.1201  -3.8848  -3.5615  -3.3808  -3.3446
    -3.2528  -3.2130  -3.1648  -3.1565  -3.1160  -3.0876  -3.0762  -3.0617
    -3.0067  -2.9998  -2.9827  -2.9657  -2.9311  -2.9015  -2.8229  -2.8163
    -2.7539  -2.7310  -2.7195  -2.6926  -2.6482  -2.6150  -2.5302  -2.5156
    -2.5140  -2.4827  -2.4089  -2.3557  -2.2983  -2.1626  -2.1567  -2.1299
    -2.0733  -2.0309  -1.9732  -1.9313  -1.8783  -1.8233  -1.6918  -1.6325
    -1.5994  -1.5767  -1.5175  -1.4761  -1.4630  -1.4345  -1.3543  -1.3142
    -1.3088  -1.2625  -1.2566  -1.2308  -1.1999  -1.1312  -1.0929  -1.0458
    -1.0126  -0.9881  -0.9294  -0.8453  -0.8065  -0.7713  -0.7409  -0.6742
    -0.6659  -0.6348  -0.5971  -0.5582  -0.4693  -0.3853  -0.3470  -0.3284
    -0.2075  -0.1873  -0.0951  -0.0509   0.0759   0.1874   0.2047   0.2843
     0.3184   0.3517   0.4186   0.4233   0.4813   0.5404   0.5628   0.7653
     1.1920   1.2213   1.2871   1.3773   1.5052   3.2617   3.3230   3.3435
     3.4088   3.4472   3.4593   3.5835   3.5959   3.6842   3.7379

          k =-0.0760-0.0839 0.0000 ( 17948 PWs)   bands (ev):

   -56.0223 -56.0206 -56.0144 -56.0084 -55.9245 -55.8880 -55.8799 -55.8599
   -55.8293 -55.8265 -55.7965 -55.7937 -55.6065 -55.4870 -54.9987 -54.9985
   -32.3908 -32.3850 -32.3365 -32.3353 -32.3177 -32.3162 -32.3051 -32.2931
   -32.2481 -32.2319 -32.2297 -32.2274 -32.1937 -32.1715 -32.1690 -32.1577
   -32.1504 -32.1418 -32.1409 -32.1400 -32.1346 -32.1314 -32.1222 -32.1062
   -32.0779 -32.0768 -32.0743 -32.0480 -32.0293 -32.0282 -32.0267 -32.0252
   -32.0106 -32.0095 -32.0067 -32.0004 -31.9731 -31.8786 -31.8223 -31.7681
   -31.7413 -31.6428 -31.3248 -31.3246 -31.2356 -31.2354 -31.1964 -31.1963
   -20.9796 -16.2240 -16.1926 -16.0005 -15.9536 -15.9480 -15.9372 -15.8472
   -15.7396 -15.7336 -15.7323 -15.6628 -15.6399 -15.6319 -15.5792 -15.5767
   -15.5659 -15.5551 -15.5501 -15.5011 -15.4933 -15.4766 -15.4672 -15.4106
   -15.3548 -15.3505 -15.3421 -15.1442 -15.0293 -14.9647 -13.5039 -13.5035
    -9.1699  -6.2290  -4.1453  -4.1213  -3.5169  -3.4770  -3.2649  -3.1997
    -3.1857  -3.1130  -2.9796  -2.9656  -2.9386  -2.9319  -2.9177  -2.8861
    -2.8720  -2.8542  -2.8458  -2.8314  -2.8160  -2.7904  -2.7534  -2.7455
    -2.7388  -2.7082  -2.6910  -2.6678  -2.6613  -2.6406  -2.6332  -2.5985
    -2.5752  -2.5544  -2.5505  -2.4276  -2.2823  -2.2367  -2.1830  -2.1666
    -2.1650  -2.1306  -2.1008  -2.0905  -2.0662  -2.0229  -1.8690  -1.7672
    -1.7416  -1.7128  -1.6693  -1.6287  -1.5731  -1.4391  -1.4253  -1.3975
    -1.3425  -1.3279  -1.2798  -1.2655  -1.2497  -1.1695  -1.1371  -1.0834
    -1.0111  -0.9996  -0.9928  -0.9379  -0.8835  -0.8083  -0.7994  -0.7597
    -0.7181  -0.6790  -0.6453  -0.6191  -0.5510  -0.5154  -0.4000  -0.3465
    -0.1158  -0.0753   0.0087   0.0533   0.1062   0.1503   0.1606   0.2791
     0.2816   0.3007   0.3863   0.3961   0.4889   0.5077   0.5186   0.7182
     1.2239   1.3699   1.3708   1.4426   1.4432   3.3823   3.3952   3.4208
     3.4665   3.6012   3.6100   3.6287   3.6309   3.7567   3.7774

     the Fermi energy is     3.0963 ev

!    total energy              =   -2939.21030815 Ry
     estimated scf accuracy    <       0.00000004 Ry
     smearing contrib. (-TS)   =      -0.02183229 Ry
     internal energy E=F+TS    =   -2939.18847586 Ry

     The total energy is F=E-TS. E is the sum of the following terms:
     one-electron contribution =  -24057.20310128 Ry
     hartree contribution      =   12114.14983066 Ry
     xc contribution           =    -484.94258185 Ry
     ewald contribution        =    9488.80698204 Ry
     electric field correction =       0.00039457 Ry

     convergence has been achieved in  67 iterations

     Forces acting on atoms (cartesian axes, Ry/au):

     atom    1 type  1   force =     0.00024108   -0.00019385    0.09665225
     atom    2 type  1   force =    -0.00017218   -0.00055579   -0.17531482
     atom    3 type  2   force =    -0.00000847   -0.00004966   -0.02513083
     atom    4 type  2   force =     0.00006880   -0.00152423    0.05289563
     atom    5 type  2   force =    -0.01233772   -0.00155997    0.00379558
     atom    6 type  2   force =     0.01382093   -0.00083233    0.00222146
     atom    7 type  1   force =    -0.00114262    0.00042599   -0.01139656
     atom    8 type  1   force =     0.00079321    0.01677884    0.02862536
     atom    9 type  2   force =     0.00010924   -0.00020993    0.00000603
     atom   10 type  2   force =    -0.00173933    0.00057756   -0.01856864
     atom   11 type  2   force =    -0.00020154   -0.00005021   -0.00015304
     atom   12 type  2   force =    -0.00000306   -0.00000485   -0.00002667
     atom   13 type  1   force =     0.00013021   -0.00028852   -0.00026694
     atom   14 type  1   force =    -0.00009543    0.00032948    0.00025853
     atom   15 type  2   force =    -0.00021289    0.00020305   -0.00105475
     atom   16 type  2   force =     0.00000340   -0.00022166   -0.00032384
     atom   17 type  2   force =     0.00044859    0.00035402    0.00037920
     atom   18 type  2   force =    -0.00052713    0.00002023   -0.00005815
     atom   19 type  1   force =    -0.00047135   -0.00000621   -0.00006248
     atom   20 type  1   force =     0.00005791    0.00051854   -0.00037110
     atom   21 type  2   force =     0.00013314    0.00001219    0.10326181
     atom   22 type  2   force =     0.00007324   -0.00041165   -0.00003754
     atom   23 type  2   force =    -0.07144397   -0.00011514   -0.02773595
     atom   24 type  2   force =     0.07143897    0.00030887   -0.02771666
     atom   25 type  1   force =     0.00012298   -0.00017147    0.09645679
     atom   26 type  1   force =    -0.00007402   -0.00020423   -0.17539407
     atom   27 type  2   force =     0.00008876   -0.00016365   -0.02391555
     atom   28 type  2   force =     0.00008920   -0.00126504    0.05295401
     atom   29 type  2   force =    -0.01252630    0.00044379    0.00363747
     atom   30 type  2   force =     0.01396237    0.00085123    0.00204668
     atom   31 type  1   force =    -0.00128946    0.00339560   -0.01276500
     atom   32 type  1   force =     0.00074484   -0.01754533    0.02975145
     atom   33 type  2   force =     0.00017570    0.00017372   -0.00005961
     atom   34 type  2   force =    -0.00105142    0.00009330   -0.02243731
     atom   35 type  2   force =     0.00008833    0.00021586    0.00005222
     atom   36 type  2   force =     0.00009444    0.00009567    0.00019625
     atom   37 type  1   force =    -0.00012744    0.00038290   -0.00022981
     atom   38 type  1   force =    -0.00017487    0.00027877    0.00029171
     atom   39 type  2   force =     0.00005918    0.00020053    0.00052086
     atom   40 type  2   force =    -0.00002953   -0.00001100    0.00000630
     atom   41 type  2   force =     0.00029853   -0.00024512    0.00007399
     atom   42 type  2   force =     0.00023148   -0.00019180    0.00012682
     atom   43 type  1   force =    -0.00007677   -0.00035069    0.00020258
     atom   44 type  1   force =     0.00007847   -0.00009236    0.00037488
     atom   45 type  2   force =     0.00011217   -0.00001419    0.10328590
     atom   46 type  2   force =    -0.07143412   -0.00011822   -0.02769985
     atom   47 type  2   force =     0.07144524    0.00036352   -0.02772483
     atom   48 type  3   force =    -0.00141633    0.00014723   -0.00080324
     atom   49 type  4   force =     0.00074126    0.00240326   -0.00165163
     atom   50 type  5   force =    -0.00050815   -0.00045284    0.00051390
     atom   51 type  5   force =    -0.00094276   -0.00193258    0.00173861
     atom   52 type  5   force =     0.00049030   -0.00033459   -0.00006989
     atom   53 type  3   force =     0.00186490    0.00054294    0.00064248

     Total force =     0.368774     Total SCF correction =     0.000590
  @ DRIVER MODE: Message from server: STATUS
  @ DRIVER MODE: Message from server: GETFORCE
  @ DRIVER MODE: Returning v,forces,stress,ensemble 

     Writing output data file ./calc.save/
  @ DRIVER MODE: Message from server: EXIT
  @ DRIVE MODE: Exiting  
 
     init_run     :      7.33s CPU      7.48s WALL (       1 calls)
     electrons    :   2331.04s CPU   2462.25s WALL (       1 calls)
     forces       :      1.86s CPU      2.37s WALL (       1 calls)

     Called by init_run:
     wfcinit      :      3.31s CPU      3.36s WALL (       1 calls)
     potinit      :      3.54s CPU      3.58s WALL (       1 calls)
     hinit0       :      0.21s CPU      0.22s WALL (       1 calls)

     Called by electrons:
     c_bands      :   2007.70s CPU   2120.90s WALL (      67 calls)
     sum_band     :    264.41s CPU    275.87s WALL (      67 calls)
     v_of_rho     :     33.83s CPU     35.88s WALL (      68 calls)
     newd         :     11.77s CPU     14.17s WALL (      68 calls)
     mix_rho      :     14.68s CPU     16.18s WALL (      67 calls)
     vdW_kernel   :      3.04s CPU      3.04s WALL (       1 calls)

     Called by c_bands:
     init_us_2    :      4.50s CPU      4.65s WALL (    1360 calls)
     cegterg      :   1993.93s CPU   2106.21s WALL (     679 calls)

     Called by *egterg:
     cdiaghg      :   1069.77s CPU   1137.70s WALL (    7083 calls)
     h_psi        :    611.25s CPU    643.48s WALL (    7093 calls)
     s_psi        :     43.70s CPU     44.06s WALL (    7093 calls)
     g_psi        :      1.07s CPU      1.08s WALL (    6404 calls)

     Called by h_psi:
     h_psi:calbec :     52.36s CPU     53.70s WALL (    7093 calls)
     vloc_psi     :    512.90s CPU    543.24s WALL (    7093 calls)
     add_vuspsi   :     44.29s CPU     44.70s WALL (    7093 calls)

     General routines
     calbec       :     73.00s CPU     74.93s WALL (    7803 calls)
     fft          :     22.27s CPU     23.07s WALL (    4284 calls)
     ffts         :      0.34s CPU      0.35s WALL (     135 calls)
     fftw         :    725.80s CPU    764.99s WALL (  923082 calls)
     interpolate  :      0.58s CPU      0.63s WALL (      68 calls)
     davcio       :      0.00s CPU      0.13s WALL (      10 calls)
 
     Parallel routines
 
     PWSCF        :  39m 2.51s CPU  41m16.16s WALL

 
   This run was terminated on:   9:46:21   4Aug2021            

=------------------------------------------------------------------------------=
   JOB DONE.
=------------------------------------------------------------------------------=
