
     Program PWSCF v.6.7GPU starts on 23Sep2021 at 11: 4:10 

     This program is part of the open-source Quantum ESPRESSO suite
     for quantum simulation of materials; please cite
         "P. Giannozzi et al., J. Phys.:Condens. Matter 21 395502 (2009);
         "P. Giannozzi et al., J. Phys.:Condens. Matter 29 465901 (2017);
         "P. Giannozzi et al., J. Chem. Phys. 152 154105 (2020);
          URL http://www.quantum-espresso.org", 
     in publications or presentations arising from this work. More details at
     http://www.quantum-espresso.org/quote

     Parallel version (MPI), running on     8 processors

     MPI processes distributed on     1 nodes
     R & G space division:  proc/nbgrp/npool/nimage =       8
     Reading input from /storage/home/hcoda1/3/ntian30/research/carbon/CxH_vib/H2O_calc/ads_slab/CH3NHHHO_a/out_0001/pw.inp
Warning: card &CELL ignored
Warning: card   CELL_DYNAMICS='IPI', ignored
Warning: card / ignored

     Current dimensions of program PWSCF are:
     Max number of different atomic species (ntypx) = 10
     Max number of k-points (npk) =  40000
     Max angular momentum in pseudopotentials (lmaxx) =  3
     Presently no symmetry can be used with electric field

     Message from routine cell_base_init:
     DEPRECATED: use true lattice parameter, not A to a.u. conversion factor

     **************************************************************************
     Initializing libbeef V0.1.2 with the BEEF-vdW functional.
     Citation: Wellendorff et al., PRB 85, 235149 (2012).
     **************************************************************************


     IMPORTANT: XC functional enforced from input :
     Exchange-correlation= BEEF-VDW
                           (   1   4  43  14   2   0   0)
     Any further DFT definition will be discarded
     Please, verify this is what you really want


     Subspace diagonalization in iterative solution of the eigenvalue problem:
     one sub-group per band group will be used
     scalapack distributed-memory algorithm (size of sub-group:  2*  2 procs)

  @ DRIVER MODE: Connecting to 
 qe_1139763_2947311.sched-torque.pace.gatech.eduahrba_bj_scratch
  using UNIX socket
  @ DRIVER MODE: Message from server: STATUS
  @ DRIVER MODE: Message from server: INIT
  @ DRIVER MODE: Receiving replica           0          -1
  @ DRIVER MODE: Receiving encoded integer          25
  @ DRIVER MODE:  SCF:  T  FORCE:  T  STRESS:  F  VC:  F  ENSEMBLE:  F
  @ DRIVER MODE:  SCF:  T  FORCE:  T  STRESS:  F  VC:  F  ENSEMBLE:  F
 
     Parallelization info
     --------------------
     sticks:   dense  smooth     PW     G-vecs:    dense   smooth      PW
     Min         409     164     47                70857    17926    2743
     Max         411     165     48                70858    17931    2751
     Sum        3275    1317    379               566857   143421   21985
 
     Using Slab Decomposition
 


     bravais-lattice index     =            0
     lattice parameter (alat)  =       1.8897  a.u.
     unit-cell volume          =    6658.9804 (a.u.)^3
     number of atoms/cell      =           56
     number of atomic types    =            5
     number of electrons       =       399.00
     number of Kohn-Sham states=          209
     kinetic-energy cutoff     =      29.3995  Ry
     charge density cutoff     =     293.9946  Ry
     scf convergence threshold =      7.3E-08
     mixing beta               =       0.0500
     number of iterations used =            8  plain     mixing
     Exchange-correlation= BEEF-VDW
                           (   1   4  43  14   2   0   0)

     celldm(1)=   1.889726  celldm(2)=   0.000000  celldm(3)=   0.000000
     celldm(4)=   0.000000  celldm(5)=   0.000000  celldm(6)=   0.000000

     crystal axes: (cart. coord. in units of alat)
               a(1) = (   6.579727   0.000000   0.000000 )  
               a(2) = (  -0.000775   5.961596   0.000000 )  
               a(3) = (   0.000000   0.000000  25.155947 )  

     reciprocal axes: (cart. coord. in units 2 pi/alat)
               b(1) = (  0.151982  0.000020  0.000000 )  
               b(2) = (  0.000000  0.167740  0.000000 )  
               b(3) = (  0.000000  0.000000  0.039752 )  


     PseudoPot. # 1 for Ti read from file:
     /storage/coda1/p-amedford6/0/shared/rich_project_chbe-medford/medford-share/data/pseudos_module/espresso/nninc/pbe/van/Ti.UPF
     MD5 check sum: 8e4df49b7f0d34bbd5052bf3f5ea0213
     Pseudo is Ultrasoft, Zval = 12.0
     Generated by new atomic code, or converted to UPF format
     Using radial grid of  851 points,  6 beta functions with: 
                l(1) =   0
                l(2) =   0
                l(3) =   1
                l(4) =   1
                l(5) =   2
                l(6) =   2
     Q(r) pseudized with  8 coefficients,  rinner =    1.000   1.000   1.000
                                                       1.000   1.000

     PseudoPot. # 2 for O  read from file:
     /storage/coda1/p-amedford6/0/shared/rich_project_chbe-medford/medford-share/data/pseudos_module/espresso/nninc/pbe/van/O.UPF
     MD5 check sum: 78c19812648e8988a0fe644b0f25305e
     Pseudo is Ultrasoft, Zval =  6.0
     Generated by new atomic code, or converted to UPF format
     Using radial grid of  737 points,  4 beta functions with: 
                l(1) =   0
                l(2) =   0
                l(3) =   1
                l(4) =   1
     Q(r) pseudized with  8 coefficients,  rinner =    0.800   0.800   0.800


     PseudoPot. # 3 for N  read from file:
     /storage/coda1/p-amedford6/0/shared/rich_project_chbe-medford/medford-share/data/pseudos_module/espresso/nninc/pbe/van/N.UPF
     MD5 check sum: 90d10febe142ad51ac9d5be1deb811c4
     Pseudo is Ultrasoft, Zval =  5.0
     Generated by new atomic code, or converted to UPF format
     Using radial grid of  729 points,  4 beta functions with: 
                l(1) =   0
                l(2) =   0
                l(3) =   1
                l(4) =   1
     Q(r) pseudized with  8 coefficients,  rinner =    0.800   0.800   0.800


     PseudoPot. # 4 for C  read from file:
     /storage/coda1/p-amedford6/0/shared/rich_project_chbe-medford/medford-share/data/pseudos_module/espresso/nninc/pbe/van/C.UPF
     MD5 check sum: 1a69bf6b8db32088f5b2163dbdb77a27
     Pseudo is Ultrasoft, Zval =  4.0
     Generated by new atomic code, or converted to UPF format
     Using radial grid of  721 points,  4 beta functions with: 
                l(1) =   0
                l(2) =   0
                l(3) =   1
                l(4) =   1
     Q(r) pseudized with  8 coefficients,  rinner =    0.800   0.800   0.800


     PseudoPot. # 5 for H  read from file:
     /storage/coda1/p-amedford6/0/shared/rich_project_chbe-medford/medford-share/data/pseudos_module/espresso/nninc/pbe/van/H.UPF
     MD5 check sum: b5ee9d7bfd3a09ee7748110bda690ff7
     Pseudo is Ultrasoft, Zval =  1.0
     Generated by new atomic code, or converted to UPF format
     Using radial grid of  615 points,  1 beta functions with: 
                l(1) =   0
     Q(r) pseudized with  8 coefficients,  rinner =    0.800

     atomic species   valence    mass     pseudopotential
        Ti1           12.00    47.86700     Ti( 1.00)
        O1             6.00    15.99900     O ( 1.00)
        N1             5.00    14.00700     N ( 1.00)
        C1             4.00    12.01100     C ( 1.00)
        H1             1.00     1.00800     H ( 1.00)

     No symmetry found



   Cartesian axes

     site n.     atom                  positions (alat units)
         1           Ti1 tau(   1) = (   0.0004258   2.9801865   6.0000000  )
         2           Ti1 tau(   2) = (   3.2906075   1.4906267   6.0002472  )
         3           O1  tau(   3) = (   0.0006271   0.0005054   7.9858123  )
         4           O1  tau(   4) = (   3.2906025   0.0005020   7.3038282  )
         5           O1  tau(   5) = (   4.5942328   1.4918067   9.2879030  )
         6           O1  tau(   6) = (   1.9868534   1.4903216   9.2879459  )
         7           Ti1 tau(   7) = (   3.2907910   2.8959150   9.1758416  )
         8           Ti1 tau(   8) = (   0.0015273   1.4827037   9.2680791  )
         9           O1  tau(   9) = (   3.2949530   5.9481847  11.3666340  )
        10           O1  tau(  10) = (   0.0116148   5.9584955  10.6183126  )
        11           O1  tau(  11) = (   1.2732546   1.4916747  12.6876809  )
        12           O1  tau(  12) = (   5.3119445   1.4892451  12.6851550  )
        13           Ti1 tau(  13) = (   6.5688325   2.9465269  12.5174317  )
        14           Ti1 tau(  14) = (   3.2996026   1.2975375  12.7241829  )
        15           O1  tau(  15) = (   0.0172205   5.8793003  14.6619373  )
        16           O1  tau(  16) = (   3.2917661   0.0702926  14.0149596  )
        17           O1  tau(  17) = (   4.5643074   1.5920826  16.1346482  )
        18           O1  tau(  18) = (   2.0131957   1.5841813  16.0575481  )
        19           Ti1 tau(  19) = (   3.2662748   3.0407108  15.6947786  )
        20           Ti1 tau(  20) = (   0.0618610   1.3206105  15.7998127  )
        21           O1  tau(  21) = (   3.2904802   0.0005063   4.7018136  )
        22           O1  tau(  22) = (   0.0233933   0.1570098  17.1842078  )
        23           O1  tau(  23) = (   1.3043587   1.4918075   6.0039043  )
        24           O1  tau(  24) = (   5.2767064   1.4903225   6.0039473  )
        25           Ti1 tau(  25) = (   0.0000382   5.9609847   6.0000000  )
        26           Ti1 tau(  26) = (   3.2902200   4.4714249   6.0002472  )
        27           O1  tau(  27) = (   0.0002396   2.9813036   7.9858123  )
        28           O1  tau(  28) = (   3.2902150   2.9813002   7.3038282  )
        29           O1  tau(  29) = (   4.5938453   4.4726049   9.2879030  )
        30           O1  tau(  30) = (   1.9864658   4.4711199   9.2879459  )
        31           Ti1 tau(  31) = (   3.2891106   5.8743827   9.1763621  )
        32           Ti1 tau(  32) = (   0.0006254   4.4649316   9.2693709  )
        33           O1  tau(  33) = (   3.2948289   2.9949798  11.3176834  )
        34           O1  tau(  34) = (   0.0092240   2.9805883  10.6323155  )
        35           O1  tau(  35) = (   1.2828652   4.4571597  12.6432593  )
        36           O1  tau(  36) = (   5.3079144   4.4605214  12.6419564  )
        37           Ti1 tau(  37) = (   0.0266940   5.9154698  12.5044250  )
        38           Ti1 tau(  38) = (   3.3008436   4.3760658  12.4353554  )
        39           O1  tau(  39) = (   6.5507285   3.0461080  14.9005035  )
        40           O1  tau(  40) = (   3.2938476   3.0131494  13.9233183  )
        41           O1  tau(  41) = (   4.5350990   4.4864192  16.1518712  )
        42           O1  tau(  42) = (   1.9883536   4.4285065  16.1690201  )
        43           Ti1 tau(  43) = (   3.3916644   0.0784854  16.2809578  )
        44           Ti1 tau(  44) = (   0.0590441   4.5159846  16.0209683  )
        45           O1  tau(  45) = (   3.2900926   2.9813045   4.7018136  )
        46           O1  tau(  46) = (   1.3039711   4.4726057   6.0039043  )
        47           O1  tau(  47) = (   5.2763189   4.4711207   6.0039473  )
        48           N1  tau(  48) = (   6.2606434   3.3837210  18.0754458  )
        49           C1  tau(  49) = (   0.7642246   3.1223808  19.0622891  )
        50           H1  tau(  50) = (   1.3158356   4.0410886  19.2409436  )
        51           H1  tau(  51) = (   0.3597117   2.7583523  20.0089400  )
        52           H1  tau(  52) = (   1.4517744   2.3810259  18.6668870  )
        53           H1  tau(  53) = (   5.6745199   4.1349376  18.4206214  )
        54           H1  tau(  54) = (   5.6587021   2.5696541  18.0151127  )
        55           O1  tau(  55) = (   3.1972372   0.0910451  18.1323504  )
        56           H1  tau(  56) = (   2.2767176   0.1080423  18.4377142  )

     number of k points=    10  Fermi-Dirac smearing, width (Ry)=  0.0073
                       cart. coord. in units 2pi/alat
        k(    1) = (   0.0000000   0.0000000   0.0000000), wk =   0.1250000
        k(    2) = (   0.0000000   0.0419351   0.0000000), wk =   0.2500000
        k(    3) = (   0.0000000  -0.0838702   0.0000000), wk =   0.1250000
        k(    4) = (   0.0379955   0.0000049   0.0000000), wk =   0.2500000
        k(    5) = (   0.0379955   0.0419400   0.0000000), wk =   0.2500000
        k(    6) = (   0.0379955  -0.0838652   0.0000000), wk =   0.2500000
        k(    7) = (   0.0379955  -0.0419301   0.0000000), wk =   0.2500000
        k(    8) = (  -0.0759910  -0.0000099   0.0000000), wk =   0.1250000
        k(    9) = (  -0.0759910   0.0419252   0.0000000), wk =   0.2500000
        k(   10) = (  -0.0759910  -0.0838800   0.0000000), wk =   0.1250000

     Dense  grid:   566857 G-vectors     FFT dimensions: (  72,  64, 270)

     Smooth grid:   143421 G-vectors     FFT dimensions: (  45,  40, 180)

     Estimated max dynamical RAM per process >     456.67 MB

     Estimated total dynamical RAM >       3.57 GB
     Cannot read rho : file not found

     Initial potential from superposition of free atoms

     starting charge  382.99914, renormalised to  399.00000

     negative rho (up, down):  1.588E-02 0.000E+00


     %%%%%%%%%%%%%%%%%%%%%%%%%%%%%%%%%%%%%%%%%%%%%%%%%%%%%%%%%%%%%%%%%%%%%%%%
     %                                                                      %
     % You are using vdW-DF, which was implemented by the Thonhauser group. %
     % Please cite the following two papers that made this development      %
     % possible and the two reviews that describe the various versions:     %
     %                                                                      %
     %   T. Thonhauser et al., PRL 115, 136402 (2015).                      %
     %   T. Thonhauser et al., PRB 76, 125112 (2007).                       %
     %   K. Berland et al., Rep. Prog. Phys. 78, 066501 (2015).             %
     %   D.C. Langreth et al., J. Phys.: Condens. Matter 21, 084203 (2009). %
     %                                                                      %
     %                                                                      %
     % If you are calculating the stress with vdW-DF, please also cite:     %
     %                                                                      %
     %   R. Sabatini et al., J. Phys.: Condens. Matter 24, 424209 (2012).   %
     %                                                                      %
     %%%%%%%%%%%%%%%%%%%%%%%%%%%%%%%%%%%%%%%%%%%%%%%%%%%%%%%%%%%%%%%%%%%%%%%%


 
     Adding external electric field

     Computed dipole along edir(3) : 
        Dipole              -10.6962 Ry au,        -27.1870 Debye
        Dipole field         -0.0202 Ry au, 
 
        Potential amp.        1.8711 Ry
        Total length         46.3494 bohr
 
     Starting wfcs are  302 atomic wfcs
  @ DRIVER MODE: Message from server: STATUS
  @ DRIVER MODE: Message from server: POSDATA
  @ DRIVER MODE: Reading and sharing cell 
  @ DRIVER MODE: Reading and sharing positions 
  @ DRIVER MODE: Received positions 

     total cpu time spent up to now is       13.9 secs

     Self-consistent Calculation

     iteration #  1     ecut=    29.40 Ry     beta= 0.05
     Davidson diagonalization with overlap
     c_bands:  3 eigenvalues not converged
     c_bands:  2 eigenvalues not converged
     c_bands:  2 eigenvalues not converged
     c_bands:  5 eigenvalues not converged
     c_bands:  2 eigenvalues not converged
     c_bands:  5 eigenvalues not converged
     c_bands:  4 eigenvalues not converged
     c_bands:  3 eigenvalues not converged
     ethr =  1.00E-05,  avg # of iterations = 21.6

     negative rho (up, down):  1.119E-02 0.000E+00
 
     Adding external electric field

     Computed dipole along edir(3) : 
        Dipole               48.7972 Ry au,        124.0300 Debye
        Dipole field          0.0921 Ry au, 
 
        Potential amp.       -8.5363 Ry
        Total length         46.3494 bohr
 

     total cpu time spent up to now is       70.5 secs

     total energy              =   -2438.23435236 Ry
     estimated scf accuracy    <    5770.49925288 Ry

     iteration #  2     ecut=    29.40 Ry     beta= 0.05
     Davidson diagonalization with overlap
     ethr =  1.00E-02,  avg # of iterations = 23.3

     negative rho (up, down):  1.896E-03 0.000E+00
 
     Adding external electric field

     Computed dipole along edir(3) : 
        Dipole               -1.2475 Ry au,         -3.1707 Debye
        Dipole field         -0.0024 Ry au, 
 
        Potential amp.        0.2182 Ry
        Total length         46.3494 bohr
 

     total cpu time spent up to now is      162.9 secs

     total energy              =   -2455.90153583 Ry
     estimated scf accuracy    <   70805.61219629 Ry

     iteration #  3     ecut=    29.40 Ry     beta= 0.05
     Davidson diagonalization with overlap
     ethr =  1.00E-02,  avg # of iterations = 15.5

     negative rho (up, down):  1.970E-03 0.000E+00
 
     Adding external electric field

     Computed dipole along edir(3) : 
        Dipole               -4.0324 Ry au,        -10.2492 Debye
        Dipole field         -0.0076 Ry au, 
 
        Potential amp.        0.7054 Ry
        Total length         46.3494 bohr
 

     total cpu time spent up to now is      220.9 secs

     total energy              =   -2941.04846825 Ry
     estimated scf accuracy    <    5209.87974151 Ry

     iteration #  4     ecut=    29.40 Ry     beta= 0.05
     Davidson diagonalization with overlap
     ethr =  1.00E-02,  avg # of iterations =  9.9

     negative rho (up, down):  2.028E-03 0.000E+00
 
     Adding external electric field

     Computed dipole along edir(3) : 
        Dipole               -6.0004 Ry au,        -15.2516 Debye
        Dipole field         -0.0113 Ry au, 
 
        Potential amp.        1.0497 Ry
        Total length         46.3494 bohr
 

     total cpu time spent up to now is      243.4 secs

     total energy              =   -2935.74702025 Ry
     estimated scf accuracy    <    2302.86966223 Ry

     iteration #  5     ecut=    29.40 Ry     beta= 0.05
     Davidson diagonalization with overlap
     c_bands:  2 eigenvalues not converged
     c_bands:  4 eigenvalues not converged
     ethr =  1.00E-02,  avg # of iterations = 12.6

     negative rho (up, down):  2.073E-03 0.000E+00
 
     Adding external electric field

     Computed dipole along edir(3) : 
        Dipole               -5.9375 Ry au,        -15.0917 Debye
        Dipole field         -0.0112 Ry au, 
 
        Potential amp.        1.0387 Ry
        Total length         46.3494 bohr
 

     total cpu time spent up to now is      264.3 secs

     total energy              =   -2950.57041652 Ry
     estimated scf accuracy    <     335.45048951 Ry

     iteration #  6     ecut=    29.40 Ry     beta= 0.05
     Davidson diagonalization with overlap
     ethr =  1.00E-02,  avg # of iterations =  3.9

     negative rho (up, down):  2.074E-03 0.000E+00
 
     Adding external electric field

     Computed dipole along edir(3) : 
        Dipole               -5.8179 Ry au,        -14.7877 Debye
        Dipole field         -0.0110 Ry au, 
 
        Potential amp.        1.0178 Ry
        Total length         46.3494 bohr
 

     total cpu time spent up to now is      278.6 secs

     total energy              =   -2954.32267760 Ry
     estimated scf accuracy    <     111.40975616 Ry

     iteration #  7     ecut=    29.40 Ry     beta= 0.05
     Davidson diagonalization with overlap
     c_bands:  3 eigenvalues not converged
     c_bands:  1 eigenvalues not converged
     ethr =  1.00E-02,  avg # of iterations =  4.8

     negative rho (up, down):  2.074E-03 0.000E+00
 
     Adding external electric field

     Computed dipole along edir(3) : 
        Dipole               -4.8243 Ry au,        -12.2620 Debye
        Dipole field         -0.0091 Ry au, 
 
        Potential amp.        0.8439 Ry
        Total length         46.3494 bohr
 

     total cpu time spent up to now is      293.2 secs

     total energy              =   -2958.09414282 Ry
     estimated scf accuracy    <      23.43764477 Ry

     iteration #  8     ecut=    29.40 Ry     beta= 0.05
     Davidson diagonalization with overlap
     ethr =  5.87E-03,  avg # of iterations =  1.6

     negative rho (up, down):  2.205E-03 0.000E+00
 
     Adding external electric field

     Computed dipole along edir(3) : 
        Dipole                1.0684 Ry au,          2.7157 Debye
        Dipole field          0.0020 Ry au, 
 
        Potential amp.       -0.1869 Ry
        Total length         46.3494 bohr
 

     total cpu time spent up to now is      305.9 secs

     total energy              =   -2959.73012832 Ry
     estimated scf accuracy    <      23.28920661 Ry

     iteration #  9     ecut=    29.40 Ry     beta= 0.05
     Davidson diagonalization with overlap
     ethr =  5.84E-03,  avg # of iterations = 13.0

     negative rho (up, down):  2.238E-03 0.000E+00
 
     Adding external electric field

     Computed dipole along edir(3) : 
        Dipole                0.5982 Ry au,          1.5205 Debye
        Dipole field          0.0011 Ry au, 
 
        Potential amp.       -0.1046 Ry
        Total length         46.3494 bohr
 

     total cpu time spent up to now is      328.9 secs

     total energy              =   -2991.42091655 Ry
     estimated scf accuracy    <    3223.22314826 Ry

     iteration # 10     ecut=    29.40 Ry     beta= 0.05
     Davidson diagonalization with overlap
     ethr =  5.84E-03,  avg # of iterations =  1.0

     negative rho (up, down):  2.677E-03 0.000E+00
 
     Adding external electric field

     Computed dipole along edir(3) : 
        Dipole                6.6181 Ry au,         16.8214 Debye
        Dipole field          0.0125 Ry au, 
 
        Potential amp.       -1.1577 Ry
        Total length         46.3494 bohr
 

     total cpu time spent up to now is      341.1 secs

     total energy              =   -3052.34403660 Ry
     estimated scf accuracy    <    2903.99534311 Ry

     iteration # 11     ecut=    29.40 Ry     beta= 0.05
     Davidson diagonalization with overlap
     ethr =  5.84E-03,  avg # of iterations = 14.2

     negative rho (up, down):  2.909E-03 0.000E+00
 
     Adding external electric field

     Computed dipole along edir(3) : 
        Dipole                4.8526 Ry au,         12.3340 Debye
        Dipole field          0.0092 Ry au, 
 
        Potential amp.       -0.8489 Ry
        Total length         46.3494 bohr
 

     total cpu time spent up to now is      362.0 secs

     total energy              =   -3023.91868255 Ry
     estimated scf accuracy    <    6062.15260633 Ry

     iteration # 12     ecut=    29.40 Ry     beta= 0.05
     Davidson diagonalization with overlap
     ethr =  5.84E-03,  avg # of iterations =  1.9

     negative rho (up, down):  2.895E-03 0.000E+00
 
     Adding external electric field

     Computed dipole along edir(3) : 
        Dipole                3.1166 Ry au,          7.9215 Debye
        Dipole field          0.0059 Ry au, 
 
        Potential amp.       -0.5452 Ry
        Total length         46.3494 bohr
 

     total cpu time spent up to now is      375.1 secs

     total energy              =   -2997.54388602 Ry
     estimated scf accuracy    <    5343.72291513 Ry

     iteration # 13     ecut=    29.40 Ry     beta= 0.05
     Davidson diagonalization with overlap
     ethr =  5.84E-03,  avg # of iterations =  3.3

     negative rho (up, down):  2.898E-03 0.000E+00
 
     Adding external electric field

     Computed dipole along edir(3) : 
        Dipole                3.1687 Ry au,          8.0541 Debye
        Dipole field          0.0060 Ry au, 
 
        Potential amp.       -0.5543 Ry
        Total length         46.3494 bohr
 

     total cpu time spent up to now is      389.0 secs

     total energy              =   -3001.40057587 Ry
     estimated scf accuracy    <    4748.38170337 Ry

     iteration # 14     ecut=    29.40 Ry     beta= 0.05
     Davidson diagonalization with overlap
     ethr =  5.84E-03,  avg # of iterations =  1.5

     negative rho (up, down):  2.660E-03 0.000E+00
 
     Adding external electric field

     Computed dipole along edir(3) : 
        Dipole                0.9753 Ry au,          2.4791 Debye
        Dipole field          0.0018 Ry au, 
 
        Potential amp.       -0.1706 Ry
        Total length         46.3494 bohr
 

     total cpu time spent up to now is      401.7 secs

     total energy              =   -2982.27691442 Ry
     estimated scf accuracy    <    4940.61639303 Ry

     iteration # 15     ecut=    29.40 Ry     beta= 0.05
     Davidson diagonalization with overlap
     ethr =  5.84E-03,  avg # of iterations = 10.5

     negative rho (up, down):  2.844E-03 0.000E+00
 
     Adding external electric field

     Computed dipole along edir(3) : 
        Dipole               -0.2380 Ry au,         -0.6049 Debye
        Dipole field         -0.0004 Ry au, 
 
        Potential amp.        0.0416 Ry
        Total length         46.3494 bohr
 

     total cpu time spent up to now is      421.8 secs

     total energy              =   -2966.80953189 Ry
     estimated scf accuracy    <    3251.92729693 Ry

     iteration # 16     ecut=    29.40 Ry     beta= 0.05
     Davidson diagonalization with overlap
     ethr =  5.84E-03,  avg # of iterations =  6.0

     negative rho (up, down):  3.311E-03 0.000E+00
 
     Adding external electric field

     Computed dipole along edir(3) : 
        Dipole               -4.5688 Ry au,        -11.6127 Debye
        Dipole field         -0.0086 Ry au, 
 
        Potential amp.        0.7992 Ry
        Total length         46.3494 bohr
 

     total cpu time spent up to now is      436.7 secs

     total energy              =   -2911.11100228 Ry
     estimated scf accuracy    <    2866.10072969 Ry

     iteration # 17     ecut=    29.40 Ry     beta= 0.05
     Davidson diagonalization with overlap
     ethr =  5.84E-03,  avg # of iterations = 13.3

     negative rho (up, down):  3.213E-03 0.000E+00
 
     Adding external electric field

     Computed dipole along edir(3) : 
        Dipole               -2.4823 Ry au,         -6.3094 Debye
        Dipole field         -0.0047 Ry au, 
 
        Potential amp.        0.4342 Ry
        Total length         46.3494 bohr
 

     total cpu time spent up to now is      473.6 secs

     total energy              =   -2953.47567507 Ry
     estimated scf accuracy    <     688.52128548 Ry

     iteration # 18     ecut=    29.40 Ry     beta= 0.05
     Davidson diagonalization with overlap
     ethr =  5.84E-03,  avg # of iterations =  8.6

     negative rho (up, down):  3.072E-03 0.000E+00
 
     Adding external electric field

     Computed dipole along edir(3) : 
        Dipole               -1.9118 Ry au,         -4.8593 Debye
        Dipole field         -0.0036 Ry au, 
 
        Potential amp.        0.3344 Ry
        Total length         46.3494 bohr
 

     total cpu time spent up to now is      490.1 secs

     total energy              =   -2954.91369698 Ry
     estimated scf accuracy    <      94.74849920 Ry

     iteration # 19     ecut=    29.40 Ry     beta= 0.05
     Davidson diagonalization with overlap
     ethr =  5.84E-03,  avg # of iterations =  9.2

     negative rho (up, down):  3.045E-03 0.000E+00
 
     Adding external electric field

     Computed dipole along edir(3) : 
        Dipole               -2.0550 Ry au,         -5.2233 Debye
        Dipole field         -0.0039 Ry au, 
 
        Potential amp.        0.3595 Ry
        Total length         46.3494 bohr
 

     total cpu time spent up to now is      505.9 secs

     total energy              =   -2956.57178691 Ry
     estimated scf accuracy    <      70.77435149 Ry

     iteration # 20     ecut=    29.40 Ry     beta= 0.05
     Davidson diagonalization with overlap
     ethr =  5.84E-03,  avg # of iterations =  1.9

     negative rho (up, down):  3.118E-03 0.000E+00
 
     Adding external electric field

     Computed dipole along edir(3) : 
        Dipole               -2.6025 Ry au,         -6.6149 Debye
        Dipole field         -0.0049 Ry au, 
 
        Potential amp.        0.4553 Ry
        Total length         46.3494 bohr
 

     total cpu time spent up to now is      518.8 secs

     total energy              =   -2955.55233659 Ry
     estimated scf accuracy    <      49.18713093 Ry

     iteration # 21     ecut=    29.40 Ry     beta= 0.05
     Davidson diagonalization with overlap
     ethr =  5.84E-03,  avg # of iterations =  1.1

     negative rho (up, down):  3.189E-03 0.000E+00
 
     Adding external electric field

     Computed dipole along edir(3) : 
        Dipole               -2.7005 Ry au,         -6.8640 Debye
        Dipole field         -0.0051 Ry au, 
 
        Potential amp.        0.4724 Ry
        Total length         46.3494 bohr
 

     total cpu time spent up to now is      531.2 secs

     total energy              =   -2955.96581620 Ry
     estimated scf accuracy    <       9.51311033 Ry

     iteration # 22     ecut=    29.40 Ry     beta= 0.05
     Davidson diagonalization with overlap
     ethr =  2.38E-03,  avg # of iterations =  1.6

     negative rho (up, down):  3.786E-03 0.000E+00
 
     Adding external electric field

     Computed dipole along edir(3) : 
        Dipole               -2.7258 Ry au,         -6.9282 Debye
        Dipole field         -0.0051 Ry au, 
 
        Potential amp.        0.4768 Ry
        Total length         46.3494 bohr
 

     total cpu time spent up to now is      544.0 secs

     total energy              =   -2954.87351822 Ry
     estimated scf accuracy    <       8.16468056 Ry

     iteration # 23     ecut=    29.40 Ry     beta= 0.05
     Davidson diagonalization with overlap
     c_bands:  3 eigenvalues not converged
     c_bands:  2 eigenvalues not converged
     c_bands:  1 eigenvalues not converged
     ethr =  2.05E-03,  avg # of iterations = 15.1

     negative rho (up, down):  3.758E-03 0.000E+00
 
     Adding external electric field

     Computed dipole along edir(3) : 
        Dipole               -2.7657 Ry au,         -7.0298 Debye
        Dipole field         -0.0052 Ry au, 
 
        Potential amp.        0.4838 Ry
        Total length         46.3494 bohr
 

     total cpu time spent up to now is      567.2 secs

     total energy              =   -2958.80448418 Ry
     estimated scf accuracy    <     568.49773851 Ry

     iteration # 24     ecut=    29.40 Ry     beta= 0.05
     Davidson diagonalization with overlap
     ethr =  2.05E-03,  avg # of iterations =  2.7

     negative rho (up, down):  3.689E-03 0.000E+00
 
     Adding external electric field

     Computed dipole along edir(3) : 
        Dipole               -2.5252 Ry au,         -6.4184 Debye
        Dipole field         -0.0048 Ry au, 
 
        Potential amp.        0.4417 Ry
        Total length         46.3494 bohr
 

     total cpu time spent up to now is      580.4 secs

     total energy              =   -2956.46705590 Ry
     estimated scf accuracy    <     586.53889294 Ry

     iteration # 25     ecut=    29.40 Ry     beta= 0.05
     Davidson diagonalization with overlap
     ethr =  2.05E-03,  avg # of iterations =  1.0

     negative rho (up, down):  3.900E-03 0.000E+00
 
     Adding external electric field

     Computed dipole along edir(3) : 
        Dipole               -2.4839 Ry au,         -6.3134 Debye
        Dipole field         -0.0047 Ry au, 
 
        Potential amp.        0.4345 Ry
        Total length         46.3494 bohr
 

     total cpu time spent up to now is      592.6 secs

     total energy              =   -2956.82254654 Ry
     estimated scf accuracy    <     325.41482781 Ry

     iteration # 26     ecut=    29.40 Ry     beta= 0.05
     Davidson diagonalization with overlap
     ethr =  2.05E-03,  avg # of iterations =  1.1

     negative rho (up, down):  3.864E-03 0.000E+00
 
     Adding external electric field

     Computed dipole along edir(3) : 
        Dipole               -2.6615 Ry au,         -6.7648 Debye
        Dipole field         -0.0050 Ry au, 
 
        Potential amp.        0.4656 Ry
        Total length         46.3494 bohr
 

     total cpu time spent up to now is      605.0 secs

     total energy              =   -2957.24199805 Ry
     estimated scf accuracy    <     376.43647029 Ry

     iteration # 27     ecut=    29.40 Ry     beta= 0.05
     Davidson diagonalization with overlap
     ethr =  2.05E-03,  avg # of iterations =  2.4

     negative rho (up, down):  3.972E-03 0.000E+00
 
     Adding external electric field

     Computed dipole along edir(3) : 
        Dipole               -2.7036 Ry au,         -6.8718 Debye
        Dipole field         -0.0051 Ry au, 
 
        Potential amp.        0.4729 Ry
        Total length         46.3494 bohr
 

     total cpu time spent up to now is      617.8 secs

     total energy              =   -2958.32749249 Ry
     estimated scf accuracy    <     435.97730686 Ry

     iteration # 28     ecut=    29.40 Ry     beta= 0.05
     Davidson diagonalization with overlap
     ethr =  2.05E-03,  avg # of iterations =  1.2

     negative rho (up, down):  4.084E-03 0.000E+00
 
     Adding external electric field

     Computed dipole along edir(3) : 
        Dipole               -2.1589 Ry au,         -5.4873 Debye
        Dipole field         -0.0041 Ry au, 
 
        Potential amp.        0.3777 Ry
        Total length         46.3494 bohr
 

     total cpu time spent up to now is      630.3 secs

     total energy              =   -2956.40427210 Ry
     estimated scf accuracy    <     600.24126755 Ry

     iteration # 29     ecut=    29.40 Ry     beta= 0.05
     Davidson diagonalization with overlap
     ethr =  2.05E-03,  avg # of iterations =  3.1

     negative rho (up, down):  3.942E-03 0.000E+00
 
     Adding external electric field

     Computed dipole along edir(3) : 
        Dipole               -1.6304 Ry au,         -4.1440 Debye
        Dipole field         -0.0031 Ry au, 
 
        Potential amp.        0.2852 Ry
        Total length         46.3494 bohr
 

     total cpu time spent up to now is      643.3 secs

     total energy              =   -2954.30995674 Ry
     estimated scf accuracy    <     293.11647153 Ry

     iteration # 30     ecut=    29.40 Ry     beta= 0.05
     Davidson diagonalization with overlap
     ethr =  2.05E-03,  avg # of iterations =  2.0

     negative rho (up, down):  3.906E-03 0.000E+00
 
     Adding external electric field

     Computed dipole along edir(3) : 
        Dipole               -1.3286 Ry au,         -3.3769 Debye
        Dipole field         -0.0025 Ry au, 
 
        Potential amp.        0.2324 Ry
        Total length         46.3494 bohr
 

     total cpu time spent up to now is      656.4 secs

     total energy              =   -2955.08221831 Ry
     estimated scf accuracy    <      21.86937186 Ry

     iteration # 31     ecut=    29.40 Ry     beta= 0.05
     Davidson diagonalization with overlap
     ethr =  2.05E-03,  avg # of iterations =  2.0

     negative rho (up, down):  4.001E-03 0.000E+00
 
     Adding external electric field

     Computed dipole along edir(3) : 
        Dipole               -0.8909 Ry au,         -2.2643 Debye
        Dipole field         -0.0017 Ry au, 
 
        Potential amp.        0.1558 Ry
        Total length         46.3494 bohr
 

     total cpu time spent up to now is      669.3 secs

     total energy              =   -2954.76538897 Ry
     estimated scf accuracy    <      17.41480205 Ry

     iteration # 32     ecut=    29.40 Ry     beta= 0.05
     Davidson diagonalization with overlap
     ethr =  2.05E-03,  avg # of iterations =  2.2

     negative rho (up, down):  3.942E-03 0.000E+00
 
     Adding external electric field

     Computed dipole along edir(3) : 
        Dipole               -0.9502 Ry au,         -2.4151 Debye
        Dipole field         -0.0018 Ry au, 
 
        Potential amp.        0.1662 Ry
        Total length         46.3494 bohr
 

     total cpu time spent up to now is      682.2 secs

     total energy              =   -2954.90936355 Ry
     estimated scf accuracy    <      11.97041702 Ry

     iteration # 33     ecut=    29.40 Ry     beta= 0.05
     Davidson diagonalization with overlap
     ethr =  2.05E-03,  avg # of iterations =  1.1

     negative rho (up, down):  3.964E-03 0.000E+00
 
     Adding external electric field

     Computed dipole along edir(3) : 
        Dipole               -0.6802 Ry au,         -1.7290 Debye
        Dipole field         -0.0013 Ry au, 
 
        Potential amp.        0.1190 Ry
        Total length         46.3494 bohr
 

     total cpu time spent up to now is      694.5 secs

     total energy              =   -2954.73294845 Ry
     estimated scf accuracy    <      12.51337809 Ry

     iteration # 34     ecut=    29.40 Ry     beta= 0.05
     Davidson diagonalization with overlap
     ethr =  2.05E-03,  avg # of iterations =  1.2

     negative rho (up, down):  4.264E-03 0.000E+00
 
     Adding external electric field

     Computed dipole along edir(3) : 
        Dipole                0.2538 Ry au,          0.6451 Debye
        Dipole field          0.0005 Ry au, 
 
        Potential amp.       -0.0444 Ry
        Total length         46.3494 bohr
 

     total cpu time spent up to now is      707.0 secs

     total energy              =   -2954.24938481 Ry
     estimated scf accuracy    <      12.39894361 Ry

     iteration # 35     ecut=    29.40 Ry     beta= 0.05
     Davidson diagonalization with overlap
     c_bands:  3 eigenvalues not converged
     c_bands:  5 eigenvalues not converged
     c_bands:  3 eigenvalues not converged
     c_bands:  2 eigenvalues not converged
     c_bands:  2 eigenvalues not converged
     c_bands:  3 eigenvalues not converged
     c_bands:  4 eigenvalues not converged
     ethr =  2.05E-03,  avg # of iterations = 19.5

     negative rho (up, down):  4.237E-03 0.000E+00
 
     Adding external electric field

     Computed dipole along edir(3) : 
        Dipole                0.0947 Ry au,          0.2406 Debye
        Dipole field          0.0002 Ry au, 
 
        Potential amp.       -0.0166 Ry
        Total length         46.3494 bohr
 

     total cpu time spent up to now is      729.2 secs

     total energy              =   -2955.33225325 Ry
     estimated scf accuracy    <      10.34797188 Ry

     iteration # 36     ecut=    29.40 Ry     beta= 0.05
     Davidson diagonalization with overlap
     ethr =  2.05E-03,  avg # of iterations =  2.4

     negative rho (up, down):  4.270E-03 0.000E+00
 
     Adding external electric field

     Computed dipole along edir(3) : 
        Dipole                0.1472 Ry au,          0.3742 Debye
        Dipole field          0.0003 Ry au, 
 
        Potential amp.       -0.0258 Ry
        Total length         46.3494 bohr
 

     total cpu time spent up to now is      742.2 secs

     total energy              =   -2955.34029849 Ry
     estimated scf accuracy    <       1.97390614 Ry

     iteration # 37     ecut=    29.40 Ry     beta= 0.05
     Davidson diagonalization with overlap
     c_bands:  2 eigenvalues not converged
     ethr =  4.95E-04,  avg # of iterations =  7.4

     negative rho (up, down):  4.424E-03 0.000E+00
 
     Adding external electric field

     Computed dipole along edir(3) : 
        Dipole                0.3586 Ry au,          0.9114 Debye
        Dipole field          0.0007 Ry au, 
 
        Potential amp.       -0.0627 Ry
        Total length         46.3494 bohr
 

     total cpu time spent up to now is      757.2 secs

     total energy              =   -2955.31273008 Ry
     estimated scf accuracy    <       1.95046209 Ry

     iteration # 38     ecut=    29.40 Ry     beta= 0.05
     Davidson diagonalization with overlap
     ethr =  4.89E-04,  avg # of iterations =  3.2

     negative rho (up, down):  4.539E-03 0.000E+00
 
     Adding external electric field

     Computed dipole along edir(3) : 
        Dipole                0.3605 Ry au,          0.9162 Debye
        Dipole field          0.0007 Ry au, 
 
        Potential amp.       -0.0631 Ry
        Total length         46.3494 bohr
 

     total cpu time spent up to now is      770.8 secs

     total energy              =   -2955.21753954 Ry
     estimated scf accuracy    <       3.98577392 Ry

     iteration # 39     ecut=    29.40 Ry     beta= 0.05
     Davidson diagonalization with overlap
     c_bands:  1 eigenvalues not converged
     ethr =  4.89E-04,  avg # of iterations =  9.5

     negative rho (up, down):  4.686E-03 0.000E+00
 
     Adding external electric field

     Computed dipole along edir(3) : 
        Dipole                0.3828 Ry au,          0.9729 Debye
        Dipole field          0.0007 Ry au, 
 
        Potential amp.       -0.0670 Ry
        Total length         46.3494 bohr
 

     total cpu time spent up to now is      787.5 secs

     total energy              =   -2955.27240082 Ry
     estimated scf accuracy    <       1.37831588 Ry

     iteration # 40     ecut=    29.40 Ry     beta= 0.05
     Davidson diagonalization with overlap
     ethr =  3.45E-04,  avg # of iterations =  6.2

     negative rho (up, down):  4.822E-03 0.000E+00
 
     Adding external electric field

     Computed dipole along edir(3) : 
        Dipole                0.4185 Ry au,          1.0638 Debye
        Dipole field          0.0008 Ry au, 
 
        Potential amp.       -0.0732 Ry
        Total length         46.3494 bohr
 

     total cpu time spent up to now is      801.8 secs

     total energy              =   -2955.21814192 Ry
     estimated scf accuracy    <       1.04605815 Ry

     iteration # 41     ecut=    29.40 Ry     beta= 0.05
     Davidson diagonalization with overlap
     c_bands:  2 eigenvalues not converged
     c_bands:  2 eigenvalues not converged
     c_bands:  4 eigenvalues not converged
     c_bands:  1 eigenvalues not converged
     c_bands:  1 eigenvalues not converged
     ethr =  2.62E-04,  avg # of iterations = 18.3

     negative rho (up, down):  4.779E-03 0.000E+00
 
     Adding external electric field

     Computed dipole along edir(3) : 
        Dipole                0.3794 Ry au,          0.9643 Debye
        Dipole field          0.0007 Ry au, 
 
        Potential amp.       -0.0664 Ry
        Total length         46.3494 bohr
 

     total cpu time spent up to now is      821.9 secs

     total energy              =   -2955.26710104 Ry
     estimated scf accuracy    <       0.37683264 Ry

     iteration # 42     ecut=    29.40 Ry     beta= 0.05
     Davidson diagonalization with overlap
     c_bands:  1 eigenvalues not converged
     ethr =  9.44E-05,  avg # of iterations =  9.7

     negative rho (up, down):  4.738E-03 0.000E+00
 
     Adding external electric field

     Computed dipole along edir(3) : 
        Dipole                0.3121 Ry au,          0.7932 Debye
        Dipole field          0.0006 Ry au, 
 
        Potential amp.       -0.0546 Ry
        Total length         46.3494 bohr
 

     total cpu time spent up to now is      837.8 secs

     total energy              =   -2955.26249190 Ry
     estimated scf accuracy    <       0.22603466 Ry

     iteration # 43     ecut=    29.40 Ry     beta= 0.05
     Davidson diagonalization with overlap
     ethr =  5.67E-05,  avg # of iterations =  8.7

     negative rho (up, down):  4.732E-03 0.000E+00
 
     Adding external electric field

     Computed dipole along edir(3) : 
        Dipole                0.2863 Ry au,          0.7276 Debye
        Dipole field          0.0005 Ry au, 
 
        Potential amp.       -0.0501 Ry
        Total length         46.3494 bohr
 

     total cpu time spent up to now is      853.4 secs

     total energy              =   -2955.25340439 Ry
     estimated scf accuracy    <       0.14070973 Ry

     iteration # 44     ecut=    29.40 Ry     beta= 0.05
     Davidson diagonalization with overlap
     c_bands:  2 eigenvalues not converged
     c_bands:  2 eigenvalues not converged
     c_bands:  1 eigenvalues not converged
     c_bands:  3 eigenvalues not converged
     c_bands:  1 eigenvalues not converged
     c_bands:  1 eigenvalues not converged
     c_bands:  1 eigenvalues not converged
     ethr =  3.53E-05,  avg # of iterations = 19.5

     negative rho (up, down):  5.124E-03 0.000E+00
 
     Adding external electric field

     Computed dipole along edir(3) : 
        Dipole                0.3806 Ry au,          0.9673 Debye
        Dipole field          0.0007 Ry au, 
 
        Potential amp.       -0.0666 Ry
        Total length         46.3494 bohr
 

     total cpu time spent up to now is      875.6 secs

     total energy              =   -2955.26746313 Ry
     estimated scf accuracy    <       0.49120992 Ry

     iteration # 45     ecut=    29.40 Ry     beta= 0.05
     Davidson diagonalization with overlap
     c_bands:  1 eigenvalues not converged
     c_bands:  1 eigenvalues not converged
     c_bands:  3 eigenvalues not converged
     c_bands:  1 eigenvalues not converged
     c_bands:  1 eigenvalues not converged
     c_bands:  4 eigenvalues not converged
     ethr =  3.53E-05,  avg # of iterations = 18.8

     negative rho (up, down):  6.513E-03 0.000E+00
 
     Adding external electric field

     Computed dipole along edir(3) : 
        Dipole                0.6256 Ry au,          1.5901 Debye
        Dipole field          0.0012 Ry au, 
 
        Potential amp.       -0.1094 Ry
        Total length         46.3494 bohr
 

     total cpu time spent up to now is      901.3 secs

     total energy              =   -2955.22757930 Ry
     estimated scf accuracy    <       0.72417972 Ry

     iteration # 46     ecut=    29.40 Ry     beta= 0.05
     Davidson diagonalization with overlap
     c_bands:  2 eigenvalues not converged
     c_bands:  2 eigenvalues not converged
     c_bands:  1 eigenvalues not converged
     c_bands:  1 eigenvalues not converged
     c_bands:  2 eigenvalues not converged
     c_bands:  1 eigenvalues not converged
     c_bands:  4 eigenvalues not converged
     c_bands:  5 eigenvalues not converged
     c_bands:  4 eigenvalues not converged
     c_bands:  1 eigenvalues not converged
     ethr =  3.53E-05,  avg # of iterations = 22.0

     negative rho (up, down):  6.554E-03 0.000E+00
 
     Adding external electric field

     Computed dipole along edir(3) : 
        Dipole                0.6522 Ry au,          1.6578 Debye
        Dipole field          0.0012 Ry au, 
 
        Potential amp.       -0.1141 Ry
        Total length         46.3494 bohr
 

     total cpu time spent up to now is      929.3 secs

     total energy              =   -2955.30362342 Ry
     estimated scf accuracy    <       0.61281632 Ry

     iteration # 47     ecut=    29.40 Ry     beta= 0.05
     Davidson diagonalization with overlap
     ethr =  3.53E-05,  avg # of iterations =  6.7

     negative rho (up, down):  6.314E-03 0.000E+00
 
     Adding external electric field

     Computed dipole along edir(3) : 
        Dipole                0.4761 Ry au,          1.2101 Debye
        Dipole field          0.0009 Ry au, 
 
        Potential amp.       -0.0833 Ry
        Total length         46.3494 bohr
 

     total cpu time spent up to now is      943.7 secs

     total energy              =   -2955.32181114 Ry
     estimated scf accuracy    <       0.59589222 Ry

     iteration # 48     ecut=    29.40 Ry     beta= 0.05
     Davidson diagonalization with overlap
     c_bands:  1 eigenvalues not converged
     c_bands:  2 eigenvalues not converged
     ethr =  3.53E-05,  avg # of iterations =  9.2

     negative rho (up, down):  5.285E-03 0.000E+00
 
     Adding external electric field

     Computed dipole along edir(3) : 
        Dipole                0.4613 Ry au,          1.1725 Debye
        Dipole field          0.0009 Ry au, 
 
        Potential amp.       -0.0807 Ry
        Total length         46.3494 bohr
 

     total cpu time spent up to now is      959.2 secs

     total energy              =   -2955.24471269 Ry
     estimated scf accuracy    <       0.72394933 Ry

     iteration # 49     ecut=    29.40 Ry     beta= 0.05
     Davidson diagonalization with overlap
     c_bands:  1 eigenvalues not converged
     c_bands:  1 eigenvalues not converged
     c_bands:  2 eigenvalues not converged
     c_bands:  1 eigenvalues not converged
     c_bands:  1 eigenvalues not converged
     c_bands:  4 eigenvalues not converged
     ethr =  3.53E-05,  avg # of iterations = 17.4

     negative rho (up, down):  5.826E-03 0.000E+00
 
     Adding external electric field

     Computed dipole along edir(3) : 
        Dipole                0.7792 Ry au,          1.9805 Debye
        Dipole field          0.0015 Ry au, 
 
        Potential amp.       -0.1363 Ry
        Total length         46.3494 bohr
 

     total cpu time spent up to now is      978.9 secs

     total energy              =   -2955.24122323 Ry
     estimated scf accuracy    <       0.15348036 Ry

     iteration # 50     ecut=    29.40 Ry     beta= 0.05
     Davidson diagonalization with overlap
     c_bands:  2 eigenvalues not converged
     c_bands:  4 eigenvalues not converged
     c_bands:  4 eigenvalues not converged
     c_bands:  2 eigenvalues not converged
     c_bands:  4 eigenvalues not converged
     c_bands:  4 eigenvalues not converged
     c_bands:  3 eigenvalues not converged
     c_bands:  1 eigenvalues not converged
     c_bands:  1 eigenvalues not converged
     c_bands:  1 eigenvalues not converged
     ethr =  3.53E-05,  avg # of iterations = 20.0

     negative rho (up, down):  6.434E-03 0.000E+00
 
     Adding external electric field

     Computed dipole along edir(3) : 
        Dipole                0.6137 Ry au,          1.5598 Debye
        Dipole field          0.0012 Ry au, 
 
        Potential amp.       -0.1074 Ry
        Total length         46.3494 bohr
 

     total cpu time spent up to now is     1006.1 secs

     total energy              =   -2955.23462379 Ry
     estimated scf accuracy    <       0.31578415 Ry

     iteration # 51     ecut=    29.40 Ry     beta= 0.05
     Davidson diagonalization with overlap
     c_bands:  3 eigenvalues not converged
     c_bands:  3 eigenvalues not converged
     c_bands:  1 eigenvalues not converged
     c_bands:  4 eigenvalues not converged
     c_bands:  1 eigenvalues not converged
     c_bands:  3 eigenvalues not converged
     c_bands:  1 eigenvalues not converged
     c_bands:  2 eigenvalues not converged
     ethr =  3.53E-05,  avg # of iterations = 19.6

     negative rho (up, down):  8.065E-03 0.000E+00
 
     Adding external electric field

     Computed dipole along edir(3) : 
        Dipole                0.7859 Ry au,          1.9977 Debye
        Dipole field          0.0015 Ry au, 
 
        Potential amp.       -0.1375 Ry
        Total length         46.3494 bohr
 

     total cpu time spent up to now is     1029.6 secs

     total energy              =   -2955.25882137 Ry
     estimated scf accuracy    <       0.07997917 Ry

     iteration # 52     ecut=    29.40 Ry     beta= 0.05
     Davidson diagonalization with overlap
     c_bands:  2 eigenvalues not converged
     ethr =  2.00E-05,  avg # of iterations =  7.4

     negative rho (up, down):  1.094E-02 0.000E+00
 
     Adding external electric field

     Computed dipole along edir(3) : 
        Dipole                0.8962 Ry au,          2.2779 Debye
        Dipole field          0.0017 Ry au, 
 
        Potential amp.       -0.1568 Ry
        Total length         46.3494 bohr
 

     total cpu time spent up to now is     1044.4 secs

     total energy              =   -2955.25882453 Ry
     estimated scf accuracy    <       0.03460104 Ry

     iteration # 53     ecut=    29.40 Ry     beta= 0.05
     Davidson diagonalization with overlap
     c_bands:  1 eigenvalues not converged
     c_bands:  3 eigenvalues not converged
     c_bands:  2 eigenvalues not converged
     c_bands:  1 eigenvalues not converged
     c_bands:  1 eigenvalues not converged
     c_bands:  1 eigenvalues not converged
     c_bands:  2 eigenvalues not converged
     c_bands:  2 eigenvalues not converged
     ethr =  8.67E-06,  avg # of iterations = 19.5

     negative rho (up, down):  1.078E-02 0.000E+00
 
     Adding external electric field

     Computed dipole along edir(3) : 
        Dipole                0.9411 Ry au,          2.3921 Debye
        Dipole field          0.0018 Ry au, 
 
        Potential amp.       -0.1646 Ry
        Total length         46.3494 bohr
 

     total cpu time spent up to now is     1067.6 secs

     total energy              =   -2955.26167376 Ry
     estimated scf accuracy    <       0.03085925 Ry

     iteration # 54     ecut=    29.40 Ry     beta= 0.05
     Davidson diagonalization with overlap
     c_bands:  4 eigenvalues not converged
     c_bands:  3 eigenvalues not converged
     c_bands:  1 eigenvalues not converged
     c_bands:  1 eigenvalues not converged
     c_bands:  1 eigenvalues not converged
     c_bands:  1 eigenvalues not converged
     c_bands:  2 eigenvalues not converged
     ethr =  7.73E-06,  avg # of iterations = 17.8

     negative rho (up, down):  1.125E-02 0.000E+00
 
     Adding external electric field

     Computed dipole along edir(3) : 
        Dipole                0.9250 Ry au,          2.3510 Debye
        Dipole field          0.0017 Ry au, 
 
        Potential amp.       -0.1618 Ry
        Total length         46.3494 bohr
 

     total cpu time spent up to now is     1087.5 secs

     total energy              =   -2955.26138228 Ry
     estimated scf accuracy    <       0.03548027 Ry

     iteration # 55     ecut=    29.40 Ry     beta= 0.05
     Davidson diagonalization with overlap
     c_bands:  2 eigenvalues not converged
     c_bands:  1 eigenvalues not converged
     ethr =  7.73E-06,  avg # of iterations = 13.6

     negative rho (up, down):  1.171E-02 0.000E+00
 
     Adding external electric field

     Computed dipole along edir(3) : 
        Dipole                0.9146 Ry au,          2.3248 Debye
        Dipole field          0.0017 Ry au, 
 
        Potential amp.       -0.1600 Ry
        Total length         46.3494 bohr
 

     total cpu time spent up to now is     1104.5 secs

     total energy              =   -2955.26114732 Ry
     estimated scf accuracy    <       0.00803070 Ry

     iteration # 56     ecut=    29.40 Ry     beta= 0.05
     Davidson diagonalization with overlap
     c_bands:  2 eigenvalues not converged
     c_bands:  1 eigenvalues not converged
     c_bands:  2 eigenvalues not converged
     c_bands:  2 eigenvalues not converged
     c_bands:  2 eigenvalues not converged
     c_bands:  2 eigenvalues not converged
     ethr =  2.01E-06,  avg # of iterations = 19.2

     negative rho (up, down):  1.185E-02 0.000E+00
 
     Adding external electric field

     Computed dipole along edir(3) : 
        Dipole                0.9268 Ry au,          2.3556 Debye
        Dipole field          0.0017 Ry au, 
 
        Potential amp.       -0.1621 Ry
        Total length         46.3494 bohr
 

     total cpu time spent up to now is     1131.6 secs

     total energy              =   -2955.26249929 Ry
     estimated scf accuracy    <       0.01208193 Ry

     iteration # 57     ecut=    29.40 Ry     beta= 0.05
     Davidson diagonalization with overlap
     ethr =  2.01E-06,  avg # of iterations =  5.2

     negative rho (up, down):  1.246E-02 0.000E+00
 
     Adding external electric field

     Computed dipole along edir(3) : 
        Dipole                0.9965 Ry au,          2.5329 Debye
        Dipole field          0.0019 Ry au, 
 
        Potential amp.       -0.1743 Ry
        Total length         46.3494 bohr
 

     total cpu time spent up to now is     1145.2 secs

     total energy              =   -2955.26077855 Ry
     estimated scf accuracy    <       0.00652326 Ry

     iteration # 58     ecut=    29.40 Ry     beta= 0.05
     Davidson diagonalization with overlap
     c_bands:  3 eigenvalues not converged
     c_bands:  4 eigenvalues not converged
     c_bands:  2 eigenvalues not converged
     c_bands:  4 eigenvalues not converged
     c_bands:  2 eigenvalues not converged
     c_bands:  4 eigenvalues not converged
     c_bands:  3 eigenvalues not converged
     c_bands:  3 eigenvalues not converged
     c_bands:  5 eigenvalues not converged
     ethr =  1.63E-06,  avg # of iterations = 19.2

     negative rho (up, down):  1.388E-02 0.000E+00
 
     Adding external electric field

     Computed dipole along edir(3) : 
        Dipole                0.9828 Ry au,          2.4980 Debye
        Dipole field          0.0019 Ry au, 
 
        Potential amp.       -0.1719 Ry
        Total length         46.3494 bohr
 

     total cpu time spent up to now is     1172.3 secs

     total energy              =   -2955.26030210 Ry
     estimated scf accuracy    <       0.04483141 Ry

     iteration # 59     ecut=    29.40 Ry     beta= 0.05
     Davidson diagonalization with overlap
     c_bands:  1 eigenvalues not converged
     c_bands:  1 eigenvalues not converged
     c_bands:  2 eigenvalues not converged
     c_bands:  1 eigenvalues not converged
     c_bands:  1 eigenvalues not converged
     ethr =  1.63E-06,  avg # of iterations = 18.6

     negative rho (up, down):  1.443E-02 0.000E+00
 
     Adding external electric field

     Computed dipole along edir(3) : 
        Dipole                0.9785 Ry au,          2.4870 Debye
        Dipole field          0.0018 Ry au, 
 
        Potential amp.       -0.1712 Ry
        Total length         46.3494 bohr
 

     total cpu time spent up to now is     1198.7 secs

     total energy              =   -2955.26239173 Ry
     estimated scf accuracy    <       0.00133126 Ry

     iteration # 60     ecut=    29.40 Ry     beta= 0.05
     Davidson diagonalization with overlap
     c_bands:  1 eigenvalues not converged
     ethr =  3.34E-07,  avg # of iterations = 14.2

     negative rho (up, down):  1.448E-02 0.000E+00
 
     Adding external electric field

     Computed dipole along edir(3) : 
        Dipole                0.9777 Ry au,          2.4851 Debye
        Dipole field          0.0018 Ry au, 
 
        Potential amp.       -0.1710 Ry
        Total length         46.3494 bohr
 

     total cpu time spent up to now is     1221.1 secs

     total energy              =   -2955.26262103 Ry
     estimated scf accuracy    <       0.00111751 Ry

     iteration # 61     ecut=    29.40 Ry     beta= 0.05
     Davidson diagonalization with overlap
     ethr =  2.80E-07,  avg # of iterations =  2.3

     negative rho (up, down):  1.501E-02 0.000E+00
 
     Adding external electric field

     Computed dipole along edir(3) : 
        Dipole                0.9721 Ry au,          2.4708 Debye
        Dipole field          0.0018 Ry au, 
 
        Potential amp.       -0.1701 Ry
        Total length         46.3494 bohr
 

     total cpu time spent up to now is     1234.0 secs

     total energy              =   -2955.26235410 Ry
     estimated scf accuracy    <       0.00089499 Ry

     iteration # 62     ecut=    29.40 Ry     beta= 0.05
     Davidson diagonalization with overlap
     c_bands:  1 eigenvalues not converged
     c_bands:  1 eigenvalues not converged
     c_bands:  2 eigenvalues not converged
     c_bands:  1 eigenvalues not converged
     c_bands:  1 eigenvalues not converged
     c_bands:  1 eigenvalues not converged
     c_bands:  1 eigenvalues not converged
     c_bands:  1 eigenvalues not converged
     ethr =  2.24E-07,  avg # of iterations = 19.4

     negative rho (up, down):  1.582E-02 0.000E+00
 
     Adding external electric field

     Computed dipole along edir(3) : 
        Dipole                0.9756 Ry au,          2.4798 Debye
        Dipole field          0.0018 Ry au, 
 
        Potential amp.       -0.1707 Ry
        Total length         46.3494 bohr
 

     total cpu time spent up to now is     1265.6 secs

     total energy              =   -2955.26263794 Ry
     estimated scf accuracy    <       0.00344372 Ry

     iteration # 63     ecut=    29.40 Ry     beta= 0.05
     Davidson diagonalization with overlap
     ethr =  2.24E-07,  avg # of iterations = 14.3

     negative rho (up, down):  1.607E-02 0.000E+00
 
     Adding external electric field

     Computed dipole along edir(3) : 
        Dipole                0.9712 Ry au,          2.4685 Debye
        Dipole field          0.0018 Ry au, 
 
        Potential amp.       -0.1699 Ry
        Total length         46.3494 bohr
 

     total cpu time spent up to now is     1283.8 secs

     total energy              =   -2955.26245998 Ry
     estimated scf accuracy    <       0.00135837 Ry

     iteration # 64     ecut=    29.40 Ry     beta= 0.05
     Davidson diagonalization with overlap
     c_bands:  1 eigenvalues not converged
     ethr =  2.24E-07,  avg # of iterations = 14.2

     negative rho (up, down):  1.598E-02 0.000E+00
 
     Adding external electric field

     Computed dipole along edir(3) : 
        Dipole                0.9711 Ry au,          2.4682 Debye
        Dipole field          0.0018 Ry au, 
 
        Potential amp.       -0.1699 Ry
        Total length         46.3494 bohr
 

     total cpu time spent up to now is     1307.2 secs

     total energy              =   -2955.26267051 Ry
     estimated scf accuracy    <       0.00017392 Ry

     iteration # 65     ecut=    29.40 Ry     beta= 0.05
     Davidson diagonalization with overlap
     ethr =  4.36E-08,  avg # of iterations =  8.1

     negative rho (up, down):  1.599E-02 0.000E+00
 
     Adding external electric field

     Computed dipole along edir(3) : 
        Dipole                0.9731 Ry au,          2.4733 Debye
        Dipole field          0.0018 Ry au, 
 
        Potential amp.       -0.1702 Ry
        Total length         46.3494 bohr
 

     total cpu time spent up to now is     1322.9 secs

     total energy              =   -2955.26265805 Ry
     estimated scf accuracy    <       0.00014740 Ry

     iteration # 66     ecut=    29.40 Ry     beta= 0.05
     Davidson diagonalization with overlap
     ethr =  3.69E-08,  avg # of iterations = 13.1

     negative rho (up, down):  1.614E-02 0.000E+00
 
     Adding external electric field

     Computed dipole along edir(3) : 
        Dipole                0.9691 Ry au,          2.4633 Debye
        Dipole field          0.0018 Ry au, 
 
        Potential amp.       -0.1695 Ry
        Total length         46.3494 bohr
 

     total cpu time spent up to now is     1343.8 secs

     total energy              =   -2955.26269298 Ry
     estimated scf accuracy    <       0.00012702 Ry

     iteration # 67     ecut=    29.40 Ry     beta= 0.05
     Davidson diagonalization with overlap
     ethr =  3.18E-08,  avg # of iterations = 12.0

     negative rho (up, down):  1.626E-02 0.000E+00
 
     Adding external electric field

     Computed dipole along edir(3) : 
        Dipole                0.9676 Ry au,          2.4593 Debye
        Dipole field          0.0018 Ry au, 
 
        Potential amp.       -0.1693 Ry
        Total length         46.3494 bohr
 

     total cpu time spent up to now is     1360.2 secs

     total energy              =   -2955.26268566 Ry
     estimated scf accuracy    <       0.00007457 Ry

     iteration # 68     ecut=    29.40 Ry     beta= 0.05
     Davidson diagonalization with overlap
     ethr =  1.87E-08,  avg # of iterations = 14.4

     negative rho (up, down):  1.625E-02 0.000E+00
 
     Adding external electric field

     Computed dipole along edir(3) : 
        Dipole                0.9688 Ry au,          2.4625 Debye
        Dipole field          0.0018 Ry au, 
 
        Potential amp.       -0.1695 Ry
        Total length         46.3494 bohr
 

     total cpu time spent up to now is     1385.8 secs

     total energy              =   -2955.26271601 Ry
     estimated scf accuracy    <       0.00007086 Ry

     iteration # 69     ecut=    29.40 Ry     beta= 0.05
     Davidson diagonalization with overlap
     ethr =  1.78E-08,  avg # of iterations =  1.0

     negative rho (up, down):  1.631E-02 0.000E+00
 
     Adding external electric field

     Computed dipole along edir(3) : 
        Dipole                0.9701 Ry au,          2.4657 Debye
        Dipole field          0.0018 Ry au, 
 
        Potential amp.       -0.1697 Ry
        Total length         46.3494 bohr
 

     total cpu time spent up to now is     1398.0 secs

     total energy              =   -2955.26271687 Ry
     estimated scf accuracy    <       0.00005861 Ry

     iteration # 70     ecut=    29.40 Ry     beta= 0.05
     Davidson diagonalization with overlap
     ethr =  1.47E-08,  avg # of iterations =  5.3

     negative rho (up, down):  1.641E-02 0.000E+00
 
     Adding external electric field

     Computed dipole along edir(3) : 
        Dipole                0.9716 Ry au,          2.4696 Debye
        Dipole field          0.0018 Ry au, 
 
        Potential amp.       -0.1700 Ry
        Total length         46.3494 bohr
 

     total cpu time spent up to now is     1412.1 secs

     total energy              =   -2955.26272136 Ry
     estimated scf accuracy    <       0.00003489 Ry

     iteration # 71     ecut=    29.40 Ry     beta= 0.05
     Davidson diagonalization with overlap
     ethr =  8.75E-09,  avg # of iterations =  8.8

     negative rho (up, down):  1.647E-02 0.000E+00
 
     Adding external electric field

     Computed dipole along edir(3) : 
        Dipole                0.9752 Ry au,          2.4787 Debye
        Dipole field          0.0018 Ry au, 
 
        Potential amp.       -0.1706 Ry
        Total length         46.3494 bohr
 

     total cpu time spent up to now is     1427.5 secs

     total energy              =   -2955.26272192 Ry
     estimated scf accuracy    <       0.00002267 Ry

     iteration # 72     ecut=    29.40 Ry     beta= 0.05
     Davidson diagonalization with overlap
     ethr =  5.68E-09,  avg # of iterations = 10.0

     negative rho (up, down):  1.645E-02 0.000E+00
 
     Adding external electric field

     Computed dipole along edir(3) : 
        Dipole                0.9735 Ry au,          2.4744 Debye
        Dipole field          0.0018 Ry au, 
 
        Potential amp.       -0.1703 Ry
        Total length         46.3494 bohr
 

     total cpu time spent up to now is     1449.2 secs

     total energy              =   -2955.26273134 Ry
     estimated scf accuracy    <       0.00001686 Ry

     iteration # 73     ecut=    29.40 Ry     beta= 0.05
     Davidson diagonalization with overlap
     ethr =  4.22E-09,  avg # of iterations =  5.7

     negative rho (up, down):  1.643E-02 0.000E+00
 
     Adding external electric field

     Computed dipole along edir(3) : 
        Dipole                0.9756 Ry au,          2.4796 Debye
        Dipole field          0.0018 Ry au, 
 
        Potential amp.       -0.1707 Ry
        Total length         46.3494 bohr
 

     total cpu time spent up to now is     1463.6 secs

     total energy              =   -2955.26273411 Ry
     estimated scf accuracy    <       0.00001261 Ry

     iteration # 74     ecut=    29.40 Ry     beta= 0.05
     Davidson diagonalization with overlap
     ethr =  3.16E-09,  avg # of iterations =  9.9

     negative rho (up, down):  1.645E-02 0.000E+00
 
     Adding external electric field

     Computed dipole along edir(3) : 
        Dipole                0.9775 Ry au,          2.4845 Debye
        Dipole field          0.0018 Ry au, 
 
        Potential amp.       -0.1710 Ry
        Total length         46.3494 bohr
 

     total cpu time spent up to now is     1479.9 secs

     total energy              =   -2955.26273773 Ry
     estimated scf accuracy    <       0.00000728 Ry

     iteration # 75     ecut=    29.40 Ry     beta= 0.05
     Davidson diagonalization with overlap
     ethr =  1.82E-09,  avg # of iterations =  9.9

     negative rho (up, down):  1.640E-02 0.000E+00
 
     Adding external electric field

     Computed dipole along edir(3) : 
        Dipole                0.9754 Ry au,          2.4792 Debye
        Dipole field          0.0018 Ry au, 
 
        Potential amp.       -0.1706 Ry
        Total length         46.3494 bohr
 

     total cpu time spent up to now is     1497.2 secs

     total energy              =   -2955.26273997 Ry
     estimated scf accuracy    <       0.00000504 Ry

     iteration # 76     ecut=    29.40 Ry     beta= 0.05
     Davidson diagonalization with overlap
     ethr =  1.26E-09,  avg # of iterations =  9.2

     negative rho (up, down):  1.640E-02 0.000E+00
 
     Adding external electric field

     Computed dipole along edir(3) : 
        Dipole                0.9750 Ry au,          2.4781 Debye
        Dipole field          0.0018 Ry au, 
 
        Potential amp.       -0.1706 Ry
        Total length         46.3494 bohr
 

     total cpu time spent up to now is     1515.7 secs

     total energy              =   -2955.26274323 Ry
     estimated scf accuracy    <       0.00000173 Ry

     iteration # 77     ecut=    29.40 Ry     beta= 0.05
     Davidson diagonalization with overlap
     ethr =  4.33E-10,  avg # of iterations =  9.1

     negative rho (up, down):  1.646E-02 0.000E+00
 
     Adding external electric field

     Computed dipole along edir(3) : 
        Dipole                0.9762 Ry au,          2.4812 Debye
        Dipole field          0.0018 Ry au, 
 
        Potential amp.       -0.1708 Ry
        Total length         46.3494 bohr
 

     total cpu time spent up to now is     1534.9 secs

     total energy              =   -2955.26274571 Ry
     estimated scf accuracy    <       0.00000221 Ry

     iteration # 78     ecut=    29.40 Ry     beta= 0.05
     Davidson diagonalization with overlap
     ethr =  4.33E-10,  avg # of iterations = 15.5

     negative rho (up, down):  1.646E-02 0.000E+00
 
     Adding external electric field

     Computed dipole along edir(3) : 
        Dipole                0.9758 Ry au,          2.4803 Debye
        Dipole field          0.0018 Ry au, 
 
        Potential amp.       -0.1707 Ry
        Total length         46.3494 bohr
 

     total cpu time spent up to now is     1560.7 secs

     total energy              =   -2955.26274827 Ry
     estimated scf accuracy    <       0.00000242 Ry

     iteration # 79     ecut=    29.40 Ry     beta= 0.05
     Davidson diagonalization with overlap
     ethr =  4.33E-10,  avg # of iterations =  8.0

     negative rho (up, down):  1.643E-02 0.000E+00
 
     Adding external electric field

     Computed dipole along edir(3) : 
        Dipole                0.9750 Ry au,          2.4782 Debye
        Dipole field          0.0018 Ry au, 
 
        Potential amp.       -0.1706 Ry
        Total length         46.3494 bohr
 

     total cpu time spent up to now is     1577.1 secs

     total energy              =   -2955.26275034 Ry
     estimated scf accuracy    <       0.00000055 Ry

     iteration # 80     ecut=    29.40 Ry     beta= 0.05
     Davidson diagonalization with overlap
     c_bands:  1 eigenvalues not converged
     ethr =  1.38E-10,  avg # of iterations = 17.1

     negative rho (up, down):  1.645E-02 0.000E+00
 
     Adding external electric field

     Computed dipole along edir(3) : 
        Dipole                0.9757 Ry au,          2.4800 Debye
        Dipole field          0.0018 Ry au, 
 
        Potential amp.       -0.1707 Ry
        Total length         46.3494 bohr
 

     total cpu time spent up to now is     1608.0 secs

     total energy              =   -2955.26275218 Ry
     estimated scf accuracy    <       0.00000262 Ry

     iteration # 81     ecut=    29.40 Ry     beta= 0.05
     Davidson diagonalization with overlap
     ethr =  1.38E-10,  avg # of iterations =  9.5

     negative rho (up, down):  1.646E-02 0.000E+00
 
     Adding external electric field

     Computed dipole along edir(3) : 
        Dipole                0.9757 Ry au,          2.4799 Debye
        Dipole field          0.0018 Ry au, 
 
        Potential amp.       -0.1707 Ry
        Total length         46.3494 bohr
 

     total cpu time spent up to now is     1628.8 secs

     total energy              =   -2955.26275380 Ry
     estimated scf accuracy    <       0.00000063 Ry

     iteration # 82     ecut=    29.40 Ry     beta= 0.05
     Davidson diagonalization with overlap
     ethr =  1.38E-10,  avg # of iterations =  5.6

     negative rho (up, down):  1.647E-02 0.000E+00
 
     Adding external electric field

     Computed dipole along edir(3) : 
        Dipole                0.9757 Ry au,          2.4800 Debye
        Dipole field          0.0018 Ry au, 
 
        Potential amp.       -0.1707 Ry
        Total length         46.3494 bohr
 

     total cpu time spent up to now is     1644.3 secs

     total energy              =   -2955.26275531 Ry
     estimated scf accuracy    <       0.00000025 Ry

     iteration # 83     ecut=    29.40 Ry     beta= 0.05
     Davidson diagonalization with overlap
     ethr =  6.26E-11,  avg # of iterations =  9.3

     negative rho (up, down):  1.647E-02 0.000E+00
 
     Adding external electric field

     Computed dipole along edir(3) : 
        Dipole                0.9757 Ry au,          2.4799 Debye
        Dipole field          0.0018 Ry au, 
 
        Potential amp.       -0.1707 Ry
        Total length         46.3494 bohr
 

     total cpu time spent up to now is     1663.0 secs

     total energy              =   -2955.26275663 Ry
     estimated scf accuracy    <       0.00000011 Ry

     iteration # 84     ecut=    29.40 Ry     beta= 0.05
     Davidson diagonalization with overlap
     ethr =  2.87E-11,  avg # of iterations =  9.7

     negative rho (up, down):  1.647E-02 0.000E+00
 
     Adding external electric field

     Computed dipole along edir(3) : 
        Dipole                0.9756 Ry au,          2.4798 Debye
        Dipole field          0.0018 Ry au, 
 
        Potential amp.       -0.1707 Ry
        Total length         46.3494 bohr
 

     total cpu time spent up to now is     1681.8 secs

     total energy              =   -2955.26275782 Ry
     estimated scf accuracy    <       0.00000008 Ry

     iteration # 85     ecut=    29.40 Ry     beta= 0.05
     Davidson diagonalization with overlap
     ethr =  1.93E-11,  avg # of iterations =  6.6

     negative rho (up, down):  1.646E-02 0.000E+00
 
     Adding external electric field

     Computed dipole along edir(3) : 
        Dipole                0.9754 Ry au,          2.4791 Debye
        Dipole field          0.0018 Ry au, 
 
        Potential amp.       -0.1706 Ry
        Total length         46.3494 bohr
 

     total cpu time spent up to now is     1697.4 secs

     End of self-consistent calculation

          k = 0.0000 0.0000 0.0000 ( 18029 PWs)   bands (ev):

   -55.6823 -55.6364 -55.6023 -55.5123 -55.5017 -55.4660 -55.4654 -55.4634
   -55.4314 -55.4179 -55.3672 -55.2723 -55.2270 -55.2120 -54.6122 -54.5781
   -32.1219 -32.0193 -32.0120 -31.9879 -31.9683 -31.9558 -31.9271 -31.9011
   -31.8937 -31.8823 -31.8822 -31.7895 -31.7890 -31.7743 -31.7487 -31.7453
   -31.7439 -31.7425 -31.7419 -31.7054 -31.6939 -31.6645 -31.6615 -31.6555
   -31.6499 -31.6438 -31.6358 -31.6055 -31.6041 -31.5980 -31.5925 -31.5893
   -31.5783 -31.5632 -31.5487 -31.5233 -31.4637 -31.4549 -31.4459 -31.4226
   -31.4187 -31.4139 -31.0183 -30.9317 -30.9093 -30.8358 -30.7494 -30.6376
   -16.5116 -16.2960 -16.1488 -15.9760 -15.8377 -15.8091 -15.7653 -15.5988
   -15.5059 -15.4421 -15.2420 -15.2208 -15.1750 -15.1641 -15.1585 -15.1356
   -15.1260 -15.0809 -15.0624 -15.0590 -15.0490 -15.0316 -14.9951 -14.9529
   -14.9092 -14.8887 -14.7761 -14.7198 -14.6792 -14.4680 -14.4008 -13.1108
   -12.9944  -9.9998  -6.0645  -4.5466  -4.0613  -3.7580  -3.6439  -3.5465
    -3.5352  -3.4144  -3.4055  -3.1655  -3.0420  -2.9838  -2.9045  -2.7831
    -2.7523  -2.6872  -2.6454  -2.5898  -2.5689  -2.5331  -2.4949  -2.4482
    -2.4229  -2.3955  -2.3631  -2.3064  -2.2946  -2.1965  -2.1816  -2.1600
    -2.0531  -2.0126  -1.9721  -1.9539  -1.9489  -1.9302  -1.8912  -1.8848
    -1.8652  -1.7870  -1.7180  -1.6721  -1.6376  -1.6095  -1.3316  -1.2461
    -1.2026  -1.1883  -1.0840  -1.0603  -1.0319  -1.0188  -0.9814  -0.9664
    -0.8535  -0.8371  -0.7695  -0.7187  -0.7071  -0.6665  -0.5469  -0.5101
    -0.4599  -0.4193  -0.3695  -0.3526  -0.3464  -0.2531  -0.2261  -0.1915
    -0.0833  -0.0655  -0.0038   0.0812   0.0910   0.1429   0.1653   0.2261
     0.2308   0.2855   0.3151   0.3374   0.3906   0.4231   0.4595   0.4924
     0.5097   0.6119   0.6871   0.6999   0.7967   0.8713   0.9248   1.0291
     1.0968   1.3607   1.4143   1.4380   1.6063   1.9815   2.0269   3.4454
     3.5942   3.6098   3.6845   3.6971   3.7742   3.9347   3.9600   4.0948
     4.1331

          k = 0.0000 0.0419 0.0000 ( 17933 PWs)   bands (ev):

   -55.6818 -55.6314 -55.6073 -55.5117 -55.4972 -55.4679 -55.4663 -55.4603
   -55.4363 -55.4148 -55.3701 -55.2699 -55.2274 -55.2142 -54.6071 -54.5830
   -32.0680 -31.9872 -31.9760 -31.9520 -31.9331 -31.9271 -31.9223 -31.8924
   -31.8746 -31.8721 -31.8477 -31.8005 -31.7751 -31.7662 -31.7514 -31.7470
   -31.7366 -31.7360 -31.7287 -31.7110 -31.7078 -31.6983 -31.6760 -31.6611
   -31.6518 -31.6510 -31.6463 -31.6397 -31.6307 -31.6131 -31.6019 -31.6017
   -31.5919 -31.5787 -31.5671 -31.5427 -31.4798 -31.4626 -31.4583 -31.4489
   -31.4454 -31.4136 -30.9641 -30.9283 -30.9123 -30.8232 -30.7619 -30.6947
   -16.4975 -16.1765 -16.0466 -15.9064 -15.7932 -15.7527 -15.6819 -15.5318
   -15.4544 -15.4323 -15.3603 -15.2897 -15.1741 -15.1613 -15.1529 -15.1330
   -15.1162 -15.1037 -15.0892 -15.0667 -15.0616 -15.0239 -15.0134 -14.9780
   -14.9525 -14.8538 -14.8337 -14.7779 -14.7389 -14.5323 -14.5049 -13.1149
   -13.0339  -9.9987  -6.0513  -4.5444  -4.0700  -3.7481  -3.4616  -3.3762
    -3.3664  -3.3087  -3.2551  -3.0411  -2.8850  -2.8390  -2.7677  -2.7205
    -2.7022  -2.6808  -2.6410  -2.6086  -2.5783  -2.5570  -2.5249  -2.5012
    -2.4881  -2.4748  -2.3739  -2.3559  -2.3227  -2.3053  -2.2656  -2.2201
    -2.2002  -2.1740  -2.1355  -2.1164  -2.1059  -2.0522  -1.9335  -1.8822
    -1.8539  -1.7705  -1.6626  -1.5975  -1.4143  -1.4103  -1.3565  -1.3356
    -1.2616  -1.1162  -1.0777  -0.9868  -0.9120  -0.8800  -0.8494  -0.8334
    -0.7558  -0.7288  -0.6636  -0.6179  -0.5929  -0.5713  -0.5634  -0.4806
    -0.4642  -0.4436  -0.4024  -0.3796  -0.3442  -0.3118  -0.2968  -0.2147
    -0.1936  -0.1560  -0.1191  -0.0182   0.0062   0.0855   0.1150   0.1598
     0.1815   0.1940   0.2029   0.2270   0.3050   0.3662   0.4527   0.4809
     0.5098   0.5716   0.6172   0.6472   0.7056   0.7229   0.7748   0.8242
     0.9614   1.0312   1.3259   1.6028   1.6967   1.9368   1.9388   3.6626
     3.6920   3.8242   3.8406   3.8750   3.9211   3.9375   4.0363   4.0706
     4.0877

          k = 0.0000-0.0839 0.0000 ( 17884 PWs)   bands (ev):

   -55.6814 -55.6195 -55.6190 -55.5111 -55.4905 -55.4745 -55.4667 -55.4491
   -55.4474 -55.4113 -55.3735 -55.2674 -55.2280 -55.2166 -54.5955 -54.5945
   -31.9525 -31.9421 -31.9359 -31.9355 -31.9335 -31.9127 -31.9122 -31.8963
   -31.8517 -31.8068 -31.7898 -31.7785 -31.7735 -31.7609 -31.7430 -31.7418
   -31.7417 -31.7412 -31.7319 -31.7242 -31.7157 -31.7107 -31.7019 -31.7004
   -31.6992 -31.6832 -31.6798 -31.6537 -31.6349 -31.6313 -31.6233 -31.6221
   -31.5972 -31.5956 -31.5720 -31.5561 -31.5303 -31.4960 -31.4629 -31.4614
   -31.4450 -31.4132 -30.9205 -30.9197 -30.8319 -30.8305 -30.7930 -30.7922
   -16.4871 -15.9619 -15.9034 -15.8252 -15.7465 -15.7273 -15.5309 -15.5244
[...]
     0.5199   0.5944   0.6042   0.6600   0.6727   0.7327   0.7658   0.9565
     1.0579   1.3055   1.3698   1.4261   1.5760   1.8703   1.9451   3.4591
     3.5531   3.7857   3.8476   3.8889   3.9251   3.9324   3.9373   3.9767
     4.0399

          k = 0.0380 0.0419 0.0000 ( 17878 PWs)   bands (ev):

   -55.6818 -55.6313 -55.6072 -55.5116 -55.4971 -55.4679 -55.4663 -55.4601
   -55.4362 -55.4148 -55.3701 -55.2699 -55.2274 -55.2141 -54.6070 -54.5830
   -32.0688 -31.9889 -31.9772 -31.9480 -31.9349 -31.9274 -31.9220 -31.8919
   -31.8748 -31.8722 -31.8540 -31.8006 -31.7726 -31.7662 -31.7535 -31.7459
   -31.7364 -31.7238 -31.7180 -31.7111 -31.7074 -31.6933 -31.6652 -31.6613
   -31.6563 -31.6487 -31.6459 -31.6400 -31.6310 -31.6193 -31.6127 -31.6017
   -31.5919 -31.5765 -31.5714 -31.5426 -31.4797 -31.4664 -31.4581 -31.4489
   -31.4467 -31.4149 -30.9638 -30.9309 -30.9113 -30.8230 -30.7620 -30.6945
   -16.4912 -16.1082 -15.9849 -15.8784 -15.8076 -15.6855 -15.6103 -15.5491
   -15.4574 -15.4275 -15.3658 -15.3361 -15.2948 -15.2420 -15.2034 -15.1486
   -15.1304 -15.1207 -15.1061 -15.0857 -15.0547 -14.9697 -14.9663 -14.9232
   -14.9013 -14.8839 -14.8737 -14.8433 -14.7745 -14.5273 -14.5075 -13.1127
   -13.0342 -10.0007  -6.0517  -4.5459  -4.0561  -3.7153  -3.3453  -3.2045
    -3.1100  -3.0973  -3.0911  -2.9938  -2.8931  -2.8448  -2.7963  -2.7872
    -2.7243  -2.6870  -2.6292  -2.5929  -2.5310  -2.5223  -2.4978  -2.4801
    -2.4317  -2.3894  -2.3685  -2.3265  -2.3062  -2.2860  -2.2598  -2.2384
    -2.1943  -2.1472  -2.1231  -2.0771  -2.0096  -1.9722  -1.9100  -1.8365
    -1.7572  -1.7119  -1.6363  -1.5950  -1.5096  -1.4126  -1.3338  -1.2856
    -1.2524  -1.1410  -1.0744  -1.0606  -1.0186  -0.9661  -0.9165  -0.8750
    -0.8321  -0.8159  -0.7857  -0.7158  -0.6966  -0.6418  -0.5994  -0.5878
    -0.5389  -0.5132  -0.4429  -0.4220  -0.3621  -0.3497  -0.3135  -0.2970
    -0.2443  -0.2214  -0.1983  -0.1324  -0.0734  -0.0512  -0.0132   0.0740
     0.0992   0.1259   0.1578   0.2181   0.2421   0.3675   0.4079   0.4367
     0.5247   0.5792   0.5981   0.6709   0.6935   0.7404   0.8017   0.8329
     0.9378   1.0022   1.2609   1.6129   1.6999   1.8595   1.9195   3.6563
     3.6763   3.8104   3.9227   3.9448   3.9754   4.0202   4.0458   4.0571
     4.0940

          k = 0.0380-0.0839 0.0000 ( 17916 PWs)   bands (ev):

   -55.6814 -55.6196 -55.6190 -55.5111 -55.4905 -55.4745 -55.4668 -55.4491
   -55.4474 -55.4114 -55.3736 -55.2675 -55.2280 -55.2166 -54.5956 -54.5945
   -31.9523 -31.9434 -31.9367 -31.9362 -31.9318 -31.9128 -31.9122 -31.8962
   -31.8517 -31.8088 -31.7912 -31.7793 -31.7740 -31.7700 -31.7452 -31.7428
   -31.7406 -31.7398 -31.7286 -31.7252 -31.7212 -31.7158 -31.7015 -31.6820
   -31.6801 -31.6753 -31.6722 -31.6599 -31.6335 -31.6309 -31.6233 -31.6220
   -31.6081 -31.5957 -31.5821 -31.5555 -31.5303 -31.4958 -31.4647 -31.4630
   -31.4467 -31.4156 -30.9215 -30.9207 -30.8318 -30.8305 -30.7930 -30.7922
   -16.4843 -15.9460 -15.8796 -15.7892 -15.6967 -15.6823 -15.4794 -15.4711
   -15.4541 -15.4376 -15.3958 -15.3282 -15.3134 -15.2765 -15.2301 -15.1756
   -15.1551 -15.1131 -15.0798 -15.0547 -15.0466 -15.0004 -14.9915 -14.9780
   -14.9609 -14.9473 -14.9233 -14.9096 -14.7742 -14.6997 -14.5921 -13.0967
   -13.0962  -9.9997  -6.0420  -4.5432  -4.0549  -3.7292  -3.0590  -2.9867
    -2.8674  -2.8552  -2.7760  -2.7596  -2.7485  -2.7373  -2.7319  -2.7214
    -2.7020  -2.6711  -2.6470  -2.6020  -2.5814  -2.5350  -2.5292  -2.5173
    -2.5004  -2.4829  -2.4535  -2.4092  -2.3514  -2.3481  -2.3011  -2.2874
    -2.2519  -2.2188  -2.1954  -2.0802  -1.9137  -1.8367  -1.7738  -1.7542
    -1.7181  -1.6282  -1.5977  -1.5574  -1.4806  -1.4344  -1.4167  -1.3719
    -1.3547  -1.3202  -1.2794  -1.2736  -1.2492  -1.1377  -1.1227  -1.0299
    -0.9301  -0.8657  -0.8180  -0.7708  -0.7382  -0.6724  -0.5486  -0.5160
    -0.4803  -0.4555  -0.4096  -0.3764  -0.3582  -0.3270  -0.3023  -0.2748
    -0.2394  -0.2203  -0.2011  -0.1845  -0.1520  -0.1112  -0.0496  -0.0311
     0.0661   0.0958   0.1673   0.2204   0.2757   0.3465   0.4020   0.4375
     0.4886   0.5066   0.5307   0.6236   0.6354   0.6920   0.7001   0.7980
     0.8748   1.0456   1.0637   1.7577   1.7662   1.8618   1.8629   3.8111
     3.9087   3.9109   3.9503   3.9701   4.0081   4.0633   4.0661   4.1240
     4.1388

          k = 0.0380-0.0419 0.0000 ( 17876 PWs)   bands (ev):

   -55.6818 -55.6313 -55.6072 -55.5116 -55.4971 -55.4679 -55.4663 -55.4601
   -55.4362 -55.4148 -55.3701 -55.2699 -55.2274 -55.2141 -54.6070 -54.5830
   -32.0688 -31.9893 -31.9772 -31.9478 -31.9349 -31.9274 -31.9220 -31.8919
   -31.8748 -31.8725 -31.8540 -31.8006 -31.7726 -31.7661 -31.7528 -31.7418
   -31.7364 -31.7237 -31.7179 -31.7111 -31.7074 -31.6992 -31.6651 -31.6613
   -31.6549 -31.6489 -31.6459 -31.6400 -31.6310 -31.6194 -31.6127 -31.6017
   -31.5919 -31.5766 -31.5714 -31.5426 -31.4797 -31.4664 -31.4581 -31.4489
   -31.4466 -31.4148 -30.9638 -30.9309 -30.9113 -30.8230 -30.7620 -30.6945
   -16.4912 -16.1090 -15.9856 -15.8720 -15.8115 -15.6826 -15.6105 -15.5492
   -15.4580 -15.4280 -15.3646 -15.3378 -15.2955 -15.2430 -15.2155 -15.1488
   -15.1297 -15.1174 -15.1082 -15.0838 -15.0524 -14.9689 -14.9603 -14.9238
   -14.9006 -14.8841 -14.8734 -14.8435 -14.7747 -14.5279 -14.5072 -13.1127
   -13.0342 -10.0004  -6.0510  -4.5487  -4.0665  -3.7054  -3.3451  -3.2037
    -3.1116  -3.0928  -3.0883  -2.9942  -2.8927  -2.8505  -2.8037  -2.7773
    -2.7227  -2.6978  -2.6295  -2.6098  -2.5372  -2.5204  -2.4939  -2.4820
    -2.4268  -2.3935  -2.3676  -2.3345  -2.3034  -2.2915  -2.2656  -2.2393
    -2.1954  -2.1494  -2.1159  -2.0734  -2.0088  -1.9744  -1.8995  -1.8433
    -1.7378  -1.7139  -1.6348  -1.5933  -1.4895  -1.3952  -1.3421  -1.2858
    -1.2105  -1.1398  -1.1059  -1.0316  -0.9974  -0.9674  -0.9150  -0.8778
    -0.8495  -0.8066  -0.7632  -0.7456  -0.7109  -0.6538  -0.5993  -0.5786
    -0.5454  -0.5217  -0.4409  -0.4217  -0.3691  -0.3413  -0.3099  -0.2854
    -0.2613  -0.2299  -0.2155  -0.1363  -0.0654  -0.0387  -0.0101   0.0454
     0.0990   0.1266   0.1656   0.2022   0.2343   0.3793   0.4030   0.4573
     0.5198   0.5680   0.6023   0.6566   0.6914   0.7408   0.8009   0.8471
     0.9368   1.0012   1.2611   1.6129   1.6999   1.8593   1.9202   3.6570
     3.6767   3.8225   3.9257   3.9477   3.9711   4.0304   4.0527   4.0597
     4.0950

          k =-0.0760-0.0000 0.0000 ( 17886 PWs)   bands (ev):

   -55.6822 -55.6363 -55.6022 -55.5121 -55.5015 -55.4659 -55.4651 -55.4633
   -55.4312 -55.4179 -55.3671 -55.2722 -55.2268 -55.2119 -54.6120 -54.5780
   -32.1237 -32.0236 -32.0135 -31.9917 -31.9687 -31.9476 -31.9267 -31.9115
   -31.8923 -31.8827 -31.8822 -31.7912 -31.7831 -31.7740 -31.7435 -31.7417
   -31.7365 -31.7286 -31.7052 -31.6940 -31.6920 -31.6624 -31.6604 -31.6562
   -31.6544 -31.6510 -31.6441 -31.6333 -31.6039 -31.5974 -31.5922 -31.5891
   -31.5773 -31.5655 -31.5486 -31.5236 -31.4745 -31.4546 -31.4479 -31.4225
   -31.4188 -31.4140 -31.0174 -30.9383 -30.9060 -30.8355 -30.7492 -30.6374
   -16.4901 -16.0907 -15.9896 -15.9624 -15.8361 -15.7166 -15.6122 -15.5988
   -15.4932 -15.4502 -15.4123 -15.4103 -15.3530 -15.3442 -15.3201 -15.3126
   -15.1161 -15.1092 -15.0868 -15.0315 -14.9937 -14.9463 -14.9355 -14.9006
   -14.8871 -14.7930 -14.7670 -14.7602 -14.7308 -14.4649 -14.3999 -13.1046
   -12.9938 -10.0031  -6.0603  -4.5558  -4.0702  -3.6576  -3.4745  -3.2548
    -3.1154  -3.0812  -3.0767  -3.0335  -3.0055  -2.9441  -2.9328  -2.8976
    -2.8826  -2.8777  -2.8583  -2.6775  -2.5658  -2.5160  -2.4383  -2.3200
    -2.2541  -2.2287  -2.1698  -2.1327  -2.1077  -2.0964  -2.0796  -2.0170
    -2.0047  -1.9888  -1.9754  -1.9514  -1.9117  -1.8814  -1.8676  -1.8582
    -1.7605  -1.7427  -1.6976  -1.5828  -1.4348  -1.3595  -1.2984  -1.2425
    -1.2301  -1.2201  -1.1986  -1.1840  -1.1177  -1.0987  -1.0705  -1.0320
    -1.0116  -0.9845  -0.9197  -0.8950  -0.8205  -0.8096  -0.7094  -0.6775
    -0.6337  -0.5070  -0.4240  -0.3839  -0.3140  -0.2304  -0.2238  -0.1963
    -0.1625  -0.1450  -0.0923  -0.0673  -0.0135   0.0156   0.0488   0.1005
     0.1285   0.1482   0.1621   0.2054   0.2909   0.3176   0.3206   0.4202
     0.4700   0.4778   0.5667   0.6010   0.6519   0.7298   0.8635   0.9847
     1.0346   1.0583   1.3749   1.4471   1.5517   1.7434   1.8901   3.4607
     3.5073   3.7616   3.7859   3.8653   3.8926   3.9125   3.9267   4.0090
     4.0313

          k =-0.0760 0.0419 0.0000 ( 17914 PWs)   bands (ev):

   -55.6818 -55.6313 -55.6073 -55.5116 -55.4971 -55.4679 -55.4664 -55.4600
   -55.4362 -55.4149 -55.3702 -55.2699 -55.2274 -55.2142 -54.6070 -54.5830
   -32.0698 -31.9912 -31.9782 -31.9443 -31.9369 -31.9278 -31.9221 -31.8916
   -31.8749 -31.8727 -31.8600 -31.8009 -31.7705 -31.7662 -31.7546 -31.7419
   -31.7365 -31.7163 -31.7111 -31.7073 -31.6930 -31.6921 -31.6623 -31.6609
   -31.6541 -31.6523 -31.6464 -31.6443 -31.6395 -31.6279 -31.6126 -31.6017
   -31.5920 -31.5775 -31.5750 -31.5427 -31.4796 -31.4711 -31.4581 -31.4490
   -31.4480 -31.4160 -30.9636 -30.9337 -30.9106 -30.8230 -30.7620 -30.6946
   -16.4856 -16.0107 -15.9148 -15.8767 -15.8045 -15.6277 -15.5342 -15.5195
   -15.4345 -15.4058 -15.3800 -15.3693 -15.3554 -15.3138 -15.3001 -15.2614
   -15.1456 -15.1354 -15.1196 -15.0698 -15.0656 -14.9706 -14.9528 -14.9480
   -14.9250 -14.9001 -14.8649 -14.8266 -14.7744 -14.5195 -14.5147 -13.1106
   -13.0345 -10.0024  -6.0515  -4.5496  -4.0521  -3.6803  -3.3222  -3.1251
    -2.9424  -2.8804  -2.8503  -2.8374  -2.7963  -2.7894  -2.7147  -2.7103
    -2.6926  -2.6784  -2.6082  -2.5941  -2.5643  -2.5428  -2.4790  -2.4398
    -2.3739  -2.3663  -2.3047  -2.2974  -2.2429  -2.2000  -2.1911  -2.1715
    -2.1477  -2.1348  -2.1153  -2.0912  -2.0671  -2.0116  -1.7804  -1.7374
    -1.7175  -1.6507  -1.6170  -1.5765  -1.4846  -1.4230  -1.3505  -1.3043
    -1.2508  -1.2116  -1.1404  -1.1184  -1.0841  -1.0375  -0.9738  -0.9536
    -0.9002  -0.8847  -0.8707  -0.8664  -0.8462  -0.7876  -0.7742  -0.7318
    -0.6746  -0.6471  -0.5935  -0.5433  -0.5188  -0.4546  -0.3909  -0.3652
    -0.3510  -0.3206  -0.2496  -0.2218  -0.1935  -0.1269  -0.0438   0.0497
     0.1122   0.1592   0.1767   0.2161   0.2512   0.2784   0.3515   0.4511
     0.5502   0.5803   0.6901   0.7326   0.7358   0.8321   0.8722   0.8890
     0.9157   0.9996   1.0632   1.6265   1.7018   1.7823   1.9088   3.6529
     3.6734   3.7807   3.8217   3.8654   3.9082   3.9780   3.9857   4.1280
     4.1584

          k =-0.0760-0.0839 0.0000 ( 17948 PWs)   bands (ev):

   -55.6814 -55.6196 -55.6190 -55.5111 -55.4905 -55.4745 -55.4668 -55.4490
   -55.4473 -55.4115 -55.3737 -55.2675 -55.2280 -55.2167 -54.5956 -54.5946
   -31.9524 -31.9445 -31.9374 -31.9370 -31.9301 -31.9128 -31.9122 -31.8961
   -31.8517 -31.8107 -31.7927 -31.7798 -31.7759 -31.7742 -31.7524 -31.7430
   -31.7394 -31.7387 -31.7284 -31.7247 -31.7171 -31.7161 -31.7014 -31.6775
   -31.6713 -31.6669 -31.6575 -31.6471 -31.6324 -31.6309 -31.6286 -31.6234
   -31.6218 -31.5964 -31.5958 -31.5548 -31.5303 -31.4956 -31.4680 -31.4630
   -31.4483 -31.4180 -30.9224 -30.9216 -30.8317 -30.8304 -30.7930 -30.7922
   -16.4816 -15.9320 -15.8561 -15.7442 -15.6212 -15.6079 -15.4969 -15.4137
   -15.4104 -15.3797 -15.3491 -15.3214 -15.3118 -15.2940 -15.2481 -15.2044
   -15.1692 -15.1415 -15.1394 -15.0935 -15.0866 -15.0752 -15.0626 -15.0402
   -15.0065 -14.9567 -14.9423 -14.9039 -14.7657 -14.6909 -14.5903 -13.0965
   -13.0960 -10.0018  -6.0444  -4.5441  -4.0283  -3.7121  -3.0563  -2.9596
    -2.8477  -2.7352  -2.7193  -2.7038  -2.6422  -2.6120  -2.5855  -2.5442
    -2.4867  -2.4701  -2.4469  -2.4299  -2.4085  -2.3902  -2.3816  -2.3764
    -2.3399  -2.3220  -2.3137  -2.2726  -2.2650  -2.2514  -2.2297  -2.2112
    -2.1806  -2.1767  -2.1469  -2.0965  -2.0461  -1.9721  -1.8792  -1.7976
    -1.7866  -1.7680  -1.7185  -1.7119  -1.6664  -1.6587  -1.6339  -1.5483
    -1.4362  -1.3860  -1.2751  -1.2560  -1.2286  -1.1904  -1.1361  -1.1222
    -1.0764  -1.0464  -0.9863  -0.8853  -0.8550  -0.7997  -0.6865  -0.6487
    -0.6102  -0.5903  -0.5782  -0.5532  -0.5367  -0.4967  -0.4687  -0.4195
    -0.3814  -0.3469  -0.3200  -0.2947  -0.2474  -0.1461  -0.0521  -0.0140
     0.0867   0.1334   0.1750   0.2069   0.2687   0.4044   0.4312   0.5269
     0.5414   0.5706   0.6723   0.6824   0.7832   0.8072   0.8457   0.8867
     0.9114   0.9325   0.9523   1.7759   1.7844   1.8473   1.8474   3.7387
     3.9307   3.9457   3.9620   4.0066   4.0139   4.0407   4.0466   4.1132
     4.1237

     the Fermi energy is     3.4842 ev

!    total energy              =   -2955.26276863 Ry
     estimated scf accuracy    <       0.00000007 Ry
     smearing contrib. (-TS)   =      -0.01952995 Ry
     internal energy E=F+TS    =   -2955.24323867 Ry

     The total energy is F=E-TS. E is the sum of the following terms:
     one-electron contribution =  -23741.49570061 Ry
     hartree contribution      =   11962.85977132 Ry
     xc contribution           =    -489.74048144 Ry
     ewald contribution        =    9313.13137680 Ry
     electric field correction =       0.00179525 Ry

     convergence has been achieved in  85 iterations

     Forces acting on atoms (cartesian axes, Ry/au):

     atom    1 type  1   force =     0.00009567   -0.00029793    0.09414433
     atom    2 type  1   force =    -0.00003601    0.00043667   -0.17540733
     atom    3 type  2   force =     0.00004046   -0.00033683   -0.02110459
     atom    4 type  2   force =     0.00002561   -0.00197596    0.05461157
     atom    5 type  2   force =    -0.00674220   -0.00245271    0.00300675
     atom    6 type  2   force =     0.00835006   -0.00187570    0.00242932
     atom    7 type  1   force =    -0.00017228   -0.00404422    0.00896796
     atom    8 type  1   force =     0.00032220    0.00082140    0.00310667
     atom    9 type  2   force =    -0.00057933    0.00059024   -0.00019893
     atom   10 type  2   force =    -0.00139014    0.00173216   -0.00927130
     atom   11 type  2   force =     0.00005268   -0.00015752    0.00038759
     atom   12 type  2   force =    -0.00006830   -0.00011065   -0.00029945
     atom   13 type  1   force =    -0.00049084   -0.00025767    0.00002773
     atom   14 type  1   force =     0.00000839   -0.00033571   -0.00005237
     atom   15 type  2   force =    -0.00034310   -0.00005368   -0.00012050
     atom   16 type  2   force =     0.00031169   -0.00054192   -0.00039931
     atom   17 type  2   force =     0.00041806   -0.00021898   -0.00083977
     atom   18 type  2   force =    -0.00053905    0.00016509   -0.00012265
     atom   19 type  1   force =     0.00061256   -0.00060461    0.00067333
     atom   20 type  1   force =     0.00047540    0.00029107    0.00028382
     atom   21 type  2   force =     0.00007666    0.00004618    0.10324219
     atom   22 type  2   force =    -0.00049345    0.00030727    0.00034356
     atom   23 type  2   force =    -0.07189651   -0.00018597   -0.02719939
     atom   24 type  2   force =     0.07182967    0.00025239   -0.02724262
     atom   25 type  1   force =     0.00003387   -0.00024460    0.09382954
     atom   26 type  1   force =    -0.00006001   -0.00132623   -0.17558131
     atom   27 type  2   force =     0.00015611   -0.00011275   -0.01986768
     atom   28 type  2   force =     0.00007011   -0.00032148    0.04988461
     atom   29 type  2   force =    -0.00613139    0.00232078    0.00251100
     atom   30 type  2   force =     0.00762773    0.00268489    0.00196220
     atom   31 type  1   force =     0.00001831    0.00839432   -0.00275551
     atom   32 type  1   force =     0.00011284   -0.00235159    0.00259354
     atom   33 type  2   force =     0.00005343   -0.00002110   -0.00006910
     atom   34 type  2   force =    -0.00211338   -0.00248869   -0.01004287
     atom   35 type  2   force =    -0.00013370   -0.00002358    0.00053904
     atom   36 type  2   force =    -0.00008015    0.00006815   -0.00007207
     atom   37 type  1   force =     0.00016071   -0.00007799   -0.00026754
     atom   38 type  1   force =     0.00006492   -0.00017572    0.00024153
     atom   39 type  2   force =    -0.00009841    0.00008146   -0.00024944
     atom   40 type  2   force =     0.00017192   -0.00025815   -0.00010618
     atom   41 type  2   force =    -0.00067512   -0.00054313    0.00036442
     atom   42 type  2   force =     0.00035089    0.00000457   -0.00008072
     atom   43 type  1   force =    -0.00064152   -0.00066679    0.00021373
     atom   44 type  1   force =     0.00005148    0.00033420   -0.00015242
     atom   45 type  2   force =     0.00007174   -0.00007033    0.10304319
     atom   46 type  2   force =    -0.07191733   -0.00004489   -0.02723122
     atom   47 type  2   force =     0.07188068    0.00039492   -0.02727937
     atom   48 type  3   force =     0.01963153    0.00006325    0.00157691
     atom   49 type  4   force =    -0.00428743    0.00107918   -0.00223890
     atom   50 type  5   force =    -0.00012901    0.00106477   -0.00073484
     atom   51 type  5   force =     0.00009996    0.00072557    0.00007674
     atom   52 type  5   force =    -0.00037294   -0.00007088   -0.00139287
     atom   53 type  5   force =    -0.00673896    0.00592378    0.00218221
     atom   54 type  5   force =    -0.00631311   -0.00599435    0.00005709
     atom   55 type  2   force =    -0.00048970    0.00037710    0.00052759
     atom   56 type  5   force =    -0.00024196    0.00008293   -0.00044789

     Total force =     0.362958     Total SCF correction =     0.000436
  @ DRIVER MODE: Message from server: STATUS
  @ DRIVER MODE: Message from server: GETFORCE
  @ DRIVER MODE: Returning v,forces,stress,ensemble 

     Writing output data file ./calc.save/
  @ DRIVER MODE: Message from server: EXIT
  @ DRIVE MODE: Exiting  
 
     init_run     :     13.41s CPU     13.74s WALL (       1 calls)
     electrons    :   1643.55s CPU   1683.50s WALL (       1 calls)
     forces       :      2.75s CPU      2.88s WALL (       1 calls)

     Called by init_run:
     wfcinit      :      5.78s CPU      5.94s WALL (       1 calls)
     potinit      :      6.86s CPU      6.93s WALL (       1 calls)
     hinit0       :      0.36s CPU      0.37s WALL (       1 calls)

     Called by electrons:
     c_bands      :   1398.12s CPU   1421.23s WALL (      85 calls)
     sum_band     :    167.49s CPU    175.59s WALL (      85 calls)
     v_of_rho     :     57.95s CPU     60.14s WALL (      86 calls)
     newd         :     23.73s CPU     30.25s WALL (      86 calls)
     mix_rho      :      2.15s CPU      2.20s WALL (      85 calls)
     vdW_kernel   :      5.84s CPU      5.86s WALL (       1 calls)

     Called by c_bands:
     init_us_2    :      8.58s CPU      8.62s WALL (    1720 calls)
     cegterg      :   1371.33s CPU   1391.40s WALL (     865 calls)

     Called by *egterg:
     cdiaghg      :    238.11s CPU    239.04s WALL (    9026 calls)
     h_psi        :    739.53s CPU    751.68s WALL (    9037 calls)
     s_psi        :     96.92s CPU     97.80s WALL (    9037 calls)
     g_psi        :      2.60s CPU      2.61s WALL (    8162 calls)

     Called by h_psi:
     h_psi:calbec :     90.18s CPU     91.68s WALL (    9037 calls)
     vloc_psi     :    548.55s CPU    554.20s WALL (    9037 calls)
     add_vuspsi   :     97.46s CPU     99.68s WALL (    9037 calls)

     General routines
     calbec       :    118.99s CPU    120.58s WALL (    9927 calls)
     fft          :     30.24s CPU     30.38s WALL (    5418 calls)
     ffts         :      0.19s CPU      0.20s WALL (     171 calls)
     fftw         :    613.29s CPU    619.52s WALL ( 1159908 calls)
     interpolate  :      0.60s CPU      0.60s WALL (      86 calls)
     davcio       :      0.00s CPU      0.08s WALL (      10 calls)
 
     Parallel routines
 
     PWSCF        :  27m39.96s CPU  28m20.63s WALL

 
   This run was terminated on:  11:32:30  23Sep2021            

=------------------------------------------------------------------------------=
   JOB DONE.
=------------------------------------------------------------------------------=
