
     Program PWSCF v.6.7GPU starts on  9Sep2021 at  1:33:29 

     This program is part of the open-source Quantum ESPRESSO suite
     for quantum simulation of materials; please cite
         "P. Giannozzi et al., J. Phys.:Condens. Matter 21 395502 (2009);
         "P. Giannozzi et al., J. Phys.:Condens. Matter 29 465901 (2017);
         "P. Giannozzi et al., J. Chem. Phys. 152 154105 (2020);
          URL http://www.quantum-espresso.org", 
     in publications or presentations arising from this work. More details at
     http://www.quantum-espresso.org/quote

     Parallel version (MPI), running on    10 processors

     MPI processes distributed on     1 nodes
     R & G space division:  proc/nbgrp/npool/nimage =      10
     Reading input from /storage/home/hcoda1/3/ntian30/research/carbon/CxH_vib/C_calc/ads_slab/CN_a/out_0012/pw.inp
Warning: card &CELL ignored
Warning: card   CELL_DYNAMICS='IPI', ignored
Warning: card / ignored

     Current dimensions of program PWSCF are:
     Max number of different atomic species (ntypx) = 10
     Max number of k-points (npk) =  40000
     Max angular momentum in pseudopotentials (lmaxx) =  3
     Presently no symmetry can be used with electric field

     Message from routine cell_base_init:
     DEPRECATED: use true lattice parameter, not A to a.u. conversion factor

     **************************************************************************
     Initializing libbeef V0.1.2 with the BEEF-vdW functional.
     Citation: Wellendorff et al., PRB 85, 235149 (2012).
     **************************************************************************


     IMPORTANT: XC functional enforced from input :
     Exchange-correlation= BEEF-VDW
                           (   1   4  43  14   2   0   0)
     Any further DFT definition will be discarded
     Please, verify this is what you really want


     Subspace diagonalization in iterative solution of the eigenvalue problem:
     one sub-group per band group will be used
     scalapack distributed-memory algorithm (size of sub-group:  3*  3 procs)

  @ DRIVER MODE: Connecting to 
 qe_1139763_2767374.sched-torque.pace.gatech.eduxg_q328o_scratch
  using UNIX socket
  @ DRIVER MODE: Message from server: STATUS
  @ DRIVER MODE: Message from server: INIT
  @ DRIVER MODE: Receiving replica           0          -1
  @ DRIVER MODE: Receiving encoded integer          25
  @ DRIVER MODE:  SCF:  T  FORCE:  T  STRESS:  F  VC:  F  ENSEMBLE:  F
  @ DRIVER MODE:  SCF:  T  FORCE:  T  STRESS:  F  VC:  F  ENSEMBLE:  F
 
     Parallelization info
     --------------------
     sticks:   dense  smooth     PW     G-vecs:    dense   smooth      PW
     Min         327     131     37                56683    14340    2191
     Max         328     133     38                56694    14346    2206
     Sum        3275    1317    379               566857   143421   21985
 
     Using Slab Decomposition
 


     bravais-lattice index     =            0
     lattice parameter (alat)  =       1.8897  a.u.
     unit-cell volume          =    6658.9804 (a.u.)^3
     number of atoms/cell      =           49
     number of atomic types    =            4
     number of electrons       =       387.00
     number of Kohn-Sham states=          203
     kinetic-energy cutoff     =      29.3995  Ry
     charge density cutoff     =     293.9946  Ry
     scf convergence threshold =      7.3E-08
     mixing beta               =       0.0500
     number of iterations used =            8  plain     mixing
     Exchange-correlation= BEEF-VDW
                           (   1   4  43  14   2   0   0)

     celldm(1)=   1.889726  celldm(2)=   0.000000  celldm(3)=   0.000000
     celldm(4)=   0.000000  celldm(5)=   0.000000  celldm(6)=   0.000000

     crystal axes: (cart. coord. in units of alat)
               a(1) = (   6.579727   0.000000   0.000000 )  
               a(2) = (  -0.000775   5.961596   0.000000 )  
               a(3) = (   0.000000   0.000000  25.155947 )  

     reciprocal axes: (cart. coord. in units 2 pi/alat)
               b(1) = (  0.151982  0.000020  0.000000 )  
               b(2) = (  0.000000  0.167740  0.000000 )  
               b(3) = (  0.000000  0.000000  0.039752 )  


     PseudoPot. # 1 for Ti read from file:
     /storage/coda1/p-amedford6/0/shared/rich_project_chbe-medford/medford-share/data/pseudos_module/espresso/nninc/pbe/van/Ti.UPF
     MD5 check sum: 8e4df49b7f0d34bbd5052bf3f5ea0213
     Pseudo is Ultrasoft, Zval = 12.0
     Generated by new atomic code, or converted to UPF format
     Using radial grid of  851 points,  6 beta functions with: 
                l(1) =   0
                l(2) =   0
                l(3) =   1
                l(4) =   1
                l(5) =   2
                l(6) =   2
     Q(r) pseudized with  8 coefficients,  rinner =    1.000   1.000   1.000
                                                       1.000   1.000

     PseudoPot. # 2 for O  read from file:
     /storage/coda1/p-amedford6/0/shared/rich_project_chbe-medford/medford-share/data/pseudos_module/espresso/nninc/pbe/van/O.UPF
     MD5 check sum: 78c19812648e8988a0fe644b0f25305e
     Pseudo is Ultrasoft, Zval =  6.0
     Generated by new atomic code, or converted to UPF format
     Using radial grid of  737 points,  4 beta functions with: 
                l(1) =   0
                l(2) =   0
                l(3) =   1
                l(4) =   1
     Q(r) pseudized with  8 coefficients,  rinner =    0.800   0.800   0.800


     PseudoPot. # 3 for N  read from file:
     /storage/coda1/p-amedford6/0/shared/rich_project_chbe-medford/medford-share/data/pseudos_module/espresso/nninc/pbe/van/N.UPF
     MD5 check sum: 90d10febe142ad51ac9d5be1deb811c4
     Pseudo is Ultrasoft, Zval =  5.0
     Generated by new atomic code, or converted to UPF format
     Using radial grid of  729 points,  4 beta functions with: 
                l(1) =   0
                l(2) =   0
                l(3) =   1
                l(4) =   1
     Q(r) pseudized with  8 coefficients,  rinner =    0.800   0.800   0.800


     PseudoPot. # 4 for C  read from file:
     /storage/coda1/p-amedford6/0/shared/rich_project_chbe-medford/medford-share/data/pseudos_module/espresso/nninc/pbe/van/C.UPF
     MD5 check sum: 1a69bf6b8db32088f5b2163dbdb77a27
     Pseudo is Ultrasoft, Zval =  4.0
     Generated by new atomic code, or converted to UPF format
     Using radial grid of  721 points,  4 beta functions with: 
                l(1) =   0
                l(2) =   0
                l(3) =   1
                l(4) =   1
     Q(r) pseudized with  8 coefficients,  rinner =    0.800   0.800   0.800


     atomic species   valence    mass     pseudopotential
        Ti1           12.00    47.86700     Ti( 1.00)
        O1             6.00    15.99900     O ( 1.00)
        N1             5.00    14.00700     N ( 1.00)
        C1             4.00    12.01100     C ( 1.00)

     No symmetry found



   Cartesian axes

     site n.     atom                  positions (alat units)
         1           Ti1 tau(   1) = (   0.0004258   2.9801865   6.0000000  )
         2           Ti1 tau(   2) = (   3.2906075   1.4906267   6.0002472  )
         3           O1  tau(   3) = (   0.0006271   0.0005054   7.9858123  )
         4           O1  tau(   4) = (   3.2906025   0.0005020   7.3038282  )
         5           O1  tau(   5) = (   4.5942328   1.4918067   9.2879030  )
         6           O1  tau(   6) = (   1.9868534   1.4903216   9.2879459  )
         7           Ti1 tau(   7) = (   3.2907910   2.8959150   9.1758416  )
         8           Ti1 tau(   8) = (   0.0015273   1.4827037   9.2680791  )
         9           O1  tau(   9) = (   3.2906544   5.9526486  11.3360365  )
        10           O1  tau(  10) = (   0.0116148   5.9584955  10.6183126  )
        11           O1  tau(  11) = (   1.2859751   1.4766153  12.6250921  )
        12           O1  tau(  12) = (   5.2747213   1.4793106  12.6166009  )
        13           Ti1 tau(  13) = (   0.0603843   2.9584451  12.6427671  )
        14           Ti1 tau(  14) = (   3.3778536   1.4756059  12.4863933  )
        15           O1  tau(  15) = (   6.5752277   0.0194043  14.6532461  )
        16           O1  tau(  16) = (   3.2875826   0.0023437  13.9196692  )
        17           O1  tau(  17) = (   4.5326611   1.5140167  16.0393429  )
        18           O1  tau(  18) = (   2.0377802   1.5105360  16.0392308  )
        19           Ti1 tau(  19) = (   3.2776205   2.9998382  15.7112304  )
        20           Ti1 tau(  20) = (   6.5636215   1.4772787  15.8536107  )
        21           O1  tau(  21) = (   3.2904802   0.0005063   4.7018136  )
        22           O1  tau(  22) = (   6.5677839   0.0282815  17.1640259  )
        23           O1  tau(  23) = (   1.3043587   1.4918075   6.0039043  )
        24           O1  tau(  24) = (   5.2767064   1.4903225   6.0039473  )
        25           Ti1 tau(  25) = (   0.0000382   5.9609847   6.0000000  )
        26           Ti1 tau(  26) = (   3.2902200   4.4714249   6.0002472  )
        27           O1  tau(  27) = (   0.0002396   2.9813036   7.9858123  )
        28           O1  tau(  28) = (   3.2902150   2.9813002   7.3038282  )
        29           O1  tau(  29) = (   4.5938453   4.4726049   9.2879030  )
        30           O1  tau(  30) = (   1.9864658   4.4711199   9.2879459  )
        31           Ti1 tau(  31) = (   3.2891106   5.8743827   9.1763621  )
        32           Ti1 tau(  32) = (   0.0006254   4.4649316   9.2693709  )
        33           O1  tau(  33) = (   3.2934253   2.9766276  11.3360394  )
        34           O1  tau(  34) = (   0.0092240   2.9805883  10.6323155  )
        35           O1  tau(  35) = (   1.2837843   4.4682058  12.6378402  )
        36           O1  tau(  36) = (   5.2794199   4.4724371  12.6287280  )
        37           Ti1 tau(  37) = (   0.0629162   5.9364049  12.5278104  )
        38           Ti1 tau(  38) = (   3.3790601   4.4565194  12.4925032  )
        39           O1  tau(  39) = (   6.5767340   2.9373485  14.6650829  )
        40           O1  tau(  40) = (   3.2863475   2.9847055  13.9098935  )
        41           O1  tau(  41) = (   4.5306188   4.4848726  16.0532295  )
        42           O1  tau(  42) = (   2.0355158   4.4881816  16.0516428  )
        43           Ti1 tau(  43) = (   3.2786155   0.0182257  15.7221571  )
        44           Ti1 tau(  44) = (   6.5667443   4.6373684  16.0773964  )
        45           O1  tau(  45) = (   3.2900926   2.9813045   4.7018136  )
        46           O1  tau(  46) = (   1.3039711   4.4726057   6.0039043  )
        47           O1  tau(  47) = (   5.2763189   4.4711207   6.0039473  )
        48           N1  tau(  48) = (   0.0024438   2.9903893  17.4749376  )
        49           C1  tau(  49) = (   0.0264708   2.9368645  18.6721426  )

     number of k points=    10  Fermi-Dirac smearing, width (Ry)=  0.0073
                       cart. coord. in units 2pi/alat
        k(    1) = (   0.0000000   0.0000000   0.0000000), wk =   0.1250000
        k(    2) = (   0.0000000   0.0419351   0.0000000), wk =   0.2500000
        k(    3) = (   0.0000000  -0.0838702   0.0000000), wk =   0.1250000
        k(    4) = (   0.0379955   0.0000049   0.0000000), wk =   0.2500000
        k(    5) = (   0.0379955   0.0419400   0.0000000), wk =   0.2500000
        k(    6) = (   0.0379955  -0.0838652   0.0000000), wk =   0.2500000
        k(    7) = (   0.0379955  -0.0419301   0.0000000), wk =   0.2500000
        k(    8) = (  -0.0759910  -0.0000099   0.0000000), wk =   0.1250000
        k(    9) = (  -0.0759910   0.0419252   0.0000000), wk =   0.2500000
        k(   10) = (  -0.0759910  -0.0838800   0.0000000), wk =   0.1250000

     Dense  grid:   566857 G-vectors     FFT dimensions: (  72,  64, 270)

     Smooth grid:   143421 G-vectors     FFT dimensions: (  45,  40, 180)

     Estimated max dynamical RAM per process >     358.79 MB

     Estimated total dynamical RAM >       3.50 GB
     Cannot read rho : file not found

     Initial potential from superposition of free atoms

     starting charge  370.99920, renormalised to  387.00000

     negative rho (up, down):  1.997E-02 0.000E+00


     %%%%%%%%%%%%%%%%%%%%%%%%%%%%%%%%%%%%%%%%%%%%%%%%%%%%%%%%%%%%%%%%%%%%%%%%
     %                                                                      %
     % You are using vdW-DF, which was implemented by the Thonhauser group. %
     % Please cite the following two papers that made this development      %
     % possible and the two reviews that describe the various versions:     %
     %                                                                      %
     %   T. Thonhauser et al., PRL 115, 136402 (2015).                      %
     %   T. Thonhauser et al., PRB 76, 125112 (2007).                       %
     %   K. Berland et al., Rep. Prog. Phys. 78, 066501 (2015).             %
     %   D.C. Langreth et al., J. Phys.: Condens. Matter 21, 084203 (2009). %
     %                                                                      %
     %                                                                      %
     % If you are calculating the stress with vdW-DF, please also cite:     %
     %                                                                      %
     %   R. Sabatini et al., J. Phys.: Condens. Matter 24, 424209 (2012).   %
     %                                                                      %
     %%%%%%%%%%%%%%%%%%%%%%%%%%%%%%%%%%%%%%%%%%%%%%%%%%%%%%%%%%%%%%%%%%%%%%%%


 
     Adding external electric field

     Computed dipole along edir(3) : 
        Dipole               -3.3387 Ry au,         -8.4862 Debye
        Dipole field         -0.0063 Ry au, 
 
        Potential amp.        0.5841 Ry
        Total length         46.3494 bohr
 
     Starting wfcs are  292 atomic wfcs
  @ DRIVER MODE: Message from server: STATUS
  @ DRIVER MODE: Message from server: POSDATA
  @ DRIVER MODE: Reading and sharing cell 
  @ DRIVER MODE: Reading and sharing positions 
  @ DRIVER MODE: Received positions 

     total cpu time spent up to now is       12.9 secs

     Self-consistent Calculation

     iteration #  1     ecut=    29.40 Ry     beta= 0.05
     Davidson diagonalization with overlap
     c_bands:  3 eigenvalues not converged
     c_bands:  1 eigenvalues not converged
     c_bands:  5 eigenvalues not converged
     c_bands:  1 eigenvalues not converged
     c_bands:  4 eigenvalues not converged
     ethr =  1.00E-05,  avg # of iterations = 18.5

     negative rho (up, down):  1.974E-02 0.000E+00
 
     Adding external electric field

     Computed dipole along edir(3) : 
        Dipole                5.3538 Ry au,         13.6081 Debye
        Dipole field          0.0101 Ry au, 
 
        Potential amp.       -0.9366 Ry
        Total length         46.3494 bohr
 

     total cpu time spent up to now is       49.1 secs

     total energy              =   -2906.46324517 Ry
     estimated scf accuracy    <     127.71869232 Ry

     iteration #  2     ecut=    29.40 Ry     beta= 0.05
     Davidson diagonalization with overlap
     ethr =  1.00E-02,  avg # of iterations = 16.8

     negative rho (up, down):  1.743E-02 0.000E+00
 
     Adding external electric field

     Computed dipole along edir(3) : 
        Dipole               -1.2844 Ry au,         -3.2646 Debye
        Dipole field         -0.0024 Ry au, 
 
        Potential amp.        0.2247 Ry
        Total length         46.3494 bohr
 

     total cpu time spent up to now is       70.7 secs

     total energy              =   -2893.69585298 Ry
     estimated scf accuracy    <    1678.50567968 Ry

     iteration #  3     ecut=    29.40 Ry     beta= 0.05
     Davidson diagonalization with overlap
     ethr =  1.00E-02,  avg # of iterations =  6.1

     negative rho (up, down):  1.733E-02 0.000E+00
 
     Adding external electric field

     Computed dipole along edir(3) : 
        Dipole               -1.3291 Ry au,         -3.3783 Debye
        Dipole field         -0.0025 Ry au, 
 
        Potential amp.        0.2325 Ry
        Total length         46.3494 bohr
 

     total cpu time spent up to now is       83.6 secs

     total energy              =   -2910.65217614 Ry
     estimated scf accuracy    <     160.82190581 Ry

     iteration #  4     ecut=    29.40 Ry     beta= 0.05
     Davidson diagonalization with overlap
     ethr =  1.00E-02,  avg # of iterations =  5.3

     negative rho (up, down):  1.618E-02 0.000E+00
 
     Adding external electric field

     Computed dipole along edir(3) : 
        Dipole               -0.4330 Ry au,         -1.1007 Debye
        Dipole field         -0.0008 Ry au, 
 
        Potential amp.        0.0758 Ry
        Total length         46.3494 bohr
 

     total cpu time spent up to now is       95.1 secs

     total energy              =   -2913.51187985 Ry
     estimated scf accuracy    <      67.07875334 Ry

     iteration #  5     ecut=    29.40 Ry     beta= 0.05
     Davidson diagonalization with overlap
     ethr =  1.00E-02,  avg # of iterations =  1.2

     negative rho (up, down):  1.585E-02 0.000E+00
 
     Adding external electric field

     Computed dipole along edir(3) : 
        Dipole               -0.2334 Ry au,         -0.5932 Debye
        Dipole field         -0.0004 Ry au, 
 
        Potential amp.        0.0408 Ry
        Total length         46.3494 bohr
 

     total cpu time spent up to now is      104.8 secs

     total energy              =   -2913.83649543 Ry
     estimated scf accuracy    <      85.30530912 Ry

     iteration #  6     ecut=    29.40 Ry     beta= 0.05
     Davidson diagonalization with overlap
     ethr =  1.00E-02,  avg # of iterations =  1.4

     negative rho (up, down):  1.476E-02 0.000E+00
 
     Adding external electric field

     Computed dipole along edir(3) : 
        Dipole                1.0774 Ry au,          2.7385 Debye
        Dipole field          0.0020 Ry au, 
 
        Potential amp.       -0.1885 Ry
        Total length         46.3494 bohr
 

     total cpu time spent up to now is      114.5 secs

     total energy              =   -2915.15922757 Ry
     estimated scf accuracy    <      82.20626285 Ry

     iteration #  7     ecut=    29.40 Ry     beta= 0.05
     Davidson diagonalization with overlap
     ethr =  1.00E-02,  avg # of iterations =  1.0

     negative rho (up, down):  1.490E-02 0.000E+00
 
     Adding external electric field

     Computed dipole along edir(3) : 
        Dipole                1.2593 Ry au,          3.2007 Debye
        Dipole field          0.0024 Ry au, 
 
        Potential amp.       -0.2203 Ry
        Total length         46.3494 bohr
 

     total cpu time spent up to now is      125.2 secs

     total energy              =   -2915.84253105 Ry
     estimated scf accuracy    <     129.46993680 Ry

     iteration #  8     ecut=    29.40 Ry     beta= 0.05
     Davidson diagonalization with overlap
     ethr =  1.00E-02,  avg # of iterations =  1.0

     negative rho (up, down):  1.495E-02 0.000E+00
 
     Adding external electric field

     Computed dipole along edir(3) : 
        Dipole                1.1471 Ry au,          2.9156 Debye
        Dipole field          0.0022 Ry au, 
 
        Potential amp.       -0.2007 Ry
        Total length         46.3494 bohr
 

     total cpu time spent up to now is      134.8 secs

     total energy              =   -2916.14009958 Ry
     estimated scf accuracy    <     365.48329258 Ry

     iteration #  9     ecut=    29.40 Ry     beta= 0.05
     Davidson diagonalization with overlap
     ethr =  1.00E-02,  avg # of iterations =  1.0

     negative rho (up, down):  1.509E-02 0.000E+00
 
     Adding external electric field

     Computed dipole along edir(3) : 
        Dipole                1.1735 Ry au,          2.9828 Debye
        Dipole field          0.0022 Ry au, 
 
        Potential amp.       -0.2053 Ry
        Total length         46.3494 bohr
 

     total cpu time spent up to now is      144.3 secs

     total energy              =   -2915.75077915 Ry
     estimated scf accuracy    <     274.49204759 Ry

     iteration # 10     ecut=    29.40 Ry     beta= 0.05
     Davidson diagonalization with overlap
     ethr =  1.00E-02,  avg # of iterations =  1.0

     negative rho (up, down):  1.597E-02 0.000E+00
 
     Adding external electric field

     Computed dipole along edir(3) : 
        Dipole                0.7135 Ry au,          1.8136 Debye
        Dipole field          0.0013 Ry au, 
 
        Potential amp.       -0.1248 Ry
        Total length         46.3494 bohr
 

     total cpu time spent up to now is      153.9 secs

     total energy              =   -2914.30992931 Ry
     estimated scf accuracy    <     187.88827926 Ry

     iteration # 11     ecut=    29.40 Ry     beta= 0.05
     Davidson diagonalization with overlap
     ethr =  1.00E-02,  avg # of iterations =  1.0

     negative rho (up, down):  1.680E-02 0.000E+00
 
     Adding external electric field

     Computed dipole along edir(3) : 
        Dipole                0.4848 Ry au,          1.2324 Debye
        Dipole field          0.0009 Ry au, 
 
        Potential amp.       -0.0848 Ry
        Total length         46.3494 bohr
 

     total cpu time spent up to now is      164.9 secs

     total energy              =   -2914.34685741 Ry
     estimated scf accuracy    <      95.73003057 Ry

     iteration # 12     ecut=    29.40 Ry     beta= 0.05
     Davidson diagonalization with overlap
     ethr =  1.00E-02,  avg # of iterations =  1.0

     negative rho (up, down):  2.423E-02 0.000E+00
 
     Adding external electric field

     Computed dipole along edir(3) : 
        Dipole               -0.4548 Ry au,         -1.1560 Debye
        Dipole field         -0.0009 Ry au, 
 
        Potential amp.        0.0796 Ry
        Total length         46.3494 bohr
 

     total cpu time spent up to now is      176.8 secs

     total energy              =   -2913.44028619 Ry
     estimated scf accuracy    <      86.19399108 Ry

     iteration # 13     ecut=    29.40 Ry     beta= 0.05
     Davidson diagonalization with overlap
     ethr =  1.00E-02,  avg # of iterations =  3.5

     negative rho (up, down):  2.440E-02 0.000E+00
 
     Adding external electric field

     Computed dipole along edir(3) : 
        Dipole               -1.8980 Ry au,         -4.8242 Debye
        Dipole field         -0.0036 Ry au, 
 
        Potential amp.        0.3320 Ry
        Total length         46.3494 bohr
 

     total cpu time spent up to now is      190.7 secs

     total energy              =   -2912.09384642 Ry
     estimated scf accuracy    <      50.38774770 Ry

     iteration # 14     ecut=    29.40 Ry     beta= 0.05
     Davidson diagonalization with overlap
     ethr =  1.00E-02,  avg # of iterations =  7.6

     negative rho (up, down):  2.033E-02 0.000E+00
 
     Adding external electric field

     Computed dipole along edir(3) : 
        Dipole               -1.4349 Ry au,         -3.6471 Debye
        Dipole field         -0.0027 Ry au, 
 
        Potential amp.        0.2510 Ry
        Total length         46.3494 bohr
 

     total cpu time spent up to now is      203.7 secs

     total energy              =   -2915.66440548 Ry
     estimated scf accuracy    <       6.82935226 Ry

     iteration # 15     ecut=    29.40 Ry     beta= 0.05
     Davidson diagonalization with overlap
     ethr =  1.76E-03,  avg # of iterations =  5.3

     negative rho (up, down):  1.854E-02 0.000E+00
 
     Adding external electric field

     Computed dipole along edir(3) : 
        Dipole               -0.7482 Ry au,         -1.9018 Debye
        Dipole field         -0.0014 Ry au, 
 
        Potential amp.        0.1309 Ry
        Total length         46.3494 bohr
 

     total cpu time spent up to now is      215.2 secs

     total energy              =   -2915.61951041 Ry
     estimated scf accuracy    <       3.98138476 Ry

     iteration # 16     ecut=    29.40 Ry     beta= 0.05
     Davidson diagonalization with overlap
     ethr =  1.03E-03,  avg # of iterations =  4.3

     negative rho (up, down):  1.878E-02 0.000E+00
 
     Adding external electric field

     Computed dipole along edir(3) : 
        Dipole               -0.8732 Ry au,         -2.2194 Debye
        Dipole field         -0.0016 Ry au, 
 
        Potential amp.        0.1528 Ry
        Total length         46.3494 bohr
 

     total cpu time spent up to now is      225.9 secs

     total energy              =   -2915.72565787 Ry
     estimated scf accuracy    <       2.95170868 Ry

     iteration # 17     ecut=    29.40 Ry     beta= 0.05
     Davidson diagonalization with overlap
     ethr =  7.63E-04,  avg # of iterations =  1.3

     negative rho (up, down):  2.231E-02 0.000E+00
 
     Adding external electric field

     Computed dipole along edir(3) : 
        Dipole               -1.4880 Ry au,         -3.7821 Debye
        Dipole field         -0.0028 Ry au, 
 
        Potential amp.        0.2603 Ry
        Total length         46.3494 bohr
 

     total cpu time spent up to now is      235.8 secs

     total energy              =   -2916.09132824 Ry
     estimated scf accuracy    <       3.04769653 Ry

     iteration # 18     ecut=    29.40 Ry     beta= 0.05
     Davidson diagonalization with overlap
     ethr =  7.63E-04,  avg # of iterations = 17.0

     negative rho (up, down):  2.263E-02 0.000E+00
 
     Adding external electric field

     Computed dipole along edir(3) : 
        Dipole               -1.5769 Ry au,         -4.0081 Debye
        Dipole field         -0.0030 Ry au, 
 
        Potential amp.        0.2759 Ry
        Total length         46.3494 bohr
 

     total cpu time spent up to now is      255.3 secs

     total energy              =   -2917.16034309 Ry
     estimated scf accuracy    <      37.96649309 Ry

     iteration # 19     ecut=    29.40 Ry     beta= 0.05
     Davidson diagonalization with overlap
     ethr =  7.63E-04,  avg # of iterations =  2.7

     negative rho (up, down):  2.023E-02 0.000E+00
 
     Adding external electric field

     Computed dipole along edir(3) : 
        Dipole               -1.1311 Ry au,         -2.8750 Debye
        Dipole field         -0.0021 Ry au, 
 
        Potential amp.        0.1979 Ry
        Total length         46.3494 bohr
 

     total cpu time spent up to now is      265.9 secs

     total energy              =   -2916.57387651 Ry
     estimated scf accuracy    <      62.98783165 Ry

     iteration # 20     ecut=    29.40 Ry     beta= 0.05
     Davidson diagonalization with overlap
     ethr =  7.63E-04,  avg # of iterations =  1.6

     negative rho (up, down):  1.993E-02 0.000E+00
 
     Adding external electric field

     Computed dipole along edir(3) : 
        Dipole               -0.8254 Ry au,         -2.0978 Debye
        Dipole field         -0.0016 Ry au, 
 
        Potential amp.        0.1444 Ry
        Total length         46.3494 bohr
 

     total cpu time spent up to now is      275.9 secs

     total energy              =   -2916.80003221 Ry
     estimated scf accuracy    <      25.30484425 Ry

     iteration # 21     ecut=    29.40 Ry     beta= 0.05
     Davidson diagonalization with overlap
     ethr =  7.63E-04,  avg # of iterations =  4.4

     negative rho (up, down):  1.858E-02 0.000E+00
 
     Adding external electric field

     Computed dipole along edir(3) : 
        Dipole                0.1623 Ry au,          0.4125 Debye
        Dipole field          0.0003 Ry au, 
 
        Potential amp.       -0.0284 Ry
        Total length         46.3494 bohr
 

     total cpu time spent up to now is      286.9 secs

     total energy              =   -2916.91029406 Ry
     estimated scf accuracy    <      21.58047620 Ry

     iteration # 22     ecut=    29.40 Ry     beta= 0.05
     Davidson diagonalization with overlap
     c_bands:  2 eigenvalues not converged
     c_bands:  1 eigenvalues not converged
     c_bands:  2 eigenvalues not converged
     c_bands:  2 eigenvalues not converged
     c_bands:  2 eigenvalues not converged
     c_bands:  3 eigenvalues not converged
     ethr =  7.63E-04,  avg # of iterations = 18.5

     negative rho (up, down):  1.718E-02 0.000E+00
 
     Adding external electric field

     Computed dipole along edir(3) : 
        Dipole                0.7240 Ry au,          1.8403 Debye
        Dipole field          0.0014 Ry au, 
 
        Potential amp.       -0.1267 Ry
        Total length         46.3494 bohr
 

     total cpu time spent up to now is      307.3 secs

     total energy              =   -2917.35130648 Ry
     estimated scf accuracy    <      90.65925627 Ry

     iteration # 23     ecut=    29.40 Ry     beta= 0.05
     Davidson diagonalization with overlap
     ethr =  7.63E-04,  avg # of iterations =  3.9

     negative rho (up, down):  1.906E-02 0.000E+00
 
     Adding external electric field

     Computed dipole along edir(3) : 
        Dipole               -0.0889 Ry au,         -0.2259 Debye
        Dipole field         -0.0002 Ry au, 
 
        Potential amp.        0.0155 Ry
        Total length         46.3494 bohr
 

     total cpu time spent up to now is      318.3 secs

     total energy              =   -2916.62765228 Ry
     estimated scf accuracy    <     182.63178903 Ry

     iteration # 24     ecut=    29.40 Ry     beta= 0.05
     Davidson diagonalization with overlap
     ethr =  7.63E-04,  avg # of iterations =  1.6

     negative rho (up, down):  2.029E-02 0.000E+00
 
     Adding external electric field

     Computed dipole along edir(3) : 
        Dipole               -1.5931 Ry au,         -4.0493 Debye
        Dipole field         -0.0030 Ry au, 
 
        Potential amp.        0.2787 Ry
        Total length         46.3494 bohr
 

     total cpu time spent up to now is      328.4 secs

     total energy              =   -2913.52511187 Ry
     estimated scf accuracy    <      62.14093653 Ry

     iteration # 25     ecut=    29.40 Ry     beta= 0.05
     Davidson diagonalization with overlap
     c_bands:  1 eigenvalues not converged
     ethr =  7.63E-04,  avg # of iterations = 16.0

     negative rho (up, down):  1.862E-02 0.000E+00
 
     Adding external electric field

     Computed dipole along edir(3) : 
        Dipole               -1.1950 Ry au,         -3.0375 Debye
        Dipole field         -0.0023 Ry au, 
 
        Potential amp.        0.2091 Ry
        Total length         46.3494 bohr
 

     total cpu time spent up to now is      349.8 secs

     total energy              =   -2915.29457011 Ry
     estimated scf accuracy    <      15.22822259 Ry

     iteration # 26     ecut=    29.40 Ry     beta= 0.05
     Davidson diagonalization with overlap
     ethr =  7.63E-04,  avg # of iterations =  2.9

     negative rho (up, down):  1.850E-02 0.000E+00
 
     Adding external electric field

     Computed dipole along edir(3) : 
        Dipole               -1.1366 Ry au,         -2.8890 Debye
        Dipole field         -0.0021 Ry au, 
 
        Potential amp.        0.1988 Ry
        Total length         46.3494 bohr
 

     total cpu time spent up to now is      360.7 secs

     total energy              =   -2915.56400684 Ry
     estimated scf accuracy    <       3.41364339 Ry

     iteration # 27     ecut=    29.40 Ry     beta= 0.05
     Davidson diagonalization with overlap
     ethr =  7.63E-04,  avg # of iterations =  1.3

     negative rho (up, down):  1.797E-02 0.000E+00
 
     Adding external electric field

     Computed dipole along edir(3) : 
        Dipole               -0.8522 Ry au,         -2.1660 Debye
        Dipole field         -0.0016 Ry au, 
 
        Potential amp.        0.1491 Ry
        Total length         46.3494 bohr
 

     total cpu time spent up to now is      372.4 secs

     total energy              =   -2915.31386964 Ry
     estimated scf accuracy    <       2.63745814 Ry

     iteration # 28     ecut=    29.40 Ry     beta= 0.05
     Davidson diagonalization with overlap
     ethr =  6.82E-04,  avg # of iterations =  4.0

     negative rho (up, down):  1.792E-02 0.000E+00
 
     Adding external electric field

     Computed dipole along edir(3) : 
        Dipole               -0.7132 Ry au,         -1.8128 Debye
        Dipole field         -0.0013 Ry au, 
 
        Potential amp.        0.1248 Ry
        Total length         46.3494 bohr
 

     total cpu time spent up to now is      398.7 secs

     total energy              =   -2915.32173197 Ry
     estimated scf accuracy    <       1.06731583 Ry

     iteration # 29     ecut=    29.40 Ry     beta= 0.05
     Davidson diagonalization with overlap
     c_bands:  1 eigenvalues not converged
     c_bands:  1 eigenvalues not converged
     c_bands:  2 eigenvalues not converged
     c_bands:  5 eigenvalues not converged
     ethr =  2.76E-04,  avg # of iterations = 16.9

     negative rho (up, down):  1.793E-02 0.000E+00
 
     Adding external electric field

     Computed dipole along edir(3) : 
        Dipole               -0.7579 Ry au,         -1.9263 Debye
        Dipole field         -0.0014 Ry au, 
 
        Potential amp.        0.1326 Ry
        Total length         46.3494 bohr
 

     total cpu time spent up to now is      416.0 secs

     total energy              =   -2915.41285652 Ry
     estimated scf accuracy    <       0.35848894 Ry

     iteration # 30     ecut=    29.40 Ry     beta= 0.05
     Davidson diagonalization with overlap
     c_bands:  1 eigenvalues not converged
     c_bands:  1 eigenvalues not converged
     ethr =  9.26E-05,  avg # of iterations = 12.8

     negative rho (up, down):  1.822E-02 0.000E+00
 
     Adding external electric field

     Computed dipole along edir(3) : 
        Dipole               -0.8507 Ry au,         -2.1623 Debye
        Dipole field         -0.0016 Ry au, 
 
        Potential amp.        0.1488 Ry
        Total length         46.3494 bohr
 

     total cpu time spent up to now is      430.1 secs

     total energy              =   -2915.46362368 Ry
     estimated scf accuracy    <       0.50111544 Ry

     iteration # 31     ecut=    29.40 Ry     beta= 0.05
     Davidson diagonalization with overlap
     ethr =  9.26E-05,  avg # of iterations = 12.3

     negative rho (up, down):  1.798E-02 0.000E+00
 
     Adding external electric field

     Computed dipole along edir(3) : 
        Dipole               -0.4465 Ry au,         -1.1350 Debye
        Dipole field         -0.0008 Ry au, 
 
        Potential amp.        0.0781 Ry
        Total length         46.3494 bohr
 

     total cpu time spent up to now is      446.7 secs

     total energy              =   -2915.28589846 Ry
     estimated scf accuracy    <       1.26758528 Ry

     iteration # 32     ecut=    29.40 Ry     beta= 0.05
     Davidson diagonalization with overlap
     c_bands:  5 eigenvalues not converged
     c_bands:  5 eigenvalues not converged
     c_bands:  1 eigenvalues not converged
     c_bands:  3 eigenvalues not converged
     c_bands:  2 eigenvalues not converged
     c_bands:  3 eigenvalues not converged
     ethr =  9.26E-05,  avg # of iterations = 19.7

     negative rho (up, down):  1.796E-02 0.000E+00
 
     Adding external electric field

     Computed dipole along edir(3) : 
        Dipole               -0.3861 Ry au,         -0.9813 Debye
        Dipole field         -0.0007 Ry au, 
 
        Potential amp.        0.0675 Ry
        Total length         46.3494 bohr
 

     total cpu time spent up to now is      473.1 secs

     total energy              =   -2915.49283404 Ry
     estimated scf accuracy    <       1.26848857 Ry

     iteration # 33     ecut=    29.40 Ry     beta= 0.05
     Davidson diagonalization with overlap
     ethr =  9.26E-05,  avg # of iterations =  2.4

     negative rho (up, down):  1.783E-02 0.000E+00
 
     Adding external electric field

     Computed dipole along edir(3) : 
        Dipole               -0.1502 Ry au,         -0.3817 Debye
        Dipole field         -0.0003 Ry au, 
 
        Potential amp.        0.0263 Ry
        Total length         46.3494 bohr
 

     total cpu time spent up to now is      487.7 secs

     total energy              =   -2915.52327304 Ry
     estimated scf accuracy    <       1.23382952 Ry

     iteration # 34     ecut=    29.40 Ry     beta= 0.05
     Davidson diagonalization with overlap
     c_bands:  1 eigenvalues not converged
     c_bands:  4 eigenvalues not converged
     c_bands:  3 eigenvalues not converged
     c_bands:  2 eigenvalues not converged
     ethr =  9.26E-05,  avg # of iterations = 13.4

     negative rho (up, down):  1.782E-02 0.000E+00
 
     Adding external electric field

     Computed dipole along edir(3) : 
        Dipole               -0.1894 Ry au,         -0.4815 Debye
        Dipole field         -0.0004 Ry au, 
 
        Potential amp.        0.0331 Ry
        Total length         46.3494 bohr
 

     total cpu time spent up to now is      501.8 secs

     total energy              =   -2915.52666280 Ry
     estimated scf accuracy    <       1.49099160 Ry

     iteration # 35     ecut=    29.40 Ry     beta= 0.05
     Davidson diagonalization with overlap
     ethr =  9.26E-05,  avg # of iterations =  1.3

     negative rho (up, down):  1.778E-02 0.000E+00
 
     Adding external electric field

     Computed dipole along edir(3) : 
        Dipole               -0.6846 Ry au,         -1.7401 Debye
        Dipole field         -0.0013 Ry au, 
 
        Potential amp.        0.1198 Ry
        Total length         46.3494 bohr
 

     total cpu time spent up to now is      511.6 secs

     total energy              =   -2915.43965807 Ry
     estimated scf accuracy    <       1.48092525 Ry

     iteration # 36     ecut=    29.40 Ry     beta= 0.05
     Davidson diagonalization with overlap
     c_bands:  1 eigenvalues not converged
     c_bands:  2 eigenvalues not converged
     c_bands:  1 eigenvalues not converged
     ethr =  9.26E-05,  avg # of iterations = 10.8

     negative rho (up, down):  1.802E-02 0.000E+00
 
     Adding external electric field

     Computed dipole along edir(3) : 
        Dipole               -0.2961 Ry au,         -0.7526 Debye
        Dipole field         -0.0006 Ry au, 
 
        Potential amp.        0.0518 Ry
        Total length         46.3494 bohr
 

     total cpu time spent up to now is      524.9 secs

     total energy              =   -2915.43001192 Ry
     estimated scf accuracy    <       1.00571535 Ry

     iteration # 37     ecut=    29.40 Ry     beta= 0.05
     Davidson diagonalization with overlap
     ethr =  9.26E-05,  avg # of iterations = 14.0

     negative rho (up, down):  1.783E-02 0.000E+00
 
     Adding external electric field

     Computed dipole along edir(3) : 
        Dipole               -0.8518 Ry au,         -2.1651 Debye
        Dipole field         -0.0016 Ry au, 
 
        Potential amp.        0.1490 Ry
        Total length         46.3494 bohr
 

     total cpu time spent up to now is      543.5 secs

     total energy              =   -2915.28932602 Ry
     estimated scf accuracy    <       0.96681445 Ry

     iteration # 38     ecut=    29.40 Ry     beta= 0.05
     Davidson diagonalization with overlap
     c_bands:  5 eigenvalues not converged
     c_bands:  5 eigenvalues not converged
     c_bands:  2 eigenvalues not converged
     c_bands:  2 eigenvalues not converged
     c_bands:  5 eigenvalues not converged
     c_bands:  1 eigenvalues not converged
     c_bands:  1 eigenvalues not converged
     c_bands:  1 eigenvalues not converged
     ethr =  9.26E-05,  avg # of iterations = 19.7

     negative rho (up, down):  1.793E-02 0.000E+00
 
     Adding external electric field

     Computed dipole along edir(3) : 
        Dipole               -0.3626 Ry au,         -0.9216 Debye
        Dipole field         -0.0007 Ry au, 
 
        Potential amp.        0.0634 Ry
        Total length         46.3494 bohr
 

     total cpu time spent up to now is      565.8 secs

     total energy              =   -2915.38271169 Ry
     estimated scf accuracy    <       0.40981788 Ry

     iteration # 39     ecut=    29.40 Ry     beta= 0.05
     Davidson diagonalization with overlap
     ethr =  9.26E-05,  avg # of iterations =  8.7

     negative rho (up, down):  1.809E-02 0.000E+00
 
     Adding external electric field

     Computed dipole along edir(3) : 
        Dipole               -0.5211 Ry au,         -1.3244 Debye
        Dipole field         -0.0010 Ry au, 
 
        Potential amp.        0.0912 Ry
        Total length         46.3494 bohr
 

     total cpu time spent up to now is      578.5 secs

     total energy              =   -2915.40561706 Ry
     estimated scf accuracy    <       0.20035532 Ry

     iteration # 40     ecut=    29.40 Ry     beta= 0.05
     Davidson diagonalization with overlap
     c_bands:  2 eigenvalues not converged
     ethr =  5.18E-05,  avg # of iterations =  8.8

     negative rho (up, down):  1.791E-02 0.000E+00
 
     Adding external electric field

     Computed dipole along edir(3) : 
        Dipole               -0.1561 Ry au,         -0.3967 Debye
        Dipole field         -0.0003 Ry au, 
 
        Potential amp.        0.0273 Ry
        Total length         46.3494 bohr
 

     total cpu time spent up to now is      591.3 secs

     total energy              =   -2915.39704220 Ry
     estimated scf accuracy    <       0.45317387 Ry

     iteration # 41     ecut=    29.40 Ry     beta= 0.05
     Davidson diagonalization with overlap
     c_bands:  1 eigenvalues not converged
     c_bands:  3 eigenvalues not converged
     c_bands:  4 eigenvalues not converged
     c_bands:  4 eigenvalues not converged
     c_bands:  2 eigenvalues not converged
     c_bands:  5 eigenvalues not converged
     c_bands:  3 eigenvalues not converged
     c_bands:  3 eigenvalues not converged
     c_bands:  2 eigenvalues not converged
     ethr =  5.18E-05,  avg # of iterations = 20.0

     negative rho (up, down):  1.759E-02 0.000E+00
 
     Adding external electric field

     Computed dipole along edir(3) : 
        Dipole               -1.0452 Ry au,         -2.6566 Debye
        Dipole field         -0.0020 Ry au, 
 
        Potential amp.        0.1828 Ry
        Total length         46.3494 bohr
 

     total cpu time spent up to now is      609.2 secs

     total energy              =   -2915.39070771 Ry
     estimated scf accuracy    <       0.18211796 Ry

     iteration # 42     ecut=    29.40 Ry     beta= 0.05
     Davidson diagonalization with overlap
     c_bands:  2 eigenvalues not converged
     c_bands:  1 eigenvalues not converged
     c_bands:  2 eigenvalues not converged
     c_bands:  3 eigenvalues not converged
     c_bands:  3 eigenvalues not converged
     c_bands:  3 eigenvalues not converged
     c_bands:  2 eigenvalues not converged
     c_bands:  2 eigenvalues not converged
     c_bands:  1 eigenvalues not converged
     ethr =  4.71E-05,  avg # of iterations = 20.0

     negative rho (up, down):  1.760E-02 0.000E+00
 
     Adding external electric field

     Computed dipole along edir(3) : 
        Dipole               -0.8134 Ry au,         -2.0675 Debye
        Dipole field         -0.0015 Ry au, 
 
        Potential amp.        0.1423 Ry
        Total length         46.3494 bohr
 

     total cpu time spent up to now is      635.2 secs

     total energy              =   -2915.45451877 Ry
     estimated scf accuracy    <       0.74481688 Ry

     iteration # 43     ecut=    29.40 Ry     beta= 0.05
     Davidson diagonalization with overlap
     ethr =  4.71E-05,  avg # of iterations =  7.5

     negative rho (up, down):  1.741E-02 0.000E+00
 
     Adding external electric field

     Computed dipole along edir(3) : 
        Dipole                0.1813 Ry au,          0.4608 Debye
        Dipole field          0.0003 Ry au, 
 
        Potential amp.       -0.0317 Ry
        Total length         46.3494 bohr
 

     total cpu time spent up to now is      647.1 secs

     total energy              =   -2915.30023772 Ry
     estimated scf accuracy    <       0.63000749 Ry

     iteration # 44     ecut=    29.40 Ry     beta= 0.05
     Davidson diagonalization with overlap
     c_bands:  1 eigenvalues not converged
     c_bands:  1 eigenvalues not converged
     c_bands:  1 eigenvalues not converged
     ethr =  4.71E-05,  avg # of iterations = 33.3

     negative rho (up, down):  1.753E-02 0.000E+00
 
     Adding external electric field

     Computed dipole along edir(3) : 
        Dipole                0.0968 Ry au,          0.2461 Debye
        Dipole field          0.0002 Ry au, 
 
        Potential amp.       -0.0169 Ry
        Total length         46.3494 bohr
 

     total cpu time spent up to now is      684.2 secs

     total energy              =   -2915.43777597 Ry
     estimated scf accuracy    <       1.42041132 Ry

     iteration # 45     ecut=    29.40 Ry     beta= 0.05
     Davidson diagonalization with overlap
     ethr =  4.71E-05,  avg # of iterations =  2.2

     negative rho (up, down):  1.765E-02 0.000E+00
 
     Adding external electric field

     Computed dipole along edir(3) : 
        Dipole               -0.0945 Ry au,         -0.2403 Debye
        Dipole field         -0.0002 Ry au, 
 
        Potential amp.        0.0165 Ry
        Total length         46.3494 bohr
 

     total cpu time spent up to now is      695.0 secs

     total energy              =   -2915.40117208 Ry
     estimated scf accuracy    <       1.06934773 Ry

     iteration # 46     ecut=    29.40 Ry     beta= 0.05
     Davidson diagonalization with overlap
     c_bands:  1 eigenvalues not converged
     c_bands:  1 eigenvalues not converged
     c_bands:  1 eigenvalues not converged
     ethr =  4.71E-05,  avg # of iterations = 17.3

     negative rho (up, down):  1.762E-02 0.000E+00
 
     Adding external electric field

     Computed dipole along edir(3) : 
        Dipole               -0.2368 Ry au,         -0.6018 Debye
        Dipole field         -0.0004 Ry au, 
 
        Potential amp.        0.0414 Ry
        Total length         46.3494 bohr
 

     total cpu time spent up to now is      711.9 secs

     total energy              =   -2915.38985939 Ry
     estimated scf accuracy    <       0.35346148 Ry

     iteration # 47     ecut=    29.40 Ry     beta= 0.05
     Davidson diagonalization with overlap
     c_bands:  1 eigenvalues not converged
     c_bands:  1 eigenvalues not converged
     ethr =  4.71E-05,  avg # of iterations = 12.5

     negative rho (up, down):  1.770E-02 0.000E+00
 
     Adding external electric field

     Computed dipole along edir(3) : 
        Dipole               -0.3026 Ry au,         -0.7692 Debye
        Dipole field         -0.0006 Ry au, 
 
        Potential amp.        0.0529 Ry
        Total length         46.3494 bohr
 

     total cpu time spent up to now is      732.9 secs

     total energy              =   -2915.39624454 Ry
     estimated scf accuracy    <       0.25377046 Ry

     iteration # 48     ecut=    29.40 Ry     beta= 0.05
     Davidson diagonalization with overlap
     c_bands:  3 eigenvalues not converged
     ethr =  4.71E-05,  avg # of iterations =  6.0

     negative rho (up, down):  1.773E-02 0.000E+00
 
     Adding external electric field

     Computed dipole along edir(3) : 
        Dipole               -0.2696 Ry au,         -0.6853 Debye
        Dipole field         -0.0005 Ry au, 
 
        Potential amp.        0.0472 Ry
        Total length         46.3494 bohr
 

     total cpu time spent up to now is      745.3 secs

     total energy              =   -2915.39895493 Ry
     estimated scf accuracy    <       0.05223807 Ry

     iteration # 49     ecut=    29.40 Ry     beta= 0.05
     Davidson diagonalization with overlap
     c_bands:  1 eigenvalues not converged
     c_bands:  4 eigenvalues not converged
     c_bands:  2 eigenvalues not converged
     c_bands:  2 eigenvalues not converged
     c_bands:  2 eigenvalues not converged
     c_bands:  2 eigenvalues not converged
     c_bands:  3 eigenvalues not converged
     ethr =  1.35E-05,  avg # of iterations = 17.8

     negative rho (up, down):  1.819E-02 0.000E+00
 
     Adding external electric field

     Computed dipole along edir(3) : 
        Dipole               -0.1795 Ry au,         -0.4562 Debye
        Dipole field         -0.0003 Ry au, 
 
        Potential amp.        0.0314 Ry
        Total length         46.3494 bohr
 

     total cpu time spent up to now is      761.9 secs

     total energy              =   -2915.39643986 Ry
     estimated scf accuracy    <       0.04221740 Ry

     iteration # 50     ecut=    29.40 Ry     beta= 0.05
     Davidson diagonalization with overlap
     c_bands:  2 eigenvalues not converged
     c_bands:  1 eigenvalues not converged
     c_bands:  1 eigenvalues not converged
     c_bands:  2 eigenvalues not converged
     c_bands:  3 eigenvalues not converged
     ethr =  1.09E-05,  avg # of iterations = 18.0

     negative rho (up, down):  1.822E-02 0.000E+00
 
     Adding external electric field

     Computed dipole along edir(3) : 
        Dipole               -0.4673 Ry au,         -1.1878 Debye
        Dipole field         -0.0009 Ry au, 
 
        Potential amp.        0.0817 Ry
        Total length         46.3494 bohr
 

     total cpu time spent up to now is      783.2 secs

     total energy              =   -2915.39398677 Ry
     estimated scf accuracy    <       0.09136122 Ry

     iteration # 51     ecut=    29.40 Ry     beta= 0.05
     Davidson diagonalization with overlap
     c_bands:  1 eigenvalues not converged
     c_bands:  2 eigenvalues not converged
     c_bands:  3 eigenvalues not converged
     c_bands:  1 eigenvalues not converged
     c_bands:  1 eigenvalues not converged
     c_bands:  2 eigenvalues not converged
     c_bands:  1 eigenvalues not converged
     c_bands:  3 eigenvalues not converged
     ethr =  1.09E-05,  avg # of iterations = 21.9

     negative rho (up, down):  1.822E-02 0.000E+00
 
     Adding external electric field

     Computed dipole along edir(3) : 
        Dipole               -0.4717 Ry au,         -1.1990 Debye
        Dipole field         -0.0009 Ry au, 
 
        Potential amp.        0.0825 Ry
        Total length         46.3494 bohr
 

     total cpu time spent up to now is      806.7 secs

     total energy              =   -2915.41210198 Ry
     estimated scf accuracy    <       0.18708524 Ry

     iteration # 52     ecut=    29.40 Ry     beta= 0.05
     Davidson diagonalization with overlap
     ethr =  1.09E-05,  avg # of iterations =  3.7

     negative rho (up, down):  1.813E-02 0.000E+00
 
     Adding external electric field

     Computed dipole along edir(3) : 
        Dipole               -0.3359 Ry au,         -0.8539 Debye
        Dipole field         -0.0006 Ry au, 
 
        Potential amp.        0.0588 Ry
        Total length         46.3494 bohr
 

     total cpu time spent up to now is      817.3 secs

     total energy              =   -2915.40497553 Ry
     estimated scf accuracy    <       0.19369205 Ry

     iteration # 53     ecut=    29.40 Ry     beta= 0.05
     Davidson diagonalization with overlap
     ethr =  1.09E-05,  avg # of iterations =  4.7

     negative rho (up, down):  1.811E-02 0.000E+00
 
     Adding external electric field

     Computed dipole along edir(3) : 
        Dipole               -0.0794 Ry au,         -0.2017 Debye
        Dipole field         -0.0001 Ry au, 
 
        Potential amp.        0.0139 Ry
        Total length         46.3494 bohr
 

     total cpu time spent up to now is      828.3 secs

     total energy              =   -2915.39636847 Ry
     estimated scf accuracy    <       0.10596801 Ry

     iteration # 54     ecut=    29.40 Ry     beta= 0.05
     Davidson diagonalization with overlap
     c_bands:  1 eigenvalues not converged
     c_bands:  1 eigenvalues not converged
     c_bands:  4 eigenvalues not converged
     c_bands:  5 eigenvalues not converged
     c_bands:  3 eigenvalues not converged
     c_bands:  4 eigenvalues not converged
     c_bands:  5 eigenvalues not converged
     c_bands:  2 eigenvalues not converged
     c_bands:  4 eigenvalues not converged
     ethr =  1.09E-05,  avg # of iterations = 20.2

     negative rho (up, down):  1.824E-02 0.000E+00
 
     Adding external electric field

     Computed dipole along edir(3) : 
        Dipole               -0.1612 Ry au,         -0.4098 Debye
        Dipole field         -0.0003 Ry au, 
 
        Potential amp.        0.0282 Ry
        Total length         46.3494 bohr
 

     total cpu time spent up to now is      853.1 secs

     total energy              =   -2915.40365458 Ry
     estimated scf accuracy    <       0.21797642 Ry

     iteration # 55     ecut=    29.40 Ry     beta= 0.05
     Davidson diagonalization with overlap
     ethr =  1.09E-05,  avg # of iterations =  6.6

     negative rho (up, down):  1.853E-02 0.000E+00
 
     Adding external electric field

     Computed dipole along edir(3) : 
        Dipole               -0.3031 Ry au,         -0.7704 Debye
        Dipole field         -0.0006 Ry au, 
 
        Potential amp.        0.0530 Ry
        Total length         46.3494 bohr
 

     total cpu time spent up to now is      871.0 secs

     total energy              =   -2915.40216468 Ry
     estimated scf accuracy    <       0.04124998 Ry

     iteration # 56     ecut=    29.40 Ry     beta= 0.05
     Davidson diagonalization with overlap
     c_bands:  1 eigenvalues not converged
     c_bands:  2 eigenvalues not converged
     c_bands:  2 eigenvalues not converged
     c_bands:  2 eigenvalues not converged
     c_bands:  3 eigenvalues not converged
     c_bands:  2 eigenvalues not converged
     ethr =  1.07E-05,  avg # of iterations = 18.4

     negative rho (up, down):  1.851E-02 0.000E+00
 
     Adding external electric field

     Computed dipole along edir(3) : 
        Dipole               -0.2535 Ry au,         -0.6444 Debye
        Dipole field         -0.0005 Ry au, 
 
        Potential amp.        0.0443 Ry
        Total length         46.3494 bohr
 

     total cpu time spent up to now is      915.2 secs

     total energy              =   -2915.40514928 Ry
     estimated scf accuracy    <       0.01638138 Ry

     iteration # 57     ecut=    29.40 Ry     beta= 0.05
     Davidson diagonalization with overlap
     c_bands:  1 eigenvalues not converged
     c_bands:  2 eigenvalues not converged
     ethr =  4.23E-06,  avg # of iterations = 10.8

     negative rho (up, down):  1.849E-02 0.000E+00
 
     Adding external electric field

     Computed dipole along edir(3) : 
        Dipole               -0.2611 Ry au,         -0.6637 Debye
        Dipole field         -0.0005 Ry au, 
 
        Potential amp.        0.0457 Ry
        Total length         46.3494 bohr
 

     total cpu time spent up to now is      927.8 secs

     total energy              =   -2915.40537232 Ry
     estimated scf accuracy    <       0.00479140 Ry

     iteration # 58     ecut=    29.40 Ry     beta= 0.05
     Davidson diagonalization with overlap
     c_bands:  1 eigenvalues not converged
     c_bands:  3 eigenvalues not converged
     c_bands:  4 eigenvalues not converged
     ethr =  1.24E-06,  avg # of iterations = 15.9

     negative rho (up, down):  1.858E-02 0.000E+00
 
     Adding external electric field

     Computed dipole along edir(3) : 
        Dipole               -0.1798 Ry au,         -0.4571 Debye
        Dipole field         -0.0003 Ry au, 
 
        Potential amp.        0.0315 Ry
        Total length         46.3494 bohr
 

     total cpu time spent up to now is      944.0 secs

     total energy              =   -2915.40532795 Ry
     estimated scf accuracy    <       0.00983029 Ry

     iteration # 59     ecut=    29.40 Ry     beta= 0.05
     Davidson diagonalization with overlap
     c_bands:  1 eigenvalues not converged
     c_bands:  1 eigenvalues not converged
     c_bands:  1 eigenvalues not converged
     c_bands:  3 eigenvalues not converged
     c_bands:  1 eigenvalues not converged
     ethr =  1.24E-06,  avg # of iterations = 17.6

     negative rho (up, down):  1.859E-02 0.000E+00
 
     Adding external electric field

     Computed dipole along edir(3) : 
        Dipole               -0.2068 Ry au,         -0.5256 Debye
        Dipole field         -0.0004 Ry au, 
 
        Potential amp.        0.0362 Ry
        Total length         46.3494 bohr
 

     total cpu time spent up to now is      979.4 secs

     total energy              =   -2915.40588971 Ry
     estimated scf accuracy    <       0.01928151 Ry

     iteration # 60     ecut=    29.40 Ry     beta= 0.05
     Davidson diagonalization with overlap
     ethr =  1.24E-06,  avg # of iterations =  8.5

     negative rho (up, down):  1.865E-02 0.000E+00
 
     Adding external electric field

     Computed dipole along edir(3) : 
        Dipole               -0.2528 Ry au,         -0.6427 Debye
        Dipole field         -0.0005 Ry au, 
 
        Potential amp.        0.0442 Ry
        Total length         46.3494 bohr
 

     total cpu time spent up to now is      992.0 secs

     total energy              =   -2915.40571586 Ry
     estimated scf accuracy    <       0.01802970 Ry

     iteration # 61     ecut=    29.40 Ry     beta= 0.05
     Davidson diagonalization with overlap
     ethr =  1.24E-06,  avg # of iterations =  8.9

     negative rho (up, down):  1.865E-02 0.000E+00
 
     Adding external electric field

     Computed dipole along edir(3) : 
        Dipole               -0.2831 Ry au,         -0.7197 Debye
        Dipole field         -0.0005 Ry au, 
 
        Potential amp.        0.0495 Ry
        Total length         46.3494 bohr
 

     total cpu time spent up to now is     1005.3 secs

     total energy              =   -2915.40570755 Ry
     estimated scf accuracy    <       0.00693730 Ry

     iteration # 62     ecut=    29.40 Ry     beta= 0.05
     Davidson diagonalization with overlap
     ethr =  1.24E-06,  avg # of iterations =  9.8

     negative rho (up, down):  1.870E-02 0.000E+00
 
     Adding external electric field

     Computed dipole along edir(3) : 
        Dipole               -0.2701 Ry au,         -0.6865 Debye
        Dipole field         -0.0005 Ry au, 
 
        Potential amp.        0.0472 Ry
        Total length         46.3494 bohr
 

     total cpu time spent up to now is     1017.9 secs

     total energy              =   -2915.40588561 Ry
     estimated scf accuracy    <       0.00124826 Ry

     iteration # 63     ecut=    29.40 Ry     beta= 0.05
     Davidson diagonalization with overlap
     ethr =  3.23E-07,  avg # of iterations = 13.0

     negative rho (up, down):  1.870E-02 0.000E+00
 
     Adding external electric field

     Computed dipole along edir(3) : 
        Dipole               -0.2506 Ry au,         -0.6371 Debye
        Dipole field         -0.0005 Ry au, 
 
        Potential amp.        0.0438 Ry
        Total length         46.3494 bohr
 

     total cpu time spent up to now is     1032.4 secs

     total energy              =   -2915.40590827 Ry
     estimated scf accuracy    <       0.00092672 Ry

     iteration # 64     ecut=    29.40 Ry     beta= 0.05
     Davidson diagonalization with overlap
     ethr =  2.39E-07,  avg # of iterations = 10.3

     negative rho (up, down):  1.867E-02 0.000E+00
 
     Adding external electric field

     Computed dipole along edir(3) : 
        Dipole               -0.2762 Ry au,         -0.7021 Debye
        Dipole field         -0.0005 Ry au, 
 
        Potential amp.        0.0483 Ry
        Total length         46.3494 bohr
 

     total cpu time spent up to now is     1047.3 secs

     total energy              =   -2915.40573882 Ry
     estimated scf accuracy    <       0.00193820 Ry

     iteration # 65     ecut=    29.40 Ry     beta= 0.05
     Davidson diagonalization with overlap
     ethr =  2.39E-07,  avg # of iterations = 13.0

     negative rho (up, down):  1.868E-02 0.000E+00
 
     Adding external electric field

     Computed dipole along edir(3) : 
        Dipole               -0.2738 Ry au,         -0.6960 Debye
        Dipole field         -0.0005 Ry au, 
 
        Potential amp.        0.0479 Ry
        Total length         46.3494 bohr
 

     total cpu time spent up to now is     1063.4 secs

     total energy              =   -2915.40588811 Ry
     estimated scf accuracy    <       0.00028072 Ry

     iteration # 66     ecut=    29.40 Ry     beta= 0.05
     Davidson diagonalization with overlap
     ethr =  7.25E-08,  avg # of iterations =  7.5

     negative rho (up, down):  1.873E-02 0.000E+00
 
     Adding external electric field

     Computed dipole along edir(3) : 
        Dipole               -0.2639 Ry au,         -0.6708 Debye
        Dipole field         -0.0005 Ry au, 
 
        Potential amp.        0.0462 Ry
        Total length         46.3494 bohr
 

     total cpu time spent up to now is     1075.4 secs

     total energy              =   -2915.40593136 Ry
     estimated scf accuracy    <       0.00018079 Ry

     iteration # 67     ecut=    29.40 Ry     beta= 0.05
     Davidson diagonalization with overlap
     ethr =  4.67E-08,  avg # of iterations = 13.0

     negative rho (up, down):  1.873E-02 0.000E+00
 
     Adding external electric field

     Computed dipole along edir(3) : 
        Dipole               -0.2721 Ry au,         -0.6915 Debye
        Dipole field         -0.0005 Ry au, 
 
        Potential amp.        0.0476 Ry
        Total length         46.3494 bohr
 

     total cpu time spent up to now is     1094.0 secs

     total energy              =   -2915.40594788 Ry
     estimated scf accuracy    <       0.00036803 Ry

     iteration # 68     ecut=    29.40 Ry     beta= 0.05
     Davidson diagonalization with overlap
     ethr =  4.67E-08,  avg # of iterations =  6.0

     negative rho (up, down):  1.872E-02 0.000E+00
 
     Adding external electric field

     Computed dipole along edir(3) : 
        Dipole               -0.2838 Ry au,         -0.7213 Debye
        Dipole field         -0.0005 Ry au, 
 
        Potential amp.        0.0496 Ry
        Total length         46.3494 bohr
 

     total cpu time spent up to now is     1106.0 secs

     total energy              =   -2915.40594374 Ry
     estimated scf accuracy    <       0.00009785 Ry

     iteration # 69     ecut=    29.40 Ry     beta= 0.05
     Davidson diagonalization with overlap
     ethr =  2.53E-08,  avg # of iterations = 12.8

     negative rho (up, down):  1.872E-02 0.000E+00
 
     Adding external electric field

     Computed dipole along edir(3) : 
        Dipole               -0.2848 Ry au,         -0.7238 Debye
        Dipole field         -0.0005 Ry au, 
 
        Potential amp.        0.0498 Ry
        Total length         46.3494 bohr
 

     total cpu time spent up to now is     1124.9 secs

     total energy              =   -2915.40597024 Ry
     estimated scf accuracy    <       0.00012490 Ry

     iteration # 70     ecut=    29.40 Ry     beta= 0.05
     Davidson diagonalization with overlap
     ethr =  2.53E-08,  avg # of iterations =  1.0

     negative rho (up, down):  1.871E-02 0.000E+00
 
     Adding external electric field

     Computed dipole along edir(3) : 
        Dipole               -0.2799 Ry au,         -0.7114 Debye
        Dipole field         -0.0005 Ry au, 
 
        Potential amp.        0.0490 Ry
        Total length         46.3494 bohr
 

     total cpu time spent up to now is     1134.5 secs

     total energy              =   -2915.40595742 Ry
     estimated scf accuracy    <       0.00008873 Ry

     iteration # 71     ecut=    29.40 Ry     beta= 0.05
     Davidson diagonalization with overlap
     ethr =  2.29E-08,  avg # of iterations =  7.6

     negative rho (up, down):  1.871E-02 0.000E+00
 
     Adding external electric field

     Computed dipole along edir(3) : 
        Dipole               -0.2792 Ry au,         -0.7096 Debye
        Dipole field         -0.0005 Ry au, 
 
        Potential amp.        0.0488 Ry
        Total length         46.3494 bohr
 

     total cpu time spent up to now is     1148.0 secs

     total energy              =   -2915.40596652 Ry
     estimated scf accuracy    <       0.00000841 Ry

     iteration # 72     ecut=    29.40 Ry     beta= 0.05
     Davidson diagonalization with overlap
     ethr =  2.17E-09,  avg # of iterations = 15.3

     negative rho (up, down):  1.871E-02 0.000E+00
 
     Adding external electric field

     Computed dipole along edir(3) : 
        Dipole               -0.2795 Ry au,         -0.7103 Debye
        Dipole field         -0.0005 Ry au, 
 
        Potential amp.        0.0489 Ry
        Total length         46.3494 bohr
 

     total cpu time spent up to now is     1168.4 secs

     total energy              =   -2915.40597069 Ry
     estimated scf accuracy    <       0.00000901 Ry

     iteration # 73     ecut=    29.40 Ry     beta= 0.05
     Davidson diagonalization with overlap
     ethr =  2.17E-09,  avg # of iterations =  1.5

     negative rho (up, down):  1.871E-02 0.000E+00
 
     Adding external electric field

     Computed dipole along edir(3) : 
        Dipole               -0.2803 Ry au,         -0.7126 Debye
        Dipole field         -0.0005 Ry au, 
 
        Potential amp.        0.0490 Ry
        Total length         46.3494 bohr
 

     total cpu time spent up to now is     1178.4 secs

     total energy              =   -2915.40597146 Ry
     estimated scf accuracy    <       0.00000716 Ry

     iteration # 74     ecut=    29.40 Ry     beta= 0.05
     Davidson diagonalization with overlap
     ethr =  1.85E-09,  avg # of iterations =  8.9

     negative rho (up, down):  1.871E-02 0.000E+00
 
     Adding external electric field

     Computed dipole along edir(3) : 
        Dipole               -0.2794 Ry au,         -0.7102 Debye
        Dipole field         -0.0005 Ry au, 
 
        Potential amp.        0.0489 Ry
        Total length         46.3494 bohr
 

     total cpu time spent up to now is     1195.6 secs

     total energy              =   -2915.40597297 Ry
     estimated scf accuracy    <       0.00000950 Ry

     iteration # 75     ecut=    29.40 Ry     beta= 0.05
     Davidson diagonalization with overlap
     ethr =  1.85E-09,  avg # of iterations =  8.4

     negative rho (up, down):  1.871E-02 0.000E+00
 
     Adding external electric field

     Computed dipole along edir(3) : 
        Dipole               -0.2787 Ry au,         -0.7084 Debye
        Dipole field         -0.0005 Ry au, 
 
        Potential amp.        0.0488 Ry
        Total length         46.3494 bohr
 

     total cpu time spent up to now is     1211.0 secs

     total energy              =   -2915.40597608 Ry
     estimated scf accuracy    <       0.00000324 Ry

     iteration # 76     ecut=    29.40 Ry     beta= 0.05
     Davidson diagonalization with overlap
     ethr =  8.38E-10,  avg # of iterations =  8.0

     negative rho (up, down):  1.870E-02 0.000E+00
 
     Adding external electric field

     Computed dipole along edir(3) : 
        Dipole               -0.2786 Ry au,         -0.7082 Debye
        Dipole field         -0.0005 Ry au, 
 
        Potential amp.        0.0487 Ry
        Total length         46.3494 bohr
 

     total cpu time spent up to now is     1225.4 secs

     total energy              =   -2915.40597642 Ry
     estimated scf accuracy    <       0.00000479 Ry

     iteration # 77     ecut=    29.40 Ry     beta= 0.05
     Davidson diagonalization with overlap
     ethr =  8.38E-10,  avg # of iterations =  8.2

     negative rho (up, down):  1.870E-02 0.000E+00
 
     Adding external electric field

     Computed dipole along edir(3) : 
        Dipole               -0.2788 Ry au,         -0.7087 Debye
        Dipole field         -0.0005 Ry au, 
 
        Potential amp.        0.0488 Ry
        Total length         46.3494 bohr
 

     total cpu time spent up to now is     1239.4 secs

     total energy              =   -2915.40597795 Ry
     estimated scf accuracy    <       0.00000126 Ry

     iteration # 78     ecut=    29.40 Ry     beta= 0.05
     Davidson diagonalization with overlap
     ethr =  3.25E-10,  avg # of iterations =  7.9

     negative rho (up, down):  1.870E-02 0.000E+00
 
     Adding external electric field

     Computed dipole along edir(3) : 
        Dipole               -0.2795 Ry au,         -0.7103 Debye
        Dipole field         -0.0005 Ry au, 
 
        Potential amp.        0.0489 Ry
        Total length         46.3494 bohr
 

     total cpu time spent up to now is     1274.6 secs

     total energy              =   -2915.40597897 Ry
     estimated scf accuracy    <       0.00000067 Ry

     iteration # 79     ecut=    29.40 Ry     beta= 0.05
     Davidson diagonalization with overlap
     ethr =  1.73E-10,  avg # of iterations = 11.7

     negative rho (up, down):  1.870E-02 0.000E+00
 
     Adding external electric field

     Computed dipole along edir(3) : 
        Dipole               -0.2794 Ry au,         -0.7101 Debye
        Dipole field         -0.0005 Ry au, 
 
        Potential amp.        0.0489 Ry
        Total length         46.3494 bohr
 

     total cpu time spent up to now is     1292.8 secs

     total energy              =   -2915.40598008 Ry
     estimated scf accuracy    <       0.00000063 Ry

     iteration # 80     ecut=    29.40 Ry     beta= 0.05
     Davidson diagonalization with overlap
     ethr =  1.62E-10,  avg # of iterations =  5.5

     negative rho (up, down):  1.870E-02 0.000E+00
 
     Adding external electric field

     Computed dipole along edir(3) : 
        Dipole               -0.2787 Ry au,         -0.7083 Debye
        Dipole field         -0.0005 Ry au, 
 
        Potential amp.        0.0487 Ry
        Total length         46.3494 bohr
 

     total cpu time spent up to now is     1304.4 secs

     total energy              =   -2915.40598071 Ry
     estimated scf accuracy    <       0.00000065 Ry

     iteration # 81     ecut=    29.40 Ry     beta= 0.05
     Davidson diagonalization with overlap
     ethr =  1.62E-10,  avg # of iterations =  8.0

     negative rho (up, down):  1.870E-02 0.000E+00
 
     Adding external electric field

     Computed dipole along edir(3) : 
        Dipole               -0.2789 Ry au,         -0.7089 Debye
        Dipole field         -0.0005 Ry au, 
 
        Potential amp.        0.0488 Ry
        Total length         46.3494 bohr
 

     total cpu time spent up to now is     1320.7 secs

     total energy              =   -2915.40598156 Ry
     estimated scf accuracy    <       0.00000031 Ry

     iteration # 82     ecut=    29.40 Ry     beta= 0.05
     Davidson diagonalization with overlap
     ethr =  8.13E-11,  avg # of iterations =  5.1

     negative rho (up, down):  1.870E-02 0.000E+00
 
     Adding external electric field

     Computed dipole along edir(3) : 
        Dipole               -0.2794 Ry au,         -0.7101 Debye
        Dipole field         -0.0005 Ry au, 
 
        Potential amp.        0.0489 Ry
        Total length         46.3494 bohr
 

     total cpu time spent up to now is     1332.1 secs

     total energy              =   -2915.40598218 Ry
     estimated scf accuracy    <       0.00000015 Ry

     iteration # 83     ecut=    29.40 Ry     beta= 0.05
     Davidson diagonalization with overlap
     c_bands:  1 eigenvalues not converged
     ethr =  3.89E-11,  avg # of iterations = 14.0

     negative rho (up, down):  1.870E-02 0.000E+00
 
     Adding external electric field

     Computed dipole along edir(3) : 
        Dipole               -0.2791 Ry au,         -0.7094 Debye
        Dipole field         -0.0005 Ry au, 
 
        Potential amp.        0.0488 Ry
        Total length         46.3494 bohr
 

     total cpu time spent up to now is     1353.6 secs

     total energy              =   -2915.40598282 Ry
     estimated scf accuracy    <       0.00000029 Ry

     iteration # 84     ecut=    29.40 Ry     beta= 0.05
     Davidson diagonalization with overlap
     ethr =  3.89E-11,  avg # of iterations =  9.3

     negative rho (up, down):  1.871E-02 0.000E+00
 
     Adding external electric field

     Computed dipole along edir(3) : 
        Dipole               -0.2788 Ry au,         -0.7086 Debye
        Dipole field         -0.0005 Ry au, 
 
        Potential amp.        0.0488 Ry
        Total length         46.3494 bohr
 

     total cpu time spent up to now is     1368.8 secs

     End of self-consistent calculation

          k = 0.0000 0.0000 0.0000 ( 18029 PWs)   bands (ev):

   -56.6649 -56.6523 -56.6308 -56.6159 -56.5303 -56.5186 -56.4956 -56.4833
   -56.4743 -56.4424 -56.4402 -56.4085 -56.4046 -56.1893 -55.6446 -55.6105
   -33.2034 -33.1479 -33.0183 -32.9914 -32.9742 -32.9597 -32.9575 -32.9327
   -32.9078 -32.8785 -32.8737 -32.8577 -32.8520 -32.8308 -32.8169 -32.8050
   -32.7893 -32.7741 -32.7698 -32.7579 -32.7351 -32.7224 -32.7218 -32.6737
   -32.6734 -32.6668 -32.6664 -32.6636 -32.6610 -32.6436 -32.6322 -32.6229
   -32.6164 -32.6092 -32.6054 -32.6010 -32.5952 -32.5775 -32.5540 -32.4346
   -32.4137 -32.3959 -32.0518 -31.9632 -31.9407 -31.8685 -31.7820 -31.6710
   -17.4032 -17.1423 -16.9097 -16.8214 -16.7953 -16.6505 -16.5140 -16.3958
   -16.3201 -16.2700 -16.2243 -16.2135 -16.2021 -16.1675 -16.1290 -16.1116
   -16.1046 -16.0839 -16.0529 -16.0423 -16.0256 -16.0049 -15.9637 -15.8385
   -15.8002 -15.7492 -15.7241 -15.6940 -15.3538 -15.2734 -14.1471 -14.0307
    -5.3088  -4.7705  -4.6236  -4.5717  -4.5138  -4.4380  -4.2834  -4.1931
    -3.9216  -3.8519  -3.8305  -3.8130  -3.7690  -3.5883  -3.5642  -3.4814
    -3.4669  -3.4645  -3.4437  -3.4261  -3.4205  -3.3668  -3.2778  -3.2221
    -3.2115  -3.1099  -3.0646  -3.0544  -2.9881  -2.9782  -2.9565  -2.9208
    -2.9028  -2.9015  -2.8804  -2.8478  -2.7403  -2.7229  -2.6349  -2.5361
    -2.4669  -2.4064  -2.2748  -2.1457  -2.1319  -2.0956  -2.0729  -2.0577
    -1.9907  -1.9619  -1.9004  -1.8329  -1.8277  -1.7807  -1.7203  -1.6487
    -1.6170  -1.5449  -1.4793  -1.4278  -1.4259  -1.4117  -1.3409  -1.1520
    -1.1085  -1.0869  -1.0427  -0.9849  -0.9382  -0.9312  -0.8724  -0.8435
    -0.8043  -0.7468  -0.7117  -0.6971  -0.6877  -0.6671  -0.6589  -0.6161
    -0.5653  -0.4654  -0.4352  -0.3913  -0.3559  -0.2455  -0.1152  -0.0367
    -0.0092   0.1075   0.3033   0.3774   0.4707   0.4734   0.5694   0.9489
     0.9947   2.4670   2.5556   2.5996   2.6160   2.7014   2.7185   2.9219
     2.9499   2.9598   3.0200

          k = 0.0000 0.0419 0.0000 ( 17933 PWs)   bands (ev):

   -56.6598 -56.6470 -56.6357 -56.6210 -56.5252 -56.5137 -56.5005 -56.4880
   -56.4693 -56.4451 -56.4375 -56.4133 -56.4039 -56.1898 -55.6395 -55.6154
   -33.1460 -33.0939 -32.9637 -32.9529 -32.9462 -32.9457 -32.9365 -32.8883
   -32.8814 -32.8764 -32.8691 -32.8646 -32.8388 -32.8318 -32.8267 -32.8264
   -32.8144 -32.8031 -32.7600 -32.7444 -32.7357 -32.7274 -32.7185 -32.6901
   -32.6834 -32.6800 -32.6777 -32.6697 -32.6668 -32.6588 -32.6574 -32.6471
   -32.6415 -32.6218 -32.6128 -32.6120 -32.6045 -32.6027 -32.5974 -32.4409
   -32.4300 -32.4132 -31.9977 -31.9597 -31.9438 -31.8559 -31.7945 -31.7281
   -17.2669 -17.0215 -16.7985 -16.7153 -16.6929 -16.6157 -16.5177 -16.4481
   -16.4237 -16.2788 -16.2429 -16.1921 -16.1780 -16.1674 -16.1483 -16.1430
   -16.1352 -16.1243 -16.0732 -16.0548 -16.0343 -15.9968 -15.9242 -15.8942
   -15.8586 -15.8044 -15.7808 -15.7188 -15.4251 -15.3041 -14.1512 -14.0702
    -5.2593  -4.5806  -4.4580  -4.3956  -4.3566  -4.2824  -4.1319  -3.9628
    -3.8775  -3.8318  -3.7350  -3.7204  -3.7114  -3.6554  -3.6189  -3.6040
    -3.5609  -3.5376  -3.5288  -3.4492  -3.4239  -3.4163  -3.3736  -3.3543
    -3.3457  -3.3297  -3.1836  -3.1637  -3.1483  -3.1387  -3.0857  -3.0073
    -2.9199  -2.9161  -2.8392  -2.7502  -2.6700  -2.5804  -2.4697  -2.4207
    -2.4008  -2.3453  -2.3285  -2.2232  -2.0794  -2.0150  -1.9520  -1.9243
    -1.8700  -1.8290  -1.7663  -1.7314  -1.6581  -1.6182  -1.6162  -1.5741
    -1.5488  -1.5375  -1.4914  -1.4569  -1.4180  -1.4092  -1.2919  -1.2650
    -1.1966  -1.1672  -1.1512  -1.1420  -1.0483  -0.9846  -0.9571  -0.9240
    -0.8882  -0.8561  -0.8305  -0.8255  -0.7896  -0.7219  -0.6957  -0.6317
    -0.5914  -0.5269  -0.4624  -0.4187  -0.4054  -0.3315  -0.3252  -0.2686
    -0.1134  -0.0041   0.0425   0.3496   0.4665   0.5664   0.6502   0.9030
     0.9066   2.6639   2.7104   2.7191   2.7808   2.8229   2.8651   2.9228
     2.9523   2.9852   3.0252

          k = 0.0000-0.0839 0.0000 ( 17884 PWs)   bands (ev):

   -56.6486 -56.6469 -56.6369 -56.6310 -56.5146 -56.5110 -56.5053 -56.4964
   -56.4586 -56.4557 -56.4276 -56.4231 -56.4033 -56.1904 -55.6275 -55.6274
   -33.0089 -33.0032 -32.9622 -32.9611 -32.9435 -32.9421 -32.9125 -32.9080
   -32.8448 -32.8419 -32.8385 -32.8355 -32.8340 -32.8255 -32.8007 -32.7935
   -32.7904 -32.7791 -32.7704 -32.7702 -32.7685 -32.7484 -32.7433 -32.7322
   -32.7133 -32.7122 -32.7111 -32.7075 -32.7047 -32.6909 -32.6778 -32.6588
   -32.6550 -32.6388 -32.6304 -32.6188 -32.6055 -32.6034 -32.6005 -32.4783
   -32.4405 -32.4127 -31.9515 -31.9515 -31.8648 -31.8646 -31.8252 -31.8252
   -16.9324 -16.9079 -16.7375 -16.7297 -16.5687 -16.5498 -16.5001 -16.4394
   -16.4301 -16.4103 -16.3837 -16.3689 -16.2274 -16.2204 -16.1663 -16.1129
   -16.0467 -16.0395 -16.0290 -16.0217 -16.0013 -15.9995 -15.9465 -15.9311
   -15.9225 -15.9125 -15.8401 -15.6957 -15.5878 -15.3174 -14.1330 -14.1327
    -5.2090  -4.1231  -4.1119  -4.0712  -4.0540  -4.0329  -4.0257  -3.9570
    -3.9564  -3.9082  -3.8653  -3.8453  -3.7863  -3.7634  -3.7420  -3.7137
    -3.6462  -3.6258  -3.6108  -3.5458  -3.4994  -3.4688  -3.4192  -3.3936
    -3.3906  -3.3099  -3.2908  -3.2510  -3.2312  -3.1176  -3.0423  -3.0310
    -3.0017  -2.7587  -2.6851  -2.5832  -2.5246  -2.5198  -2.4064  -2.3627
    -2.3434  -2.2672  -2.1304  -2.1073  -2.0963  -2.0681  -2.0400  -2.0245
    -2.0098  -1.9221  -1.8732  -1.8494  -1.7750  -1.7237  -1.7035  -1.5106
    -1.4122  -1.4081  -1.3659  -1.2854  -1.2803  -1.2745  -1.2723  -1.2533
    -1.1936  -1.1364  -1.1251  -1.1175  -1.0914  -1.0739  -1.0454  -1.0182
    -0.9639  -0.9290  -0.9066  -0.8779  -0.8708  -0.8411  -0.8124  -0.7945
    -0.7747  -0.6973  -0.6755  -0.4873  -0.4271  -0.4240  -0.4160  -0.3739
    -0.0618   0.0005   0.0347   0.0987   0.4570   0.7095   0.7100   0.8395
     0.8411   2.7871   2.8116   2.8360   2.8588   2.9034   2.9129   2.9768
     3.0273   3.0581   3.1132

          k = 0.0380 0.0000 0.0000 ( 17913 PWs)   bands (ev):

   -56.6648 -56.6521 -56.6307 -56.6158 -56.5301 -56.5185 -56.4955 -56.4832
   -56.4740 -56.4425 -56.4401 -56.4084 -56.4046 -56.1892 -55.6445 -55.6104
   -33.2035 -33.1487 -33.0240 -32.9935 -32.9743 -32.9596 -32.9572 -32.9373
   -32.9078 -32.8741 -32.8640 -32.8553 -32.8519 -32.8307 -32.8140 -32.7982
   -32.7889 -32.7695 -32.7647 -32.7400 -32.7373 -32.7343 -32.7216 -32.6729
   -32.6726 -32.6676 -32.6651 -32.6609 -32.6566 -32.6434 -32.6374 -32.6321
   -32.6228 -32.6107 -32.6090 -32.6007 -32.5954 -32.5764 -32.5545 -32.4345
   -32.4147 -32.3958 -32.0513 -31.9665 -31.9387 -31.8683 -31.7819 -31.6708
   -17.3275 -17.0574 -16.8429 -16.8028 -16.7143 -16.6498 -16.5596 -16.3952
   -16.3691 -16.3574 -16.3194 -16.3007 -16.2875 -16.2512 -16.2171 -16.2004
   -16.0725 -16.0282 -15.9765 -15.9392 -15.9313 -15.9108 -15.9084 -15.8591
   -15.8480 -15.8293 -15.7924 -15.6782 -15.3505 -15.2723 -14.1439 -14.0303
    -5.2731  -4.6851  -4.4041  -4.3667  -4.2939  -4.2371  -4.2111  -4.1789
    -4.1236  -3.9204  -3.9123  -3.7754  -3.7695  -3.7427  -3.6685  -3.5236
    -3.5121  -3.4393  -3.3862  -3.3726  -3.3582  -3.2692  -3.2452  -3.2132
    -3.1336  -3.1259  -3.0763  -3.0214  -3.0091  -2.9383  -2.9021  -2.8729
    -2.8592  -2.7944  -2.6981  -2.6665  -2.6202  -2.6023  -2.5405  -2.5319
    -2.4805  -2.4406  -2.2724  -2.2313  -2.2079  -2.1592  -2.1106  -2.0992
    -2.0846  -2.0189  -1.9447  -1.9385  -1.9144  -1.8403  -1.8113  -1.7111
    -1.5855  -1.4790  -1.4665  -1.4452  -1.4301  -1.3952  -1.3245  -1.1802
    -1.1374  -1.0897  -1.0727  -1.0385  -0.9943  -0.9645  -0.9432  -0.9265
    -0.8766  -0.8521  -0.8335  -0.8156  -0.7889  -0.7659  -0.7517  -0.6215
    -0.6021  -0.5607  -0.5020  -0.4327  -0.3733  -0.2772  -0.2601  -0.2275
    -0.0112   0.0243   0.3064   0.3337   0.3893   0.4792   0.5388   0.8374
     0.9118   2.4983   2.5286   2.8154   2.8350   2.8539   2.8898   2.9035
     2.9221   2.9323   2.9853

          k = 0.0380 0.0419 0.0000 ( 17878 PWs)   bands (ev):

   -56.6598 -56.6469 -56.6357 -56.6209 -56.5251 -56.5137 -56.5005 -56.4879
   -56.4690 -56.4450 -56.4375 -56.4133 -56.4039 -56.1898 -55.6394 -55.6154
   -33.1462 -33.0947 -32.9706 -32.9526 -32.9460 -32.9458 -32.9386 -32.8887
   -32.8855 -32.8759 -32.8696 -32.8524 -32.8393 -32.8316 -32.8266 -32.8265
   -32.8046 -32.8006 -32.7514 -32.7354 -32.7342 -32.7274 -32.7260 -32.6887
   -32.6823 -32.6806 -32.6691 -32.6670 -32.6666 -32.6604 -32.6576 -32.6470
   -32.6417 -32.6350 -32.6218 -32.6079 -32.6072 -32.6037 -32.6022 -32.4407
   -32.4299 -32.4146 -31.9973 -31.9623 -31.9428 -31.8557 -31.7946 -31.7280
   -17.1976 -16.9437 -16.7421 -16.6970 -16.6142 -16.6083 -16.5196 -16.4878
   -16.4254 -16.3223 -16.3084 -16.2732 -16.2506 -16.2367 -16.2079 -16.1630
   -16.0999 -16.0543 -16.0220 -16.0179 -15.9911 -15.9682 -15.9501 -15.9139
   -15.9064 -15.8772 -15.8215 -15.7034 -15.4240 -15.3025 -14.1489 -14.0704
    -5.2404  -4.5078  -4.2398  -4.2009  -4.1205  -4.0674  -4.0588  -3.9720
    -3.9455  -3.8066  -3.7709  -3.6920  -3.6576  -3.6505  -3.5929  -3.5760
    -3.5421  -3.5080  -3.4792  -3.4529  -3.4072  -3.3797  -3.3744  -3.3172
    -3.3019  -3.2760  -3.2313  -3.1555  -3.1438  -3.0871  -3.0085  -2.9683
    -2.8713  -2.8155  -2.7311  -2.6835  -2.6419  -2.6113  -2.5545  -2.4304
    -2.3997  -2.3748  -2.2290  -2.1821  -2.1242  -2.0931  -2.0521  -1.9926
    -1.9394  -1.9276  -1.8982  -1.8187  -1.8014  -1.7602  -1.6824  -1.6512
    -1.5987  -1.5527  -1.5436  -1.4957  -1.4490  -1.4002  -1.3793  -1.3369
    -1.3125  -1.2784  -1.2641  -1.1786  -1.1395  -1.1214  -1.0562  -1.0167
    -0.9918  -0.9600  -0.8973  -0.8716  -0.8175  -0.7952  -0.7418  -0.6770
    -0.5970  -0.5192  -0.4646  -0.4087  -0.3432  -0.3202  -0.2632  -0.2332
    -0.1997  -0.0693   0.0047   0.2804   0.4690   0.5773   0.6546   0.8254
     0.8874   2.6510   2.7110   2.7853   2.8469   2.8733   2.9152   2.9671
     3.0032   3.0310   3.0578

          k = 0.0380-0.0839 0.0000 ( 17916 PWs)   bands (ev):

   -56.6486 -56.6469 -56.6369 -56.6310 -56.5146 -56.5110 -56.5053 -56.4964
   -56.4585 -56.4556 -56.4277 -56.4232 -56.4033 -56.1904 -55.6275 -55.6274
   -33.0092 -33.0035 -32.9629 -32.9618 -32.9435 -32.9421 -32.9126 -32.9080
   -32.8589 -32.8532 -32.8425 -32.8390 -32.8088 -32.8038 -32.8003 -32.7959
   -32.7930 -32.7798 -32.7710 -32.7692 -32.7673 -32.7585 -32.7540 -32.7236
   -32.7129 -32.7096 -32.7076 -32.6991 -32.6892 -32.6884 -32.6779 -32.6587
   -32.6548 -32.6390 -32.6305 -32.6190 -32.6171 -32.6154 -32.6062 -32.4780
   -32.4406 -32.4145 -31.9525 -31.9524 -31.8647 -31.8645 -31.8253 -31.8252
   -16.8812 -16.8670 -16.6857 -16.6778 -16.5563 -16.5211 -16.4988 -16.4153
   -16.3937 -16.3702 -16.3663 -16.3531 -16.2411 -16.2312 -16.1707 -16.1234
   -16.1019 -16.0802 -16.0737 -16.0583 -16.0264 -16.0209 -16.0092 -15.9928
   -15.9707 -15.9609 -15.8166 -15.6885 -15.5815 -15.3158 -14.1328 -14.1325
    -5.2077  -4.1092  -4.0913  -3.9416  -3.8837  -3.8641  -3.8410  -3.8236
    -3.7715  -3.7499  -3.7314  -3.6975  -3.6737  -3.6569  -3.6453  -3.6195
    -3.5955  -3.5327  -3.5225  -3.5017  -3.4743  -3.4680  -3.4084  -3.3808
    -3.3597  -3.3201  -3.2884  -3.2599  -3.1943  -3.1727  -3.1176  -2.8257
    -2.7993  -2.7454  -2.6687  -2.5763  -2.5592  -2.5316  -2.4887  -2.4632
    -2.4318  -2.4067  -2.3504  -2.3256  -2.2970  -2.2838  -2.1779  -2.1493
    -2.0850  -1.9646  -1.8703  -1.8332  -1.8041  -1.7894  -1.7356  -1.6764
    -1.6082  -1.5804  -1.4782  -1.4618  -1.4384  -1.4195  -1.3971  -1.3681
    -1.3422  -1.2767  -1.2687  -1.2360  -1.2174  -1.2126  -1.2004  -1.0851
    -1.0709  -1.0246  -0.8961  -0.8477  -0.8422  -0.7352  -0.7056  -0.6429
    -0.5861  -0.5578  -0.5490  -0.4976  -0.4882  -0.4029  -0.3381  -0.2726
    -0.1092  -0.0708  -0.0014   0.0969   0.4586   0.7227   0.7234   0.8289
     0.8300   2.7602   2.7717   2.8550   2.8679   2.8872   2.9060   3.0310
     3.0676   3.0955   3.0976

          k = 0.0380-0.0419 0.0000 ( 17876 PWs)   bands (ev):

   -56.6598 -56.6469 -56.6357 -56.6209 -56.5251 -56.5137 -56.5005 -56.4879
   -56.4690 -56.4450 -56.4375 -56.4133 -56.4039 -56.1898 -55.6394 -55.6154
   -33.1461 -33.0947 -32.9705 -32.9526 -32.9461 -32.9458 -32.9386 -32.8888
   -32.8855 -32.8760 -32.8696 -32.8521 -32.8393 -32.8317 -32.8266 -32.8265
   -32.8044 -32.8006 -32.7515 -32.7354 -32.7343 -32.7272 -32.7261 -32.6888
   -32.6822 -32.6806 -32.6690 -32.6670 -32.6665 -32.6604 -32.6576 -32.6470
   -32.6417 -32.6353 -32.6217 -32.6078 -32.6073 -32.6035 -32.6023 -32.4407
   -32.4299 -32.4145 -31.9973 -31.9623 -31.9428 -31.8557 -31.7946 -31.7280
   -17.1978 -16.9435 -16.7421 -16.6971 -16.6141 -16.6083 -16.5189 -16.4877
   -16.4256 -16.3227 -16.3098 -16.2732 -16.2515 -16.2372 -16.2047 -16.1630
   -16.1007 -16.0541 -16.0219 -16.0171 -15.9906 -15.9695 -15.9497 -15.9137
   -15.9063 -15.8777 -15.8215 -15.7035 -15.4241 -15.3024 -14.1489 -14.0704
    -5.2405  -4.5073  -4.2411  -4.2026  -4.1199  -4.0677  -4.0576  -3.9764
    -3.9408  -3.8077  -3.7688  -3.6894  -3.6566  -3.6462  -3.5956  -3.5753
    -3.5409  -3.5130  -3.4828  -3.4558  -3.4082  -3.3801  -3.3730  -3.3174
    -3.3048  -3.2786  -3.2287  -3.1556  -3.1448  -3.0855  -3.0129  -2.9700
    -2.8722  -2.8105  -2.7356  -2.6869  -2.6423  -2.6092  -2.5456  -2.4376
    -2.3962  -2.3654  -2.2271  -2.1776  -2.1236  -2.0893  -2.0541  -1.9918
    -1.9442  -1.9287  -1.8966  -1.8181  -1.7966  -1.7630  -1.6761  -1.6407
    -1.6031  -1.5550  -1.5420  -1.4982  -1.4442  -1.3896  -1.3700  -1.3445
    -1.3226  -1.2828  -1.2620  -1.1778  -1.1440  -1.1215  -1.0682  -1.0114
    -0.9915  -0.9569  -0.8980  -0.8648  -0.8337  -0.7933  -0.7402  -0.6862
    -0.5982  -0.5225  -0.4657  -0.4101  -0.3494  -0.3145  -0.2597  -0.2319
    -0.2017  -0.0694   0.0038   0.2805   0.4693   0.5774   0.6547   0.8252
     0.8880   2.6500   2.7110   2.7858   2.8327   2.8914   2.9226   2.9698
     3.0101   3.0400   3.0541

          k =-0.0760-0.0000 0.0000 ( 17886 PWs)   bands (ev):

   -56.6647 -56.6520 -56.6307 -56.6157 -56.5301 -56.5185 -56.4955 -56.4832
   -56.4737 -56.4426 -56.4401 -56.4084 -56.4045 -56.1892 -55.6444 -55.6104
   -33.2036 -33.1496 -33.0294 -32.9956 -32.9745 -32.9593 -32.9571 -32.9418
   -32.9079 -32.8746 -32.8594 -32.8520 -32.8361 -32.8307 -32.8111 -32.7923
   -32.7888 -32.7694 -32.7637 -32.7544 -32.7345 -32.7220 -32.6906 -32.6855
   -32.6727 -32.6707 -32.6687 -32.6645 -32.6608 -32.6504 -32.6432 -32.6322
   -32.6228 -32.6174 -32.6088 -32.6007 -32.5964 -32.5755 -32.5554 -32.4343
   -32.4159 -32.3958 -32.0510 -31.9698 -31.9374 -31.8682 -31.7818 -31.6708
   -17.2232 -16.9885 -16.7817 -16.7553 -16.6490 -16.6131 -16.5384 -16.4488
   -16.4405 -16.4033 -16.3797 -16.3702 -16.3448 -16.3120 -16.3072 -16.1853
   -16.1070 -16.0304 -15.9985 -15.9825 -15.9262 -15.9139 -15.8743 -15.8482
   -15.8213 -15.8188 -15.7596 -15.6745 -15.3482 -15.2713 -14.1408 -14.0300
    -5.2438  -4.6626  -4.3439  -4.2523  -4.1634  -4.0748  -4.0567  -3.9785
    -3.9275  -3.9247  -3.9137  -3.9134  -3.8906  -3.6812  -3.5155  -3.5008
    -3.4827  -3.4652  -3.3759  -3.2848  -3.2420  -3.2066  -3.1651  -3.1534
    -3.0835  -3.0753  -3.0006  -2.9821  -2.9755  -2.9271  -2.9102  -2.8954
    -2.8929  -2.8541  -2.8275  -2.7888  -2.6713  -2.6370  -2.4642  -2.3906
    -2.3119  -2.3024  -2.2717  -2.2667  -2.2499  -2.2211  -2.2151  -2.1506
    -2.1296  -2.0849  -2.0277  -1.9543  -1.9335  -1.8767  -1.8512  -1.8205
    -1.8047  -1.7149  -1.4903  -1.3939  -1.3725  -1.3706  -1.3435  -1.3194
    -1.3039  -1.1765  -1.1561  -1.1114  -1.0679  -1.0251  -1.0116  -1.0019
    -0.9613  -0.9313  -0.9133  -0.8647  -0.8309  -0.8216  -0.6996  -0.6505
    -0.6152  -0.5783  -0.5519  -0.4187  -0.4037  -0.2956  -0.1888  -0.1716
    -0.0691   0.0254   0.0608   0.3179   0.4105   0.4837   0.5144   0.7080
     0.8562   2.5032   2.5077   2.6369   2.7460   2.8022   2.8964   2.9214
     2.9398   2.9718   2.9963

          k =-0.0760 0.0419 0.0000 ( 17914 PWs)   bands (ev):

   -56.6598 -56.6469 -56.6357 -56.6209 -56.5251 -56.5138 -56.5005 -56.4880
   -56.4689 -56.4450 -56.4377 -56.4133 -56.4040 -56.1898 -55.6395 -55.6154
   -33.1465 -33.0957 -32.9771 -32.9527 -32.9462 -32.9461 -32.9408 -32.8907
   -32.8886 -32.8758 -32.8698 -32.8401 -32.8354 -32.8317 -32.8268 -32.8268
   -32.7985 -32.7951 -32.7524 -32.7422 -32.7353 -32.7268 -32.6925 -32.6884
   -32.6849 -32.6778 -32.6750 -32.6682 -32.6667 -32.6635 -32.6572 -32.6539
   -32.6468 -32.6392 -32.6218 -32.6124 -32.6094 -32.6057 -32.6055 -32.4407
   -32.4299 -32.4161 -31.9971 -31.9651 -31.9421 -31.8557 -31.7946 -31.7280
   -17.1037 -16.8758 -16.6808 -16.6690 -16.6099 -16.5214 -16.5135 -16.4415
   -16.4198 -16.4021 -16.3603 -16.3097 -16.3046 -16.3012 -16.2620 -16.2018
   -16.1375 -16.0524 -16.0501 -16.0219 -15.9853 -15.9753 -15.9520 -15.9489
   -15.9268 -15.8504 -15.8200 -15.6984 -15.4235 -15.3011 -14.1468 -14.0708
    -5.2256  -4.4914  -4.1875  -3.9935  -3.9514  -3.8780  -3.7905  -3.7868
    -3.7601  -3.7393  -3.7133  -3.6969  -3.6846  -3.6189  -3.6089  -3.5741
    -3.5566  -3.5397  -3.4479  -3.4134  -3.3723  -3.3504  -3.3424  -3.2664
    -3.2402  -3.1866  -3.1555  -3.1435  -3.1260  -3.0584  -2.9348  -2.9000
    -2.8035  -2.7788  -2.7582  -2.7195  -2.6213  -2.6043  -2.4942  -2.4520
    -2.4123  -2.3029  -2.2636  -2.2258  -2.2004  -2.1478  -2.1068  -2.0749
    -2.0207  -1.9772  -1.9580  -1.9191  -1.8902  -1.8835  -1.8674  -1.8325
    -1.7735  -1.7342  -1.7056  -1.6622  -1.6182  -1.5306  -1.4967  -1.4489
    -1.4195  -1.3920  -1.3410  -1.3049  -1.2570  -1.2241  -1.1937  -1.0956
    -0.9895  -0.9737  -0.9313  -0.8379  -0.8167  -0.8047  -0.7343  -0.6733
    -0.4728  -0.4422  -0.3681  -0.3588  -0.3246  -0.2852  -0.2082  -0.1996
    -0.1505  -0.0928  -0.0688   0.1216   0.4705   0.5921   0.6579   0.7488
     0.8767   2.6361   2.7001   2.7092   2.7764   2.8289   2.8325   2.9401
     2.9672   3.0663   3.1152

          k =-0.0760-0.0839 0.0000 ( 17948 PWs)   bands (ev):

   -56.6486 -56.6469 -56.6369 -56.6310 -56.5146 -56.5110 -56.5053 -56.4965
   -56.4584 -56.4556 -56.4278 -56.4233 -56.4034 -56.1904 -55.6275 -55.6274
   -33.0095 -33.0038 -32.9637 -32.9626 -32.9436 -32.9421 -32.9128 -32.9082
   -32.8661 -32.8599 -32.8433 -32.8394 -32.7998 -32.7983 -32.7970 -32.7918
   -32.7856 -32.7795 -32.7707 -32.7682 -32.7662 -32.7653 -32.7613 -32.7236
   -32.7155 -32.7091 -32.7076 -32.7051 -32.6780 -32.6597 -32.6584 -32.6570
   -32.6542 -32.6421 -32.6395 -32.6385 -32.6305 -32.6186 -32.6126 -32.4777
   -32.4406 -32.4163 -31.9535 -31.9534 -31.8647 -31.8645 -31.8253 -31.8252
   -16.8197 -16.8061 -16.6446 -16.5794 -16.5568 -16.5495 -16.5095 -16.3693
   -16.3561 -16.3550 -16.2810 -16.2460 -16.2355 -16.2058 -16.1907 -16.1873
   -16.1758 -16.1643 -16.1255 -16.1198 -16.1087 -16.0976 -16.0644 -16.0327
   -15.9851 -15.9805 -15.8022 -15.6838 -15.5766 -15.3143 -14.1326 -14.1323
    -5.2071  -4.1086  -4.0910  -3.9170  -3.8085  -3.7983  -3.7489  -3.6173
    -3.5655  -3.5580  -3.5253  -3.5075  -3.4944  -3.4869  -3.4776  -3.4486
    -3.4189  -3.3840  -3.3690  -3.3509  -3.3389  -3.3200  -3.3025  -3.2938
    -3.2778  -3.2554  -3.2225  -3.2088  -3.1930  -3.1635  -3.0319  -2.9213
    -2.8584  -2.8093  -2.7971  -2.7856  -2.7416  -2.7307  -2.7195  -2.6801
    -2.5386  -2.4953  -2.3710  -2.3678  -2.3208  -2.2657  -2.2614  -2.1212
    -2.0953  -2.0860  -2.0643  -1.9993  -1.9693  -1.8928  -1.8677  -1.8147
    -1.7901  -1.7455  -1.6698  -1.6595  -1.6314  -1.6239  -1.6148  -1.5398
    -1.4950  -1.4295  -1.4237  -1.4029  -1.3424  -1.3111  -1.2575  -1.1794
    -1.1428  -1.0098  -0.9486  -0.7584  -0.7322  -0.6453  -0.5903  -0.5739
    -0.5280  -0.4914  -0.3696  -0.3542  -0.3476  -0.2756  -0.2618  -0.2484
    -0.1397  -0.1294  -0.1090   0.0746   0.4586   0.7409   0.7419   0.8142
     0.8147   2.7769   2.7831   2.8197   2.8388   2.9712   2.9805   3.0018
     3.0035   3.1125   3.1316

     the Fermi energy is     2.4687 ev

!    total energy              =   -2915.40598817 Ry
     estimated scf accuracy    <       0.00000006 Ry
     smearing contrib. (-TS)   =      -0.02158577 Ry
     internal energy E=F+TS    =   -2915.38440241 Ry

     The total energy is F=E-TS. E is the sum of the following terms:
     one-electron contribution =  -24970.16368676 Ry
     hartree contribution      =   12560.35667400 Ry
     xc contribution           =    -477.43078345 Ry
     ewald contribution        =    9971.85324715 Ry
     electric field correction =       0.00014666 Ry

     convergence has been achieved in  84 iterations

     Forces acting on atoms (cartesian axes, Ry/au):

     atom    1 type  1   force =     0.00015470   -0.00020374    0.09634372
     atom    2 type  1   force =    -0.00010736   -0.00060567   -0.17545493
     atom    3 type  2   force =     0.00003121   -0.00003418   -0.02458865
     atom    4 type  2   force =     0.00008523   -0.00145543    0.05302484
     atom    5 type  2   force =    -0.01197390   -0.00120276    0.00380365
     atom    6 type  2   force =     0.01362801   -0.00046924    0.00268522
     atom    7 type  1   force =    -0.00106608    0.00057945   -0.01036951
     atom    8 type  1   force =     0.00049242    0.01691855    0.02648589
     atom    9 type  2   force =    -0.00005044   -0.00011809   -0.00061009
     atom   10 type  2   force =    -0.00123727    0.00037528   -0.01552541
     atom   11 type  2   force =     0.00008480    0.00021701   -0.00017817
     atom   12 type  2   force =     0.00008581    0.00033930   -0.00034069
     atom   13 type  1   force =    -0.00015724   -0.00004692    0.00010666
     atom   14 type  1   force =     0.00003379    0.00030270   -0.00029799
     atom   15 type  2   force =    -0.00012122   -0.00017947    0.00079075
     atom   16 type  2   force =    -0.00005727    0.00039160    0.00013768
     atom   17 type  2   force =    -0.00000649   -0.00000024    0.00013585
     atom   18 type  2   force =    -0.00012309    0.00017934    0.00027317
     atom   19 type  1   force =     0.00022812   -0.00013810    0.00002458
     atom   20 type  1   force =    -0.00016908    0.00040572    0.00004728
     atom   21 type  2   force =     0.00010092   -0.00000329    0.10328520
     atom   22 type  2   force =     0.00056051    0.00039307    0.00045436
     atom   23 type  2   force =    -0.07142147   -0.00008797   -0.02761808
     atom   24 type  2   force =     0.07142465    0.00033527   -0.02763023
     atom   25 type  1   force =     0.00005620   -0.00022056    0.09627915
     atom   26 type  1   force =    -0.00017673   -0.00016411   -0.17555656
     atom   27 type  2   force =     0.00009762   -0.00023132   -0.02351400
     atom   28 type  2   force =     0.00011607   -0.00123509    0.05331886
     atom   29 type  2   force =    -0.01213091    0.00068051    0.00352113
     atom   30 type  2   force =     0.01370259    0.00103264    0.00240722
     atom   31 type  1   force =    -0.00092218    0.00337828   -0.01150223
     atom   32 type  1   force =     0.00066582   -0.01868285    0.02687084
     atom   33 type  2   force =    -0.00014941    0.00029840   -0.00004939
     atom   34 type  2   force =    -0.00097252    0.00039482   -0.02322358
     atom   35 type  2   force =     0.00019525    0.00000734   -0.00006776
     atom   36 type  2   force =    -0.00018684    0.00003687   -0.00021361
     atom   37 type  1   force =    -0.00021706   -0.00019173   -0.00022968
     atom   38 type  1   force =    -0.00003594    0.00028221   -0.00040937
     atom   39 type  2   force =     0.00017355   -0.00053007    0.00002709
     atom   40 type  2   force =    -0.00005585    0.00016033    0.00055248
     atom   41 type  2   force =     0.00031184   -0.00038152   -0.00004317
     atom   42 type  2   force =    -0.00035038   -0.00056523   -0.00017345
     atom   43 type  1   force =     0.00012983   -0.00004525   -0.00056102
     atom   44 type  1   force =    -0.00032992   -0.00107727    0.00054872
     atom   45 type  2   force =     0.00009688   -0.00003527    0.10328798
     atom   46 type  2   force =    -0.07144264   -0.00004631   -0.02763202
     atom   47 type  2   force =     0.07145221    0.00038972   -0.02764937
     atom   48 type  3   force =     0.00045538   -0.00123676    0.03424726
     atom   49 type  4   force =    -0.00090210    0.00209002   -0.03522064

     Total force =     0.371491     Total SCF correction =     0.000819
  @ DRIVER MODE: Message from server: STATUS
  @ DRIVER MODE: Message from server: GETFORCE
  @ DRIVER MODE: Returning v,forces,stress,ensemble 

     Writing output data file ./calc.save/
  @ DRIVER MODE: Message from server: EXIT
  @ DRIVE MODE: Exiting  
 
     init_run     :     12.30s CPU     12.57s WALL (       1 calls)
     electrons    :   1324.92s CPU   1355.96s WALL (       1 calls)
     forces       :      2.12s CPU      2.21s WALL (       1 calls)

     Called by init_run:
     wfcinit      :      5.80s CPU      5.89s WALL (       1 calls)
     potinit      :      5.29s CPU      5.36s WALL (       1 calls)
     hinit0       :      0.30s CPU      0.31s WALL (       1 calls)

     Called by electrons:
     c_bands      :   1120.65s CPU   1137.78s WALL (      84 calls)
     sum_band     :    133.87s CPU    140.12s WALL (      84 calls)
     v_of_rho     :     47.03s CPU     50.08s WALL (      85 calls)
     newd         :     18.74s CPU     23.09s WALL (      85 calls)
     mix_rho      :      8.97s CPU      9.12s WALL (      84 calls)
     vdW_kernel   :      4.54s CPU      4.56s WALL (       1 calls)

     Called by c_bands:
     init_us_2    :      6.73s CPU      6.77s WALL (    1700 calls)
     cegterg      :   1098.22s CPU   1114.87s WALL (     853 calls)

     Called by *egterg:
     cdiaghg      :    252.92s CPU    258.61s WALL (    8749 calls)
     h_psi        :    548.84s CPU    557.94s WALL (    8759 calls)
     s_psi        :     69.70s CPU     69.95s WALL (    8759 calls)
     g_psi        :      1.71s CPU      1.73s WALL (    7896 calls)

     Called by h_psi:
     h_psi:calbec :     69.69s CPU     70.11s WALL (    8759 calls)
     vloc_psi     :    406.20s CPU    414.18s WALL (    8759 calls)
     add_vuspsi   :     70.08s CPU     70.48s WALL (    8759 calls)

     General routines
     calbec       :     92.72s CPU     93.21s WALL (    9639 calls)
     fft          :     25.19s CPU     25.79s WALL (    5355 calls)
     ffts         :      0.23s CPU      0.24s WALL (     169 calls)
     fftw         :    464.78s CPU    475.04s WALL ( 1023592 calls)
     interpolate  :      0.58s CPU      0.59s WALL (      85 calls)
     davcio       :      0.00s CPU      0.14s WALL (      10 calls)
 
     Parallel routines
 
     PWSCF        :  22m20.06s CPU  22m52.18s WALL

 
   This run was terminated on:   1:56:22   9Sep2021            

=------------------------------------------------------------------------------=
   JOB DONE.
=------------------------------------------------------------------------------=
