
     Program PWSCF v.6.7GPU starts on 18Aug2021 at 11: 0:29 

     This program is part of the open-source Quantum ESPRESSO suite
     for quantum simulation of materials; please cite
         "P. Giannozzi et al., J. Phys.:Condens. Matter 21 395502 (2009);
         "P. Giannozzi et al., J. Phys.:Condens. Matter 29 465901 (2017);
         "P. Giannozzi et al., J. Chem. Phys. 152 154105 (2020);
          URL http://www.quantum-espresso.org", 
     in publications or presentations arising from this work. More details at
     http://www.quantum-espresso.org/quote

     Parallel version (MPI), running on     6 processors

     MPI processes distributed on     1 nodes
     R & G space division:  proc/nbgrp/npool/nimage =       6
     Reading input from /storage/home/hcoda1/3/ntian30/research/carbon/CH3_vib_side_on/ads_slab/CH3N2_c/out_0000/pw.inp
Warning: card &CELL ignored
Warning: card   CELL_DYNAMICS='IPI', ignored
Warning: card / ignored

     Current dimensions of program PWSCF are:
     Max number of different atomic species (ntypx) = 10
     Max number of k-points (npk) =  40000
     Max angular momentum in pseudopotentials (lmaxx) =  3
     Presently no symmetry can be used with electric field

     Message from routine cell_base_init:
     DEPRECATED: use true lattice parameter, not A to a.u. conversion factor

     **************************************************************************
     Initializing libbeef V0.1.2 with the BEEF-vdW functional.
     Citation: Wellendorff et al., PRB 85, 235149 (2012).
     **************************************************************************


     IMPORTANT: XC functional enforced from input :
     Exchange-correlation= BEEF-VDW
                           (   1   4  43  14   2   0   0)
     Any further DFT definition will be discarded
     Please, verify this is what you really want


     Subspace diagonalization in iterative solution of the eigenvalue problem:
     one sub-group per band group will be used
     scalapack distributed-memory algorithm (size of sub-group:  2*  2 procs)

  @ DRIVER MODE: Connecting to 
 qe_1139763_2594174.sched-torque.pace.gatech.eduj4r7_s2g_scratch
  using UNIX socket
  @ DRIVER MODE: Message from server: STATUS
  @ DRIVER MODE: Message from server: INIT
  @ DRIVER MODE: Receiving replica           0          -1
  @ DRIVER MODE: Receiving encoded integer          25
  @ DRIVER MODE:  SCF:  T  FORCE:  T  STRESS:  F  VC:  F  ENSEMBLE:  F
  @ DRIVER MODE:  SCF:  T  FORCE:  T  STRESS:  F  VC:  F  ENSEMBLE:  F
 
     Parallelization info
     --------------------
     sticks:   dense  smooth     PW     G-vecs:    dense   smooth      PW
     Min         545     219     63                94473    23902    3663
     Max         546     222     64                94484    23905    3665
     Sum        3275    1317    379               566857   143421   21985
 
     Using Slab Decomposition
 


     bravais-lattice index     =            0
     lattice parameter (alat)  =       1.8897  a.u.
     unit-cell volume          =    6658.9804 (a.u.)^3
     number of atoms/cell      =           53
     number of atomic types    =            5
     number of electrons       =       395.00
     number of Kohn-Sham states=          207
     kinetic-energy cutoff     =      29.3995  Ry
     charge density cutoff     =     293.9946  Ry
     scf convergence threshold =      7.3E-08
     mixing beta               =       0.0500
     number of iterations used =            8  plain     mixing
     Exchange-correlation= BEEF-VDW
                           (   1   4  43  14   2   0   0)

     celldm(1)=   1.889726  celldm(2)=   0.000000  celldm(3)=   0.000000
     celldm(4)=   0.000000  celldm(5)=   0.000000  celldm(6)=   0.000000

     crystal axes: (cart. coord. in units of alat)
               a(1) = (   6.579727   0.000000   0.000000 )  
               a(2) = (  -0.000775   5.961596   0.000000 )  
               a(3) = (   0.000000   0.000000  25.155947 )  

     reciprocal axes: (cart. coord. in units 2 pi/alat)
               b(1) = (  0.151982  0.000020  0.000000 )  
               b(2) = (  0.000000  0.167740  0.000000 )  
               b(3) = (  0.000000  0.000000  0.039752 )  


     PseudoPot. # 1 for Ti read from file:
     /storage/coda1/p-amedford6/0/shared/rich_project_chbe-medford/medford-share/data/pseudos_module/espresso/nninc/pbe/van/Ti.UPF
     MD5 check sum: 8e4df49b7f0d34bbd5052bf3f5ea0213
     Pseudo is Ultrasoft, Zval = 12.0
     Generated by new atomic code, or converted to UPF format
     Using radial grid of  851 points,  6 beta functions with: 
                l(1) =   0
                l(2) =   0
                l(3) =   1
                l(4) =   1
                l(5) =   2
                l(6) =   2
     Q(r) pseudized with  8 coefficients,  rinner =    1.000   1.000   1.000
                                                       1.000   1.000

     PseudoPot. # 2 for O  read from file:
     /storage/coda1/p-amedford6/0/shared/rich_project_chbe-medford/medford-share/data/pseudos_module/espresso/nninc/pbe/van/O.UPF
     MD5 check sum: 78c19812648e8988a0fe644b0f25305e
     Pseudo is Ultrasoft, Zval =  6.0
     Generated by new atomic code, or converted to UPF format
     Using radial grid of  737 points,  4 beta functions with: 
                l(1) =   0
                l(2) =   0
                l(3) =   1
                l(4) =   1
     Q(r) pseudized with  8 coefficients,  rinner =    0.800   0.800   0.800


     PseudoPot. # 3 for N  read from file:
     /storage/coda1/p-amedford6/0/shared/rich_project_chbe-medford/medford-share/data/pseudos_module/espresso/nninc/pbe/van/N.UPF
     MD5 check sum: 90d10febe142ad51ac9d5be1deb811c4
     Pseudo is Ultrasoft, Zval =  5.0
     Generated by new atomic code, or converted to UPF format
     Using radial grid of  729 points,  4 beta functions with: 
                l(1) =   0
                l(2) =   0
                l(3) =   1
                l(4) =   1
     Q(r) pseudized with  8 coefficients,  rinner =    0.800   0.800   0.800


     PseudoPot. # 4 for C  read from file:
     /storage/coda1/p-amedford6/0/shared/rich_project_chbe-medford/medford-share/data/pseudos_module/espresso/nninc/pbe/van/C.UPF
     MD5 check sum: 1a69bf6b8db32088f5b2163dbdb77a27
     Pseudo is Ultrasoft, Zval =  4.0
     Generated by new atomic code, or converted to UPF format
     Using radial grid of  721 points,  4 beta functions with: 
                l(1) =   0
                l(2) =   0
                l(3) =   1
                l(4) =   1
     Q(r) pseudized with  8 coefficients,  rinner =    0.800   0.800   0.800


     PseudoPot. # 5 for H  read from file:
     /storage/coda1/p-amedford6/0/shared/rich_project_chbe-medford/medford-share/data/pseudos_module/espresso/nninc/pbe/van/H.UPF
     MD5 check sum: b5ee9d7bfd3a09ee7748110bda690ff7
     Pseudo is Ultrasoft, Zval =  1.0
     Generated by new atomic code, or converted to UPF format
     Using radial grid of  615 points,  1 beta functions with: 
                l(1) =   0
     Q(r) pseudized with  8 coefficients,  rinner =    0.800

     atomic species   valence    mass     pseudopotential
        Ti1           12.00    47.86700     Ti( 1.00)
        O1             6.00    15.99900     O ( 1.00)
        N1             5.00    14.00700     N ( 1.00)
        C1             4.00    12.01100     C ( 1.00)
        H1             1.00     1.00800     H ( 1.00)

     No symmetry found



   Cartesian axes

     site n.     atom                  positions (alat units)
         1           Ti1 tau(   1) = (   0.0004258   2.9801865   6.0000000  )
         2           Ti1 tau(   2) = (   3.2906075   1.4906267   6.0002472  )
         3           O1  tau(   3) = (   0.0006271   0.0005054   7.9858123  )
         4           O1  tau(   4) = (   3.2906025   0.0005020   7.3038282  )
         5           O1  tau(   5) = (   4.5942328   1.4918067   9.2879030  )
         6           O1  tau(   6) = (   1.9868534   1.4903216   9.2879459  )
         7           Ti1 tau(   7) = (   3.2907910   2.8959150   9.1758416  )
         8           Ti1 tau(   8) = (   0.0015273   1.4827037   9.2680791  )
         9           O1  tau(   9) = (   3.2868105   5.9447858  11.3346005  )
        10           O1  tau(  10) = (   0.0116148   5.9584955  10.6183126  )
        11           O1  tau(  11) = (   1.2897616   1.4699164  12.6258314  )
        12           O1  tau(  12) = (   5.2713851   1.4716199  12.6109895  )
        13           Ti1 tau(  13) = (   0.0629619   2.9460495  12.6207869  )
        14           Ti1 tau(  14) = (   3.3778125   1.4702366  12.4807322  )
        15           O1  tau(  15) = (   6.5741670   5.9392046  14.6271830  )
        16           O1  tau(  16) = (   3.2925211   5.9405975  13.9303826  )
        17           O1  tau(  17) = (   4.5331425   1.4971777  16.0590535  )
        18           O1  tau(  18) = (   2.0416154   1.4974824  16.0477615  )
        19           Ti1 tau(  19) = (   3.2901388   2.9722967  15.7036181  )
        20           Ti1 tau(  20) = (   6.5714728   1.5019933  15.8140906  )
        21           O1  tau(  21) = (   3.2904802   0.0005063   4.7018136  )
        22           O1  tau(  22) = (   6.5775371   0.0159386  17.1814867  )
        23           O1  tau(  23) = (   1.3043587   1.4918075   6.0039043  )
        24           O1  tau(  24) = (   5.2767064   1.4903225   6.0039473  )
        25           Ti1 tau(  25) = (   0.0000382   5.9609847   6.0000000  )
        26           Ti1 tau(  26) = (   3.2902200   4.4714249   6.0002472  )
        27           O1  tau(  27) = (   0.0002396   2.9813036   7.9858123  )
        28           O1  tau(  28) = (   3.2902150   2.9813002   7.3038282  )
        29           O1  tau(  29) = (   4.5938453   4.4726049   9.2879030  )
        30           O1  tau(  30) = (   1.9864658   4.4711199   9.2879459  )
        31           Ti1 tau(  31) = (   3.2891106   5.8743827   9.1763621  )
        32           Ti1 tau(  32) = (   0.0006254   4.4649316   9.2693709  )
        33           O1  tau(  33) = (   3.2909631   2.9655588  11.3316111  )
        34           O1  tau(  34) = (   0.0092240   2.9805883  10.6323155  )
        35           O1  tau(  35) = (   1.2884032   4.4536117  12.6269208  )
        36           O1  tau(  36) = (   5.2752684   4.4605011  12.6109535  )
        37           Ti1 tau(  37) = (   0.0626277   5.9200555  12.5524633  )
        38           Ti1 tau(  38) = (   3.3797810   4.4486816  12.4846537  )
        39           O1  tau(  39) = (   6.5720240   2.9440667  14.6479771  )
        40           O1  tau(  40) = (   3.2941106   2.9728877  13.9057494  )
        41           O1  tau(  41) = (   4.5311790   4.4530262  16.1020043  )
        42           O1  tau(  42) = (   2.0427069   4.4534008  16.0946336  )
        43           Ti1 tau(  43) = (   3.2818950   5.9508925  15.7274921  )
        44           Ti1 tau(  44) = (   6.5750914   4.6476268  16.0792144  )
        45           O1  tau(  45) = (   3.2900926   2.9813045   4.7018136  )
        46           O1  tau(  46) = (   1.3039711   4.4726057   6.0039043  )
        47           O1  tau(  47) = (   5.2763189   4.4711207   6.0039473  )
        48           N1  tau(  48) = (   0.0795740   2.6614725  18.6386781  )
        49           N1  tau(  49) = (   0.0132033   2.8794178  17.4383708  )
        50           C1  tau(  50) = (   0.1510961   3.8031638  19.5808395  )
        51           H1  tau(  51) = (   6.4701351   4.7592986  19.1328852  )
        52           H1  tau(  52) = (   6.0910372   3.5604803  20.4266230  )
        53           H1  tau(  53) = (   1.1812797   3.8285794  19.9476819  )

     number of k points=    10  Fermi-Dirac smearing, width (Ry)=  0.0073
                       cart. coord. in units 2pi/alat
        k(    1) = (   0.0000000   0.0000000   0.0000000), wk =   0.1250000
        k(    2) = (   0.0000000   0.0419351   0.0000000), wk =   0.2500000
        k(    3) = (   0.0000000  -0.0838702   0.0000000), wk =   0.1250000
        k(    4) = (   0.0379955   0.0000049   0.0000000), wk =   0.2500000
        k(    5) = (   0.0379955   0.0419400   0.0000000), wk =   0.2500000
        k(    6) = (   0.0379955  -0.0838652   0.0000000), wk =   0.2500000
        k(    7) = (   0.0379955  -0.0419301   0.0000000), wk =   0.2500000
        k(    8) = (  -0.0759910  -0.0000099   0.0000000), wk =   0.1250000
        k(    9) = (  -0.0759910   0.0419252   0.0000000), wk =   0.2500000
        k(   10) = (  -0.0759910  -0.0838800   0.0000000), wk =   0.1250000

     Dense  grid:   566857 G-vectors     FFT dimensions: (  72,  64, 270)

     Smooth grid:   143421 G-vectors     FFT dimensions: (  45,  40, 180)

     Estimated max dynamical RAM per process >     600.99 MB

     Estimated total dynamical RAM >       3.52 GB

     Initial potential from superposition of free atoms

     starting charge  378.99916, renormalised to  395.00000

     negative rho (up, down):  1.506E-02 0.000E+00


     %%%%%%%%%%%%%%%%%%%%%%%%%%%%%%%%%%%%%%%%%%%%%%%%%%%%%%%%%%%%%%%%%%%%%%%%
     %                                                                      %
     % You are using vdW-DF, which was implemented by the Thonhauser group. %
     % Please cite the following two papers that made this development      %
     % possible and the two reviews that describe the various versions:     %
     %                                                                      %
     %   T. Thonhauser et al., PRL 115, 136402 (2015).                      %
     %   T. Thonhauser et al., PRB 76, 125112 (2007).                       %
     %   K. Berland et al., Rep. Prog. Phys. 78, 066501 (2015).             %
     %   D.C. Langreth et al., J. Phys.: Condens. Matter 21, 084203 (2009). %
     %                                                                      %
     %                                                                      %
     % If you are calculating the stress with vdW-DF, please also cite:     %
     %                                                                      %
     %   R. Sabatini et al., J. Phys.: Condens. Matter 24, 424209 (2012).   %
     %                                                                      %
     %%%%%%%%%%%%%%%%%%%%%%%%%%%%%%%%%%%%%%%%%%%%%%%%%%%%%%%%%%%%%%%%%%%%%%%%


 
     Adding external electric field

     Computed dipole along edir(3) : 
        Dipole               -8.8495 Ry au,        -22.4931 Debye
        Dipole field         -0.0167 Ry au, 
 
        Potential amp.        1.5481 Ry
        Total length         46.3494 bohr
 
     Starting wfcs are  299 atomic wfcs
  @ DRIVER MODE: Message from server: STATUS
  @ DRIVER MODE: Message from server: POSDATA
  @ DRIVER MODE: Reading and sharing cell 
  @ DRIVER MODE: Reading and sharing positions 
  @ DRIVER MODE: Received positions 

     total cpu time spent up to now is       18.4 secs

     Self-consistent Calculation

     iteration #  1     ecut=    29.40 Ry     beta= 0.05
     Davidson diagonalization with overlap
     ethr =  1.00E-02,  avg # of iterations =  2.6

     negative rho (up, down):  1.493E-02 0.000E+00
 
     Adding external electric field

     Computed dipole along edir(3) : 
        Dipole               38.3214 Ry au,         97.4033 Debye
        Dipole field          0.0723 Ry au, 
 
        Potential amp.       -6.7038 Ry
        Total length         46.3494 bohr
 

     total cpu time spent up to now is       38.1 secs

     total energy              =   -2611.02308162 Ry
     estimated scf accuracy    <    3639.23038667 Ry

     iteration #  2     ecut=    29.40 Ry     beta= 0.05
     Davidson diagonalization with overlap
     ethr =  1.00E-02,  avg # of iterations = 22.4

     negative rho (up, down):  5.672E-03 0.000E+00
 
     Adding external electric field

     Computed dipole along edir(3) : 
        Dipole               -3.5477 Ry au,         -9.0173 Debye
        Dipole field         -0.0067 Ry au, 
 
        Potential amp.        0.6206 Ry
        Total length         46.3494 bohr
 

     total cpu time spent up to now is      157.8 secs

     total energy              =   -2442.41911008 Ry
     estimated scf accuracy    <   66494.76049302 Ry

     iteration #  3     ecut=    29.40 Ry     beta= 0.05
     Davidson diagonalization with overlap
     ethr =  1.00E-02,  avg # of iterations = 15.0

     negative rho (up, down):  5.718E-03 0.000E+00
 
     Adding external electric field

     Computed dipole along edir(3) : 
        Dipole               -5.2842 Ry au,        -13.4312 Debye
        Dipole field         -0.0100 Ry au, 
 
        Potential amp.        0.9244 Ry
        Total length         46.3494 bohr
 

     total cpu time spent up to now is      233.5 secs

     total energy              =   -2916.19767256 Ry
     estimated scf accuracy    <    3865.88013915 Ry

     iteration #  4     ecut=    29.40 Ry     beta= 0.05
     Davidson diagonalization with overlap
     c_bands:  4 eigenvalues not converged
     ethr =  1.00E-02,  avg # of iterations = 16.9

     negative rho (up, down):  5.729E-03 0.000E+00
 
     Adding external electric field

     Computed dipole along edir(3) : 
        Dipole               -6.2277 Ry au,        -15.8293 Debye
        Dipole field         -0.0118 Ry au, 
 
        Potential amp.        1.0894 Ry
        Total length         46.3494 bohr
 

     total cpu time spent up to now is      270.7 secs

     total energy              =   -2933.36965094 Ry
     estimated scf accuracy    <     465.43022880 Ry

     iteration #  5     ecut=    29.40 Ry     beta= 0.05
     Davidson diagonalization with overlap
     ethr =  1.00E-02,  avg # of iterations =  4.5

     negative rho (up, down):  5.715E-03 0.000E+00
 
     Adding external electric field

     Computed dipole along edir(3) : 
        Dipole               -6.8562 Ry au,        -17.4266 Debye
        Dipole field         -0.0129 Ry au, 
 
        Potential amp.        1.1994 Ry
        Total length         46.3494 bohr
 

     total cpu time spent up to now is      290.4 secs

     total energy              =   -2932.57049604 Ry
     estimated scf accuracy    <     271.44469307 Ry

     iteration #  6     ecut=    29.40 Ry     beta= 0.05
     Davidson diagonalization with overlap
     ethr =  1.00E-02,  avg # of iterations =  7.8

     negative rho (up, down):  5.477E-03 0.000E+00
 
     Adding external electric field

     Computed dipole along edir(3) : 
        Dipole               -6.4310 Ry au,        -16.3459 Debye
        Dipole field         -0.0121 Ry au, 
 
        Potential amp.        1.1250 Ry
        Total length         46.3494 bohr
 

     total cpu time spent up to now is      313.5 secs

     total energy              =   -2939.06557290 Ry
     estimated scf accuracy    <      44.50220021 Ry

     iteration #  7     ecut=    29.40 Ry     beta= 0.05
     Davidson diagonalization with overlap
     ethr =  1.00E-02,  avg # of iterations =  1.9

     negative rho (up, down):  5.162E-03 0.000E+00
 
     Adding external electric field

     Computed dipole along edir(3) : 
        Dipole               -5.7300 Ry au,        -14.5643 Debye
        Dipole field         -0.0108 Ry au, 
 
        Potential amp.        1.0024 Ry
        Total length         46.3494 bohr
 

     total cpu time spent up to now is      331.6 secs

     total energy              =   -2939.55439680 Ry
     estimated scf accuracy    <      26.19138003 Ry

     iteration #  8     ecut=    29.40 Ry     beta= 0.05
     Davidson diagonalization with overlap
     ethr =  6.63E-03,  avg # of iterations =  1.4

     negative rho (up, down):  5.302E-03 0.000E+00
 
     Adding external electric field

     Computed dipole along edir(3) : 
        Dipole               -3.5210 Ry au,         -8.9494 Debye
        Dipole field         -0.0066 Ry au, 
 
        Potential amp.        0.6159 Ry
        Total length         46.3494 bohr
 

     total cpu time spent up to now is      349.3 secs

     total energy              =   -2939.62784340 Ry
     estimated scf accuracy    <      24.78117239 Ry

     iteration #  9     ecut=    29.40 Ry     beta= 0.05
     Davidson diagonalization with overlap
     ethr =  6.27E-03,  avg # of iterations =  4.2

     negative rho (up, down):  5.059E-03 0.000E+00
 
     Adding external electric field

     Computed dipole along edir(3) : 
        Dipole               -0.5977 Ry au,         -1.5192 Debye
        Dipole field         -0.0011 Ry au, 
 
        Potential amp.        0.1046 Ry
        Total length         46.3494 bohr
 

     total cpu time spent up to now is      369.0 secs

     total energy              =   -2941.37553874 Ry
     estimated scf accuracy    <      50.99023968 Ry

     iteration # 10     ecut=    29.40 Ry     beta= 0.05
     Davidson diagonalization with overlap
     ethr =  6.27E-03,  avg # of iterations =  7.6

     negative rho (up, down):  4.848E-03 0.000E+00
 
     Adding external electric field

     Computed dipole along edir(3) : 
        Dipole               -0.2501 Ry au,         -0.6356 Debye
        Dipole field         -0.0005 Ry au, 
 
        Potential amp.        0.0437 Ry
        Total length         46.3494 bohr
 

     total cpu time spent up to now is      391.3 secs

     total energy              =   -2945.78698976 Ry
     estimated scf accuracy    <     856.55343023 Ry

     iteration # 11     ecut=    29.40 Ry     beta= 0.05
     Davidson diagonalization with overlap
     ethr =  6.27E-03,  avg # of iterations =  1.6

     negative rho (up, down):  4.756E-03 0.000E+00
 
     Adding external electric field

     Computed dipole along edir(3) : 
        Dipole               -2.0051 Ry au,         -5.0964 Debye
        Dipole field         -0.0038 Ry au, 
 
        Potential amp.        0.3508 Ry
        Total length         46.3494 bohr
 

     total cpu time spent up to now is      409.1 secs

     total energy              =   -2936.59237667 Ry
     estimated scf accuracy    <     619.83325295 Ry

     iteration # 12     ecut=    29.40 Ry     beta= 0.05
     Davidson diagonalization with overlap
     ethr =  6.27E-03,  avg # of iterations =  2.0

     negative rho (up, down):  4.768E-03 0.000E+00
 
     Adding external electric field

     Computed dipole along edir(3) : 
        Dipole               -3.0067 Ry au,         -7.6422 Debye
        Dipole field         -0.0057 Ry au, 
 
        Potential amp.        0.5260 Ry
        Total length         46.3494 bohr
 

     total cpu time spent up to now is      427.2 secs

     total energy              =   -2935.67230884 Ry
     estimated scf accuracy    <     236.52907279 Ry

     iteration # 13     ecut=    29.40 Ry     beta= 0.05
     Davidson diagonalization with overlap
     ethr =  6.27E-03,  avg # of iterations =  3.4

     negative rho (up, down):  4.721E-03 0.000E+00
 
     Adding external electric field

     Computed dipole along edir(3) : 
        Dipole               -4.3533 Ry au,        -11.0651 Debye
        Dipole field         -0.0082 Ry au, 
 
        Potential amp.        0.7616 Ry
        Total length         46.3494 bohr
 

     total cpu time spent up to now is      445.9 secs

     total energy              =   -2932.17604802 Ry
     estimated scf accuracy    <     183.90659850 Ry

     iteration # 14     ecut=    29.40 Ry     beta= 0.05
     Davidson diagonalization with overlap
     c_bands:  1 eigenvalues not converged
     ethr =  6.27E-03,  avg # of iterations = 13.8

     negative rho (up, down):  4.711E-03 0.000E+00
 
     Adding external electric field

     Computed dipole along edir(3) : 
        Dipole               -5.4907 Ry au,        -13.9560 Debye
        Dipole field         -0.0104 Ry au, 
 
        Potential amp.        0.9605 Ry
        Total length         46.3494 bohr
 

     total cpu time spent up to now is      477.2 secs

     total energy              =   -2940.75797784 Ry
     estimated scf accuracy    <      16.26774004 Ry

     iteration # 15     ecut=    29.40 Ry     beta= 0.05
     Davidson diagonalization with overlap
     ethr =  4.12E-03,  avg # of iterations =  3.5

     negative rho (up, down):  4.624E-03 0.000E+00
 
     Adding external electric field

     Computed dipole along edir(3) : 
        Dipole               -5.4486 Ry au,        -13.8490 Debye
        Dipole field         -0.0103 Ry au, 
 
        Potential amp.        0.9532 Ry
        Total length         46.3494 bohr
 

     total cpu time spent up to now is      496.5 secs

     total energy              =   -2941.28522487 Ry
     estimated scf accuracy    <     132.32113433 Ry

     iteration # 16     ecut=    29.40 Ry     beta= 0.05
     Davidson diagonalization with overlap
     ethr =  4.12E-03,  avg # of iterations =  1.5

     negative rho (up, down):  4.905E-03 0.000E+00
 
     Adding external electric field

     Computed dipole along edir(3) : 
        Dipole               -5.3218 Ry au,        -13.5268 Debye
        Dipole field         -0.0100 Ry au, 
 
        Potential amp.        0.9310 Ry
        Total length         46.3494 bohr
 

     total cpu time spent up to now is      514.4 secs

     total energy              =   -2941.01964249 Ry
     estimated scf accuracy    <     115.85388459 Ry

     iteration # 17     ecut=    29.40 Ry     beta= 0.05
     Davidson diagonalization with overlap
     ethr =  4.12E-03,  avg # of iterations =  1.5

     negative rho (up, down):  6.481E-03 0.000E+00
 
     Adding external electric field

     Computed dipole along edir(3) : 
        Dipole               -5.1065 Ry au,        -12.9794 Debye
        Dipole field         -0.0096 Ry au, 
 
        Potential amp.        0.8933 Ry
        Total length         46.3494 bohr
 

     total cpu time spent up to now is      531.9 secs

     total energy              =   -2941.81321281 Ry
     estimated scf accuracy    <      68.64706587 Ry

     iteration # 18     ecut=    29.40 Ry     beta= 0.05
     Davidson diagonalization with overlap
     ethr =  4.12E-03,  avg # of iterations =  2.5

     negative rho (up, down):  5.099E-03 0.000E+00
 
     Adding external electric field

     Computed dipole along edir(3) : 
        Dipole               -3.4434 Ry au,         -8.7522 Debye
        Dipole field         -0.0065 Ry au, 
 
        Potential amp.        0.6024 Ry
        Total length         46.3494 bohr
 

     total cpu time spent up to now is      550.5 secs

     total energy              =   -2939.11015673 Ry
     estimated scf accuracy    <     177.39121262 Ry

     iteration # 19     ecut=    29.40 Ry     beta= 0.05
     Davidson diagonalization with overlap
     ethr =  4.12E-03,  avg # of iterations =  2.1

     negative rho (up, down):  6.799E-03 0.000E+00
 
     Adding external electric field

     Computed dipole along edir(3) : 
        Dipole               -2.2945 Ry au,         -5.8321 Debye
        Dipole field         -0.0043 Ry au, 
 
        Potential amp.        0.4014 Ry
        Total length         46.3494 bohr
 

     total cpu time spent up to now is      568.8 secs

     total energy              =   -2940.20852108 Ry
     estimated scf accuracy    <      20.70276954 Ry

     iteration # 20     ecut=    29.40 Ry     beta= 0.05
     Davidson diagonalization with overlap
     ethr =  4.12E-03,  avg # of iterations =  1.0

     negative rho (up, down):  5.553E-03 0.000E+00
 
     Adding external electric field

     Computed dipole along edir(3) : 
        Dipole               -4.1893 Ry au,        -10.6482 Debye
        Dipole field         -0.0079 Ry au, 
 
        Potential amp.        0.7329 Ry
        Total length         46.3494 bohr
 

     total cpu time spent up to now is      585.9 secs

     total energy              =   -2939.86088924 Ry
     estimated scf accuracy    <      19.20557588 Ry

     iteration # 21     ecut=    29.40 Ry     beta= 0.05
     Davidson diagonalization with overlap
     ethr =  4.12E-03,  avg # of iterations =  1.0

     negative rho (up, down):  4.267E-03 0.000E+00
 
     Adding external electric field

     Computed dipole along edir(3) : 
        Dipole               -2.4322 Ry au,         -6.1821 Debye
        Dipole field         -0.0046 Ry au, 
 
        Potential amp.        0.4255 Ry
        Total length         46.3494 bohr
 

     total cpu time spent up to now is      603.0 secs

     total energy              =   -2939.63837086 Ry
     estimated scf accuracy    <      36.16360085 Ry

     iteration # 22     ecut=    29.40 Ry     beta= 0.05
     Davidson diagonalization with overlap
     ethr =  4.12E-03,  avg # of iterations =  1.0

     negative rho (up, down):  4.103E-03 0.000E+00
 
     Adding external electric field

     Computed dipole along edir(3) : 
        Dipole               -4.0150 Ry au,        -10.2052 Debye
        Dipole field         -0.0076 Ry au, 
 
        Potential amp.        0.7024 Ry
        Total length         46.3494 bohr
 

     total cpu time spent up to now is      620.2 secs

     total energy              =   -2939.07817995 Ry
     estimated scf accuracy    <       5.65938416 Ry

     iteration # 23     ecut=    29.40 Ry     beta= 0.05
     Davidson diagonalization with overlap
     ethr =  1.43E-03,  avg # of iterations =  3.1

     negative rho (up, down):  3.077E-03 0.000E+00
 
     Adding external electric field

     Computed dipole along edir(3) : 
        Dipole               -1.4516 Ry au,         -3.6897 Debye
        Dipole field         -0.0027 Ry au, 
 
        Potential amp.        0.2539 Ry
        Total length         46.3494 bohr
 

     total cpu time spent up to now is      639.6 secs

     total energy              =   -2938.66086012 Ry
     estimated scf accuracy    <      14.71966005 Ry

     iteration # 24     ecut=    29.40 Ry     beta= 0.05
     Davidson diagonalization with overlap
     ethr =  1.43E-03,  avg # of iterations = 11.7

     negative rho (up, down):  3.225E-03 0.000E+00
 
     Adding external electric field

     Computed dipole along edir(3) : 
        Dipole               -1.5370 Ry au,         -3.9068 Debye
        Dipole field         -0.0029 Ry au, 
 
        Potential amp.        0.2689 Ry
        Total length         46.3494 bohr
 

     total cpu time spent up to now is      664.5 secs

     total energy              =   -2939.03502273 Ry
     estimated scf accuracy    <       4.03242338 Ry

     iteration # 25     ecut=    29.40 Ry     beta= 0.05
     Davidson diagonalization with overlap
     ethr =  1.02E-03,  avg # of iterations =  5.5

     negative rho (up, down):  3.183E-03 0.000E+00
 
     Adding external electric field

     Computed dipole along edir(3) : 
        Dipole               -1.1087 Ry au,         -2.8181 Debye
        Dipole field         -0.0021 Ry au, 
 
        Potential amp.        0.1940 Ry
        Total length         46.3494 bohr
 

     total cpu time spent up to now is      684.7 secs

     total energy              =   -2939.29984966 Ry
     estimated scf accuracy    <       1.05773679 Ry

     iteration # 26     ecut=    29.40 Ry     beta= 0.05
     Davidson diagonalization with overlap
     c_bands:  4 eigenvalues not converged
     c_bands:  4 eigenvalues not converged
     c_bands:  5 eigenvalues not converged
     c_bands:  1 eigenvalues not converged
     c_bands:  2 eigenvalues not converged
     c_bands:  5 eigenvalues not converged
     c_bands:  3 eigenvalues not converged
     c_bands:  1 eigenvalues not converged
     c_bands:  1 eigenvalues not converged
     ethr =  2.68E-04,  avg # of iterations = 19.9

     negative rho (up, down):  2.970E-03 0.000E+00
 
     Adding external electric field

     Computed dipole along edir(3) : 
        Dipole               -0.8319 Ry au,         -2.1144 Debye
        Dipole field         -0.0016 Ry au, 
 
        Potential amp.        0.1455 Ry
        Total length         46.3494 bohr
 

     total cpu time spent up to now is      714.8 secs

     total energy              =   -2939.36379901 Ry
     estimated scf accuracy    <       1.83820648 Ry

     iteration # 27     ecut=    29.40 Ry     beta= 0.05
     Davidson diagonalization with overlap
     c_bands:  1 eigenvalues not converged
     ethr =  2.68E-04,  avg # of iterations =  4.7

     negative rho (up, down):  2.946E-03 0.000E+00
 
     Adding external electric field

     Computed dipole along edir(3) : 
        Dipole               -0.7092 Ry au,         -1.8026 Debye
        Dipole field         -0.0013 Ry au, 
 
        Potential amp.        0.1241 Ry
        Total length         46.3494 bohr
 

     total cpu time spent up to now is      734.3 secs

     total energy              =   -2939.31007796 Ry
     estimated scf accuracy    <       2.01500581 Ry

     iteration # 28     ecut=    29.40 Ry     beta= 0.05
     Davidson diagonalization with overlap
     ethr =  2.68E-04,  avg # of iterations =  5.0

     negative rho (up, down):  2.738E-03 0.000E+00
 
     Adding external electric field

     Computed dipole along edir(3) : 
        Dipole               -0.4632 Ry au,         -1.1773 Debye
        Dipole field         -0.0009 Ry au, 
 
        Potential amp.        0.0810 Ry
        Total length         46.3494 bohr
 

     total cpu time spent up to now is      754.0 secs

     total energy              =   -2939.28217812 Ry
     estimated scf accuracy    <       1.96688186 Ry

     iteration # 29     ecut=    29.40 Ry     beta= 0.05
     Davidson diagonalization with overlap
     c_bands:  1 eigenvalues not converged
     c_bands:  2 eigenvalues not converged
     c_bands:  2 eigenvalues not converged
     ethr =  2.68E-04,  avg # of iterations = 16.2

     negative rho (up, down):  2.460E-03 0.000E+00
 
     Adding external electric field

     Computed dipole along edir(3) : 
        Dipole                0.0562 Ry au,          0.1430 Debye
        Dipole field          0.0001 Ry au, 
 
        Potential amp.       -0.0098 Ry
        Total length         46.3494 bohr
 

     total cpu time spent up to now is      781.0 secs

     total energy              =   -2939.70809218 Ry
     estimated scf accuracy    <      11.58304884 Ry

     iteration # 30     ecut=    29.40 Ry     beta= 0.05
     Davidson diagonalization with overlap
     c_bands:  2 eigenvalues not converged
     c_bands:  2 eigenvalues not converged
     c_bands:  3 eigenvalues not converged
     c_bands:  1 eigenvalues not converged
     c_bands:  1 eigenvalues not converged
     c_bands:  2 eigenvalues not converged
     c_bands:  2 eigenvalues not converged
     c_bands:  1 eigenvalues not converged
     ethr =  2.68E-04,  avg # of iterations = 21.0

     negative rho (up, down):  2.326E-03 0.000E+00
 
     Adding external electric field

     Computed dipole along edir(3) : 
        Dipole                0.4906 Ry au,          1.2471 Debye
        Dipole field          0.0009 Ry au, 
 
        Potential amp.       -0.0858 Ry
        Total length         46.3494 bohr
 

     total cpu time spent up to now is      812.8 secs

     total energy              =   -2940.64747374 Ry
     estimated scf accuracy    <     121.00709252 Ry

     iteration # 31     ecut=    29.40 Ry     beta= 0.05
     Davidson diagonalization with overlap
     c_bands:  1 eigenvalues not converged
     ethr =  2.68E-04,  avg # of iterations =  6.2

     negative rho (up, down):  3.066E-03 0.000E+00
 
     Adding external electric field

     Computed dipole along edir(3) : 
        Dipole               -1.1054 Ry au,         -2.8097 Debye
        Dipole field         -0.0021 Ry au, 
 
        Potential amp.        0.1934 Ry
        Total length         46.3494 bohr
 

     total cpu time spent up to now is      832.8 secs

     total energy              =   -2937.18888209 Ry
     estimated scf accuracy    <     193.24822744 Ry

     iteration # 32     ecut=    29.40 Ry     beta= 0.05
     Davidson diagonalization with overlap
     ethr =  2.68E-04,  avg # of iterations = 12.6

     negative rho (up, down):  2.874E-03 0.000E+00
 
     Adding external electric field

     Computed dipole along edir(3) : 
        Dipole               -0.7575 Ry au,         -1.9254 Debye
        Dipole field         -0.0014 Ry au, 
 
        Potential amp.        0.1325 Ry
        Total length         46.3494 bohr
 

     total cpu time spent up to now is      860.5 secs

     total energy              =   -2939.22839077 Ry
     estimated scf accuracy    <       1.19191362 Ry

     iteration # 33     ecut=    29.40 Ry     beta= 0.05
     Davidson diagonalization with overlap
     ethr =  2.68E-04,  avg # of iterations =  2.0

     negative rho (up, down):  2.583E-03 0.000E+00
 
     Adding external electric field

     Computed dipole along edir(3) : 
        Dipole                0.8591 Ry au,          2.1835 Debye
        Dipole field          0.0016 Ry au, 
 
        Potential amp.       -0.1503 Ry
        Total length         46.3494 bohr
 

     total cpu time spent up to now is      879.2 secs

     total energy              =   -2939.31416417 Ry
     estimated scf accuracy    <       1.16088228 Ry

     iteration # 34     ecut=    29.40 Ry     beta= 0.05
     Davidson diagonalization with overlap
     c_bands:  2 eigenvalues not converged
     c_bands:  2 eigenvalues not converged
     c_bands:  2 eigenvalues not converged
     c_bands:  1 eigenvalues not converged
     c_bands:  1 eigenvalues not converged
     c_bands:  2 eigenvalues not converged
     ethr =  2.68E-04,  avg # of iterations = 19.4

     negative rho (up, down):  3.023E-03 0.000E+00
 
     Adding external electric field

     Computed dipole along edir(3) : 
        Dipole               -0.5393 Ry au,         -1.3707 Debye
        Dipole field         -0.0010 Ry au, 
 
        Potential amp.        0.0943 Ry
        Total length         46.3494 bohr
 

     total cpu time spent up to now is      915.3 secs

     total energy              =   -2937.80695305 Ry
     estimated scf accuracy    <     176.97392943 Ry

     iteration # 35     ecut=    29.40 Ry     beta= 0.05
     Davidson diagonalization with overlap
     ethr =  2.68E-04,  avg # of iterations = 15.1

     negative rho (up, down):  2.967E-03 0.000E+00
 
     Adding external electric field

     Computed dipole along edir(3) : 
        Dipole               -0.4277 Ry au,         -1.0872 Debye
        Dipole field         -0.0008 Ry au, 
 
        Potential amp.        0.0748 Ry
        Total length         46.3494 bohr
 

     total cpu time spent up to now is      946.8 secs

     total energy              =   -2939.16590940 Ry
     estimated scf accuracy    <       0.89427755 Ry

     iteration # 36     ecut=    29.40 Ry     beta= 0.05
     Davidson diagonalization with overlap
     ethr =  2.26E-04,  avg # of iterations =  3.9

     negative rho (up, down):  2.807E-03 0.000E+00
 
     Adding external electric field

     Computed dipole along edir(3) : 
        Dipole                0.3503 Ry au,          0.8904 Debye
        Dipole field          0.0007 Ry au, 
 
        Potential amp.       -0.0613 Ry
        Total length         46.3494 bohr
 

     total cpu time spent up to now is      966.0 secs

     total energy              =   -2939.13201929 Ry
     estimated scf accuracy    <       0.51427252 Ry

     iteration # 37     ecut=    29.40 Ry     beta= 0.05
     Davidson diagonalization with overlap
     ethr =  1.30E-04,  avg # of iterations =  5.7

     negative rho (up, down):  2.757E-03 0.000E+00
 
     Adding external electric field

     Computed dipole along edir(3) : 
        Dipole                0.6944 Ry au,          1.7650 Debye
        Dipole field          0.0013 Ry au, 
 
        Potential amp.       -0.1215 Ry
        Total length         46.3494 bohr
 

     total cpu time spent up to now is      987.0 secs

     total energy              =   -2939.18809351 Ry
     estimated scf accuracy    <       0.37146888 Ry

     iteration # 38     ecut=    29.40 Ry     beta= 0.05
     Davidson diagonalization with overlap
     ethr =  9.40E-05,  avg # of iterations =  6.5

     negative rho (up, down):  2.816E-03 0.000E+00
 
     Adding external electric field

     Computed dipole along edir(3) : 
        Dipole                1.0568 Ry au,          2.6861 Debye
        Dipole field          0.0020 Ry au, 
 
        Potential amp.       -0.1849 Ry
        Total length         46.3494 bohr
 

     total cpu time spent up to now is     1008.0 secs

     total energy              =   -2939.23902094 Ry
     estimated scf accuracy    <       2.97578620 Ry

     iteration # 39     ecut=    29.40 Ry     beta= 0.05
     Davidson diagonalization with overlap
     ethr =  9.40E-05,  avg # of iterations =  2.5

     negative rho (up, down):  2.955E-03 0.000E+00
 
     Adding external electric field

     Computed dipole along edir(3) : 
        Dipole                0.7324 Ry au,          1.8615 Debye
        Dipole field          0.0014 Ry au, 
 
        Potential amp.       -0.1281 Ry
        Total length         46.3494 bohr
 

     total cpu time spent up to now is     1026.6 secs

     total energy              =   -2939.07174187 Ry
     estimated scf accuracy    <       6.11894531 Ry

     iteration # 40     ecut=    29.40 Ry     beta= 0.05
     Davidson diagonalization with overlap
     ethr =  9.40E-05,  avg # of iterations =  6.1

     negative rho (up, down):  3.962E-03 0.000E+00
 
     Adding external electric field

     Computed dipole along edir(3) : 
        Dipole                1.1521 Ry au,          2.9283 Debye
        Dipole field          0.0022 Ry au, 
 
        Potential amp.       -0.2015 Ry
        Total length         46.3494 bohr
 

     total cpu time spent up to now is     1047.3 secs

     total energy              =   -2939.17486162 Ry
     estimated scf accuracy    <       0.37336215 Ry

     iteration # 41     ecut=    29.40 Ry     beta= 0.05
     Davidson diagonalization with overlap
     ethr =  9.40E-05,  avg # of iterations =  2.0

     negative rho (up, down):  6.428E-03 0.000E+00
 
     Adding external electric field

     Computed dipole along edir(3) : 
        Dipole                1.4163 Ry au,          3.5999 Debye
        Dipole field          0.0027 Ry au, 
 
        Potential amp.       -0.2478 Ry
        Total length         46.3494 bohr
 

     total cpu time spent up to now is     1065.9 secs

     total energy              =   -2939.18548630 Ry
     estimated scf accuracy    <       0.43117497 Ry

     iteration # 42     ecut=    29.40 Ry     beta= 0.05
     Davidson diagonalization with overlap
     ethr =  9.40E-05,  avg # of iterations =  5.7

     negative rho (up, down):  4.924E-03 0.000E+00
 
     Adding external electric field

     Computed dipole along edir(3) : 
        Dipole                1.3885 Ry au,          3.5292 Debye
        Dipole field          0.0026 Ry au, 
 
        Potential amp.       -0.2429 Ry
        Total length         46.3494 bohr
 

     total cpu time spent up to now is     1086.7 secs

     total energy              =   -2939.21631383 Ry
     estimated scf accuracy    <       1.47464937 Ry

     iteration # 43     ecut=    29.40 Ry     beta= 0.05
     Davidson diagonalization with overlap
     ethr =  9.40E-05,  avg # of iterations =  2.0

     negative rho (up, down):  4.818E-03 0.000E+00
 
     Adding external electric field

     Computed dipole along edir(3) : 
        Dipole                1.3117 Ry au,          3.3339 Debye
        Dipole field          0.0025 Ry au, 
 
        Potential amp.       -0.2295 Ry
        Total length         46.3494 bohr
 

     total cpu time spent up to now is     1105.4 secs

     total energy              =   -2939.20012832 Ry
     estimated scf accuracy    <       3.55558132 Ry

     iteration # 44     ecut=    29.40 Ry     beta= 0.05
     Davidson diagonalization with overlap
     ethr =  9.40E-05,  avg # of iterations =  1.0

     negative rho (up, down):  5.346E-03 0.000E+00
 
     Adding external electric field

     Computed dipole along edir(3) : 
        Dipole                1.0792 Ry au,          2.7430 Debye
        Dipole field          0.0020 Ry au, 
 
        Potential amp.       -0.1888 Ry
        Total length         46.3494 bohr
 

     total cpu time spent up to now is     1122.7 secs

     total energy              =   -2939.16222033 Ry
     estimated scf accuracy    <       1.78076368 Ry

     iteration # 45     ecut=    29.40 Ry     beta= 0.05
     Davidson diagonalization with overlap
     ethr =  9.40E-05,  avg # of iterations =  2.0

     negative rho (up, down):  7.380E-03 0.000E+00
 
     Adding external electric field

     Computed dipole along edir(3) : 
        Dipole                0.8764 Ry au,          2.2277 Debye
        Dipole field          0.0017 Ry au, 
 
        Potential amp.       -0.1533 Ry
        Total length         46.3494 bohr
 

     total cpu time spent up to now is     1140.8 secs

     total energy              =   -2939.16397376 Ry
     estimated scf accuracy    <       0.47984781 Ry

     iteration # 46     ecut=    29.40 Ry     beta= 0.05
     Davidson diagonalization with overlap
     ethr =  9.40E-05,  avg # of iterations =  6.2

     negative rho (up, down):  7.540E-03 0.000E+00
 
     Adding external electric field

     Computed dipole along edir(3) : 
        Dipole                0.9651 Ry au,          2.4530 Debye
        Dipole field          0.0018 Ry au, 
 
        Potential amp.       -0.1688 Ry
        Total length         46.3494 bohr
 

     total cpu time spent up to now is     1161.1 secs

     total energy              =   -2939.17496830 Ry
     estimated scf accuracy    <       0.24045178 Ry

     iteration # 47     ecut=    29.40 Ry     beta= 0.05
     Davidson diagonalization with overlap
     ethr =  6.09E-05,  avg # of iterations =  2.6

     negative rho (up, down):  8.817E-03 0.000E+00
 
     Adding external electric field

     Computed dipole along edir(3) : 
        Dipole                0.9680 Ry au,          2.4603 Debye
        Dipole field          0.0018 Ry au, 
 
        Potential amp.       -0.1693 Ry
        Total length         46.3494 bohr
 

     total cpu time spent up to now is     1179.8 secs

     total energy              =   -2939.17435624 Ry
     estimated scf accuracy    <       0.35023525 Ry

     iteration # 48     ecut=    29.40 Ry     beta= 0.05
     Davidson diagonalization with overlap
     ethr =  6.09E-05,  avg # of iterations =  1.3

     negative rho (up, down):  5.813E-03 0.000E+00
 
     Adding external electric field

     Computed dipole along edir(3) : 
        Dipole                0.9743 Ry au,          2.4763 Debye
        Dipole field          0.0018 Ry au, 
 
        Potential amp.       -0.1704 Ry
        Total length         46.3494 bohr
 

     total cpu time spent up to now is     1197.3 secs

     total energy              =   -2939.16777264 Ry
     estimated scf accuracy    <       0.28104223 Ry

     iteration # 49     ecut=    29.40 Ry     beta= 0.05
     Davidson diagonalization with overlap
     ethr =  6.09E-05,  avg # of iterations =  2.0

     negative rho (up, down):  6.127E-03 0.000E+00
 
     Adding external electric field

     Computed dipole along edir(3) : 
        Dipole                0.8465 Ry au,          2.1515 Debye
        Dipole field          0.0016 Ry au, 
 
        Potential amp.       -0.1481 Ry
        Total length         46.3494 bohr
 

     total cpu time spent up to now is     1216.0 secs

     total energy              =   -2939.17489423 Ry
     estimated scf accuracy    <       0.26547652 Ry

     iteration # 50     ecut=    29.40 Ry     beta= 0.05
     Davidson diagonalization with overlap
     ethr =  6.09E-05,  avg # of iterations =  1.1

     negative rho (up, down):  5.812E-03 0.000E+00
 
     Adding external electric field

     Computed dipole along edir(3) : 
        Dipole                0.9030 Ry au,          2.2952 Debye
        Dipole field          0.0017 Ry au, 
 
        Potential amp.       -0.1580 Ry
        Total length         46.3494 bohr
 

     total cpu time spent up to now is     1233.4 secs

     total energy              =   -2939.16955278 Ry
     estimated scf accuracy    <       0.31664005 Ry

     iteration # 51     ecut=    29.40 Ry     beta= 0.05
     Davidson diagonalization with overlap
     ethr =  6.09E-05,  avg # of iterations =  2.3

     negative rho (up, down):  5.622E-03 0.000E+00
 
     Adding external electric field

     Computed dipole along edir(3) : 
        Dipole                0.7315 Ry au,          1.8592 Debye
        Dipole field          0.0014 Ry au, 
 
        Potential amp.       -0.1280 Ry
        Total length         46.3494 bohr
 

     total cpu time spent up to now is     1252.1 secs

     total energy              =   -2939.16472000 Ry
     estimated scf accuracy    <       0.25442278 Ry

     iteration # 52     ecut=    29.40 Ry     beta= 0.05
     Davidson diagonalization with overlap
     ethr =  6.09E-05,  avg # of iterations =  3.3

     negative rho (up, down):  5.769E-03 0.000E+00
 
     Adding external electric field

     Computed dipole along edir(3) : 
        Dipole                0.7718 Ry au,          1.9617 Debye
        Dipole field          0.0015 Ry au, 
 
        Potential amp.       -0.1350 Ry
        Total length         46.3494 bohr
 

     total cpu time spent up to now is     1271.1 secs

     total energy              =   -2939.16748999 Ry
     estimated scf accuracy    <       0.14660394 Ry

     iteration # 53     ecut=    29.40 Ry     beta= 0.05
     Davidson diagonalization with overlap
     ethr =  3.71E-05,  avg # of iterations =  2.4

     negative rho (up, down):  8.815E-03 0.000E+00
 
     Adding external electric field

     Computed dipole along edir(3) : 
        Dipole                0.1816 Ry au,          0.4615 Debye
        Dipole field          0.0003 Ry au, 
 
        Potential amp.       -0.0318 Ry
        Total length         46.3494 bohr
 

     total cpu time spent up to now is     1289.6 secs

     total energy              =   -2939.15387647 Ry
     estimated scf accuracy    <       0.20506596 Ry

     iteration # 54     ecut=    29.40 Ry     beta= 0.05
     Davidson diagonalization with overlap
     ethr =  3.71E-05,  avg # of iterations = 15.1

     negative rho (up, down):  3.944E-03 0.000E+00
 
     Adding external electric field

     Computed dipole along edir(3) : 
        Dipole                0.4759 Ry au,          1.2095 Debye
        Dipole field          0.0009 Ry au, 
 
        Potential amp.       -0.0832 Ry
        Total length         46.3494 bohr
 

     total cpu time spent up to now is     1319.8 secs

     total energy              =   -2939.13438107 Ry
     estimated scf accuracy    <       0.16786052 Ry

     iteration # 55     ecut=    29.40 Ry     beta= 0.05
     Davidson diagonalization with overlap
     ethr =  3.71E-05,  avg # of iterations =  8.9

     negative rho (up, down):  7.267E-03 0.000E+00
 
     Adding external electric field

     Computed dipole along edir(3) : 
        Dipole                0.6810 Ry au,          1.7308 Debye
        Dipole field          0.0013 Ry au, 
 
        Potential amp.       -0.1191 Ry
        Total length         46.3494 bohr
 

     total cpu time spent up to now is     1343.6 secs

     total energy              =   -2939.14301246 Ry
     estimated scf accuracy    <       0.07056770 Ry

     iteration # 56     ecut=    29.40 Ry     beta= 0.05
     Davidson diagonalization with overlap
     ethr =  1.79E-05,  avg # of iterations =  8.2

     negative rho (up, down):  9.790E-03 0.000E+00
 
     Adding external electric field

     Computed dipole along edir(3) : 
        Dipole                0.7304 Ry au,          1.8565 Debye
        Dipole field          0.0014 Ry au, 
 
        Potential amp.       -0.1278 Ry
        Total length         46.3494 bohr
 

     total cpu time spent up to now is     1366.4 secs

     total energy              =   -2939.15219335 Ry
     estimated scf accuracy    <       0.04371251 Ry

     iteration # 57     ecut=    29.40 Ry     beta= 0.05
     Davidson diagonalization with overlap
     ethr =  1.11E-05,  avg # of iterations =  9.9

     negative rho (up, down):  9.965E-03 0.000E+00
 
     Adding external electric field

     Computed dipole along edir(3) : 
        Dipole                0.7014 Ry au,          1.7828 Debye
        Dipole field          0.0013 Ry au, 
 
        Potential amp.       -0.1227 Ry
        Total length         46.3494 bohr
 

     total cpu time spent up to now is     1389.4 secs

     total energy              =   -2939.15390198 Ry
     estimated scf accuracy    <       0.01179641 Ry

     iteration # 58     ecut=    29.40 Ry     beta= 0.05
     Davidson diagonalization with overlap
     c_bands:  1 eigenvalues not converged
     c_bands:  3 eigenvalues not converged
     c_bands:  1 eigenvalues not converged
     ethr =  2.99E-06,  avg # of iterations = 14.9

     negative rho (up, down):  1.058E-02 0.000E+00
 
     Adding external electric field

     Computed dipole along edir(3) : 
        Dipole                0.6997 Ry au,          1.7783 Debye
        Dipole field          0.0013 Ry au, 
 
        Potential amp.       -0.1224 Ry
        Total length         46.3494 bohr
 

     total cpu time spent up to now is     1417.0 secs

     total energy              =   -2939.15416851 Ry
     estimated scf accuracy    <       0.00888157 Ry

     iteration # 59     ecut=    29.40 Ry     beta= 0.05
     Davidson diagonalization with overlap
     c_bands:  1 eigenvalues not converged
     ethr =  2.25E-06,  avg # of iterations =  9.0

     negative rho (up, down):  1.417E-02 0.000E+00
 
     Adding external electric field

     Computed dipole along edir(3) : 
        Dipole                0.7992 Ry au,          2.0313 Debye
        Dipole field          0.0015 Ry au, 
 
        Potential amp.       -0.1398 Ry
        Total length         46.3494 bohr
 

     total cpu time spent up to now is     1439.1 secs

     total energy              =   -2939.15457722 Ry
     estimated scf accuracy    <       0.00448489 Ry

     iteration # 60     ecut=    29.40 Ry     beta= 0.05
     Davidson diagonalization with overlap
     c_bands:  2 eigenvalues not converged
     c_bands:  1 eigenvalues not converged
     c_bands:  2 eigenvalues not converged
     ethr =  1.14E-06,  avg # of iterations = 12.9

     negative rho (up, down):  1.337E-02 0.000E+00
 
     Adding external electric field

     Computed dipole along edir(3) : 
        Dipole                0.7240 Ry au,          1.8401 Debye
        Dipole field          0.0014 Ry au, 
 
        Potential amp.       -0.1266 Ry
        Total length         46.3494 bohr
 

     total cpu time spent up to now is     1467.2 secs

     total energy              =   -2939.15446468 Ry
     estimated scf accuracy    <       0.00401455 Ry

     iteration # 61     ecut=    29.40 Ry     beta= 0.05
     Davidson diagonalization with overlap
     ethr =  1.02E-06,  avg # of iterations = 12.9

     negative rho (up, down):  1.454E-02 0.000E+00
 
     Adding external electric field

     Computed dipole along edir(3) : 
        Dipole                0.6624 Ry au,          1.6837 Debye
        Dipole field          0.0013 Ry au, 
 
        Potential amp.       -0.1159 Ry
        Total length         46.3494 bohr
 

     total cpu time spent up to now is     1491.4 secs

     total energy              =   -2939.15437331 Ry
     estimated scf accuracy    <       0.00140415 Ry

     iteration # 62     ecut=    29.40 Ry     beta= 0.05
     Davidson diagonalization with overlap
     c_bands:  1 eigenvalues not converged
     c_bands:  2 eigenvalues not converged
     c_bands:  5 eigenvalues not converged
     c_bands:  2 eigenvalues not converged
     ethr =  3.55E-07,  avg # of iterations = 17.3

     negative rho (up, down):  1.533E-02 0.000E+00
 
     Adding external electric field

     Computed dipole along edir(3) : 
        Dipole                0.7130 Ry au,          1.8122 Debye
        Dipole field          0.0013 Ry au, 
 
        Potential amp.       -0.1247 Ry
        Total length         46.3494 bohr
 

     total cpu time spent up to now is     1525.8 secs

     total energy              =   -2939.15457403 Ry
     estimated scf accuracy    <       0.00321643 Ry

     iteration # 63     ecut=    29.40 Ry     beta= 0.05
     Davidson diagonalization with overlap
     ethr =  3.55E-07,  avg # of iterations = 11.0

     negative rho (up, down):  1.555E-02 0.000E+00
 
     Adding external electric field

     Computed dipole along edir(3) : 
        Dipole                0.7301 Ry au,          1.8557 Debye
        Dipole field          0.0014 Ry au, 
 
        Potential amp.       -0.1277 Ry
        Total length         46.3494 bohr
 

     total cpu time spent up to now is     1551.5 secs

     total energy              =   -2939.15471202 Ry
     estimated scf accuracy    <       0.00069320 Ry

     iteration # 64     ecut=    29.40 Ry     beta= 0.05
     Davidson diagonalization with overlap
     c_bands:  1 eigenvalues not converged
     ethr =  1.75E-07,  avg # of iterations = 15.1

     negative rho (up, down):  1.581E-02 0.000E+00
 
     Adding external electric field

     Computed dipole along edir(3) : 
        Dipole                0.6902 Ry au,          1.7543 Debye
        Dipole field          0.0013 Ry au, 
 
        Potential amp.       -0.1207 Ry
        Total length         46.3494 bohr
 

     total cpu time spent up to now is     1583.7 secs

     total energy              =   -2939.15464931 Ry
     estimated scf accuracy    <       0.00068387 Ry

     iteration # 65     ecut=    29.40 Ry     beta= 0.05
     Davidson diagonalization with overlap
     ethr =  1.73E-07,  avg # of iterations = 14.0

     negative rho (up, down):  1.625E-02 0.000E+00
 
     Adding external electric field

     Computed dipole along edir(3) : 
        Dipole                0.7104 Ry au,          1.8056 Debye
        Dipole field          0.0013 Ry au, 
 
        Potential amp.       -0.1243 Ry
        Total length         46.3494 bohr
 

     total cpu time spent up to now is     1614.0 secs

     total energy              =   -2939.15475692 Ry
     estimated scf accuracy    <       0.00035542 Ry

     iteration # 66     ecut=    29.40 Ry     beta= 0.05
     Davidson diagonalization with overlap
     ethr =  9.00E-08,  avg # of iterations =  8.7

     negative rho (up, down):  1.625E-02 0.000E+00
 
     Adding external electric field

     Computed dipole along edir(3) : 
        Dipole                0.7155 Ry au,          1.8187 Debye
        Dipole field          0.0014 Ry au, 
 
        Potential amp.       -0.1252 Ry
        Total length         46.3494 bohr
 

     total cpu time spent up to now is     1636.0 secs

     total energy              =   -2939.15477256 Ry
     estimated scf accuracy    <       0.00012631 Ry

     iteration # 67     ecut=    29.40 Ry     beta= 0.05
     Davidson diagonalization with overlap
     ethr =  3.20E-08,  avg # of iterations = 10.2

     negative rho (up, down):  1.620E-02 0.000E+00
 
     Adding external electric field

     Computed dipole along edir(3) : 
        Dipole                0.7159 Ry au,          1.8196 Debye
        Dipole field          0.0014 Ry au, 
 
        Potential amp.       -0.1252 Ry
        Total length         46.3494 bohr
 

     total cpu time spent up to now is     1659.0 secs

     total energy              =   -2939.15477393 Ry
     estimated scf accuracy    <       0.00009067 Ry

     iteration # 68     ecut=    29.40 Ry     beta= 0.05
     Davidson diagonalization with overlap
     ethr =  2.30E-08,  avg # of iterations = 10.1

     negative rho (up, down):  1.590E-02 0.000E+00
 
     Adding external electric field

     Computed dipole along edir(3) : 
        Dipole                0.7088 Ry au,          1.8015 Debye
        Dipole field          0.0013 Ry au, 
 
        Potential amp.       -0.1240 Ry
        Total length         46.3494 bohr
 

     total cpu time spent up to now is     1681.3 secs

     total energy              =   -2939.15476962 Ry
     estimated scf accuracy    <       0.00005848 Ry

     iteration # 69     ecut=    29.40 Ry     beta= 0.05
     Davidson diagonalization with overlap
     ethr =  1.48E-08,  avg # of iterations = 12.4

     negative rho (up, down):  1.565E-02 0.000E+00
 
     Adding external electric field

     Computed dipole along edir(3) : 
        Dipole                0.7071 Ry au,          1.7972 Debye
        Dipole field          0.0013 Ry au, 
 
        Potential amp.       -0.1237 Ry
        Total length         46.3494 bohr
 

     total cpu time spent up to now is     1706.4 secs

     total energy              =   -2939.15477416 Ry
     estimated scf accuracy    <       0.00002499 Ry

     iteration # 70     ecut=    29.40 Ry     beta= 0.05
     Davidson diagonalization with overlap
     c_bands:  1 eigenvalues not converged
     ethr =  6.33E-09,  avg # of iterations =  9.5

     negative rho (up, down):  1.564E-02 0.000E+00
 
     Adding external electric field

     Computed dipole along edir(3) : 
        Dipole                0.7104 Ry au,          1.8058 Debye
        Dipole field          0.0013 Ry au, 
 
        Potential amp.       -0.1243 Ry
        Total length         46.3494 bohr
 

     total cpu time spent up to now is     1729.9 secs

     total energy              =   -2939.15477873 Ry
     estimated scf accuracy    <       0.00001111 Ry

     iteration # 71     ecut=    29.40 Ry     beta= 0.05
     Davidson diagonalization with overlap
     ethr =  2.81E-09,  avg # of iterations = 11.7

     negative rho (up, down):  1.566E-02 0.000E+00
 
     Adding external electric field

     Computed dipole along edir(3) : 
        Dipole                0.7097 Ry au,          1.8039 Debye
        Dipole field          0.0013 Ry au, 
 
        Potential amp.       -0.1242 Ry
        Total length         46.3494 bohr
 

     total cpu time spent up to now is     1755.7 secs

     total energy              =   -2939.15478228 Ry
     estimated scf accuracy    <       0.00000596 Ry

     iteration # 72     ecut=    29.40 Ry     beta= 0.05
     Davidson diagonalization with overlap
     ethr =  1.51E-09,  avg # of iterations =  6.6

     negative rho (up, down):  1.566E-02 0.000E+00
 
     Adding external electric field

     Computed dipole along edir(3) : 
        Dipole                0.7080 Ry au,          1.7996 Debye
        Dipole field          0.0013 Ry au, 
 
        Potential amp.       -0.1239 Ry
        Total length         46.3494 bohr
 

     total cpu time spent up to now is     1776.1 secs

     total energy              =   -2939.15478492 Ry
     estimated scf accuracy    <       0.00000416 Ry

     iteration # 73     ecut=    29.40 Ry     beta= 0.05
     Davidson diagonalization with overlap
     ethr =  1.05E-09,  avg # of iterations = 12.1

     negative rho (up, down):  1.565E-02 0.000E+00
 
     Adding external electric field

     Computed dipole along edir(3) : 
        Dipole                0.7097 Ry au,          1.8038 Debye
        Dipole field          0.0013 Ry au, 
 
        Potential amp.       -0.1241 Ry
        Total length         46.3494 bohr
 

     total cpu time spent up to now is     1808.2 secs

     total energy              =   -2939.15478715 Ry
     estimated scf accuracy    <       0.00000408 Ry

     iteration # 74     ecut=    29.40 Ry     beta= 0.05
     Davidson diagonalization with overlap
     ethr =  1.03E-09,  avg # of iterations =  8.0

     negative rho (up, down):  1.566E-02 0.000E+00
 
     Adding external electric field

     Computed dipole along edir(3) : 
        Dipole                0.7090 Ry au,          1.8021 Debye
        Dipole field          0.0013 Ry au, 
 
        Potential amp.       -0.1240 Ry
        Total length         46.3494 bohr
 

     total cpu time spent up to now is     1831.0 secs

     total energy              =   -2939.15478946 Ry
     estimated scf accuracy    <       0.00000160 Ry

     iteration # 75     ecut=    29.40 Ry     beta= 0.05
     Davidson diagonalization with overlap
     ethr =  4.05E-10,  avg # of iterations =  8.6

     negative rho (up, down):  1.568E-02 0.000E+00
 
     Adding external electric field

     Computed dipole along edir(3) : 
        Dipole                0.7075 Ry au,          1.7982 Debye
        Dipole field          0.0013 Ry au, 
 
        Potential amp.       -0.1238 Ry
        Total length         46.3494 bohr
 

     total cpu time spent up to now is     1852.6 secs

     total energy              =   -2939.15479169 Ry
     estimated scf accuracy    <       0.00000105 Ry

     iteration # 76     ecut=    29.40 Ry     beta= 0.05
     Davidson diagonalization with overlap
     c_bands:  2 eigenvalues not converged
     ethr =  2.66E-10,  avg # of iterations = 12.5

     negative rho (up, down):  1.567E-02 0.000E+00
 
     Adding external electric field

     Computed dipole along edir(3) : 
        Dipole                0.7076 Ry au,          1.7985 Debye
        Dipole field          0.0013 Ry au, 
 
        Potential amp.       -0.1238 Ry
        Total length         46.3494 bohr
 

     total cpu time spent up to now is     1884.7 secs

     total energy              =   -2939.15479347 Ry
     estimated scf accuracy    <       0.00000148 Ry

     iteration # 77     ecut=    29.40 Ry     beta= 0.05
     Davidson diagonalization with overlap
     ethr =  2.66E-10,  avg # of iterations =  1.1

     negative rho (up, down):  1.567E-02 0.000E+00
 
     Adding external electric field

     Computed dipole along edir(3) : 
        Dipole                0.7076 Ry au,          1.7985 Debye
        Dipole field          0.0013 Ry au, 
 
        Potential amp.       -0.1238 Ry
        Total length         46.3494 bohr
 

     total cpu time spent up to now is     1901.8 secs

     total energy              =   -2939.15479485 Ry
     estimated scf accuracy    <       0.00000144 Ry

     iteration # 78     ecut=    29.40 Ry     beta= 0.05
     Davidson diagonalization with overlap
     ethr =  2.66E-10,  avg # of iterations =  1.0

     negative rho (up, down):  1.566E-02 0.000E+00
 
     Adding external electric field

     Computed dipole along edir(3) : 
        Dipole                0.7077 Ry au,          1.7987 Debye
        Dipole field          0.0013 Ry au, 
 
        Potential amp.       -0.1238 Ry
        Total length         46.3494 bohr
 

     total cpu time spent up to now is     1918.9 secs

     total energy              =   -2939.15479579 Ry
     estimated scf accuracy    <       0.00000159 Ry

     iteration # 79     ecut=    29.40 Ry     beta= 0.05
     Davidson diagonalization with overlap
     ethr =  2.66E-10,  avg # of iterations =  7.7

     negative rho (up, down):  1.567E-02 0.000E+00
 
     Adding external electric field

     Computed dipole along edir(3) : 
        Dipole                0.7077 Ry au,          1.7987 Debye
        Dipole field          0.0013 Ry au, 
 
        Potential amp.       -0.1238 Ry
        Total length         46.3494 bohr
 

     total cpu time spent up to now is     1941.9 secs

     total energy              =   -2939.15479699 Ry
     estimated scf accuracy    <       0.00000054 Ry

     iteration # 80     ecut=    29.40 Ry     beta= 0.05
     Davidson diagonalization with overlap
     c_bands:  1 eigenvalues not converged
     c_bands:  1 eigenvalues not converged
     ethr =  1.36E-10,  avg # of iterations = 11.4

     negative rho (up, down):  1.567E-02 0.000E+00
 
     Adding external electric field

     Computed dipole along edir(3) : 
        Dipole                0.7078 Ry au,          1.7992 Debye
        Dipole field          0.0013 Ry au, 
 
        Potential amp.       -0.1238 Ry
        Total length         46.3494 bohr
 

     total cpu time spent up to now is     1966.5 secs

     total energy              =   -2939.15479800 Ry
     estimated scf accuracy    <       0.00000035 Ry

     iteration # 81     ecut=    29.40 Ry     beta= 0.05
     Davidson diagonalization with overlap
     ethr =  8.79E-11,  avg # of iterations =  9.0

     negative rho (up, down):  1.567E-02 0.000E+00
 
     Adding external electric field

     Computed dipole along edir(3) : 
        Dipole                0.7080 Ry au,          1.7996 Debye
        Dipole field          0.0013 Ry au, 
 
        Potential amp.       -0.1239 Ry
        Total length         46.3494 bohr
 

     total cpu time spent up to now is     1989.6 secs

     total energy              =   -2939.15479888 Ry
     estimated scf accuracy    <       0.00000034 Ry

     iteration # 82     ecut=    29.40 Ry     beta= 0.05
     Davidson diagonalization with overlap
     ethr =  8.71E-11,  avg # of iterations = 11.6

     negative rho (up, down):  1.566E-02 0.000E+00
 
     Adding external electric field

     Computed dipole along edir(3) : 
        Dipole                0.7075 Ry au,          1.7984 Debye
        Dipole field          0.0013 Ry au, 
 
        Potential amp.       -0.1238 Ry
        Total length         46.3494 bohr
 

     total cpu time spent up to now is     2013.4 secs

     total energy              =   -2939.15479967 Ry
     estimated scf accuracy    <       0.00000024 Ry

     iteration # 83     ecut=    29.40 Ry     beta= 0.05
     Davidson diagonalization with overlap
     c_bands:  1 eigenvalues not converged
     ethr =  6.01E-11,  avg # of iterations = 15.8

     negative rho (up, down):  1.566E-02 0.000E+00
 
     Adding external electric field

     Computed dipole along edir(3) : 
        Dipole                0.7077 Ry au,          1.7987 Debye
        Dipole field          0.0013 Ry au, 
 
        Potential amp.       -0.1238 Ry
        Total length         46.3494 bohr
 

     total cpu time spent up to now is     2046.9 secs

     total energy              =   -2939.15480043 Ry
     estimated scf accuracy    <       0.00000035 Ry

     iteration # 84     ecut=    29.40 Ry     beta= 0.05
     Davidson diagonalization with overlap
     ethr =  6.01E-11,  avg # of iterations =  8.2

     negative rho (up, down):  1.567E-02 0.000E+00
 
     Adding external electric field

     Computed dipole along edir(3) : 
        Dipole                0.7078 Ry au,          1.7989 Debye
        Dipole field          0.0013 Ry au, 
 
        Potential amp.       -0.1238 Ry
        Total length         46.3494 bohr
 

     total cpu time spent up to now is     2068.8 secs

     total energy              =   -2939.15480108 Ry
     estimated scf accuracy    <       0.00000014 Ry

     iteration # 85     ecut=    29.40 Ry     beta= 0.05
     Davidson diagonalization with overlap
     ethr =  3.47E-11,  avg # of iterations = 12.8

     negative rho (up, down):  1.566E-02 0.000E+00
 
     Adding external electric field

     Computed dipole along edir(3) : 
        Dipole                0.7077 Ry au,          1.7987 Debye
        Dipole field          0.0013 Ry au, 
 
        Potential amp.       -0.1238 Ry
        Total length         46.3494 bohr
 

     total cpu time spent up to now is     2099.3 secs

     total energy              =   -2939.15480169 Ry
     estimated scf accuracy    <       0.00000011 Ry

     iteration # 86     ecut=    29.40 Ry     beta= 0.05
     Davidson diagonalization with overlap
     c_bands:  1 eigenvalues not converged
     ethr =  2.74E-11,  avg # of iterations = 13.2

     negative rho (up, down):  1.566E-02 0.000E+00
 
     Adding external electric field

     Computed dipole along edir(3) : 
        Dipole                0.7079 Ry au,          1.7992 Debye
        Dipole field          0.0013 Ry au, 
 
        Potential amp.       -0.1238 Ry
        Total length         46.3494 bohr
 

     total cpu time spent up to now is     2131.7 secs

     total energy              =   -2939.15480224 Ry
     estimated scf accuracy    <       0.00000013 Ry

     iteration # 87     ecut=    29.40 Ry     beta= 0.05
     Davidson diagonalization with overlap
     ethr =  2.74E-11,  avg # of iterations =  9.6

     negative rho (up, down):  1.565E-02 0.000E+00
 
     Adding external electric field

     Computed dipole along edir(3) : 
        Dipole                0.7080 Ry au,          1.7997 Debye
        Dipole field          0.0013 Ry au, 
 
        Potential amp.       -0.1239 Ry
        Total length         46.3494 bohr
 

     total cpu time spent up to now is     2155.6 secs

     End of self-consistent calculation

          k = 0.0000 0.0000 0.0000 ( 18029 PWs)   bands (ev):

   -55.8952 -55.8801 -55.8612 -55.8442 -55.7955 -55.7300 -55.7041 -55.7035
   -55.6934 -55.6695 -55.6686 -55.6349 -55.2860 -55.0952 -54.8724 -54.8383
   -32.4343 -32.3775 -32.2300 -32.2276 -32.2023 -32.1989 -32.1882 -32.1591
   -32.1377 -32.1242 -32.1024 -32.0666 -32.0608 -32.0474 -32.0335 -32.0198
   -32.0175 -31.9994 -31.9849 -31.9523 -31.9440 -31.9396 -31.8987 -31.8937
   -31.8914 -31.8878 -31.8798 -31.8750 -31.8707 -31.8439 -31.8433 -31.8343
   -31.8331 -31.8215 -31.8100 -31.7807 -31.7778 -31.5662 -31.4594 -31.3573
   -31.3554 -31.3110 -31.2795 -31.1911 -31.1687 -31.0962 -31.0097 -30.8987
   -18.4504 -16.6327 -16.3679 -16.1391 -16.0453 -16.0130 -15.8950 -15.7326
   -15.6151 -15.5602 -15.4627 -15.4433 -15.4304 -15.3983 -15.3801 -15.3747
   -15.3408 -15.3366 -15.3182 -15.3030 -15.2546 -15.2309 -15.2092 -15.1098
   -15.0636 -15.0298 -15.0145 -14.9515 -14.9463 -14.4416 -13.3750 -13.2586
   -11.3615  -6.9296  -4.3477  -4.0025  -3.8926  -3.8622  -3.8472  -3.8005
    -3.7437  -3.6244  -3.4989  -3.4367  -3.1260  -3.0780  -3.0621  -3.0449
    -3.0071  -2.7997  -2.7484  -2.7083  -2.6837  -2.6765  -2.6653  -2.6578
    -2.6461  -2.6075  -2.5054  -2.4361  -2.4290  -2.3433  -2.2934  -2.2699
    -2.2071  -2.1871  -2.1653  -2.1422  -2.1307  -2.1099  -2.0898  -2.0788
    -1.9738  -1.8829  -1.7502  -1.6943  -1.6728  -1.6583  -1.6437  -1.5025
    -1.3697  -1.3377  -1.3287  -1.3199  -1.2865  -1.2745  -1.1916  -1.0628
    -1.0519  -1.0120  -0.9599  -0.9019  -0.8768  -0.7749  -0.7381  -0.6612
    -0.6561  -0.6392  -0.5862  -0.5345  -0.3762  -0.3343  -0.3083  -0.2862
    -0.2617  -0.1909  -0.1694  -0.0529  -0.0356  -0.0180   0.0422   0.0654
     0.0784   0.0882   0.1060   0.1241   0.1416   0.3088   0.3812   0.4335
     0.4570   0.5149   0.6399   0.7088   0.7638   0.8642   1.0753   1.1495
     1.2423   1.3417   1.7208   1.7665   2.6487   3.2443   3.3251   3.3741
     3.3889   3.4859   3.5196   3.6960   3.6973   3.7259   3.7957

          k = 0.0000 0.0419 0.0000 ( 17933 PWs)   bands (ev):

   -55.8902 -55.8748 -55.8661 -55.8494 -55.7937 -55.7253 -55.7057 -55.6988
   -55.6976 -55.6744 -55.6636 -55.6398 -55.2853 -55.0958 -54.8673 -54.8432
   -32.3769 -32.3236 -32.1878 -32.1836 -32.1763 -32.1748 -32.1737 -32.1304
   -32.1163 -32.1070 -32.0955 -32.0903 -32.0664 -32.0561 -32.0506 -32.0424
   -32.0335 -32.0081 -31.9715 -31.9662 -31.9359 -31.9330 -31.9056 -31.9034
   -31.9013 -31.8949 -31.8943 -31.8890 -31.8838 -31.8768 -31.8742 -31.8611
   -31.8397 -31.8395 -31.8359 -31.8239 -31.7422 -31.5657 -31.4570 -31.3852
   -31.3555 -31.3251 -31.2254 -31.1877 -31.1717 -31.0836 -31.0222 -30.9558
   -18.4484 -16.4970 -16.2479 -16.0310 -15.9365 -15.9126 -15.8604 -15.7556
   -15.6712 -15.6501 -15.4880 -15.4566 -15.4284 -15.4134 -15.3872 -15.3713
   -15.3562 -15.3514 -15.3272 -15.3200 -15.2801 -15.2387 -15.1803 -15.1191
   -15.1137 -15.0875 -15.0677 -15.0066 -14.9628 -14.5199 -13.3791 -13.2981
   -11.3606  -6.9362  -4.3033  -3.8933  -3.8495  -3.8119  -3.6820  -3.6243
    -3.5872  -3.4733  -3.3433  -3.2066  -3.1161  -3.0626  -2.9698  -2.9468
    -2.9317  -2.8722  -2.8475  -2.8378  -2.7800  -2.7551  -2.7342  -2.6702
    -2.6442  -2.6289  -2.5884  -2.5676  -2.5593  -2.5528  -2.4006  -2.3947
    -2.3784  -2.3560  -2.3136  -2.2236  -2.1495  -2.1347  -2.0398  -1.9740
    -1.8703  -1.7997  -1.6676  -1.6605  -1.6027  -1.5620  -1.5091  -1.4387
    -1.4153  -1.2882  -1.2442  -1.1812  -1.1507  -1.0996  -1.0913  -0.9606
    -0.9046  -0.8879  -0.8463  -0.8070  -0.7979  -0.7860  -0.7705  -0.7158
    -0.7014  -0.6461  -0.5676  -0.5177  -0.4561  -0.4262  -0.3999  -0.3762
    -0.3366  -0.3292  -0.1810  -0.1651  -0.1215  -0.0930  -0.0610  -0.0535
    -0.0340  -0.0094   0.1022   0.1350   0.1601   0.2285   0.3186   0.3665
     0.3802   0.4398   0.4522   0.5014   0.6376   0.7683   0.7920   1.1156
     1.3386   1.4224   1.6748   1.6784   2.6482   3.4329   3.4772   3.4944
     3.5533   3.5949   3.6411   3.6653   3.7293   3.7659   3.8069

          k = 0.0000-0.0839 0.0000 ( 17884 PWs)   bands (ev):

   -55.8786 -55.8776 -55.8623 -55.8618 -55.7920 -55.7179 -55.7073 -55.7054
   -55.6876 -55.6851 -55.6523 -55.6510 -55.2845 -55.0965 -54.8553 -54.8551
   -32.2383 -32.2365 -32.1916 -32.1909 -32.1740 -32.1731 -32.1692 -32.1338
   -32.0869 -32.0780 -32.0686 -32.0643 -32.0480 -32.0416 -32.0341 -32.0044
   -32.0004 -31.9994 -31.9980 -31.9964 -31.9951 -31.9737 -31.9707 -31.9390
   -31.9388 -31.9203 -31.9152 -31.9110 -31.9070 -31.8996 -31.8842 -31.8832
   -31.8570 -31.8543 -31.8314 -31.8311 -31.6949 -31.5651 -31.4679 -31.4145
   -31.3555 -31.3364 -31.1796 -31.1794 -31.0925 -31.0923 -31.0529 -31.0529
   -18.4464 -16.1556 -16.1485 -15.9635 -15.9631 -15.8035 -15.7928 -15.6942
   -15.6792 -15.6709 -15.6458 -15.6102 -15.6076 -15.4556 -15.4510 -15.3206
   -15.2769 -15.2733 -15.2624 -15.2458 -15.2299 -15.2291 -15.2091 -15.2052
   -15.1806 -15.1496 -15.1373 -15.1041 -14.9438 -14.6256 -13.3609 -13.3606
   -11.3597  -6.9426  -4.2607  -3.8958  -3.8443  -3.3631  -3.3415  -3.2902
    -3.2797  -3.2656  -3.2593  -3.1858  -3.1854  -3.1123  -3.0643  -3.0314
    -3.0025  -2.9968  -2.9695  -2.9426  -2.8882  -2.8460  -2.8389  -2.7556
    -2.7046  -2.6814  -2.6402  -2.6134  -2.5893  -2.5599  -2.4971  -2.4817
    -2.4530  -2.3370  -2.2689  -2.2608  -2.2374  -1.9748  -1.8950  -1.7976
    -1.7655  -1.7088  -1.6450  -1.5917  -1.5417  -1.4944  -1.4171  -1.3694
    -1.3538  -1.3174  -1.3129  -1.2795  -1.2641  -1.2136  -1.1117  -1.0798
    -1.0457  -1.0105  -0.9234  -0.8180  -0.7646  -0.6156  -0.6120  -0.5353
    -0.5305  -0.5113  -0.5020  -0.4650  -0.4366  -0.4172  -0.3705  -0.3408
    -0.3192  -0.2997  -0.2802  -0.2274  -0.2126  -0.1775  -0.1639  -0.1416
    -0.1044  -0.0827  -0.0667  -0.0291  -0.0036   0.0173   0.1117   0.2551
     0.3460   0.3496   0.3602   0.3867   0.7036   0.7318   0.8026   0.8466
     1.4818   1.4822   1.6116   1.6127   2.6713   3.5519   3.5749   3.5869
     3.6064   3.6215   3.6839   3.6932   3.7927   3.8157   3.8391

          k = 0.0380 0.0000 0.0000 ( 17913 PWs)   bands (ev):

   -55.8951 -55.8800 -55.8611 -55.8441 -55.7954 -55.7299 -55.7040 -55.7032
   -55.6933 -55.6694 -55.6686 -55.6349 -55.2859 -55.0951 -54.8722 -54.8382
   -32.4344 -32.3784 -32.2362 -32.2288 -32.2024 -32.1988 -32.1880 -32.1638
   -32.1377 -32.1238 -32.0868 -32.0663 -32.0607 -32.0445 -32.0262 -32.0194
   -32.0141 -31.9991 -31.9645 -31.9562 -31.9522 -31.9432 -31.8985 -31.8943
   -31.8872 -31.8845 -31.8794 -31.8747 -31.8706 -31.8643 -31.8437 -31.8342
   -31.8328 -31.8217 -31.8090 -31.7811 -31.7764 -31.5679 -31.4593 -31.3572
   -31.3556 -31.3108 -31.2791 -31.1945 -31.1667 -31.0960 -31.0095 -30.8985
   -18.4501 -16.5602 -16.2836 -16.0600 -16.0296 -15.9426 -15.8944 -15.7766
   -15.6131 -15.5902 -15.5863 -15.5569 -15.5130 -15.5006 -15.4562 -15.4441
   -15.4159 -15.2565 -15.2407 -15.2125 -15.1527 -15.1452 -15.1397 -15.1131
   -15.0853 -15.0734 -15.0582 -15.0383 -14.9306 -14.4392 -13.3717 -13.2583
   -11.3610  -6.9252  -4.3186  -3.9276  -3.9199  -3.8606  -3.6241  -3.5835
    -3.5222  -3.4336  -3.4231  -3.4154  -3.3531  -3.1360  -3.1251  -3.0033
    -2.9751  -2.9595  -2.8999  -2.7581  -2.6950  -2.6591  -2.6123  -2.6038
[...]
    -1.4842  -1.4362  -1.3846  -1.3288  -1.3195  -1.2796  -1.1795  -1.1729
    -1.1628  -1.1260  -1.0207  -0.9832  -0.8900  -0.7639  -0.7315  -0.7082
    -0.6916  -0.6541  -0.5969  -0.5679  -0.4448  -0.3907  -0.3299  -0.3117
    -0.2349  -0.2312  -0.1806  -0.1490  -0.0961  -0.0846  -0.0744  -0.0448
    -0.0222  -0.0076   0.0110   0.0677   0.1833   0.2440   0.2910   0.3059
     0.4130   0.5004   0.5313   0.5551   0.7414   0.7966   1.0784   1.1071
     1.1613   1.3111   1.6093   1.6836   2.6591   3.2806   3.2976   3.5790
     3.5951   3.6260   3.6365   3.6691   3.6951   3.7222   3.7602

          k = 0.0380 0.0419 0.0000 ( 17878 PWs)   bands (ev):

   -55.8901 -55.8747 -55.8660 -55.8493 -55.7937 -55.7253 -55.7056 -55.6987
   -55.6975 -55.6743 -55.6637 -55.6398 -55.2852 -55.0957 -54.8672 -54.8432
   -32.3771 -32.3244 -32.1877 -32.1834 -32.1830 -32.1756 -32.1751 -32.1303
   -32.1166 -32.1116 -32.0951 -32.0787 -32.0663 -32.0562 -32.0504 -32.0320
   -32.0310 -32.0053 -31.9659 -31.9543 -31.9495 -31.9330 -31.9029 -31.9002
   -31.8969 -31.8942 -31.8941 -31.8892 -31.8838 -31.8768 -31.8742 -31.8636
   -31.8593 -31.8386 -31.8321 -31.8287 -31.7415 -31.5672 -31.4569 -31.3851
   -31.3560 -31.3250 -31.2250 -31.1903 -31.1707 -31.0834 -31.0223 -30.9557
   -18.4482 -16.4310 -16.1703 -15.9600 -15.9233 -15.8589 -15.8383 -15.7571
   -15.7077 -15.6517 -15.5506 -15.5077 -15.4948 -15.4824 -15.4779 -15.3934
   -15.3796 -15.3058 -15.2883 -15.2790 -15.2207 -15.2063 -15.1817 -15.1478
   -15.1418 -15.1286 -15.0953 -15.0630 -14.9482 -14.5177 -13.3768 -13.2984
   -11.3602  -6.9336  -4.2875  -3.9088  -3.8468  -3.7473  -3.4568  -3.4180
    -3.3490  -3.2801  -3.2607  -3.2054  -3.1870  -3.0433  -2.9923  -2.9225
    -2.8877  -2.8765  -2.8017  -2.7845  -2.7611  -2.7220  -2.6924  -2.6759
    -2.6271  -2.6037  -2.5952  -2.5444  -2.5255  -2.5002  -2.4460  -2.3813
    -2.3560  -2.3089  -2.2300  -2.1762  -2.0983  -2.0412  -1.9751  -1.8914
    -1.8674  -1.8353  -1.7361  -1.6399  -1.6201  -1.4944  -1.4798  -1.4448
    -1.3950  -1.3450  -1.3057  -1.2831  -1.2132  -1.1589  -1.1418  -1.1093
    -1.0316  -0.9986  -0.9620  -0.9100  -0.8812  -0.8235  -0.7979  -0.7484
    -0.7058  -0.6874  -0.6275  -0.6038  -0.5430  -0.5308  -0.5128  -0.4758
    -0.4283  -0.3651  -0.3381  -0.3039  -0.2346  -0.2053  -0.1896  -0.1329
    -0.0990   0.0111   0.0575   0.1057   0.1885   0.2530   0.3094   0.3693
     0.4320   0.4531   0.5019   0.5425   0.5565   0.6973   0.7622   1.0517
     1.3495   1.4268   1.5973   1.6592   2.6626   3.4221   3.4882   3.5290
     3.6184   3.6362   3.6844   3.7194   3.7753   3.8086   3.8267

          k = 0.0380-0.0839 0.0000 ( 17916 PWs)   bands (ev):

   -55.8786 -55.8776 -55.8623 -55.8618 -55.7920 -55.7179 -55.7074 -55.7054
   -55.6876 -55.6850 -55.6524 -55.6511 -55.2846 -55.0965 -54.8553 -54.8552
   -32.2385 -32.2367 -32.1924 -32.1917 -32.1740 -32.1731 -32.1693 -32.1339
   -32.0873 -32.0802 -32.0781 -32.0736 -32.0420 -32.0280 -32.0188 -32.0050
   -31.9993 -31.9988 -31.9982 -31.9972 -31.9937 -31.9841 -31.9815 -31.9280
   -31.9168 -31.9158 -31.9145 -31.9135 -31.9104 -31.8996 -31.8842 -31.8831
   -31.8570 -31.8544 -31.8431 -31.8430 -31.6948 -31.5665 -31.4678 -31.4144
   -31.3563 -31.3364 -31.1805 -31.1804 -31.0924 -31.0922 -31.0530 -31.0529
   -18.4463 -16.1144 -16.1036 -15.9130 -15.9119 -15.7744 -15.7650 -15.7000
   -15.6481 -15.6307 -15.6148 -15.5934 -15.5818 -15.4690 -15.4636 -15.3617
   -15.3317 -15.3137 -15.3077 -15.2922 -15.2695 -15.2616 -15.2496 -15.2336
   -15.2004 -15.1918 -15.1743 -15.0783 -14.9370 -14.6215 -13.3607 -13.3604
   -11.3595  -6.9419  -4.2587  -3.8989  -3.8398  -3.3573  -3.3288  -3.1426
    -3.1190  -3.0798  -3.0673  -3.0356  -2.9981  -2.9767  -2.9616  -2.9121
    -2.8933  -2.8839  -2.8643  -2.8420  -2.8293  -2.7395  -2.7367  -2.7274
    -2.7022  -2.6718  -2.6137  -2.5992  -2.5734  -2.5386  -2.5220  -2.4767
    -2.4331  -2.4091  -2.3568  -2.0339  -2.0118  -1.9805  -1.8647  -1.7972
    -1.7821  -1.7419  -1.7188  -1.6750  -1.6605  -1.6185  -1.5988  -1.5674
    -1.5318  -1.5190  -1.4835  -1.4068  -1.3605  -1.3226  -1.1495  -1.1138
    -1.0089  -0.9906  -0.9389  -0.9247  -0.8477  -0.7746  -0.7188  -0.6924
    -0.6816  -0.6552  -0.6433  -0.6102  -0.5833  -0.5497  -0.5058  -0.4797
    -0.4671  -0.4449  -0.4361  -0.4330  -0.3065  -0.2863  -0.2495  -0.1253
    -0.0697  -0.0200   0.0232   0.1338   0.1899   0.2099   0.2335   0.2634
     0.2974   0.3701   0.4554   0.4836   0.6484   0.6672   0.7809   0.8459
     1.4950   1.4955   1.6008   1.6018   2.6883   3.5011   3.5305   3.6055
     3.6295   3.6459   3.6705   3.7194   3.8421   3.8641   3.8703

          k = 0.0380-0.0419 0.0000 ( 17876 PWs)   bands (ev):

   -55.8901 -55.8747 -55.8660 -55.8493 -55.7937 -55.7253 -55.7056 -55.6987
   -55.6975 -55.6743 -55.6637 -55.6398 -55.2852 -55.0957 -54.8672 -54.8432
   -32.3771 -32.3244 -32.1877 -32.1834 -32.1830 -32.1756 -32.1751 -32.1303
   -32.1166 -32.1116 -32.0952 -32.0786 -32.0663 -32.0561 -32.0505 -32.0319
   -32.0311 -32.0054 -31.9659 -31.9542 -31.9495 -31.9330 -31.9028 -31.9002
   -31.8968 -31.8942 -31.8941 -31.8893 -31.8838 -31.8768 -31.8742 -31.8636
   -31.8596 -31.8386 -31.8319 -31.8287 -31.7415 -31.5672 -31.4569 -31.3851
   -31.3560 -31.3250 -31.2250 -31.1903 -31.1707 -31.0834 -31.0223 -30.9557
   -18.4482 -16.4312 -16.1702 -15.9599 -15.9235 -15.8588 -15.8383 -15.7564
   -15.7077 -15.6519 -15.5510 -15.5079 -15.4948 -15.4829 -15.4783 -15.3929
   -15.3779 -15.3083 -15.2878 -15.2784 -15.2202 -15.2059 -15.1817 -15.1485
   -15.1415 -15.1287 -15.0958 -15.0624 -14.9482 -14.5178 -13.3768 -13.2984
   -11.3602  -6.9337  -4.2877  -3.9120  -3.8434  -3.7469  -3.4586  -3.4192
    -3.3484  -3.2797  -3.2604  -3.2106  -3.1810  -3.0428  -2.9891  -2.9214
    -2.8862  -2.8744  -2.7999  -2.7864  -2.7638  -2.7238  -2.6969  -2.6738
    -2.6288  -2.6077  -2.5908  -2.5446  -2.5267  -2.5004  -2.4465  -2.3812
    -2.3555  -2.3129  -2.2345  -2.1780  -2.0996  -2.0375  -1.9779  -1.8880
    -1.8659  -1.8415  -1.7310  -1.6348  -1.6173  -1.5067  -1.4788  -1.4355
    -1.3843  -1.3448  -1.3077  -1.2827  -1.2145  -1.1617  -1.1389  -1.1150
    -1.0304  -0.9950  -0.9595  -0.9106  -0.8652  -0.8264  -0.7946  -0.7542
    -0.7031  -0.6785  -0.6199  -0.5929  -0.5610  -0.5328  -0.5145  -0.4679
    -0.4348  -0.3695  -0.3464  -0.3101  -0.2378  -0.1977  -0.1806  -0.1421
    -0.0955   0.0059   0.0501   0.1057   0.1824   0.2499   0.3137   0.3599
     0.4313   0.4597   0.5025   0.5465   0.5516   0.6974   0.7623   1.0517
     1.3496   1.4269   1.5971   1.6598   2.6624   3.4215   3.4896   3.5272
     3.6039   3.6628   3.6900   3.7164   3.7789   3.8156   3.8269

          k =-0.0760-0.0000 0.0000 ( 17886 PWs)   bands (ev):

   -55.8951 -55.8799 -55.8611 -55.8441 -55.7953 -55.7299 -55.7040 -55.7030
   -55.6933 -55.6694 -55.6688 -55.6349 -55.2859 -55.0951 -54.8722 -54.8382
   -32.4346 -32.3793 -32.2420 -32.2300 -32.2026 -32.1986 -32.1879 -32.1683
   -32.1377 -32.1237 -32.0687 -32.0630 -32.0605 -32.0416 -32.0200 -32.0192
   -32.0108 -31.9991 -31.9781 -31.9525 -31.9431 -31.9184 -31.9116 -31.8976
   -31.8953 -31.8871 -31.8793 -31.8783 -31.8744 -31.8704 -31.8438 -31.8341
   -31.8328 -31.8226 -31.8082 -31.7818 -31.7754 -31.5699 -31.4592 -31.3573
   -31.3560 -31.3107 -31.2787 -31.1977 -31.1654 -31.0959 -31.0094 -30.8985
   -18.4499 -16.4650 -16.2005 -15.9985 -15.9844 -15.8944 -15.8606 -15.7514
   -15.6711 -15.6694 -15.6096 -15.5956 -15.5741 -15.5603 -15.5534 -15.5100
   -15.4350 -15.2632 -15.2586 -15.2264 -15.1768 -15.1549 -15.1422 -15.0963
   -15.0661 -15.0589 -15.0503 -14.9850 -14.9267 -14.4372 -13.3687 -13.2579
   -11.3605  -6.9210  -4.2945  -3.9475  -3.9027  -3.8599  -3.5588  -3.4814
    -3.4052  -3.2960  -3.2675  -3.1671  -3.1558  -3.1424  -3.1299  -3.1164
    -3.0968  -2.9156  -2.7515  -2.6939  -2.6882  -2.6547  -2.6143  -2.5251
    -2.4656  -2.4422  -2.3950  -2.3848  -2.3035  -2.2970  -2.2260  -2.1873
    -2.1695  -2.1307  -2.1247  -2.1132  -2.0990  -2.0788  -2.0047  -1.9779
    -1.9052  -1.7315  -1.7077  -1.6771  -1.5366  -1.5306  -1.5145  -1.5100
    -1.4882  -1.4820  -1.4735  -1.4532  -1.3590  -1.3529  -1.2515  -1.1895
    -1.1666  -1.1400  -1.0948  -1.0586  -1.0469  -1.0421  -0.9064  -0.7319
    -0.6732  -0.6654  -0.6051  -0.5654  -0.5398  -0.4999  -0.4172  -0.3845
    -0.3604  -0.3214  -0.2972  -0.2291  -0.1771  -0.1532  -0.0884  -0.0786
    -0.0371  -0.0113   0.0063   0.1070   0.1527   0.1845   0.2336   0.3472
     0.3696   0.4741   0.5847   0.5906   0.7147   0.7975   0.8381   1.0899
     1.1825   1.2867   1.4799   1.6279   2.6666   3.2780   3.2864   3.4201
     3.5234   3.5785   3.6102   3.6947   3.6971   3.7680   3.7786

          k =-0.0760 0.0419 0.0000 ( 17914 PWs)   bands (ev):

   -55.8901 -55.8747 -55.8661 -55.8494 -55.7937 -55.7253 -55.7056 -55.6986
   -55.6975 -55.6743 -55.6638 -55.6398 -55.2852 -55.0958 -54.8672 -54.8432
   -32.3774 -32.3254 -32.1902 -32.1878 -32.1834 -32.1764 -32.1758 -32.1303
   -32.1168 -32.1166 -32.0952 -32.0667 -32.0630 -32.0564 -32.0505 -32.0289
   -32.0222 -32.0029 -31.9667 -31.9658 -31.9330 -31.9201 -31.9027 -31.9019
   -31.9001 -31.8978 -31.8935 -31.8898 -31.8833 -31.8817 -31.8755 -31.8741
   -31.8594 -31.8383 -31.8356 -31.8323 -31.7408 -31.5690 -31.4570 -31.3852
   -31.3568 -31.3250 -31.2248 -31.1931 -31.1700 -31.0834 -31.0223 -30.9557
   -18.4480 -16.3460 -16.0874 -15.9124 -15.8795 -15.8552 -15.7658 -15.7578
   -15.6542 -15.6463 -15.6310 -15.5469 -15.5440 -15.5343 -15.5211 -15.4576
   -15.4434 -15.3309 -15.2803 -15.2780 -15.2618 -15.2278 -15.1799 -15.1617
   -15.1566 -15.1318 -15.0761 -15.0517 -14.9437 -14.5161 -13.3747 -13.2987
   -11.3598  -6.9313  -4.2754  -3.9224  -3.8424  -3.7325  -3.3986  -3.2235
    -3.1934  -3.0879  -3.0140  -3.0057  -2.9917  -2.9720  -2.9414  -2.9113
    -2.9038  -2.8431  -2.8407  -2.7755  -2.7585  -2.7441  -2.6760  -2.6302
    -2.6038  -2.5840  -2.5694  -2.4878  -2.4709  -2.3966  -2.3786  -2.3722
    -2.3287  -2.2561  -2.1558  -2.1435  -2.0177  -2.0091  -1.9694  -1.8961
    -1.8821  -1.8297  -1.6820  -1.6570  -1.5543  -1.5383  -1.4869  -1.4613
    -1.4517  -1.4280  -1.3636  -1.3211  -1.2963  -1.2355  -1.1965  -1.1752
    -1.1482  -1.1179  -1.1031  -1.0830  -1.0553  -0.9669  -0.9441  -0.9018
    -0.8800  -0.8537  -0.7903  -0.7029  -0.6424  -0.6310  -0.6062  -0.5481
    -0.5258  -0.4923  -0.4811  -0.4243  -0.2872  -0.2368  -0.2050  -0.1916
    -0.0641   0.0097   0.1048   0.1262   0.2532   0.3154   0.3921   0.4107
     0.4652   0.5029   0.5577   0.5621   0.6240   0.6768   0.7025   0.8936
     1.3644   1.4301   1.5207   1.6485   2.6764   3.4087   3.4779   3.4863
     3.5558   3.5879   3.6039   3.6802   3.7414   3.8204   3.8652

          k =-0.0760-0.0839 0.0000 ( 17948 PWs)   bands (ev):

   -55.8786 -55.8776 -55.8623 -55.8618 -55.7920 -55.7179 -55.7074 -55.7054
   -55.6875 -55.6850 -55.6525 -55.6512 -55.2846 -55.0965 -54.8554 -54.8552
   -32.2388 -32.2370 -32.1931 -32.1925 -32.1741 -32.1731 -32.1694 -32.1340
   -32.0885 -32.0855 -32.0794 -32.0789 -32.0422 -32.0127 -32.0050 -32.0045
   -31.9981 -31.9980 -31.9974 -31.9971 -31.9930 -31.9913 -31.9888 -31.9376
   -31.9238 -31.9119 -31.9108 -31.8995 -31.8866 -31.8860 -31.8836 -31.8826
   -31.8670 -31.8662 -31.8571 -31.8544 -31.6946 -31.5679 -31.4677 -31.4144
   -31.3572 -31.3365 -31.1815 -31.1813 -31.0924 -31.0922 -31.0530 -31.0529
   -18.4462 -16.0685 -16.0425 -15.8425 -15.8095 -15.8053 -15.7909 -15.6821
   -15.5972 -15.5902 -15.5874 -15.5210 -15.4910 -15.4751 -15.4344 -15.4218
   -15.4145 -15.4028 -15.3926 -15.3555 -15.3481 -15.3309 -15.3235 -15.2393
   -15.2114 -15.2073 -15.1816 -15.0637 -14.9324 -14.6178 -13.3605 -13.3602
   -11.3592  -6.9413  -4.2574  -3.9014  -3.8359  -3.3579  -3.3291  -3.0889
    -3.0501  -3.0363  -2.9832  -2.8216  -2.7913  -2.7655  -2.7539  -2.7223
    -2.7170  -2.7049  -2.6999  -2.6799  -2.6385  -2.6173  -2.5995  -2.5818
    -2.5624  -2.5484  -2.5326  -2.5159  -2.5064  -2.4670  -2.4435  -2.4319
    -2.4132  -2.4015  -2.2450  -2.1220  -2.0875  -2.0330  -2.0228  -2.0014
    -1.9614  -1.9575  -1.9458  -1.8815  -1.8091  -1.6518  -1.6134  -1.5941
    -1.5758  -1.5566  -1.5002  -1.4599  -1.3729  -1.2985  -1.2748  -1.2703
    -1.2019  -1.1147  -1.1071  -1.0599  -1.0169  -1.0075  -0.9528  -0.8879
    -0.8574  -0.8531  -0.8006  -0.7315  -0.7135  -0.6633  -0.6564  -0.6120
    -0.5570  -0.5489  -0.5280  -0.4869  -0.4049  -0.3813  -0.2428  -0.1630
    -0.0405   0.0739   0.1681   0.1824   0.2624   0.3144   0.3981   0.4157
     0.4262   0.4353   0.4785   0.5618   0.6373   0.6521   0.6979   0.8189
     1.5132   1.5140   1.5860   1.5865   2.7055   3.4916   3.5362   3.5784
     3.6106   3.7170   3.7494   3.7728   3.7742   3.8023   3.9191

     the Fermi energy is     3.2396 ev

!    total energy              =   -2939.15480717 Ry
     estimated scf accuracy    <       0.00000003 Ry
     smearing contrib. (-TS)   =      -0.02244774 Ry
     internal energy E=F+TS    =   -2939.13235944 Ry

     The total energy is F=E-TS. E is the sum of the following terms:
     one-electron contribution =  -24176.17499450 Ry
     hartree contribution      =   12175.33341777 Ry
     xc contribution           =    -485.18432448 Ry
     ewald contribution        =    9546.89259571 Ry
     electric field correction =       0.00094605 Ry

     convergence has been achieved in  87 iterations

     Forces acting on atoms (cartesian axes, Ry/au):

     atom    1 type  1   force =     0.00011938   -0.00024072    0.09663258
     atom    2 type  1   force =    -0.00012206   -0.00048573   -0.17523188
     atom    3 type  2   force =     0.00000109   -0.00009916   -0.02499776
     atom    4 type  2   force =     0.00005216   -0.00149980    0.05298810
     atom    5 type  2   force =    -0.01215356   -0.00108784    0.00360718
     atom    6 type  2   force =     0.01370345   -0.00027938    0.00228125
     atom    7 type  1   force =    -0.00117111    0.00036924   -0.01148742
     atom    8 type  1   force =     0.00055853    0.00942378    0.02853951
     atom    9 type  2   force =     0.00019576    0.00053367   -0.00015179
     atom   10 type  2   force =    -0.00114601    0.00028640   -0.01823034
     atom   11 type  2   force =    -0.00012297    0.00000229   -0.00012975
     atom   12 type  2   force =     0.00013637    0.00021543    0.00018770
     atom   13 type  1   force =     0.00009195   -0.00029323    0.00014685
     atom   14 type  1   force =     0.00021544    0.00016906    0.00020802
     atom   15 type  2   force =     0.00022157   -0.00006627   -0.00011415
     atom   16 type  2   force =    -0.00033189    0.00033853    0.00038729
     atom   17 type  2   force =    -0.00015298    0.00041632   -0.00014190
     atom   18 type  2   force =     0.00012798    0.00016100    0.00023652
     atom   19 type  1   force =    -0.00007802    0.00014742    0.00005620
     atom   20 type  1   force =    -0.00058103   -0.00023927    0.00021756
     atom   21 type  2   force =     0.00008823    0.00001497    0.10324467
     atom   22 type  2   force =    -0.00019580    0.00024959    0.00079658
     atom   23 type  2   force =    -0.07145795   -0.00007443   -0.02771675
     atom   24 type  2   force =     0.07142596    0.00034622   -0.02772441
     atom   25 type  1   force =     0.00007145   -0.00022682    0.09636500
     atom   26 type  1   force =    -0.00022408   -0.00027414   -0.17563467
     atom   27 type  2   force =     0.00006949   -0.00025115   -0.02400311
     atom   28 type  2   force =     0.00009599   -0.00126106    0.05285592
     atom   29 type  2   force =    -0.01239812    0.00003757    0.00352099
     atom   30 type  2   force =     0.01386363    0.00032905    0.00216694
     atom   31 type  1   force =    -0.00113362    0.00332328   -0.01190435
     atom   32 type  1   force =     0.00065208   -0.01118326    0.02913444
     atom   33 type  2   force =     0.00010810   -0.00020072   -0.00040896
     atom   34 type  2   force =    -0.00089622   -0.00093723   -0.02481810
     atom   35 type  2   force =    -0.00039340    0.00027259    0.00002736
     atom   36 type  2   force =     0.00072646    0.00029300    0.00034670
     atom   37 type  1   force =    -0.00000521   -0.00023041    0.00005115
     atom   38 type  1   force =    -0.00001686    0.00010334    0.00000452
     atom   39 type  2   force =     0.00032694    0.00034189   -0.00044687
     atom   40 type  2   force =    -0.00030597    0.00010374    0.00017309
     atom   41 type  2   force =    -0.00043507    0.00052726    0.00013597
     atom   42 type  2   force =     0.00002953    0.00045415    0.00043570
     atom   43 type  1   force =    -0.00005062    0.00038166    0.00040361
     atom   44 type  1   force =    -0.00042421    0.00023905    0.00074602
     atom   45 type  2   force =     0.00008146   -0.00002793    0.10324690
     atom   46 type  2   force =    -0.07148111   -0.00003198   -0.02772901
     atom   47 type  2   force =     0.07144762    0.00039342   -0.02775805
     atom   48 type  3   force =     0.00033063   -0.00093099   -0.00033823
     atom   49 type  3   force =     0.00060766    0.00023558   -0.00025737
     atom   50 type  4   force =     0.00177884    0.00048704   -0.00045851
     atom   51 type  5   force =     0.00016360    0.00070683   -0.00044425
     atom   52 type  5   force =    -0.00122501   -0.00084669    0.00099785
     atom   53 type  5   force =    -0.00078845   -0.00013514   -0.00001452

     Total force =     0.368312     Total SCF correction =     0.000321
  @ DRIVER MODE: Message from server: STATUS
  @ DRIVER MODE: Message from server: GETFORCE
  @ DRIVER MODE: Returning v,forces,stress,ensemble 

     Writing output data file ./calc.save/
  @ DRIVER MODE: Message from server: EXIT
  @ DRIVE MODE: Exiting  
 
     init_run     :     17.90s CPU     18.23s WALL (       1 calls)
     electrons    :   2090.02s CPU   2137.13s WALL (       1 calls)
     forces       :      3.92s CPU      4.11s WALL (       1 calls)

     Called by init_run:
     wfcinit      :      7.98s CPU      8.08s WALL (       1 calls)
     potinit      :      8.92s CPU      9.02s WALL (       1 calls)
     hinit0       :      0.48s CPU      0.49s WALL (       1 calls)

     Called by electrons:
     c_bands      :   1720.36s CPU   1743.71s WALL (      87 calls)
     sum_band     :    246.79s CPU    258.20s WALL (      87 calls)
     v_of_rho     :     89.96s CPU     93.09s WALL (      88 calls)
     newd         :     36.91s CPU     46.17s WALL (      88 calls)
     mix_rho      :      3.50s CPU      3.52s WALL (      87 calls)
     vdW_kernel   :      7.60s CPU      7.63s WALL (       1 calls)

     Called by c_bands:
     init_us_2    :     14.40s CPU     14.47s WALL (    1760 calls)
     cegterg      :   1680.00s CPU   1702.68s WALL (     883 calls)

     Called by *egterg:
     cdiaghg      :    202.80s CPU    203.88s WALL (    7695 calls)
     h_psi        :    963.95s CPU    978.35s WALL (    7705 calls)
     s_psi        :    128.94s CPU    129.39s WALL (    7705 calls)
     g_psi        :      3.36s CPU      3.39s WALL (    6812 calls)

     Called by h_psi:
     h_psi:calbec :    122.27s CPU    124.00s WALL (    7705 calls)
     vloc_psi     :    707.43s CPU    714.26s WALL (    7705 calls)
     add_vuspsi   :    128.85s CPU    131.38s WALL (    7705 calls)

     General routines
     calbec       :    164.65s CPU    166.56s WALL (    8615 calls)
     fft          :     50.03s CPU     50.30s WALL (    5544 calls)
     ffts         :      0.31s CPU      0.31s WALL (     175 calls)
     fftw         :    786.94s CPU    794.41s WALL ( 1091280 calls)
     interpolate  :      0.98s CPU      0.99s WALL (      88 calls)
     davcio       :      0.00s CPU      0.17s WALL (      10 calls)
 
     Parallel routines
 
     PWSCF        :  35m12.08s CPU  36m 0.03s WALL

 
   This run was terminated on:  11:36:29  18Aug2021            

=------------------------------------------------------------------------------=
   JOB DONE.
=------------------------------------------------------------------------------=
