
     Program PWSCF v.6.7GPU starts on 16Sep2021 at  6: 1: 6 

     This program is part of the open-source Quantum ESPRESSO suite
     for quantum simulation of materials; please cite
         "P. Giannozzi et al., J. Phys.:Condens. Matter 21 395502 (2009);
         "P. Giannozzi et al., J. Phys.:Condens. Matter 29 465901 (2017);
         "P. Giannozzi et al., J. Chem. Phys. 152 154105 (2020);
          URL http://www.quantum-espresso.org", 
     in publications or presentations arising from this work. More details at
     http://www.quantum-espresso.org/quote

     Parallel version (MPI), running on    10 processors

     MPI processes distributed on     1 nodes
     R & G space division:  proc/nbgrp/npool/nimage =      10
     Reading input from /storage/home/hcoda1/3/ntian30/research/carbon/CxH_vib/H2O_calc/ads_slab/CH3N2H2O_c/out_0045/pw.inp
Warning: card &CELL ignored
Warning: card   CELL_DYNAMICS='IPI', ignored
Warning: card / ignored

     Current dimensions of program PWSCF are:
     Max number of different atomic species (ntypx) = 10
     Max number of k-points (npk) =  40000
     Max angular momentum in pseudopotentials (lmaxx) =  3
     Presently no symmetry can be used with electric field

     Message from routine cell_base_init:
     DEPRECATED: use true lattice parameter, not A to a.u. conversion factor

     **************************************************************************
     Initializing libbeef V0.1.2 with the BEEF-vdW functional.
     Citation: Wellendorff et al., PRB 85, 235149 (2012).
     **************************************************************************


     IMPORTANT: XC functional enforced from input :
     Exchange-correlation= BEEF-VDW
                           (   1   4  43  14   2   0   0)
     Any further DFT definition will be discarded
     Please, verify this is what you really want


     Subspace diagonalization in iterative solution of the eigenvalue problem:
     one sub-group per band group will be used
     scalapack distributed-memory algorithm (size of sub-group:  3*  3 procs)

  @ DRIVER MODE: Connecting to 
 qe_1139763_2852616.sched-torque.pace.gatech.edu2ad17lf3_scratch
  using UNIX socket
  @ DRIVER MODE: Message from server: STATUS
  @ DRIVER MODE: Message from server: INIT
  @ DRIVER MODE: Receiving replica           0          -1
  @ DRIVER MODE: Receiving encoded integer          25
  @ DRIVER MODE:  SCF:  T  FORCE:  T  STRESS:  F  VC:  F  ENSEMBLE:  F
  @ DRIVER MODE:  SCF:  T  FORCE:  T  STRESS:  F  VC:  F  ENSEMBLE:  F
 
     Parallelization info
     --------------------
     sticks:   dense  smooth     PW     G-vecs:    dense   smooth      PW
     Min         327     131     37                56683    14340    2191
     Max         328     133     38                56694    14346    2206
     Sum        3275    1317    379               566857   143421   21985
 
     Using Slab Decomposition
 


     bravais-lattice index     =            0
     lattice parameter (alat)  =       1.8897  a.u.
     unit-cell volume          =    6658.9804 (a.u.)^3
     number of atoms/cell      =           56
     number of atomic types    =            5
     number of electrons       =       403.00
     number of Kohn-Sham states=          211
     kinetic-energy cutoff     =      29.3995  Ry
     charge density cutoff     =     293.9946  Ry
     scf convergence threshold =      7.3E-08
     mixing beta               =       0.0500
     number of iterations used =            8  plain     mixing
     Exchange-correlation= BEEF-VDW
                           (   1   4  43  14   2   0   0)

     celldm(1)=   1.889726  celldm(2)=   0.000000  celldm(3)=   0.000000
     celldm(4)=   0.000000  celldm(5)=   0.000000  celldm(6)=   0.000000

     crystal axes: (cart. coord. in units of alat)
               a(1) = (   6.579727   0.000000   0.000000 )  
               a(2) = (  -0.000775   5.961596   0.000000 )  
               a(3) = (   0.000000   0.000000  25.155947 )  

     reciprocal axes: (cart. coord. in units 2 pi/alat)
               b(1) = (  0.151982  0.000020  0.000000 )  
               b(2) = (  0.000000  0.167740  0.000000 )  
               b(3) = (  0.000000  0.000000  0.039752 )  


     PseudoPot. # 1 for Ti read from file:
     /storage/coda1/p-amedford6/0/shared/rich_project_chbe-medford/medford-share/data/pseudos_module/espresso/nninc/pbe/van/Ti.UPF
     MD5 check sum: 8e4df49b7f0d34bbd5052bf3f5ea0213
     Pseudo is Ultrasoft, Zval = 12.0
     Generated by new atomic code, or converted to UPF format
     Using radial grid of  851 points,  6 beta functions with: 
                l(1) =   0
                l(2) =   0
                l(3) =   1
                l(4) =   1
                l(5) =   2
                l(6) =   2
     Q(r) pseudized with  8 coefficients,  rinner =    1.000   1.000   1.000
                                                       1.000   1.000

     PseudoPot. # 2 for O  read from file:
     /storage/coda1/p-amedford6/0/shared/rich_project_chbe-medford/medford-share/data/pseudos_module/espresso/nninc/pbe/van/O.UPF
     MD5 check sum: 78c19812648e8988a0fe644b0f25305e
     Pseudo is Ultrasoft, Zval =  6.0
     Generated by new atomic code, or converted to UPF format
     Using radial grid of  737 points,  4 beta functions with: 
                l(1) =   0
                l(2) =   0
                l(3) =   1
                l(4) =   1
     Q(r) pseudized with  8 coefficients,  rinner =    0.800   0.800   0.800


     PseudoPot. # 3 for N  read from file:
     /storage/coda1/p-amedford6/0/shared/rich_project_chbe-medford/medford-share/data/pseudos_module/espresso/nninc/pbe/van/N.UPF
     MD5 check sum: 90d10febe142ad51ac9d5be1deb811c4
     Pseudo is Ultrasoft, Zval =  5.0
     Generated by new atomic code, or converted to UPF format
     Using radial grid of  729 points,  4 beta functions with: 
                l(1) =   0
                l(2) =   0
                l(3) =   1
                l(4) =   1
     Q(r) pseudized with  8 coefficients,  rinner =    0.800   0.800   0.800


     PseudoPot. # 4 for C  read from file:
     /storage/coda1/p-amedford6/0/shared/rich_project_chbe-medford/medford-share/data/pseudos_module/espresso/nninc/pbe/van/C.UPF
     MD5 check sum: 1a69bf6b8db32088f5b2163dbdb77a27
     Pseudo is Ultrasoft, Zval =  4.0
     Generated by new atomic code, or converted to UPF format
     Using radial grid of  721 points,  4 beta functions with: 
                l(1) =   0
                l(2) =   0
                l(3) =   1
                l(4) =   1
     Q(r) pseudized with  8 coefficients,  rinner =    0.800   0.800   0.800


     PseudoPot. # 5 for H  read from file:
     /storage/coda1/p-amedford6/0/shared/rich_project_chbe-medford/medford-share/data/pseudos_module/espresso/nninc/pbe/van/H.UPF
     MD5 check sum: b5ee9d7bfd3a09ee7748110bda690ff7
     Pseudo is Ultrasoft, Zval =  1.0
     Generated by new atomic code, or converted to UPF format
     Using radial grid of  615 points,  1 beta functions with: 
                l(1) =   0
     Q(r) pseudized with  8 coefficients,  rinner =    0.800

     atomic species   valence    mass     pseudopotential
        Ti1           12.00    47.86700     Ti( 1.00)
        O1             6.00    15.99900     O ( 1.00)
        N1             5.00    14.00700     N ( 1.00)
        C1             4.00    12.01100     C ( 1.00)
        H1             1.00     1.00800     H ( 1.00)

     No symmetry found



   Cartesian axes

     site n.     atom                  positions (alat units)
         1           Ti1 tau(   1) = (   0.0004258   2.9801865   6.0000000  )
         2           Ti1 tau(   2) = (   3.2906075   1.4906267   6.0002472  )
         3           O1  tau(   3) = (   0.0006271   0.0005054   7.9858123  )
         4           O1  tau(   4) = (   3.2906025   0.0005020   7.3038282  )
         5           O1  tau(   5) = (   4.5942328   1.4918067   9.2879030  )
         6           O1  tau(   6) = (   1.9868534   1.4903216   9.2879459  )
         7           Ti1 tau(   7) = (   3.2907910   2.8959150   9.1758416  )
         8           Ti1 tau(   8) = (   0.0015273   1.4827037   9.2680791  )
         9           O1  tau(   9) = (   3.2828550   5.9398922  11.3444325  )
        10           O1  tau(  10) = (   0.0116148   5.9584955  10.6183126  )
        11           O1  tau(  11) = (   1.2785533   1.4626539  12.6279770  )
        12           O1  tau(  12) = (   5.2704455   1.4657548  12.6160130  )
        13           Ti1 tau(  13) = (   0.0600808   2.9393476  12.6134163  )
        14           Ti1 tau(  14) = (   3.3737088   1.4602624  12.5010433  )
        15           O1  tau(  15) = (   6.5684750   5.9323085  14.6353932  )
        16           O1  tau(  16) = (   3.2849856   5.9366180  13.9618146  )
        17           O1  tau(  17) = (   4.5362432   1.5114280  16.0576559  )
        18           O1  tau(  18) = (   2.0240554   1.5008084  16.0383298  )
        19           Ti1 tau(  19) = (   3.2703657   2.9522362  15.6888820  )
        20           Ti1 tau(  20) = (   6.5391562   1.4934284  15.8005638  )
        21           O1  tau(  21) = (   3.2904802   0.0005063   4.7018136  )
        22           O1  tau(  22) = (   6.5583345   5.9570231  17.1947061  )
        23           O1  tau(  23) = (   1.3043587   1.4918075   6.0039043  )
        24           O1  tau(  24) = (   5.2767064   1.4903225   6.0039473  )
        25           Ti1 tau(  25) = (   0.0000382   5.9609847   6.0000000  )
        26           Ti1 tau(  26) = (   3.2902200   4.4714249   6.0002472  )
        27           O1  tau(  27) = (   0.0002396   2.9813036   7.9858123  )
        28           O1  tau(  28) = (   3.2902150   2.9813002   7.3038282  )
        29           O1  tau(  29) = (   4.5938453   4.4726049   9.2879030  )
        30           O1  tau(  30) = (   1.9864658   4.4711199   9.2879459  )
        31           Ti1 tau(  31) = (   3.2891106   5.8743827   9.1763621  )
        32           Ti1 tau(  32) = (   0.0006254   4.4649316   9.2693709  )
        33           O1  tau(  33) = (   3.2888364   2.9620848  11.3424199  )
        34           O1  tau(  34) = (   0.0092240   2.9805883  10.6323155  )
        35           O1  tau(  35) = (   1.2785924   4.4508711  12.6313046  )
        36           O1  tau(  36) = (   5.2742027   4.4576360  12.6186982  )
        37           Ti1 tau(  37) = (   0.0560446   5.9134488  12.5469576  )
        38           Ti1 tau(  38) = (   3.3742563   4.4530221  12.5021653  )
        39           O1  tau(  39) = (   6.5655761   2.9369947  14.6516633  )
        40           O1  tau(  40) = (   3.2805149   2.9594171  13.8967751  )
        41           O1  tau(  41) = (   4.5308665   4.4203993  16.0704334  )
        42           O1  tau(  42) = (   2.0169005   4.4237906  16.0574931  )
        43           Ti1 tau(  43) = (   3.2493829   5.9208236  15.8028744  )
        44           Ti1 tau(  44) = (   6.5423592   4.6318136  16.0678394  )
        45           O1  tau(  45) = (   3.2900926   2.9813045   4.7018136  )
        46           O1  tau(  46) = (   1.3039711   4.4726057   6.0039043  )
        47           O1  tau(  47) = (   5.2763189   4.4711207   6.0039473  )
        48           N1  tau(  48) = (   0.1516996   2.6368831  18.6397825  )
        49           N1  tau(  49) = (   0.0343947   2.8734663  17.4441277  )
        50           C1  tau(  50) = (   0.1908864   3.7705318  19.5986308  )
        51           H1  tau(  51) = (   6.5333492   4.7333814  19.1494580  )
        52           H1  tau(  52) = (   6.0816938   3.5230213  20.4074400  )
        53           H1  tau(  53) = (   1.1988782   3.7880179  20.0220438  )
        54           O1  tau(  54) = (   3.2442500   5.9498283  18.2024067  )
        55           H1  tau(  55) = (   4.0366425   0.4767780  18.4672138  )
        56           H1  tau(  56) = (   2.4709518   0.5160301  18.4623371  )

     number of k points=    10  Fermi-Dirac smearing, width (Ry)=  0.0073
                       cart. coord. in units 2pi/alat
        k(    1) = (   0.0000000   0.0000000   0.0000000), wk =   0.1250000
        k(    2) = (   0.0000000   0.0419351   0.0000000), wk =   0.2500000
        k(    3) = (   0.0000000  -0.0838702   0.0000000), wk =   0.1250000
        k(    4) = (   0.0379955   0.0000049   0.0000000), wk =   0.2500000
        k(    5) = (   0.0379955   0.0419400   0.0000000), wk =   0.2500000
        k(    6) = (   0.0379955  -0.0838652   0.0000000), wk =   0.2500000
        k(    7) = (   0.0379955  -0.0419301   0.0000000), wk =   0.2500000
        k(    8) = (  -0.0759910  -0.0000099   0.0000000), wk =   0.1250000
        k(    9) = (  -0.0759910   0.0419252   0.0000000), wk =   0.2500000
        k(   10) = (  -0.0759910  -0.0838800   0.0000000), wk =   0.1250000

     Dense  grid:   566857 G-vectors     FFT dimensions: (  72,  64, 270)

     Smooth grid:   143421 G-vectors     FFT dimensions: (  45,  40, 180)

     Estimated max dynamical RAM per process >     367.48 MB

     Estimated total dynamical RAM >       3.59 GB
     Cannot read rho : file not found

     Initial potential from superposition of free atoms

     starting charge  386.99914, renormalised to  403.00000

     negative rho (up, down):  1.444E-02 0.000E+00


     %%%%%%%%%%%%%%%%%%%%%%%%%%%%%%%%%%%%%%%%%%%%%%%%%%%%%%%%%%%%%%%%%%%%%%%%
     %                                                                      %
     % You are using vdW-DF, which was implemented by the Thonhauser group. %
     % Please cite the following two papers that made this development      %
     % possible and the two reviews that describe the various versions:     %
     %                                                                      %
     %   T. Thonhauser et al., PRL 115, 136402 (2015).                      %
     %   T. Thonhauser et al., PRB 76, 125112 (2007).                       %
     %   K. Berland et al., Rep. Prog. Phys. 78, 066501 (2015).             %
     %   D.C. Langreth et al., J. Phys.: Condens. Matter 21, 084203 (2009). %
     %                                                                      %
     %                                                                      %
     % If you are calculating the stress with vdW-DF, please also cite:     %
     %                                                                      %
     %   R. Sabatini et al., J. Phys.: Condens. Matter 24, 424209 (2012).   %
     %                                                                      %
     %%%%%%%%%%%%%%%%%%%%%%%%%%%%%%%%%%%%%%%%%%%%%%%%%%%%%%%%%%%%%%%%%%%%%%%%


 
     Adding external electric field

     Computed dipole along edir(3) : 
        Dipole              -13.2286 Ry au,        -33.6236 Debye
        Dipole field         -0.0250 Ry au, 
 
        Potential amp.        2.3141 Ry
        Total length         46.3494 bohr
 
     Starting wfcs are  305 atomic wfcs
  @ DRIVER MODE: Message from server: STATUS
  @ DRIVER MODE: Message from server: POSDATA
  @ DRIVER MODE: Reading and sharing cell 
  @ DRIVER MODE: Reading and sharing positions 
  @ DRIVER MODE: Received positions 

     total cpu time spent up to now is       11.4 secs

     Self-consistent Calculation

     iteration #  1     ecut=    29.40 Ry     beta= 0.05
     Davidson diagonalization with overlap
     c_bands:  4 eigenvalues not converged
     c_bands:  2 eigenvalues not converged
     c_bands:  4 eigenvalues not converged
     c_bands:  1 eigenvalues not converged
     c_bands:  1 eigenvalues not converged
     c_bands:  1 eigenvalues not converged
     c_bands:  4 eigenvalues not converged
     c_bands:  1 eigenvalues not converged
     c_bands:  1 eigenvalues not converged
     ethr =  1.00E-05,  avg # of iterations = 29.9

     negative rho (up, down):  8.644E-03 0.000E+00
 
     Adding external electric field

     Computed dipole along edir(3) : 
        Dipole               53.0589 Ry au,        134.8622 Debye
        Dipole field          0.1001 Ry au, 
 
        Potential amp.       -9.2818 Ry
        Total length         46.3494 bohr
 

     total cpu time spent up to now is       61.2 secs

     total energy              =   -2367.54119804 Ry
     estimated scf accuracy    <    6916.24593860 Ry

     iteration #  2     ecut=    29.40 Ry     beta= 0.05
     Davidson diagonalization with overlap
     ethr =  1.00E-02,  avg # of iterations = 23.0

     negative rho (up, down):  4.752E-04 0.000E+00
 
     Adding external electric field

     Computed dipole along edir(3) : 
        Dipole               -1.0854 Ry au,         -2.7588 Debye
        Dipole field         -0.0020 Ry au, 
 
        Potential amp.        0.1899 Ry
        Total length         46.3494 bohr
 

     total cpu time spent up to now is      143.2 secs

     total energy              =   -2459.46147836 Ry
     estimated scf accuracy    <   71753.09219907 Ry

     iteration #  3     ecut=    29.40 Ry     beta= 0.05
     Davidson diagonalization with overlap
     ethr =  1.00E-02,  avg # of iterations = 17.6

     negative rho (up, down):  5.282E-04 0.000E+00
 
     Adding external electric field

     Computed dipole along edir(3) : 
        Dipole               -3.9295 Ry au,         -9.9879 Debye
        Dipole field         -0.0074 Ry au, 
 
        Potential amp.        0.6874 Ry
        Total length         46.3494 bohr
 

     total cpu time spent up to now is      194.8 secs

     total energy              =   -2964.18442863 Ry
     estimated scf accuracy    <    5604.20507032 Ry

     iteration #  4     ecut=    29.40 Ry     beta= 0.05
     Davidson diagonalization with overlap
     ethr =  1.00E-02,  avg # of iterations = 12.1

     negative rho (up, down):  5.539E-04 0.000E+00
 
     Adding external electric field

     Computed dipole along edir(3) : 
        Dipole               -5.6295 Ry au,        -14.3089 Debye
        Dipole field         -0.0106 Ry au, 
 
        Potential amp.        0.9848 Ry
        Total length         46.3494 bohr
 

     total cpu time spent up to now is      216.2 secs

     total energy              =   -2961.08403440 Ry
     estimated scf accuracy    <    2017.19328017 Ry

     iteration #  5     ecut=    29.40 Ry     beta= 0.05
     Davidson diagonalization with overlap
     c_bands:  1 eigenvalues not converged
     c_bands:  1 eigenvalues not converged
     ethr =  1.00E-02,  avg # of iterations = 10.8

     negative rho (up, down):  6.108E-04 0.000E+00
 
     Adding external electric field

     Computed dipole along edir(3) : 
        Dipole               -7.6529 Ry au,        -19.4518 Debye
        Dipole field         -0.0144 Ry au, 
 
        Potential amp.        1.3388 Ry
        Total length         46.3494 bohr
 

     total cpu time spent up to now is      231.2 secs

     total energy              =   -2954.12991444 Ry
     estimated scf accuracy    <     983.72405931 Ry

     iteration #  6     ecut=    29.40 Ry     beta= 0.05
     Davidson diagonalization with overlap
     ethr =  1.00E-02,  avg # of iterations = 10.5

     negative rho (up, down):  5.967E-04 0.000E+00
 
     Adding external electric field

     Computed dipole along edir(3) : 
        Dipole               -6.5433 Ry au,        -16.6315 Debye
        Dipole field         -0.0123 Ry au, 
 
        Potential amp.        1.1447 Ry
        Total length         46.3494 bohr
 

     total cpu time spent up to now is      252.9 secs

     total energy              =   -2978.20560641 Ry
     estimated scf accuracy    <      24.59596140 Ry

     iteration #  7     ecut=    29.40 Ry     beta= 0.05
     Davidson diagonalization with overlap
     ethr =  6.10E-03,  avg # of iterations =  1.4

     negative rho (up, down):  5.980E-04 0.000E+00
 
     Adding external electric field

     Computed dipole along edir(3) : 
        Dipole               -4.6380 Ry au,        -11.7886 Debye
        Dipole field         -0.0088 Ry au, 
 
        Potential amp.        0.8113 Ry
        Total length         46.3494 bohr
 

     total cpu time spent up to now is      263.3 secs

     total energy              =   -2976.97186724 Ry
     estimated scf accuracy    <      20.36029204 Ry

     iteration #  8     ecut=    29.40 Ry     beta= 0.05
     Davidson diagonalization with overlap
     ethr =  5.05E-03,  avg # of iterations =  4.2

     negative rho (up, down):  6.147E-04 0.000E+00
 
     Adding external electric field

     Computed dipole along edir(3) : 
        Dipole               -1.5913 Ry au,         -4.0448 Debye
        Dipole field         -0.0030 Ry au, 
 
        Potential amp.        0.2784 Ry
        Total length         46.3494 bohr
 

     total cpu time spent up to now is      274.8 secs

     total energy              =   -2976.08862134 Ry
     estimated scf accuracy    <      16.40300983 Ry

     iteration #  9     ecut=    29.40 Ry     beta= 0.05
     Davidson diagonalization with overlap
     c_bands:  2 eigenvalues not converged
     c_bands:  3 eigenvalues not converged
     c_bands:  1 eigenvalues not converged
     ethr =  4.07E-03,  avg # of iterations = 17.6

     negative rho (up, down):  7.213E-04 0.000E+00
 
     Adding external electric field

     Computed dipole along edir(3) : 
        Dipole               -0.1901 Ry au,         -0.4832 Debye
        Dipole field         -0.0004 Ry au, 
 
        Potential amp.        0.0333 Ry
        Total length         46.3494 bohr
 

     total cpu time spent up to now is      293.4 secs

     total energy              =   -2990.24883927 Ry
     estimated scf accuracy    <    1213.91594523 Ry

     iteration # 10     ecut=    29.40 Ry     beta= 0.05
     Davidson diagonalization with overlap
     c_bands:  4 eigenvalues not converged
     c_bands:  1 eigenvalues not converged
     c_bands:  5 eigenvalues not converged
     ethr =  4.07E-03,  avg # of iterations = 12.7

     negative rho (up, down):  8.760E-04 0.000E+00
 
     Adding external electric field

     Computed dipole along edir(3) : 
        Dipole                0.8681 Ry au,          2.2064 Debye
        Dipole field          0.0016 Ry au, 
 
        Potential amp.       -0.1519 Ry
        Total length         46.3494 bohr
 

     total cpu time spent up to now is      307.8 secs

     total energy              =   -2994.85352080 Ry
     estimated scf accuracy    <    1731.23691039 Ry

     iteration # 11     ecut=    29.40 Ry     beta= 0.05
     Davidson diagonalization with overlap
     c_bands:  1 eigenvalues not converged
     ethr =  4.07E-03,  avg # of iterations =  9.9

     negative rho (up, down):  9.054E-04 0.000E+00
 
     Adding external electric field

     Computed dipole along edir(3) : 
        Dipole               -0.4617 Ry au,         -1.1736 Debye
        Dipole field         -0.0009 Ry au, 
 
        Potential amp.        0.0808 Ry
        Total length         46.3494 bohr
 

     total cpu time spent up to now is      321.7 secs

     total energy              =   -2983.52907478 Ry
     estimated scf accuracy    <    2089.86628904 Ry

     iteration # 12     ecut=    29.40 Ry     beta= 0.05
     Davidson diagonalization with overlap
     ethr =  4.07E-03,  avg # of iterations =  1.9

     negative rho (up, down):  9.747E-04 0.000E+00
 
     Adding external electric field

     Computed dipole along edir(3) : 
        Dipole               -3.8693 Ry au,         -9.8347 Debye
        Dipole field         -0.0073 Ry au, 
 
        Potential amp.        0.6769 Ry
        Total length         46.3494 bohr
 

     total cpu time spent up to now is      332.3 secs

     total energy              =   -2958.52431692 Ry
     estimated scf accuracy    <    1508.71023359 Ry

     iteration # 13     ecut=    29.40 Ry     beta= 0.05
     Davidson diagonalization with overlap
     ethr =  4.07E-03,  avg # of iterations = 15.0

     negative rho (up, down):  9.651E-04 0.000E+00
 
     Adding external electric field

     Computed dipole along edir(3) : 
        Dipole               -1.1548 Ry au,         -2.9353 Debye
        Dipole field         -0.0022 Ry au, 
 
        Potential amp.        0.2020 Ry
        Total length         46.3494 bohr
 

     total cpu time spent up to now is      357.5 secs

     total energy              =   -2973.03671065 Ry
     estimated scf accuracy    <      20.22798724 Ry

     iteration # 14     ecut=    29.40 Ry     beta= 0.05
     Davidson diagonalization with overlap
     ethr =  4.07E-03,  avg # of iterations =  8.0

     negative rho (up, down):  9.723E-04 0.000E+00
 
     Adding external electric field

     Computed dipole along edir(3) : 
        Dipole               -0.4148 Ry au,         -1.0543 Debye
        Dipole field         -0.0008 Ry au, 
 
        Potential amp.        0.0726 Ry
        Total length         46.3494 bohr
 

     total cpu time spent up to now is      370.6 secs

     total energy              =   -2977.95900806 Ry
     estimated scf accuracy    <     226.99042098 Ry

     iteration # 15     ecut=    29.40 Ry     beta= 0.05
     Davidson diagonalization with overlap
     c_bands:  2 eigenvalues not converged
     ethr =  4.07E-03,  avg # of iterations = 11.4

     negative rho (up, down):  1.034E-03 0.000E+00
 
     Adding external electric field

     Computed dipole along edir(3) : 
        Dipole               -1.5601 Ry au,         -3.9653 Debye
        Dipole field         -0.0029 Ry au, 
 
        Potential amp.        0.2729 Ry
        Total length         46.3494 bohr
 

     total cpu time spent up to now is      384.7 secs

     total energy              =   -2971.72410691 Ry
     estimated scf accuracy    <     444.47531683 Ry

     iteration # 16     ecut=    29.40 Ry     beta= 0.05
     Davidson diagonalization with overlap
     ethr =  4.07E-03,  avg # of iterations =  5.3

     negative rho (up, down):  1.099E-03 0.000E+00
 
     Adding external electric field

     Computed dipole along edir(3) : 
        Dipole               -2.0119 Ry au,         -5.1138 Debye
        Dipole field         -0.0038 Ry au, 
 
        Potential amp.        0.3520 Ry
        Total length         46.3494 bohr
 

     total cpu time spent up to now is      396.6 secs

     total energy              =   -2973.47121570 Ry
     estimated scf accuracy    <      32.80359403 Ry

     iteration # 17     ecut=    29.40 Ry     beta= 0.05
     Davidson diagonalization with overlap
     ethr =  4.07E-03,  avg # of iterations =  1.1

     negative rho (up, down):  1.260E-03 0.000E+00
 
     Adding external electric field

     Computed dipole along edir(3) : 
        Dipole               -2.3784 Ry au,         -6.0453 Debye
        Dipole field         -0.0045 Ry au, 
 
        Potential amp.        0.4161 Ry
        Total length         46.3494 bohr
 

     total cpu time spent up to now is      406.8 secs

     total energy              =   -2972.87368270 Ry
     estimated scf accuracy    <      25.98370432 Ry

     iteration # 18     ecut=    29.40 Ry     beta= 0.05
     Davidson diagonalization with overlap
     ethr =  4.07E-03,  avg # of iterations =  4.5

     negative rho (up, down):  1.349E-03 0.000E+00
 
     Adding external electric field

     Computed dipole along edir(3) : 
        Dipole               -2.1273 Ry au,         -5.4071 Debye
        Dipole field         -0.0040 Ry au, 
 
        Potential amp.        0.3721 Ry
        Total length         46.3494 bohr
 

     total cpu time spent up to now is      418.5 secs

     total energy              =   -2973.57030003 Ry
     estimated scf accuracy    <       2.35187432 Ry

     iteration # 19     ecut=    29.40 Ry     beta= 0.05
     Davidson diagonalization with overlap
     ethr =  5.84E-04,  avg # of iterations = 11.2

     negative rho (up, down):  1.465E-03 0.000E+00
 
     Adding external electric field

     Computed dipole along edir(3) : 
        Dipole               -1.8596 Ry au,         -4.7267 Debye
        Dipole field         -0.0035 Ry au, 
 
        Potential amp.        0.3253 Ry
        Total length         46.3494 bohr
 

     total cpu time spent up to now is      435.0 secs

     total energy              =   -2974.37456938 Ry
     estimated scf accuracy    <       2.33569767 Ry

     iteration # 20     ecut=    29.40 Ry     beta= 0.05
     Davidson diagonalization with overlap
     ethr =  5.80E-04,  avg # of iterations =  2.7

     negative rho (up, down):  2.579E-03 0.000E+00
 
     Adding external electric field

     Computed dipole along edir(3) : 
        Dipole               -0.7553 Ry au,         -1.9198 Debye
        Dipole field         -0.0014 Ry au, 
 
        Potential amp.        0.1321 Ry
        Total length         46.3494 bohr
 

     total cpu time spent up to now is      445.9 secs

     total energy              =   -2974.26207910 Ry
     estimated scf accuracy    <       2.48509195 Ry

     iteration # 21     ecut=    29.40 Ry     beta= 0.05
     Davidson diagonalization with overlap
     c_bands:  2 eigenvalues not converged
     c_bands:  1 eigenvalues not converged
     c_bands:  2 eigenvalues not converged
     c_bands:  2 eigenvalues not converged
     c_bands:  2 eigenvalues not converged
     c_bands:  2 eigenvalues not converged
     ethr =  5.80E-04,  avg # of iterations = 19.1

     negative rho (up, down):  2.477E-03 0.000E+00
 
     Adding external electric field

     Computed dipole along edir(3) : 
        Dipole               -0.7346 Ry au,         -1.8671 Debye
        Dipole field         -0.0014 Ry au, 
 
        Potential amp.        0.1285 Ry
        Total length         46.3494 bohr
 

     total cpu time spent up to now is      464.4 secs

     total energy              =   -2974.33133903 Ry
     estimated scf accuracy    <       4.48104065 Ry

     iteration # 22     ecut=    29.40 Ry     beta= 0.05
     Davidson diagonalization with overlap
     ethr =  5.80E-04,  avg # of iterations =  1.4

     negative rho (up, down):  2.617E-03 0.000E+00
 
     Adding external electric field

     Computed dipole along edir(3) : 
        Dipole               -0.7261 Ry au,         -1.8456 Debye
        Dipole field         -0.0014 Ry au, 
 
        Potential amp.        0.1270 Ry
        Total length         46.3494 bohr
 

     total cpu time spent up to now is      474.8 secs

     total energy              =   -2974.32568329 Ry
     estimated scf accuracy    <       3.06542024 Ry

     iteration # 23     ecut=    29.40 Ry     beta= 0.05
     Davidson diagonalization with overlap
     ethr =  5.80E-04,  avg # of iterations =  2.2

     negative rho (up, down):  2.450E-03 0.000E+00
 
     Adding external electric field

     Computed dipole along edir(3) : 
        Dipole               -0.8290 Ry au,         -2.1071 Debye
        Dipole field         -0.0016 Ry au, 
 
        Potential amp.        0.1450 Ry
        Total length         46.3494 bohr
 

     total cpu time spent up to now is      485.3 secs

     total energy              =   -2974.29007880 Ry
     estimated scf accuracy    <       5.48391822 Ry

     iteration # 24     ecut=    29.40 Ry     beta= 0.05
     Davidson diagonalization with overlap
     ethr =  5.80E-04,  avg # of iterations =  1.4

     negative rho (up, down):  2.450E-03 0.000E+00
 
     Adding external electric field

     Computed dipole along edir(3) : 
        Dipole               -0.7553 Ry au,         -1.9198 Debye
        Dipole field         -0.0014 Ry au, 
 
        Potential amp.        0.1321 Ry
        Total length         46.3494 bohr
 

     total cpu time spent up to now is      495.8 secs

     total energy              =   -2974.09438759 Ry
     estimated scf accuracy    <       6.05421656 Ry

     iteration # 25     ecut=    29.40 Ry     beta= 0.05
     Davidson diagonalization with overlap
     c_bands:  1 eigenvalues not converged
     ethr =  5.80E-04,  avg # of iterations =  6.6

     negative rho (up, down):  3.508E-03 0.000E+00
 
     Adding external electric field

     Computed dipole along edir(3) : 
        Dipole                0.1638 Ry au,          0.4163 Debye
        Dipole field          0.0003 Ry au, 
 
        Potential amp.       -0.0286 Ry
        Total length         46.3494 bohr
 

     total cpu time spent up to now is      508.1 secs

     total energy              =   -2973.97764018 Ry
     estimated scf accuracy    <       4.25247718 Ry

     iteration # 26     ecut=    29.40 Ry     beta= 0.05
     Davidson diagonalization with overlap
     ethr =  5.80E-04,  avg # of iterations =  8.7

     negative rho (up, down):  2.840E-03 0.000E+00
 
     Adding external electric field

     Computed dipole along edir(3) : 
        Dipole               -0.2135 Ry au,         -0.5427 Debye
        Dipole field         -0.0004 Ry au, 
 
        Potential amp.        0.0374 Ry
        Total length         46.3494 bohr
 

     total cpu time spent up to now is      521.3 secs

     total energy              =   -2974.07611785 Ry
     estimated scf accuracy    <       0.71026963 Ry

     iteration # 27     ecut=    29.40 Ry     beta= 0.05
     Davidson diagonalization with overlap
     ethr =  1.76E-04,  avg # of iterations =  4.3

     negative rho (up, down):  2.709E-03 0.000E+00
 
     Adding external electric field

     Computed dipole along edir(3) : 
        Dipole               -0.2037 Ry au,         -0.5177 Debye
        Dipole field         -0.0004 Ry au, 
 
        Potential amp.        0.0356 Ry
        Total length         46.3494 bohr
 

     total cpu time spent up to now is      533.0 secs

     total energy              =   -2974.03384219 Ry
     estimated scf accuracy    <       0.84540555 Ry

     iteration # 28     ecut=    29.40 Ry     beta= 0.05
     Davidson diagonalization with overlap
     c_bands:  1 eigenvalues not converged
     c_bands:  1 eigenvalues not converged
     ethr =  1.76E-04,  avg # of iterations = 11.8

     negative rho (up, down):  3.160E-03 0.000E+00
 
     Adding external electric field

     Computed dipole along edir(3) : 
        Dipole                0.1764 Ry au,          0.4484 Debye
        Dipole field          0.0003 Ry au, 
 
        Potential amp.       -0.0309 Ry
        Total length         46.3494 bohr
 

     total cpu time spent up to now is      547.3 secs

     total energy              =   -2973.95085226 Ry
     estimated scf accuracy    <       0.53733006 Ry

     iteration # 29     ecut=    29.40 Ry     beta= 0.05
     Davidson diagonalization with overlap
     c_bands:  2 eigenvalues not converged
     c_bands:  1 eigenvalues not converged
     c_bands:  1 eigenvalues not converged
     c_bands:  1 eigenvalues not converged
     ethr =  1.33E-04,  avg # of iterations = 15.4

     negative rho (up, down):  3.699E-03 0.000E+00
 
     Adding external electric field

     Computed dipole along edir(3) : 
        Dipole                0.3927 Ry au,          0.9982 Debye
        Dipole field          0.0007 Ry au, 
 
        Potential amp.       -0.0687 Ry
        Total length         46.3494 bohr
 

     total cpu time spent up to now is      564.0 secs

     total energy              =   -2974.00126327 Ry
     estimated scf accuracy    <       0.24615668 Ry

     iteration # 30     ecut=    29.40 Ry     beta= 0.05
     Davidson diagonalization with overlap
     c_bands:  1 eigenvalues not converged
     c_bands:  2 eigenvalues not converged
     ethr =  6.11E-05,  avg # of iterations = 11.4

     negative rho (up, down):  4.782E-03 0.000E+00
 
     Adding external electric field

     Computed dipole along edir(3) : 
        Dipole                0.4825 Ry au,          1.2264 Debye
        Dipole field          0.0009 Ry au, 
 
        Potential amp.       -0.0844 Ry
        Total length         46.3494 bohr
 

     total cpu time spent up to now is      577.8 secs

     total energy              =   -2973.97839442 Ry
     estimated scf accuracy    <       0.18797033 Ry

     iteration # 31     ecut=    29.40 Ry     beta= 0.05
     Davidson diagonalization with overlap
     c_bands:  1 eigenvalues not converged
     c_bands:  1 eigenvalues not converged
     c_bands:  1 eigenvalues not converged
     ethr =  4.66E-05,  avg # of iterations = 17.8

     negative rho (up, down):  4.411E-03 0.000E+00
 
     Adding external electric field

     Computed dipole along edir(3) : 
        Dipole                0.4918 Ry au,          1.2500 Debye
        Dipole field          0.0009 Ry au, 
 
        Potential amp.       -0.0860 Ry
        Total length         46.3494 bohr
 

     total cpu time spent up to now is      599.3 secs

     total energy              =   -2973.99310831 Ry
     estimated scf accuracy    <       0.22812149 Ry

     iteration # 32     ecut=    29.40 Ry     beta= 0.05
     Davidson diagonalization with overlap
     ethr =  4.66E-05,  avg # of iterations =  8.2

     negative rho (up, down):  3.893E-03 0.000E+00
 
     Adding external electric field

     Computed dipole along edir(3) : 
        Dipole                0.3887 Ry au,          0.9879 Debye
        Dipole field          0.0007 Ry au, 
 
        Potential amp.       -0.0680 Ry
        Total length         46.3494 bohr
 

     total cpu time spent up to now is      612.5 secs

     total energy              =   -2974.00067731 Ry
     estimated scf accuracy    <       0.06877441 Ry

     iteration # 33     ecut=    29.40 Ry     beta= 0.05
     Davidson diagonalization with overlap
     c_bands:  3 eigenvalues not converged
     c_bands:  1 eigenvalues not converged
     c_bands:  2 eigenvalues not converged
     ethr =  1.71E-05,  avg # of iterations = 15.6

     negative rho (up, down):  4.073E-03 0.000E+00
 
     Adding external electric field

     Computed dipole along edir(3) : 
        Dipole                0.4841 Ry au,          1.2305 Debye
        Dipole field          0.0009 Ry au, 
 
        Potential amp.       -0.0847 Ry
        Total length         46.3494 bohr
 

     total cpu time spent up to now is      631.6 secs

     total energy              =   -2974.00401109 Ry
     estimated scf accuracy    <       0.08017981 Ry

     iteration # 34     ecut=    29.40 Ry     beta= 0.05
     Davidson diagonalization with overlap
     ethr =  1.71E-05,  avg # of iterations =  6.7

     negative rho (up, down):  4.584E-03 0.000E+00
 
     Adding external electric field

     Computed dipole along edir(3) : 
        Dipole                0.6479 Ry au,          1.6467 Debye
        Dipole field          0.0012 Ry au, 
 
        Potential amp.       -0.1133 Ry
        Total length         46.3494 bohr
 

     total cpu time spent up to now is      644.1 secs

     total energy              =   -2973.99647964 Ry
     estimated scf accuracy    <       0.07276444 Ry

     iteration # 35     ecut=    29.40 Ry     beta= 0.05
     Davidson diagonalization with overlap
     c_bands:  1 eigenvalues not converged
     c_bands:  1 eigenvalues not converged
     c_bands:  2 eigenvalues not converged
     c_bands:  1 eigenvalues not converged
     ethr =  1.71E-05,  avg # of iterations = 18.6

     negative rho (up, down):  6.079E-03 0.000E+00
 
     Adding external electric field

     Computed dipole along edir(3) : 
        Dipole                0.7895 Ry au,          2.0066 Debye
        Dipole field          0.0015 Ry au, 
 
        Potential amp.       -0.1381 Ry
        Total length         46.3494 bohr
 

     total cpu time spent up to now is      666.7 secs

     total energy              =   -2973.99572605 Ry
     estimated scf accuracy    <       0.09829423 Ry

     iteration # 36     ecut=    29.40 Ry     beta= 0.05
     Davidson diagonalization with overlap
     ethr =  1.71E-05,  avg # of iterations = 10.0

     negative rho (up, down):  7.454E-03 0.000E+00
 
     Adding external electric field

     Computed dipole along edir(3) : 
        Dipole                0.8649 Ry au,          2.1984 Debye
        Dipole field          0.0016 Ry au, 
 
        Potential amp.       -0.1513 Ry
        Total length         46.3494 bohr
 

     total cpu time spent up to now is      680.6 secs

     total energy              =   -2973.99698490 Ry
     estimated scf accuracy    <       0.05054033 Ry

     iteration # 37     ecut=    29.40 Ry     beta= 0.05
     Davidson diagonalization with overlap
     c_bands:  1 eigenvalues not converged
     ethr =  1.25E-05,  avg # of iterations = 17.2

     negative rho (up, down):  6.863E-03 0.000E+00
 
     Adding external electric field

     Computed dipole along edir(3) : 
        Dipole                0.8395 Ry au,          2.1337 Debye
        Dipole field          0.0016 Ry au, 
 
        Potential amp.       -0.1469 Ry
        Total length         46.3494 bohr
 

     total cpu time spent up to now is      700.6 secs

     total energy              =   -2974.00014628 Ry
     estimated scf accuracy    <       0.01724367 Ry

     iteration # 38     ecut=    29.40 Ry     beta= 0.05
     Davidson diagonalization with overlap
     c_bands:  1 eigenvalues not converged
     c_bands:  1 eigenvalues not converged
     ethr =  4.28E-06,  avg # of iterations = 15.6

     negative rho (up, down):  7.033E-03 0.000E+00
 
     Adding external electric field

     Computed dipole along edir(3) : 
        Dipole                0.8344 Ry au,          2.1208 Debye
        Dipole field          0.0016 Ry au, 
 
        Potential amp.       -0.1460 Ry
        Total length         46.3494 bohr
 

     total cpu time spent up to now is      718.0 secs

     total energy              =   -2974.00158027 Ry
     estimated scf accuracy    <       0.00873880 Ry

     iteration # 39     ecut=    29.40 Ry     beta= 0.05
     Davidson diagonalization with overlap
     c_bands:  1 eigenvalues not converged
     ethr =  2.17E-06,  avg # of iterations =  8.1

     negative rho (up, down):  9.727E-03 0.000E+00
 
     Adding external electric field

     Computed dipole along edir(3) : 
        Dipole                0.8738 Ry au,          2.2209 Debye
        Dipole field          0.0016 Ry au, 
 
        Potential amp.       -0.1529 Ry
        Total length         46.3494 bohr
 

     total cpu time spent up to now is      730.9 secs

     total energy              =   -2974.00154123 Ry
     estimated scf accuracy    <       0.00689371 Ry

     iteration # 40     ecut=    29.40 Ry     beta= 0.05
     Davidson diagonalization with overlap
     c_bands:  1 eigenvalues not converged
     c_bands:  3 eigenvalues not converged
     c_bands:  3 eigenvalues not converged
     c_bands:  1 eigenvalues not converged
     c_bands:  1 eigenvalues not converged
     c_bands:  1 eigenvalues not converged
     ethr =  1.71E-06,  avg # of iterations = 18.8

     negative rho (up, down):  9.926E-03 0.000E+00
 
     Adding external electric field

     Computed dipole along edir(3) : 
        Dipole                0.8892 Ry au,          2.2602 Debye
        Dipole field          0.0017 Ry au, 
 
        Potential amp.       -0.1556 Ry
        Total length         46.3494 bohr
 

     total cpu time spent up to now is      753.3 secs

     total energy              =   -2974.00187073 Ry
     estimated scf accuracy    <       0.01566460 Ry

     iteration # 41     ecut=    29.40 Ry     beta= 0.05
     Davidson diagonalization with overlap
     c_bands:  1 eigenvalues not converged
     ethr =  1.71E-06,  avg # of iterations = 15.8

     negative rho (up, down):  1.100E-02 0.000E+00
 
     Adding external electric field

     Computed dipole along edir(3) : 
        Dipole                0.8931 Ry au,          2.2700 Debye
        Dipole field          0.0017 Ry au, 
 
        Potential amp.       -0.1562 Ry
        Total length         46.3494 bohr
 

     total cpu time spent up to now is      769.4 secs

     total energy              =   -2974.00189308 Ry
     estimated scf accuracy    <       0.00413752 Ry

     iteration # 42     ecut=    29.40 Ry     beta= 0.05
     Davidson diagonalization with overlap
     c_bands:  1 eigenvalues not converged
     c_bands:  1 eigenvalues not converged
     ethr =  1.03E-06,  avg # of iterations = 15.6

     negative rho (up, down):  1.130E-02 0.000E+00
 
     Adding external electric field

     Computed dipole along edir(3) : 
        Dipole                0.8954 Ry au,          2.2759 Debye
        Dipole field          0.0017 Ry au, 
 
        Potential amp.       -0.1566 Ry
        Total length         46.3494 bohr
 

     total cpu time spent up to now is      790.5 secs

     total energy              =   -2974.00247193 Ry
     estimated scf accuracy    <       0.00332898 Ry

     iteration # 43     ecut=    29.40 Ry     beta= 0.05
     Davidson diagonalization with overlap
     ethr =  8.26E-07,  avg # of iterations = 10.8

     negative rho (up, down):  1.278E-02 0.000E+00
 
     Adding external electric field

     Computed dipole along edir(3) : 
        Dipole                0.9368 Ry au,          2.3810 Debye
        Dipole field          0.0018 Ry au, 
 
        Potential amp.       -0.1639 Ry
        Total length         46.3494 bohr
 

     total cpu time spent up to now is      804.5 secs

     total energy              =   -2974.00225314 Ry
     estimated scf accuracy    <       0.00189806 Ry

     iteration # 44     ecut=    29.40 Ry     beta= 0.05
     Davidson diagonalization with overlap
     c_bands:  2 eigenvalues not converged
     c_bands:  1 eigenvalues not converged
     c_bands:  1 eigenvalues not converged
     c_bands:  3 eigenvalues not converged
     c_bands:  1 eigenvalues not converged
     c_bands:  2 eigenvalues not converged
     c_bands:  1 eigenvalues not converged
     ethr =  4.71E-07,  avg # of iterations = 18.9

     negative rho (up, down):  1.380E-02 0.000E+00
 
     Adding external electric field

     Computed dipole along edir(3) : 
        Dipole                0.9421 Ry au,          2.3946 Debye
        Dipole field          0.0018 Ry au, 
 
        Potential amp.       -0.1648 Ry
        Total length         46.3494 bohr
 

     total cpu time spent up to now is      829.9 secs

     total energy              =   -2974.00228780 Ry
     estimated scf accuracy    <       0.01532263 Ry

     iteration # 45     ecut=    29.40 Ry     beta= 0.05
     Davidson diagonalization with overlap
     c_bands:  1 eigenvalues not converged
     c_bands:  1 eigenvalues not converged
     c_bands:  1 eigenvalues not converged
     c_bands:  1 eigenvalues not converged
     c_bands:  1 eigenvalues not converged
     ethr =  4.71E-07,  avg # of iterations = 18.0

     negative rho (up, down):  1.399E-02 0.000E+00
 
     Adding external electric field

     Computed dipole along edir(3) : 
        Dipole                0.9269 Ry au,          2.3559 Debye
        Dipole field          0.0017 Ry au, 
 
        Potential amp.       -0.1621 Ry
        Total length         46.3494 bohr
 

     total cpu time spent up to now is      850.0 secs

     total energy              =   -2974.00273696 Ry
     estimated scf accuracy    <       0.00142736 Ry

     iteration # 46     ecut=    29.40 Ry     beta= 0.05
     Davidson diagonalization with overlap
     ethr =  3.54E-07,  avg # of iterations =  6.7

     negative rho (up, down):  1.388E-02 0.000E+00
 
     Adding external electric field

     Computed dipole along edir(3) : 
        Dipole                0.9151 Ry au,          2.3260 Debye
        Dipole field          0.0017 Ry au, 
 
        Potential amp.       -0.1601 Ry
        Total length         46.3494 bohr
 

     total cpu time spent up to now is      862.3 secs

     total energy              =   -2974.00274538 Ry
     estimated scf accuracy    <       0.00056297 Ry

     iteration # 47     ecut=    29.40 Ry     beta= 0.05
     Davidson diagonalization with overlap
     ethr =  1.40E-07,  avg # of iterations =  9.7

     negative rho (up, down):  1.385E-02 0.000E+00
 
     Adding external electric field

     Computed dipole along edir(3) : 
        Dipole                0.9226 Ry au,          2.3450 Debye
        Dipole field          0.0017 Ry au, 
 
        Potential amp.       -0.1614 Ry
        Total length         46.3494 bohr
 

     total cpu time spent up to now is      878.3 secs

     total energy              =   -2974.00284002 Ry
     estimated scf accuracy    <       0.00025497 Ry

     iteration # 48     ecut=    29.40 Ry     beta= 0.05
     Davidson diagonalization with overlap
     ethr =  6.33E-08,  avg # of iterations =  9.9

     negative rho (up, down):  1.395E-02 0.000E+00
 
     Adding external electric field

     Computed dipole along edir(3) : 
        Dipole                0.9240 Ry au,          2.3487 Debye
        Dipole field          0.0017 Ry au, 
 
        Potential amp.       -0.1616 Ry
        Total length         46.3494 bohr
 

     total cpu time spent up to now is      892.0 secs

     total energy              =   -2974.00286630 Ry
     estimated scf accuracy    <       0.00012394 Ry

     iteration # 49     ecut=    29.40 Ry     beta= 0.05
     Davidson diagonalization with overlap
     ethr =  3.08E-08,  avg # of iterations =  9.8

     negative rho (up, down):  1.408E-02 0.000E+00
 
     Adding external electric field

     Computed dipole along edir(3) : 
        Dipole                0.9186 Ry au,          2.3348 Debye
        Dipole field          0.0017 Ry au, 
 
        Potential amp.       -0.1607 Ry
        Total length         46.3494 bohr
 

     total cpu time spent up to now is      908.7 secs

     total energy              =   -2974.00289821 Ry
     estimated scf accuracy    <       0.00012399 Ry

     iteration # 50     ecut=    29.40 Ry     beta= 0.05
     Davidson diagonalization with overlap
     ethr =  3.08E-08,  avg # of iterations = 10.7

     negative rho (up, down):  1.417E-02 0.000E+00
 
     Adding external electric field

     Computed dipole along edir(3) : 
        Dipole                0.9134 Ry au,          2.3215 Debye
        Dipole field          0.0017 Ry au, 
 
        Potential amp.       -0.1598 Ry
        Total length         46.3494 bohr
 

     total cpu time spent up to now is      922.8 secs

     total energy              =   -2974.00291379 Ry
     estimated scf accuracy    <       0.00005531 Ry

     iteration # 51     ecut=    29.40 Ry     beta= 0.05
     Davidson diagonalization with overlap
     c_bands:  1 eigenvalues not converged
     ethr =  1.37E-08,  avg # of iterations = 12.7

     negative rho (up, down):  1.433E-02 0.000E+00
 
     Adding external electric field

     Computed dipole along edir(3) : 
        Dipole                0.9184 Ry au,          2.3345 Debye
        Dipole field          0.0017 Ry au, 
 
        Potential amp.       -0.1607 Ry
        Total length         46.3494 bohr
 

     total cpu time spent up to now is      942.1 secs

     total energy              =   -2974.00294532 Ry
     estimated scf accuracy    <       0.00013921 Ry

     iteration # 52     ecut=    29.40 Ry     beta= 0.05
     Davidson diagonalization with overlap
     ethr =  1.37E-08,  avg # of iterations =  5.0

     negative rho (up, down):  1.459E-02 0.000E+00
 
     Adding external electric field

     Computed dipole along edir(3) : 
        Dipole                0.9266 Ry au,          2.3551 Debye
        Dipole field          0.0017 Ry au, 
 
        Potential amp.       -0.1621 Ry
        Total length         46.3494 bohr
 

     total cpu time spent up to now is      954.2 secs

     total energy              =   -2974.00295202 Ry
     estimated scf accuracy    <       0.00005714 Ry

     iteration # 53     ecut=    29.40 Ry     beta= 0.05
     Davidson diagonalization with overlap
     ethr =  1.37E-08,  avg # of iterations = 11.1

     negative rho (up, down):  1.460E-02 0.000E+00
 
     Adding external electric field

     Computed dipole along edir(3) : 
        Dipole                0.9272 Ry au,          2.3568 Debye
        Dipole field          0.0017 Ry au, 
 
        Potential amp.       -0.1622 Ry
        Total length         46.3494 bohr
 

     total cpu time spent up to now is      971.5 secs

     total energy              =   -2974.00297528 Ry
     estimated scf accuracy    <       0.00001288 Ry

     iteration # 54     ecut=    29.40 Ry     beta= 0.05
     Davidson diagonalization with overlap
     ethr =  3.20E-09,  avg # of iterations =  5.0

     negative rho (up, down):  1.457E-02 0.000E+00
 
     Adding external electric field

     Computed dipole along edir(3) : 
        Dipole                0.9275 Ry au,          2.3575 Debye
        Dipole field          0.0018 Ry au, 
 
        Potential amp.       -0.1623 Ry
        Total length         46.3494 bohr
 

     total cpu time spent up to now is      983.4 secs

     total energy              =   -2974.00298434 Ry
     estimated scf accuracy    <       0.00001379 Ry

     iteration # 55     ecut=    29.40 Ry     beta= 0.05
     Davidson diagonalization with overlap
     ethr =  3.20E-09,  avg # of iterations = 11.1

     negative rho (up, down):  1.461E-02 0.000E+00
 
     Adding external electric field

     Computed dipole along edir(3) : 
        Dipole                0.9264 Ry au,          2.3547 Debye
        Dipole field          0.0017 Ry au, 
 
        Potential amp.       -0.1621 Ry
        Total length         46.3494 bohr
 

     total cpu time spent up to now is      997.8 secs

     total energy              =   -2974.00299382 Ry
     estimated scf accuracy    <       0.00000765 Ry

     iteration # 56     ecut=    29.40 Ry     beta= 0.05
     Davidson diagonalization with overlap
     ethr =  1.90E-09,  avg # of iterations =  7.3

     negative rho (up, down):  1.459E-02 0.000E+00
 
     Adding external electric field

     Computed dipole along edir(3) : 
        Dipole                0.9261 Ry au,          2.3538 Debye
        Dipole field          0.0017 Ry au, 
 
        Potential amp.       -0.1620 Ry
        Total length         46.3494 bohr
 

     total cpu time spent up to now is     1012.9 secs

     total energy              =   -2974.00300370 Ry
     estimated scf accuracy    <       0.00000252 Ry

     iteration # 57     ecut=    29.40 Ry     beta= 0.05
     Davidson diagonalization with overlap
     ethr =  6.25E-10,  avg # of iterations = 10.8

     negative rho (up, down):  1.457E-02 0.000E+00
 
     Adding external electric field

     Computed dipole along edir(3) : 
        Dipole                0.9268 Ry au,          2.3557 Debye
        Dipole field          0.0017 Ry au, 
 
        Potential amp.       -0.1621 Ry
        Total length         46.3494 bohr
 

     total cpu time spent up to now is     1026.7 secs

     total energy              =   -2974.00301142 Ry
     estimated scf accuracy    <       0.00000191 Ry

     iteration # 58     ecut=    29.40 Ry     beta= 0.05
     Davidson diagonalization with overlap
     ethr =  4.73E-10,  avg # of iterations = 10.5

     negative rho (up, down):  1.458E-02 0.000E+00
 
     Adding external electric field

     Computed dipole along edir(3) : 
        Dipole                0.9262 Ry au,          2.3542 Debye
        Dipole field          0.0017 Ry au, 
 
        Potential amp.       -0.1620 Ry
        Total length         46.3494 bohr
 

     total cpu time spent up to now is     1045.4 secs

     total energy              =   -2974.00301884 Ry
     estimated scf accuracy    <       0.00000246 Ry

     iteration # 59     ecut=    29.40 Ry     beta= 0.05
     Davidson diagonalization with overlap
     ethr =  4.73E-10,  avg # of iterations =  6.1

     negative rho (up, down):  1.458E-02 0.000E+00
 
     Adding external electric field

     Computed dipole along edir(3) : 
        Dipole                0.9259 Ry au,          2.3534 Debye
        Dipole field          0.0017 Ry au, 
 
        Potential amp.       -0.1620 Ry
        Total length         46.3494 bohr
 

     total cpu time spent up to now is     1057.9 secs

     total energy              =   -2974.00302532 Ry
     estimated scf accuracy    <       0.00000098 Ry

     iteration # 60     ecut=    29.40 Ry     beta= 0.05
     Davidson diagonalization with overlap
     c_bands:  1 eigenvalues not converged
     ethr =  2.43E-10,  avg # of iterations = 13.8

     negative rho (up, down):  1.455E-02 0.000E+00
 
     Adding external electric field

     Computed dipole along edir(3) : 
        Dipole                0.9258 Ry au,          2.3533 Debye
        Dipole field          0.0017 Ry au, 
 
        Potential amp.       -0.1620 Ry
        Total length         46.3494 bohr
 

     total cpu time spent up to now is     1078.2 secs

     total energy              =   -2974.00303132 Ry
     estimated scf accuracy    <       0.00000104 Ry

     iteration # 61     ecut=    29.40 Ry     beta= 0.05
     Davidson diagonalization with overlap
     ethr =  2.43E-10,  avg # of iterations =  7.6

     negative rho (up, down):  1.455E-02 0.000E+00
 
     Adding external electric field

     Computed dipole along edir(3) : 
        Dipole                0.9257 Ry au,          2.3529 Debye
        Dipole field          0.0017 Ry au, 
 
        Potential amp.       -0.1619 Ry
        Total length         46.3494 bohr
 

     total cpu time spent up to now is     1093.1 secs

     total energy              =   -2974.00303680 Ry
     estimated scf accuracy    <       0.00000026 Ry

     iteration # 62     ecut=    29.40 Ry     beta= 0.05
     Davidson diagonalization with overlap
     ethr =  6.48E-11,  avg # of iterations =  9.1

     negative rho (up, down):  1.454E-02 0.000E+00
 
     Adding external electric field

     Computed dipole along edir(3) : 
        Dipole                0.9255 Ry au,          2.3523 Debye
        Dipole field          0.0017 Ry au, 
 
        Potential amp.       -0.1619 Ry
        Total length         46.3494 bohr
 

     total cpu time spent up to now is     1110.8 secs

     total energy              =   -2974.00304164 Ry
     estimated scf accuracy    <       0.00000035 Ry

     iteration # 63     ecut=    29.40 Ry     beta= 0.05
     Davidson diagonalization with overlap
     ethr =  6.48E-11,  avg # of iterations =  2.9

     negative rho (up, down):  1.452E-02 0.000E+00
 
     Adding external electric field

     Computed dipole along edir(3) : 
        Dipole                0.9246 Ry au,          2.3502 Debye
        Dipole field          0.0017 Ry au, 
 
        Potential amp.       -0.1618 Ry
        Total length         46.3494 bohr
 

     total cpu time spent up to now is     1122.1 secs

     total energy              =   -2974.00304600 Ry
     estimated scf accuracy    <       0.00000019 Ry

     iteration # 64     ecut=    29.40 Ry     beta= 0.05
     Davidson diagonalization with overlap
     c_bands:  1 eigenvalues not converged
     ethr =  4.78E-11,  avg # of iterations = 14.6

     negative rho (up, down):  1.452E-02 0.000E+00
 
     Adding external electric field

     Computed dipole along edir(3) : 
        Dipole                0.9248 Ry au,          2.3505 Debye
        Dipole field          0.0017 Ry au, 
 
        Potential amp.       -0.1618 Ry
        Total length         46.3494 bohr
 

     total cpu time spent up to now is     1147.9 secs

     total energy              =   -2974.00305000 Ry
     estimated scf accuracy    <       0.00000069 Ry

     iteration # 65     ecut=    29.40 Ry     beta= 0.05
     Davidson diagonalization with overlap
     ethr =  4.78E-11,  avg # of iterations =  6.3

     negative rho (up, down):  1.452E-02 0.000E+00
 
     Adding external electric field

     Computed dipole along edir(3) : 
        Dipole                0.9249 Ry au,          2.3508 Debye
        Dipole field          0.0017 Ry au, 
 
        Potential amp.       -0.1618 Ry
        Total length         46.3494 bohr
 

     total cpu time spent up to now is     1160.7 secs

     total energy              =   -2974.00305351 Ry
     estimated scf accuracy    <       0.00000034 Ry

     iteration # 66     ecut=    29.40 Ry     beta= 0.05
     Davidson diagonalization with overlap
     ethr =  4.78E-11,  avg # of iterations =  6.2

     negative rho (up, down):  1.452E-02 0.000E+00
 
     Adding external electric field

     Computed dipole along edir(3) : 
        Dipole                0.9249 Ry au,          2.3508 Debye
        Dipole field          0.0017 Ry au, 
 
        Potential amp.       -0.1618 Ry
        Total length         46.3494 bohr
 

     total cpu time spent up to now is     1175.3 secs

     total energy              =   -2974.00305673 Ry
     estimated scf accuracy    <       0.00000009 Ry

     iteration # 67     ecut=    29.40 Ry     beta= 0.05
     Davidson diagonalization with overlap
     ethr =  2.31E-11,  avg # of iterations =  8.8

     negative rho (up, down):  1.457E-02 0.000E+00
 
     Adding external electric field

     Computed dipole along edir(3) : 
        Dipole                0.9250 Ry au,          2.3510 Debye
        Dipole field          0.0017 Ry au, 
 
        Potential amp.       -0.1618 Ry
        Total length         46.3494 bohr
 

     total cpu time spent up to now is     1190.9 secs

     End of self-consistent calculation

          k = 0.0000 0.0000 0.0000 ( 18029 PWs)   bands (ev):

   -55.6019 -55.5679 -55.5608 -55.5535 -55.5247 -55.4349 -55.4119 -55.3947
   -55.3779 -55.3770 -55.3491 -55.3432 -55.0010 -54.8725 -54.5809 -54.5468
   -32.1029 -32.0845 -31.9526 -31.9349 -31.9107 -31.8947 -31.8667 -31.8641
   -31.8448 -31.7974 -31.7903 -31.7760 -31.7541 -31.7393 -31.7236 -31.7177
   -31.7064 -31.6935 -31.6879 -31.6591 -31.6520 -31.6393 -31.6044 -31.6004
   -31.5895 -31.5873 -31.5838 -31.5760 -31.5520 -31.5486 -31.5466 -31.5417
   -31.5298 -31.5284 -31.5187 -31.5105 -31.4888 -31.2704 -31.2000 -31.1299
   -31.1092 -31.0790 -30.9880 -30.8996 -30.8771 -30.8047 -30.7182 -30.6072
   -18.9234 -18.3020 -16.3008 -16.0680 -15.8424 -15.7509 -15.7095 -15.5030
   -15.4026 -15.3269 -15.2087 -15.1448 -15.1368 -15.1176 -15.1062 -15.1014
   -15.0425 -15.0386 -15.0366 -15.0231 -14.9973 -14.9499 -14.9351 -14.9310
   -14.8360 -14.7632 -14.7393 -14.7219 -14.6794 -14.6543 -14.2031 -13.0830
   -12.9666 -11.3168  -6.8644  -6.7378  -4.2051  -3.8568  -3.8268  -3.6751
    -3.5462  -3.5066  -3.4347  -3.3632  -3.2280  -3.2058  -3.0336  -2.8355
    -2.7754  -2.7468  -2.7008  -2.6291  -2.5147  -2.4587  -2.4081  -2.4055
    -2.3856  -2.3801  -2.3557  -2.3374  -2.2398  -2.2197  -2.1498  -2.1348
    -2.0852  -1.9850  -1.9551  -1.9144  -1.9049  -1.8771  -1.8634  -1.8498
    -1.8269  -1.8027  -1.7618  -1.6944  -1.6179  -1.5809  -1.5027  -1.4492
    -1.4080  -1.3472  -1.2121  -1.1370  -1.0895  -1.0563  -1.0467  -1.0284
    -0.9945  -0.9770  -0.8659  -0.7538  -0.7380  -0.6731  -0.6106  -0.5275
    -0.4948  -0.4331  -0.3690  -0.3511  -0.3460  -0.3096  -0.2680  -0.2221
    -0.0838  -0.0287   0.0049   0.0129   0.0746   0.1158   0.1471   0.2297
     0.2443   0.2841   0.3273   0.3585   0.3697   0.3795   0.4007   0.4314
     0.4361   0.6259   0.6688   0.7133   0.7480   0.7861   0.9321   0.9508
     1.0576   1.1632   1.3683   1.4415   1.5411   1.6336   2.0128   2.0586
     2.7604   3.5323   3.6200   3.6648   3.7026   3.7784   3.7894   3.9874
     4.0029   4.0420   4.1174

          k = 0.0000 0.0419 0.0000 ( 17933 PWs)   bands (ev):

   -55.5969 -55.5728 -55.5558 -55.5525 -55.5299 -55.4307 -55.4069 -55.3987
   -55.3828 -55.3721 -55.3498 -55.3480 -54.9999 -54.8735 -54.5758 -54.5517
   -32.0462 -32.0306 -31.9056 -31.8900 -31.8830 -31.8796 -31.8518 -31.8246
   -31.8134 -31.7992 -31.7806 -31.7729 -31.7709 -31.7630 -31.7403 -31.7328
   -31.7266 -31.7136 -31.6802 -31.6730 -31.6416 -31.6359 -31.6144 -31.6047
   -31.6001 -31.5949 -31.5910 -31.5857 -31.5793 -31.5787 -31.5687 -31.5535
   -31.5484 -31.5476 -31.5441 -31.5323 -31.4738 -31.2698 -31.1974 -31.1402
   -31.1291 -31.0936 -30.9338 -30.8961 -30.8802 -30.7921 -30.7307 -30.6643
   -18.9230 -18.3002 -16.1652 -15.9480 -15.7323 -15.6439 -15.6138 -15.4616
   -15.4207 -15.3549 -15.3222 -15.1682 -15.1282 -15.1190 -15.0949 -15.0877
   -15.0780 -15.0590 -15.0530 -15.0459 -15.0251 -14.9853 -14.9412 -14.9008
   -14.8415 -14.8176 -14.7963 -14.7783 -14.7115 -14.6947 -14.2811 -13.0871
   -13.0061 -11.3157  -6.8732  -6.7366  -4.1685  -3.8600  -3.8146  -3.4901
    -3.3785  -3.3316  -3.3037  -3.2262  -3.1555  -3.0576  -2.8434  -2.7543
    -2.7353  -2.6487  -2.6267  -2.6145  -2.5623  -2.5391  -2.4931  -2.4685
    -2.4555  -2.4271  -2.4014  -2.3467  -2.3338  -2.3017  -2.2845  -2.2673
    -2.2393  -2.1441  -2.1093  -2.0828  -2.0684  -2.0202  -1.9501  -1.8470
    -1.8440  -1.7790  -1.6972  -1.6491  -1.5147  -1.4602  -1.4129  -1.3276
    -1.2931  -1.2629  -1.2168  -1.1980  -1.0329  -0.9532  -0.9210  -0.8341
    -0.8159  -0.7908  -0.7823  -0.6652  -0.6159  -0.5687  -0.5537  -0.5056
    -0.4942  -0.4613  -0.4426  -0.4142  -0.3974  -0.3305  -0.2488  -0.2047
    -0.1356  -0.1148  -0.1039  -0.0285  -0.0057   0.0214   0.1285   0.1407
     0.1964   0.2125   0.2269   0.2381   0.2569   0.2862   0.3827   0.4095
     0.4667   0.5336   0.6052   0.6536   0.6699   0.7386   0.7460   0.7792
     0.9075   1.0603   1.0812   1.4169   1.6308   1.7148   1.9669   1.9707
     2.7408   3.7258   3.7758   3.8010   3.8618   3.8870   3.9333   3.9421
     4.0214   4.0665   4.0989

          k = 0.0000-0.0839 0.0000 ( 17884 PWs)   bands (ev):

   -55.5853 -55.5843 -55.5524 -55.5438 -55.5410 -55.4250 -55.4045 -55.3955
   -55.3939 -55.3619 -55.3581 -55.3504 -54.9989 -54.8745 -54.5638 -54.5636
   -31.9161 -31.8995 -31.8987 -31.8979 -31.8805 -31.8795 -31.8382 -31.8301
   -31.8037 -31.7663 -31.7593 -31.7552 -31.7536 -31.7500 -31.7355 -31.7131
   -31.7099 -31.7072 -31.7070 -31.7061 -31.6818 -31.6782 -31.6532 -31.6485
   -31.6468 -31.6238 -31.6170 -31.6095 -31.6042 -31.5925 -31.5859 -31.5634
   -31.5629 -31.5589 -31.5411 -31.5385 -31.4214 -31.2692 -31.2192 -31.1629
   -31.1295 -31.1060 -30.8880 -30.8878 -30.8009 -30.8007 -30.7614 -30.7614
   -18.9227 -18.2984 -15.8393 -15.8063 -15.6713 -15.6325 -15.4828 -15.4776
   -15.3892 -15.3672 -15.3650 -15.3340 -15.2940 -15.2096 -15.1402 -15.1290
   -15.0337 -14.9935 -14.9791 -14.9599 -14.9458 -14.9373 -14.9359 -14.9321
   -14.9140 -14.9099 -14.8552 -14.8424 -14.8277 -14.6735 -14.3893 -13.0689
   -13.0686 -11.3147  -6.8818  -6.7355  -4.1339  -3.8634  -3.8082  -3.2617
    -3.0459  -2.9964  -2.9825  -2.9644  -2.9549  -2.8954  -2.8924  -2.8661
    -2.8076  -2.7765  -2.7245  -2.6904  -2.6679  -2.6528  -2.6381  -2.5721
    -2.5478  -2.5432  -2.4707  -2.4043  -2.3864  -2.3788  -2.3296  -2.3044
    -2.2702  -2.1800  -2.1672  -2.1220  -2.0521  -1.9556  -1.9453  -1.8655
    -1.6995  -1.6081  -1.5349  -1.5042  -1.4881  -1.4086  -1.3394  -1.3043
    -1.2774  -1.2268  -1.1585  -1.0770  -1.0623  -1.0178  -1.0016  -0.9882
    -0.9691  -0.9007  -0.8147  -0.7836  -0.7453  -0.6173  -0.5651  -0.5156
    -0.4889  -0.3369  -0.2641  -0.2277  -0.2146  -0.2087  -0.1614  -0.1495
    -0.1297  -0.0703  -0.0497  -0.0141  -0.0100   0.0189   0.0445   0.0537
     0.1005   0.1205   0.1325   0.1496   0.1903   0.2196   0.2491   0.2667
     0.2872   0.3129   0.4080   0.5353   0.6395   0.6415   0.6536   0.6780
     0.9727   1.0139   1.1187   1.1434   1.7734   1.7745   1.9038   1.9047
     2.7499   3.8423   3.8753   3.9109   3.9238   3.9559   3.9758   3.9866
     4.0910   4.1229   4.1272

          k = 0.0380 0.0000 0.0000 ( 17913 PWs)   bands (ev):

   -55.6018 -55.5678 -55.5606 -55.5534 -55.5246 -55.4348 -55.4116 -55.3946
   -55.3778 -55.3771 -55.3490 -55.3431 -55.0009 -54.8724 -54.5808 -54.5467
   -32.1030 -32.0854 -31.9538 -31.9406 -31.9109 -31.8945 -31.8714 -31.8639
   -31.8448 -31.7960 -31.7758 -31.7718 -31.7512 -31.7392 -31.7234 -31.7110
   -31.7061 -31.6875 -31.6732 -31.6589 -31.6569 -31.6512 -31.6042 -31.5934
   -31.5893 -31.5875 -31.5839 -31.5758 -31.5730 -31.5486 -31.5464 -31.5416
   -31.5300 -31.5283 -31.5178 -31.5075 -31.4891 -31.2725 -31.2000 -31.1301
   -31.1091 -31.0788 -30.9875 -30.9029 -30.8751 -30.8045 -30.7181 -30.6069
   -18.9230 -18.3019 -16.2212 -15.9836 -15.7580 -15.7326 -15.6476 -15.5219
   -15.4338 -15.3250 -15.2941 -15.2839 -15.2274 -15.2183 -15.2043 -15.1584
   -15.1465 -15.0399 -14.9664 -14.9475 -14.9054 -14.8559 -14.8475 -14.8455
   -14.8157 -14.7923 -14.7801 -14.7763 -14.7492 -14.6588 -14.2014 -13.0798
   -12.9663 -11.3163  -6.8618  -6.7323  -4.1785  -3.8809  -3.8225  -3.5747
    -3.3303  -3.2903  -3.2411  -3.2290  -3.1498  -3.1373  -3.0337  -3.0128
    -2.8396  -2.8370  -2.7085  -2.6860  -2.6734  -2.5867  -2.4066  -2.3791
    -2.3640  -2.3000  -2.2645  -2.2245  -2.1978  -2.1624  -2.1411  -2.0784
    -2.0585  -1.9955  -1.9512  -1.9427  -1.8746  -1.8274  -1.8103  -1.7914
    -1.7272  -1.6842  -1.6115  -1.5917  -1.5500  -1.4911  -1.4456  -1.4237
    -1.3596  -1.3499  -1.2561  -1.2071  -1.1822  -1.0969  -1.0419  -1.0351
    -1.0188  -0.9404  -0.8816  -0.8628  -0.8442  -0.8312  -0.7310  -0.6261
    -0.5683  -0.4800  -0.4109  -0.3840  -0.3421  -0.3022  -0.2666  -0.2560
    -0.1431  -0.0668   0.0045   0.0219   0.0696   0.0723   0.1328   0.1531
     0.1913   0.2164   0.2262   0.2631   0.2763   0.3017   0.3117   0.3656
     0.4733   0.5309   0.5861   0.5942   0.6993   0.7648   0.8101   0.8263
     1.0491   1.0900   1.3714   1.4080   1.4534   1.6031   1.9013   1.9758
     2.7746   3.5655   3.5903   3.8524   3.8909   3.9316   3.9418   3.9642
     3.9867   4.0146   4.0542

          k = 0.0380 0.0419 0.0000 ( 17878 PWs)   bands (ev):

   -55.5968 -55.5727 -55.5557 -55.5524 -55.5298 -55.4307 -55.4067 -55.3987
   -55.3827 -55.3721 -55.3497 -55.3480 -54.9999 -54.8734 -54.5757 -54.5517
   -32.0463 -32.0314 -31.9067 -31.8898 -31.8869 -31.8827 -31.8517 -31.8249
   -31.8187 -31.7989 -31.7744 -31.7697 -31.7645 -31.7632 -31.7378 -31.7319
   -31.7177 -31.7134 -31.6726 -31.6629 -31.6511 -31.6410 -31.6037 -31.6032
   -31.5999 -31.5974 -31.5911 -31.5857 -31.5795 -31.5791 -31.5719 -31.5671
   -31.5520 -31.5467 -31.5403 -31.5370 -31.4726 -31.2716 -31.1975 -31.1401
   -31.1297 -31.0935 -30.9335 -30.8987 -30.8792 -30.7919 -30.7308 -30.6641
   -18.9228 -18.3000 -16.0924 -15.8709 -15.6560 -15.6298 -15.5438 -15.4727
   -15.4264 -15.3584 -15.3529 -15.2579 -15.2231 -15.1910 -15.1823 -15.1173
   -15.0953 -15.0750 -15.0154 -14.9884 -14.9753 -14.9268 -14.9134 -14.8797
   -14.8649 -14.8496 -14.8360 -14.8068 -14.7810 -14.6779 -14.2797 -13.0848
   -13.0064 -11.3153  -6.8761  -6.7275  -4.1540  -3.8756  -3.8085  -3.4140
    -3.2126  -3.1554  -3.1206  -3.0560  -2.9919  -2.9851  -2.8701  -2.8196
    -2.6975  -2.6930  -2.6061  -2.5629  -2.5366  -2.4984  -2.4895  -2.4564
    -2.4256  -2.3943  -2.3632  -2.3214  -2.3048  -2.2919  -2.2469  -2.2348
    -2.2220  -2.1589  -2.0875  -2.0771  -2.0492  -1.9434  -1.8853  -1.8147
    -1.7581  -1.7271  -1.6346  -1.5939  -1.5498  -1.4965  -1.3891  -1.3456
    -1.2911  -1.2480  -1.1861  -1.1456  -1.0662  -1.0148  -0.9934  -0.9114
    -0.8755  -0.8519  -0.8342  -0.7915  -0.7232  -0.6995  -0.6562  -0.6329
    -0.5558  -0.5244  -0.4701  -0.4352  -0.3965  -0.3571  -0.3255  -0.3033
    -0.2498  -0.2273  -0.2161  -0.1651  -0.1211  -0.0547  -0.0204   0.0161
     0.0608   0.1028   0.1170   0.1727   0.2120   0.2985   0.3538   0.4324
     0.4871   0.5513   0.6186   0.6575   0.7195   0.7432   0.7898   0.8236
     0.8465   0.9941   1.0636   1.3513   1.6416   1.7191   1.8894   1.9513
     2.7583   3.7127   3.7755   3.8149   3.9215   3.9389   3.9939   4.0122
     4.0729   4.1038   4.1200

          k = 0.0380-0.0839 0.0000 ( 17916 PWs)   bands (ev):

   -55.5853 -55.5843 -55.5524 -55.5438 -55.5410 -55.4250 -55.4045 -55.3955
   -55.3938 -55.3620 -55.3582 -55.3505 -54.9989 -54.8745 -54.5639 -54.5637
   -31.9164 -31.8998 -31.8994 -31.8986 -31.8806 -31.8795 -31.8388 -31.8306
   -31.8038 -31.7753 -31.7651 -31.7645 -31.7579 -31.7243 -31.7162 -31.7136
   -31.7098 -31.7073 -31.7060 -31.7049 -31.6922 -31.6892 -31.6546 -31.6323
   -31.6256 -31.6239 -31.6173 -31.6120 -31.6097 -31.5925 -31.5859 -31.5634
   -31.5630 -31.5565 -31.5530 -31.5502 -31.4213 -31.2708 -31.2189 -31.1629
   -31.1306 -31.1060 -30.8890 -30.8888 -30.8009 -30.8006 -30.7615 -30.7614
   -18.9226 -18.2983 -15.7999 -15.7486 -15.6179 -15.5765 -15.4557 -15.4327
   -15.3706 -15.3552 -15.3215 -15.3015 -15.2874 -15.2525 -15.1475 -15.1420
   -15.0443 -15.0297 -15.0234 -15.0150 -15.0009 -14.9872 -14.9667 -14.9550
   -14.9523 -14.9154 -14.9005 -14.8878 -14.8009 -14.6660 -14.3859 -13.0687
   -13.0684 -11.3145  -6.8881  -6.7250  -4.1322  -3.8724  -3.8020  -3.2564
    -3.0374  -2.8642  -2.8250  -2.7917  -2.7753  -2.7530  -2.7220  -2.7003
    -2.6794  -2.6571  -2.6304  -2.5882  -2.5796  -2.5699  -2.5539  -2.5201
    -2.4540  -2.4417  -2.4329  -2.4004  -2.3735  -2.3176  -2.2959  -2.2822
    -2.2671  -2.2341  -2.1940  -2.1315  -2.1058  -1.9620  -1.7530  -1.7044
    -1.6854  -1.5829  -1.5210  -1.4917  -1.4778  -1.4651  -1.4279  -1.4054
    -1.3699  -1.3438  -1.3217  -1.2683  -1.2322  -1.2207  -1.2071  -1.1353
    -1.0488  -1.0134  -0.8558  -0.7136  -0.6868  -0.6561  -0.6307  -0.5829
    -0.5227  -0.4568  -0.4251  -0.3979  -0.3643  -0.3491  -0.3311  -0.3123
    -0.2937  -0.2588  -0.2040  -0.1882  -0.1726  -0.1498  -0.1340  -0.1023
    -0.0159   0.0268   0.0679   0.1836   0.2125   0.2914   0.3266   0.4524
     0.4960   0.5051   0.5372   0.5544   0.5993   0.6779   0.7529   0.7703
     0.9312   0.9656   1.0887   1.1402   1.7867   1.7879   1.8929   1.8939
     2.7675   3.7782   3.8490   3.9201   3.9421   3.9524   3.9838   4.0276
     4.1370   4.1573   4.1620

          k = 0.0380-0.0419 0.0000 ( 17876 PWs)   bands (ev):

   -55.5968 -55.5727 -55.5557 -55.5524 -55.5298 -55.4307 -55.4067 -55.3987
   -55.3827 -55.3721 -55.3497 -55.3480 -54.9999 -54.8734 -54.5757 -54.5517
   -32.0463 -32.0314 -31.9067 -31.8898 -31.8868 -31.8827 -31.8517 -31.8249
   -31.8186 -31.7989 -31.7744 -31.7697 -31.7645 -31.7631 -31.7378 -31.7319
   -31.7176 -31.7133 -31.6726 -31.6628 -31.6512 -31.6410 -31.6038 -31.6031
   -31.5999 -31.5974 -31.5910 -31.5857 -31.5794 -31.5790 -31.5718 -31.5674
   -31.5521 -31.5467 -31.5401 -31.5370 -31.4727 -31.2716 -31.1974 -31.1401
   -31.1298 -31.0935 -30.9335 -30.8987 -30.8792 -30.7919 -30.7308 -30.6641
   -18.9227 -18.3000 -16.0926 -15.8708 -15.6556 -15.6301 -15.5437 -15.4727
   -15.4260 -15.3575 -15.3528 -15.2584 -15.2265 -15.1912 -15.1822 -15.1164
   -15.0951 -15.0739 -15.0188 -14.9863 -14.9731 -14.9263 -14.9127 -14.8817
   -14.8654 -14.8492 -14.8359 -14.8067 -14.7807 -14.6780 -14.2798 -13.0848
   -13.0064 -11.3153  -6.8746  -6.7291  -4.1546  -3.8770  -3.8087  -3.4133
    -3.2120  -3.1545  -3.1231  -3.0554  -2.9932  -2.9840  -2.8685  -2.8221
    -2.7044  -2.6824  -2.5989  -2.5650  -2.5329  -2.5045  -2.4889  -2.4565
    -2.4301  -2.3969  -2.3634  -2.3235  -2.3085  -2.2912  -2.2483  -2.2386
    -2.2230  -2.1585  -2.0878  -2.0733  -2.0541  -1.9492  -1.8809  -1.8140
    -1.7543  -1.7234  -1.6231  -1.5834  -1.5549  -1.5138  -1.3757  -1.3446
    -1.3005  -1.2605  -1.1821  -1.1319  -1.0566  -1.0097  -0.9966  -0.9180
    -0.8731  -0.8563  -0.8374  -0.7873  -0.7276  -0.6907  -0.6613  -0.6322
    -0.5427  -0.5268  -0.4666  -0.4364  -0.3905  -0.3310  -0.3198  -0.3008
    -0.2711  -0.2281  -0.2159  -0.1508  -0.1213  -0.0775  -0.0265   0.0076
     0.0630   0.1045   0.1331   0.1732   0.1983   0.2987   0.3578   0.4130
     0.4845   0.5436   0.6197   0.6482   0.7227   0.7490   0.7918   0.8245
     0.8417   0.9934   1.0628   1.3512   1.6417   1.7192   1.8892   1.9519
     2.7561   3.7116   3.7763   3.8108   3.9098   3.9627   3.9914   4.0154
     4.0806   4.1141   4.1201

          k =-0.0760-0.0000 0.0000 ( 17886 PWs)   bands (ev):

   -55.6018 -55.5678 -55.5606 -55.5534 -55.5246 -55.4348 -55.4114 -55.3946
   -55.3778 -55.3772 -55.3490 -55.3431 -55.0009 -54.8724 -54.5807 -54.5467
   -32.1032 -32.0863 -31.9550 -31.9459 -31.9110 -31.8944 -31.8760 -31.8637
   -31.8448 -31.7957 -31.7713 -31.7492 -31.7483 -31.7391 -31.7232 -31.7061
   -31.7052 -31.6874 -31.6817 -31.6592 -31.6513 -31.6273 -31.6200 -31.6034
   -31.5895 -31.5876 -31.5872 -31.5840 -31.5756 -31.5489 -31.5464 -31.5416
   -31.5309 -31.5284 -31.5170 -31.5049 -31.4898 -31.2751 -31.1999 -31.1305
   -31.1091 -31.0788 -30.9871 -30.9062 -30.8738 -30.8044 -30.7180 -30.6070
   -18.9227 -18.3017 -16.1067 -15.9124 -15.6959 -15.6888 -15.5718 -15.4676
   -15.4622 -15.3771 -15.3640 -15.3216 -15.3009 -15.2895 -15.2774 -15.2494
   -15.1957 -15.0287 -14.9958 -14.9508 -14.9027 -14.8872 -14.8490 -14.8426
   -14.8224 -14.7833 -14.7588 -14.7572 -14.6901 -14.6561 -14.2001 -13.0767
   -12.9659 -11.3159  -6.8593  -6.7267  -4.1553  -3.9020  -3.8196  -3.5509
    -3.2760  -3.2428  -3.1521  -3.0266  -3.0006  -2.9621  -2.9093  -2.8634
    -2.8493  -2.8467  -2.8245  -2.8133  -2.5966  -2.4160  -2.4030  -2.3822
    -2.3117  -2.2184  -2.1908  -2.1712  -2.1179  -2.0969  -2.0885  -2.0290
    -2.0096  -1.9396  -1.9221  -1.9101  -1.8990  -1.8378  -1.8318  -1.8063
    -1.7868  -1.7415  -1.6915  -1.6329  -1.5284  -1.4582  -1.4033  -1.3688
    -1.3141  -1.2221  -1.2204  -1.1976  -1.1865  -1.1841  -1.1504  -1.0763
    -1.0651  -0.9845  -0.9618  -0.8812  -0.8326  -0.8071  -0.7924  -0.7682
    -0.7521  -0.7206  -0.6087  -0.4063  -0.3488  -0.3000  -0.2417  -0.2226
    -0.2183  -0.1795  -0.0905  -0.0822  -0.0687  -0.0181   0.0272   0.0735
     0.1160   0.1544   0.1955   0.2226   0.2604   0.2706   0.2833   0.3904
     0.4613   0.4921   0.5645   0.6182   0.6620   0.7327   0.8895   0.8924
     1.0300   1.0897   1.1307   1.3828   1.4746   1.5786   1.7720   1.9201
     2.7867   3.5668   3.5708   3.7212   3.8153   3.8695   3.8883   3.9862
     3.9969   4.0493   4.0702

          k =-0.0760 0.0419 0.0000 ( 17914 PWs)   bands (ev):

   -55.5968 -55.5728 -55.5557 -55.5524 -55.5298 -55.4307 -55.4065 -55.3987
   -55.3827 -55.3723 -55.3497 -55.3481 -54.9999 -54.8734 -54.5758 -54.5517
   -32.0467 -32.0324 -31.9081 -31.8932 -31.8898 -31.8830 -31.8517 -31.8250
   -31.8241 -31.7988 -31.7739 -31.7674 -31.7634 -31.7472 -31.7357 -31.7322
   -31.7141 -31.7077 -31.6725 -31.6705 -31.6410 -31.6290 -31.6099 -31.6033
   -31.5998 -31.5993 -31.5909 -31.5906 -31.5841 -31.5800 -31.5791 -31.5671
   -31.5510 -31.5463 -31.5439 -31.5403 -31.4716 -31.2737 -31.1975 -31.1401
   -31.1306 -31.0935 -30.9333 -30.9015 -30.8785 -30.7919 -30.7308 -30.6642
   -18.9225 -18.3000 -15.9903 -15.7991 -15.6036 -15.5903 -15.4840 -15.4255
   -15.4072 -15.3648 -15.3542 -15.3360 -15.2701 -15.2393 -15.2362 -15.1962
   -15.1941 -15.0653 -15.0522 -14.9775 -14.9597 -14.9410 -14.9367 -14.8869
   -14.8791 -14.8672 -14.8505 -14.7810 -14.7697 -14.6738 -14.2790 -13.0827
   -13.0067 -11.3150  -6.8773  -6.7205  -4.1428  -3.8902  -3.8036  -3.3996
    -3.1997  -3.1155  -2.8930  -2.8390  -2.7769  -2.7320  -2.7129  -2.6584
    -2.6482  -2.6426  -2.6220  -2.5751  -2.5507  -2.5028  -2.4858  -2.4693
    -2.4210  -2.3729  -2.3409  -2.2961  -2.2730  -2.2545  -2.1867  -2.1619
    -2.1248  -2.0885  -2.0850  -2.0776  -1.9810  -1.9160  -1.9011  -1.7227
    -1.6975  -1.6632  -1.6191  -1.5986  -1.5337  -1.4605  -1.4016  -1.3876
    -1.2900  -1.2449  -1.2154  -1.1648  -1.1151  -1.0765  -1.0342  -0.9957
    -0.9724  -0.9054  -0.8935  -0.8442  -0.8352  -0.8174  -0.8125  -0.7757
    -0.7558  -0.6791  -0.6111  -0.5989  -0.5629  -0.5066  -0.4818  -0.3981
    -0.3580  -0.3207  -0.3097  -0.2406  -0.2130  -0.1866  -0.1275  -0.0815
    -0.0102   0.0460   0.0924   0.1136   0.2283   0.3071   0.3869   0.4160
     0.5697   0.6435   0.6669   0.7038   0.7638   0.7933   0.8589   0.8913
     0.9159   0.9740   1.0076   1.1823   1.6563   1.7223   1.8128   1.9406
     2.7733   3.7033   3.7714   3.7750   3.8380   3.8824   3.8975   3.9739
     4.0395   4.1127   4.1768

          k =-0.0760-0.0839 0.0000 ( 17948 PWs)   bands (ev):

   -55.5854 -55.5843 -55.5524 -55.5438 -55.5410 -55.4251 -55.4046 -55.3954
   -55.3937 -55.3621 -55.3583 -55.3505 -54.9989 -54.8745 -54.5639 -54.5637
   -31.9167 -31.9002 -31.9002 -31.8994 -31.8806 -31.8796 -31.8395 -31.8309
   -31.8039 -31.7828 -31.7712 -31.7630 -31.7581 -31.7145 -31.7109 -31.7083
   -31.7059 -31.7049 -31.7038 -31.6993 -31.6968 -31.6961 -31.6560 -31.6437
   -31.6229 -31.6168 -31.6097 -31.5952 -31.5946 -31.5918 -31.5856 -31.5769
   -31.5730 -31.5635 -31.5630 -31.5540 -31.4212 -31.2724 -31.2188 -31.1629
   -31.1317 -31.1060 -30.8899 -30.8898 -30.8008 -30.8006 -30.7615 -30.7614
   -18.9224 -18.2982 -15.7548 -15.6506 -15.5540 -15.5185 -15.4619 -15.4024
   -15.3876 -15.3062 -15.2827 -15.2792 -15.2179 -15.1962 -15.1611 -15.1488
   -15.1275 -15.1140 -15.1104 -15.0543 -15.0478 -15.0387 -15.0319 -15.0285
   -14.9616 -14.9193 -14.9157 -14.9111 -14.7865 -14.6610 -14.3829 -13.0685
   -13.0682 -11.3143  -6.8938  -6.7154  -4.1311  -3.8811  -3.7962  -3.2531
    -3.0377  -2.8339  -2.8072  -2.7122  -2.6975  -2.6673  -2.5351  -2.4952
    -2.4554  -2.4411  -2.4181  -2.4170  -2.4039  -2.3974  -2.3803  -2.3564
    -2.3286  -2.3032  -2.2735  -2.2653  -2.2532  -2.2350  -2.2217  -2.2046
    -2.2015  -2.1577  -2.1364  -2.1269  -2.0441  -1.9897  -1.8268  -1.7844
    -1.7400  -1.7305  -1.7055  -1.6993  -1.6681  -1.6541  -1.6017  -1.5901
    -1.4782  -1.3606  -1.3216  -1.2990  -1.2887  -1.2704  -1.1989  -1.0979
    -1.0736  -0.9987  -0.9943  -0.8912  -0.8769  -0.7962  -0.7860  -0.7613
    -0.7056  -0.6698  -0.6498  -0.5663  -0.5607  -0.5384  -0.4962  -0.4658
    -0.4079  -0.3522  -0.3228  -0.3137  -0.2760  -0.2514  -0.2106  -0.1596
    -0.0975  -0.0595   0.0359   0.1387   0.2221   0.3587   0.4688   0.4965
     0.5715   0.6078   0.6822   0.7116   0.7186   0.7800   0.7930   0.8818
     0.9393   0.9521   0.9881   1.1069   1.8049   1.8063   1.8782   1.8785
     2.7853   3.7575   3.8671   3.9100   3.9308   4.0058   4.0469   4.0666
     4.0692   4.1055   4.2083

     the Fermi energy is     3.5318 ev

!    total energy              =   -2974.00308621 Ry
     estimated scf accuracy    <       0.00000003 Ry
     smearing contrib. (-TS)   =      -0.02180847 Ry
     internal energy E=F+TS    =   -2973.98127774 Ry

     The total energy is F=E-TS. E is the sum of the following terms:
     one-electron contribution =  -23851.77781707 Ry
     hartree contribution      =   12020.47679012 Ry
     xc contribution           =    -494.04245672 Ry
     ewald contribution        =    9351.36059137 Ry
     electric field correction =       0.00161456 Ry

     convergence has been achieved in  67 iterations

     Forces acting on atoms (cartesian axes, Ry/au):

     atom    1 type  1   force =     0.00016673   -0.00021333    0.09633581
     atom    2 type  1   force =    -0.00018663   -0.00044381   -0.17540066
     atom    3 type  2   force =     0.00001911   -0.00014776   -0.02470877
     atom    4 type  2   force =     0.00005390   -0.00162043    0.05342923
     atom    5 type  2   force =    -0.01198709   -0.00148106    0.00369357
     atom    6 type  2   force =     0.01344118   -0.00064037    0.00223068
     atom    7 type  1   force =    -0.00108850    0.00055880   -0.00696341
     atom    8 type  1   force =     0.00064542    0.00917653    0.02676865
     atom    9 type  2   force =     0.00017587    0.00020283   -0.00047441
     atom   10 type  2   force =    -0.00157668   -0.00030606   -0.01790535
     atom   11 type  2   force =     0.00089825    0.00090036    0.00000270
     atom   12 type  2   force =    -0.00060265    0.00060310   -0.00003065
     atom   13 type  1   force =    -0.00026966    0.00024277   -0.00035003
     atom   14 type  1   force =     0.00026819    0.00027186    0.00005319
     atom   15 type  2   force =     0.00008597    0.00019054   -0.00026525
     atom   16 type  2   force =     0.00000966    0.00020459    0.00083384
     atom   17 type  2   force =     0.00104532    0.00001170    0.00008414
     atom   18 type  2   force =    -0.00138331   -0.00008132   -0.00002907
     atom   19 type  1   force =    -0.00005265    0.00126547   -0.00003686
     atom   20 type  1   force =    -0.00030876   -0.00008463   -0.00016743
     atom   21 type  2   force =     0.00009904    0.00001400    0.10319726
     atom   22 type  2   force =    -0.00014752    0.00031939    0.00060513
     atom   23 type  2   force =    -0.07146141   -0.00009123   -0.02778063
     atom   24 type  2   force =     0.07144859    0.00035416   -0.02777549
     atom   25 type  1   force =     0.00001737   -0.00032278    0.09608582
     atom   26 type  1   force =    -0.00030477   -0.00045142   -0.17576008
     atom   27 type  2   force =     0.00008885   -0.00025082   -0.02369889
     atom   28 type  2   force =     0.00012007   -0.00130049    0.05282928
     atom   29 type  2   force =    -0.01225728    0.00021655    0.00357180
     atom   30 type  2   force =     0.01359581    0.00042989    0.00207253
     atom   31 type  1   force =    -0.00117910    0.00349815   -0.01015656
     atom   32 type  1   force =     0.00082882   -0.01100063    0.02705680
     atom   33 type  2   force =     0.00010139   -0.00000213    0.00057312
     atom   34 type  2   force =    -0.00116183   -0.00123035   -0.02346465
     atom   35 type  2   force =     0.00081531   -0.00052271   -0.00011003
     atom   36 type  2   force =    -0.00058061   -0.00018612   -0.00013472
     atom   37 type  1   force =    -0.00056133    0.00020119   -0.00042316
     atom   38 type  1   force =     0.00028207   -0.00025590    0.00011147
     atom   39 type  2   force =     0.00011642    0.00044852    0.00011714
     atom   40 type  2   force =     0.00019762    0.00015134   -0.00054567
     atom   41 type  2   force =     0.00084364    0.00072506    0.00037544
     atom   42 type  2   force =    -0.00091839    0.00067550    0.00016693
     atom   43 type  1   force =    -0.00002101   -0.00089611   -0.00086707
     atom   44 type  1   force =    -0.00022600    0.00104167    0.00027734
     atom   45 type  2   force =     0.00008531   -0.00002549    0.10319863
     atom   46 type  2   force =    -0.07146615   -0.00001772   -0.02778778
     atom   47 type  2   force =     0.07145084    0.00039630   -0.02778640
     atom   48 type  3   force =     0.00022932   -0.00151255   -0.00052285
     atom   49 type  3   force =     0.00005975   -0.00021262    0.00032670
     atom   50 type  4   force =     0.00021494    0.00120272    0.00075671
     atom   51 type  5   force =     0.00011387   -0.00062581   -0.00097450
     atom   52 type  5   force =     0.00021651   -0.00005916   -0.00031497
     atom   53 type  5   force =     0.00004184   -0.00019686   -0.00047839
     atom   54 type  2   force =    -0.00658183   -0.00573816   -0.00347776
     atom   55 type  5   force =     0.00666938    0.00551551    0.00287679
     atom   56 type  5   force =    -0.00012321    0.00109934    0.00076079

     Total force =     0.367965     Total SCF correction =     0.000406
  @ DRIVER MODE: Message from server: STATUS
  @ DRIVER MODE: Message from server: GETFORCE
  @ DRIVER MODE: Returning v,forces,stress,ensemble 

     Writing output data file ./calc.save/
  @ DRIVER MODE: Message from server: EXIT
  @ DRIVE MODE: Exiting  
 
     init_run     :     10.93s CPU     11.15s WALL (       1 calls)
     electrons    :   1163.29s CPU   1179.51s WALL (       1 calls)
     forces       :      2.45s CPU      2.54s WALL (       1 calls)

     Called by init_run:
     wfcinit      :      4.91s CPU      4.97s WALL (       1 calls)
     potinit      :      5.36s CPU      5.43s WALL (       1 calls)
     hinit0       :      0.30s CPU      0.31s WALL (       1 calls)

     Called by electrons:
     c_bands      :   1000.03s CPU   1007.10s WALL (      67 calls)
     sum_band     :    110.45s CPU    114.06s WALL (      67 calls)
     v_of_rho     :     39.69s CPU     41.65s WALL (      68 calls)
     newd         :     16.28s CPU     19.82s WALL (      68 calls)
     mix_rho      :      1.47s CPU      1.51s WALL (      67 calls)
     vdW_kernel   :      4.55s CPU      4.56s WALL (       1 calls)

     Called by c_bands:
     init_us_2    :      7.50s CPU      7.54s WALL (    1360 calls)
     cegterg      :    980.70s CPU    987.47s WALL (     686 calls)

     Called by *egterg:
     cdiaghg      :    168.68s CPU    169.44s WALL (    7726 calls)
     h_psi        :    506.59s CPU    511.32s WALL (    7741 calls)
     s_psi        :     70.96s CPU     71.17s WALL (    7741 calls)
     g_psi        :      2.01s CPU      2.02s WALL (    7045 calls)

     Called by h_psi:
     h_psi:calbec :     66.59s CPU     66.90s WALL (    7741 calls)
     vloc_psi     :    364.01s CPU    367.75s WALL (    7741 calls)
     add_vuspsi   :     72.02s CPU     72.44s WALL (    7741 calls)

     General routines
     calbec       :     86.23s CPU     86.60s WALL (    8451 calls)
     fft          :     20.37s CPU     20.50s WALL (    4284 calls)
     ffts         :      0.13s CPU      0.13s WALL (     135 calls)
     fftw         :    404.67s CPU    408.68s WALL (  966632 calls)
     interpolate  :      0.44s CPU      0.44s WALL (      68 calls)
     davcio       :      0.00s CPU      0.20s WALL (      10 calls)
 
     Parallel routines
 
     PWSCF        :  19m36.96s CPU  19m54.15s WALL

 
   This run was terminated on:   6:21: 0  16Sep2021            

=------------------------------------------------------------------------------=
   JOB DONE.
=------------------------------------------------------------------------------=
