
     Program PWSCF v.6.7GPU starts on 16Sep2021 at 12: 9:24 

     This program is part of the open-source Quantum ESPRESSO suite
     for quantum simulation of materials; please cite
         "P. Giannozzi et al., J. Phys.:Condens. Matter 21 395502 (2009);
         "P. Giannozzi et al., J. Phys.:Condens. Matter 29 465901 (2017);
         "P. Giannozzi et al., J. Chem. Phys. 152 154105 (2020);
          URL http://www.quantum-espresso.org", 
     in publications or presentations arising from this work. More details at
     http://www.quantum-espresso.org/quote

     Parallel version (MPI), running on    10 processors

     MPI processes distributed on     1 nodes
     R & G space division:  proc/nbgrp/npool/nimage =      10
     Reading input from /storage/home/hcoda1/3/ntian30/research/carbon/CxH_vib/H2O_calc/ads_slab/CH3NNHHHH2O_a/out_0058/pw.inp
Warning: card &CELL ignored
Warning: card   CELL_DYNAMICS='IPI', ignored
Warning: card / ignored

     Current dimensions of program PWSCF are:
     Max number of different atomic species (ntypx) = 10
     Max number of k-points (npk) =  40000
     Max angular momentum in pseudopotentials (lmaxx) =  3
     Presently no symmetry can be used with electric field

     Message from routine cell_base_init:
     DEPRECATED: use true lattice parameter, not A to a.u. conversion factor

     **************************************************************************
     Initializing libbeef V0.1.2 with the BEEF-vdW functional.
     Citation: Wellendorff et al., PRB 85, 235149 (2012).
     **************************************************************************


     IMPORTANT: XC functional enforced from input :
     Exchange-correlation= BEEF-VDW
                           (   1   4  43  14   2   0   0)
     Any further DFT definition will be discarded
     Please, verify this is what you really want


     Subspace diagonalization in iterative solution of the eigenvalue problem:
     one sub-group per band group will be used
     scalapack distributed-memory algorithm (size of sub-group:  3*  3 procs)

  @ DRIVER MODE: Connecting to 
 qe_1139763_2852622.sched-torque.pace.gatech.edur38bbf88_scratch
  using UNIX socket
  @ DRIVER MODE: Message from server: STATUS
  @ DRIVER MODE: Message from server: INIT
  @ DRIVER MODE: Receiving replica           0          -1
  @ DRIVER MODE: Receiving encoded integer          25
  @ DRIVER MODE:  SCF:  T  FORCE:  T  STRESS:  F  VC:  F  ENSEMBLE:  F
  @ DRIVER MODE:  SCF:  T  FORCE:  T  STRESS:  F  VC:  F  ENSEMBLE:  F
 
     Parallelization info
     --------------------
     sticks:   dense  smooth     PW     G-vecs:    dense   smooth      PW
     Min         327     131     37                56683    14340    2191
     Max         328     133     38                56694    14346    2206
     Sum        3275    1317    379               566857   143421   21985
 
     Using Slab Decomposition
 


     bravais-lattice index     =            0
     lattice parameter (alat)  =       1.8897  a.u.
     unit-cell volume          =    6658.9804 (a.u.)^3
     number of atoms/cell      =           59
     number of atomic types    =            5
     number of electrons       =       406.00
     number of Kohn-Sham states=          213
     kinetic-energy cutoff     =      29.3995  Ry
     charge density cutoff     =     293.9946  Ry
     scf convergence threshold =      7.3E-08
     mixing beta               =       0.0500
     number of iterations used =            8  plain     mixing
     Exchange-correlation= BEEF-VDW
                           (   1   4  43  14   2   0   0)

     celldm(1)=   1.889726  celldm(2)=   0.000000  celldm(3)=   0.000000
     celldm(4)=   0.000000  celldm(5)=   0.000000  celldm(6)=   0.000000

     crystal axes: (cart. coord. in units of alat)
               a(1) = (   6.579727   0.000000   0.000000 )  
               a(2) = (  -0.000775   5.961596   0.000000 )  
               a(3) = (   0.000000   0.000000  25.155947 )  

     reciprocal axes: (cart. coord. in units 2 pi/alat)
               b(1) = (  0.151982  0.000020  0.000000 )  
               b(2) = (  0.000000  0.167740  0.000000 )  
               b(3) = (  0.000000  0.000000  0.039752 )  


     PseudoPot. # 1 for Ti read from file:
     /storage/coda1/p-amedford6/0/shared/rich_project_chbe-medford/medford-share/data/pseudos_module/espresso/nninc/pbe/van/Ti.UPF
     MD5 check sum: 8e4df49b7f0d34bbd5052bf3f5ea0213
     Pseudo is Ultrasoft, Zval = 12.0
     Generated by new atomic code, or converted to UPF format
     Using radial grid of  851 points,  6 beta functions with: 
                l(1) =   0
                l(2) =   0
                l(3) =   1
                l(4) =   1
                l(5) =   2
                l(6) =   2
     Q(r) pseudized with  8 coefficients,  rinner =    1.000   1.000   1.000
                                                       1.000   1.000

     PseudoPot. # 2 for O  read from file:
     /storage/coda1/p-amedford6/0/shared/rich_project_chbe-medford/medford-share/data/pseudos_module/espresso/nninc/pbe/van/O.UPF
     MD5 check sum: 78c19812648e8988a0fe644b0f25305e
     Pseudo is Ultrasoft, Zval =  6.0
     Generated by new atomic code, or converted to UPF format
     Using radial grid of  737 points,  4 beta functions with: 
                l(1) =   0
                l(2) =   0
                l(3) =   1
                l(4) =   1
     Q(r) pseudized with  8 coefficients,  rinner =    0.800   0.800   0.800


     PseudoPot. # 3 for N  read from file:
     /storage/coda1/p-amedford6/0/shared/rich_project_chbe-medford/medford-share/data/pseudos_module/espresso/nninc/pbe/van/N.UPF
     MD5 check sum: 90d10febe142ad51ac9d5be1deb811c4
     Pseudo is Ultrasoft, Zval =  5.0
     Generated by new atomic code, or converted to UPF format
     Using radial grid of  729 points,  4 beta functions with: 
                l(1) =   0
                l(2) =   0
                l(3) =   1
                l(4) =   1
     Q(r) pseudized with  8 coefficients,  rinner =    0.800   0.800   0.800


     PseudoPot. # 4 for C  read from file:
     /storage/coda1/p-amedford6/0/shared/rich_project_chbe-medford/medford-share/data/pseudos_module/espresso/nninc/pbe/van/C.UPF
     MD5 check sum: 1a69bf6b8db32088f5b2163dbdb77a27
     Pseudo is Ultrasoft, Zval =  4.0
     Generated by new atomic code, or converted to UPF format
     Using radial grid of  721 points,  4 beta functions with: 
                l(1) =   0
                l(2) =   0
                l(3) =   1
                l(4) =   1
     Q(r) pseudized with  8 coefficients,  rinner =    0.800   0.800   0.800


     PseudoPot. # 5 for H  read from file:
     /storage/coda1/p-amedford6/0/shared/rich_project_chbe-medford/medford-share/data/pseudos_module/espresso/nninc/pbe/van/H.UPF
     MD5 check sum: b5ee9d7bfd3a09ee7748110bda690ff7
     Pseudo is Ultrasoft, Zval =  1.0
     Generated by new atomic code, or converted to UPF format
     Using radial grid of  615 points,  1 beta functions with: 
                l(1) =   0
     Q(r) pseudized with  8 coefficients,  rinner =    0.800

     atomic species   valence    mass     pseudopotential
        Ti1           12.00    47.86700     Ti( 1.00)
        O1             6.00    15.99900     O ( 1.00)
        N1             5.00    14.00700     N ( 1.00)
        C1             4.00    12.01100     C ( 1.00)
        H1             1.00     1.00800     H ( 1.00)

     No symmetry found



   Cartesian axes

     site n.     atom                  positions (alat units)
         1           Ti1 tau(   1) = (   0.0004258   2.9801865   6.0000000  )
         2           Ti1 tau(   2) = (   3.2906075   1.4906267   6.0002472  )
         3           O1  tau(   3) = (   0.0006271   0.0005054   7.9858123  )
         4           O1  tau(   4) = (   3.2906025   0.0005020   7.3038282  )
         5           O1  tau(   5) = (   4.5942328   1.4918067   9.2879030  )
         6           O1  tau(   6) = (   1.9868534   1.4903216   9.2879459  )
         7           Ti1 tau(   7) = (   3.2907910   2.8959150   9.1758416  )
         8           Ti1 tau(   8) = (   0.0015273   1.4827037   9.2680791  )
         9           O1  tau(   9) = (   3.2800960   5.9426830  11.3808346  )
        10           O1  tau(  10) = (   0.0116148   5.9584955  10.6183126  )
        11           O1  tau(  11) = (   1.2797812   1.4911726  12.6624455  )
        12           O1  tau(  12) = (   5.2824698   1.4871998  12.6412817  )
        13           Ti1 tau(  13) = (   0.0041451   2.9720195  12.5119452  )
        14           Ti1 tau(  14) = (   3.3095611   1.4699318  12.5307708  )
        15           O1  tau(  15) = (   6.5436702   0.0697967  14.6864816  )
        16           O1  tau(  16) = (   3.2812162   5.9597207  14.0300411  )
        17           O1  tau(  17) = (   4.5129646   1.5046642  16.2361130  )
        18           O1  tau(  18) = (   1.9708392   1.5012857  16.1671103  )
        19           Ti1 tau(  19) = (   3.2655272   2.9480959  15.7331506  )
        20           Ti1 tau(  20) = (   6.5674642   1.4497656  15.9937491  )
        21           O1  tau(  21) = (   3.2904802   0.0005063   4.7018136  )
        22           O1  tau(  22) = (   6.5217933   5.8323795  17.2454964  )
        23           O1  tau(  23) = (   1.3043587   1.4918075   6.0039043  )
        24           O1  tau(  24) = (   5.2767064   1.4903225   6.0039473  )
        25           Ti1 tau(  25) = (   0.0000382   5.9609847   6.0000000  )
        26           Ti1 tau(  26) = (   3.2902200   4.4714249   6.0002472  )
        27           O1  tau(  27) = (   0.0002396   2.9813036   7.9858123  )
        28           O1  tau(  28) = (   3.2902150   2.9813002   7.3038282  )
        29           O1  tau(  29) = (   4.5938453   4.4726049   9.2879030  )
        30           O1  tau(  30) = (   1.9864658   4.4711199   9.2879459  )
        31           Ti1 tau(  31) = (   3.2891106   5.8743827   9.1763621  )
        32           Ti1 tau(  32) = (   0.0006254   4.4649316   9.2693709  )
        33           O1  tau(  33) = (   3.2830490   2.9749636  11.3746576  )
        34           O1  tau(  34) = (   0.0092240   2.9805883  10.6323155  )
        35           O1  tau(  35) = (   1.2760807   4.4612897  12.6946019  )
        36           O1  tau(  36) = (   5.2846406   4.4647657  12.6742532  )
        37           Ti1 tau(  37) = (   0.0173662   5.9591775  12.4970172  )
        38           Ti1 tau(  38) = (   3.3070294   4.4569304  12.5379467  )
        39           O1  tau(  39) = (   6.5190077   2.9374781  14.9220565  )
        40           O1  tau(  40) = (   3.2909943   2.9519766  13.9498127  )
        41           O1  tau(  41) = (   4.5146313   4.4149292  16.1460290  )
        42           O1  tau(  42) = (   1.9668235   4.4047650  16.1116202  )
        43           Ti1 tau(  43) = (   3.2426406   5.9218513  15.8539982  )
        44           Ti1 tau(  44) = (   6.5337747   4.6515477  15.8702276  )
        45           O1  tau(  45) = (   3.2900926   2.9813045   4.7018136  )
        46           O1  tau(  46) = (   1.3039711   4.4726057   6.0039043  )
        47           O1  tau(  47) = (   5.2763189   4.4711207   6.0039473  )
        48           N1  tau(  48) = (   1.0802268   3.0592680  18.8437747  )
        49           N1  tau(  49) = (   6.4825355   2.6367244  18.1156036  )
        50           C1  tau(  50) = (   0.7269815   3.7261681  20.0984356  )
        51           H1  tau(  51) = (   0.0344531   4.5672025  19.9493712  )
        52           H1  tau(  52) = (   0.2718923   3.0081313  20.7822053  )
        53           H1  tau(  53) = (   1.6424345   4.1087450  20.5485440  )
        54           H1  tau(  54) = (   5.7152520   3.3097272  18.2274121  )
        55           H1  tau(  55) = (   6.1788988   1.7551022  18.5268573  )
        56           H1  tau(  56) = (   1.5478348   3.7306874  18.2371031  )
        57           O1  tau(  57) = (   3.1661568   0.0127346  18.3937517  )
        58           H1  tau(  58) = (   4.0701885   0.3469208  18.4697374  )
        59           H1  tau(  59) = (   2.5798038   0.7742236  18.5044111  )

     number of k points=    10  Fermi-Dirac smearing, width (Ry)=  0.0073
                       cart. coord. in units 2pi/alat
        k(    1) = (   0.0000000   0.0000000   0.0000000), wk =   0.1250000
        k(    2) = (   0.0000000   0.0419351   0.0000000), wk =   0.2500000
        k(    3) = (   0.0000000  -0.0838702   0.0000000), wk =   0.1250000
        k(    4) = (   0.0379955   0.0000049   0.0000000), wk =   0.2500000
        k(    5) = (   0.0379955   0.0419400   0.0000000), wk =   0.2500000
        k(    6) = (   0.0379955  -0.0838652   0.0000000), wk =   0.2500000
        k(    7) = (   0.0379955  -0.0419301   0.0000000), wk =   0.2500000
        k(    8) = (  -0.0759910  -0.0000099   0.0000000), wk =   0.1250000
        k(    9) = (  -0.0759910   0.0419252   0.0000000), wk =   0.2500000
        k(   10) = (  -0.0759910  -0.0838800   0.0000000), wk =   0.1250000

     Dense  grid:   566857 G-vectors     FFT dimensions: (  72,  64, 270)

     Smooth grid:   143421 G-vectors     FFT dimensions: (  45,  40, 180)

     Estimated max dynamical RAM per process >     368.16 MB

     Estimated total dynamical RAM >       3.60 GB
     Cannot read rho : file not found

     Initial potential from superposition of free atoms

     starting charge  389.99912, renormalised to  406.00000

     negative rho (up, down):  1.306E-02 0.000E+00


     %%%%%%%%%%%%%%%%%%%%%%%%%%%%%%%%%%%%%%%%%%%%%%%%%%%%%%%%%%%%%%%%%%%%%%%%
     %                                                                      %
     % You are using vdW-DF, which was implemented by the Thonhauser group. %
     % Please cite the following two papers that made this development      %
     % possible and the two reviews that describe the various versions:     %
     %                                                                      %
     %   T. Thonhauser et al., PRL 115, 136402 (2015).                      %
     %   T. Thonhauser et al., PRB 76, 125112 (2007).                       %
     %   K. Berland et al., Rep. Prog. Phys. 78, 066501 (2015).             %
     %   D.C. Langreth et al., J. Phys.: Condens. Matter 21, 084203 (2009). %
     %                                                                      %
     %                                                                      %
     % If you are calculating the stress with vdW-DF, please also cite:     %
     %                                                                      %
     %   R. Sabatini et al., J. Phys.: Condens. Matter 24, 424209 (2012).   %
     %                                                                      %
     %%%%%%%%%%%%%%%%%%%%%%%%%%%%%%%%%%%%%%%%%%%%%%%%%%%%%%%%%%%%%%%%%%%%%%%%


 
     Adding external electric field

     Computed dipole along edir(3) : 
        Dipole              -16.1158 Ry au,        -40.9623 Debye
        Dipole field         -0.0304 Ry au, 
 
        Potential amp.        2.8192 Ry
        Total length         46.3494 bohr
 
     Starting wfcs are  308 atomic wfcs
  @ DRIVER MODE: Message from server: STATUS
  @ DRIVER MODE: Message from server: POSDATA
  @ DRIVER MODE: Reading and sharing cell 
  @ DRIVER MODE: Reading and sharing positions 
  @ DRIVER MODE: Received positions 

     total cpu time spent up to now is       11.5 secs

     Self-consistent Calculation

     iteration #  1     ecut=    29.40 Ry     beta= 0.05
     Davidson diagonalization with overlap
     c_bands:  2 eigenvalues not converged
     c_bands:  5 eigenvalues not converged
     c_bands:  2 eigenvalues not converged
     c_bands:  3 eigenvalues not converged
     c_bands:  4 eigenvalues not converged
     c_bands:  2 eigenvalues not converged
     c_bands:  1 eigenvalues not converged
     c_bands:  5 eigenvalues not converged
     c_bands:  1 eigenvalues not converged
     ethr =  1.00E-05,  avg # of iterations = 23.1

     negative rho (up, down):  7.462E-03 0.000E+00
 
     Adding external electric field

     Computed dipole along edir(3) : 
        Dipole               63.0701 Ry au,        160.3082 Debye
        Dipole field          0.1190 Ry au, 
 
        Potential amp.      -11.0332 Ry
        Total length         46.3494 bohr
 

     total cpu time spent up to now is       58.8 secs

     total energy              =   -2140.60419715 Ry
     estimated scf accuracy    <    9598.83036488 Ry

     iteration #  2     ecut=    29.40 Ry     beta= 0.05
     Davidson diagonalization with overlap
     ethr =  1.00E-02,  avg # of iterations = 32.8

     negative rho (up, down):  2.102E-04 0.000E+00
 
     Adding external electric field

     Computed dipole along edir(3) : 
        Dipole                0.0841 Ry au,          0.2137 Debye
        Dipole field          0.0002 Ry au, 
 
        Potential amp.       -0.0147 Ry
        Total length         46.3494 bohr
 

     total cpu time spent up to now is      157.8 secs

     total energy              =   -2441.30788657 Ry
     estimated scf accuracy    <   80503.22348184 Ry

     iteration #  3     ecut=    29.40 Ry     beta= 0.05
     Davidson diagonalization with overlap
     ethr =  1.00E-02,  avg # of iterations = 16.9

     negative rho (up, down):  2.540E-04 0.000E+00
 
     Adding external electric field

     Computed dipole along edir(3) : 
        Dipole               -3.7585 Ry au,         -9.5530 Debye
        Dipole field         -0.0071 Ry au, 
 
        Potential amp.        0.6575 Ry
        Total length         46.3494 bohr
 

     total cpu time spent up to now is      208.8 secs

     total energy              =   -2966.46505123 Ry
     estimated scf accuracy    <    8653.94127902 Ry

     iteration #  4     ecut=    29.40 Ry     beta= 0.05
     Davidson diagonalization with overlap
     ethr =  1.00E-02,  avg # of iterations = 10.2

     negative rho (up, down):  2.671E-04 0.000E+00
 
     Adding external electric field

     Computed dipole along edir(3) : 
        Dipole               -5.3951 Ry au,        -13.7130 Debye
        Dipole field         -0.0102 Ry au, 
 
        Potential amp.        0.9438 Ry
        Total length         46.3494 bohr
 

     total cpu time spent up to now is      232.3 secs

     total energy              =   -2972.33520187 Ry
     estimated scf accuracy    <    2605.10027938 Ry

     iteration #  5     ecut=    29.40 Ry     beta= 0.05
     Davidson diagonalization with overlap
     c_bands:  5 eigenvalues not converged
     ethr =  1.00E-02,  avg # of iterations =  9.5

     negative rho (up, down):  3.094E-04 0.000E+00
 
     Adding external electric field

     Computed dipole along edir(3) : 
        Dipole               -8.2482 Ry au,        -20.9647 Debye
        Dipole field         -0.0156 Ry au, 
 
        Potential amp.        1.4429 Ry
        Total length         46.3494 bohr
 

     total cpu time spent up to now is      246.5 secs

     total energy              =   -2941.51943073 Ry
     estimated scf accuracy    <    1868.25932415 Ry

     iteration #  6     ecut=    29.40 Ry     beta= 0.05
     Davidson diagonalization with overlap
     c_bands:  4 eigenvalues not converged
     ethr =  1.00E-02,  avg # of iterations = 12.9

     negative rho (up, down):  2.919E-04 0.000E+00
 
     Adding external electric field

     Computed dipole along edir(3) : 
        Dipole               -6.2780 Ry au,        -15.9572 Debye
        Dipole field         -0.0118 Ry au, 
 
        Potential amp.        1.0982 Ry
        Total length         46.3494 bohr
 

     total cpu time spent up to now is      273.2 secs

     total energy              =   -2981.71610130 Ry
     estimated scf accuracy    <     129.13600646 Ry

     iteration #  7     ecut=    29.40 Ry     beta= 0.05
     Davidson diagonalization with overlap
     ethr =  1.00E-02,  avg # of iterations =  3.5

     negative rho (up, down):  2.997E-04 0.000E+00
 
     Adding external electric field

     Computed dipole along edir(3) : 
        Dipole               -5.3913 Ry au,        -13.7032 Debye
        Dipole field         -0.0102 Ry au, 
 
        Potential amp.        0.9431 Ry
        Total length         46.3494 bohr
 

     total cpu time spent up to now is      284.6 secs

     total energy              =   -2981.52458457 Ry
     estimated scf accuracy    <      29.09097708 Ry

     iteration #  8     ecut=    29.40 Ry     beta= 0.05
     Davidson diagonalization with overlap
     ethr =  7.17E-03,  avg # of iterations =  4.1

     negative rho (up, down):  2.976E-04 0.000E+00
 
     Adding external electric field

     Computed dipole along edir(3) : 
        Dipole               -5.4652 Ry au,        -13.8911 Debye
        Dipole field         -0.0103 Ry au, 
 
        Potential amp.        0.9561 Ry
        Total length         46.3494 bohr
 

     total cpu time spent up to now is      296.0 secs

     total energy              =   -2982.20582866 Ry
     estimated scf accuracy    <      18.53148792 Ry

     iteration #  9     ecut=    29.40 Ry     beta= 0.05
     Davidson diagonalization with overlap
     ethr =  4.56E-03,  avg # of iterations =  1.2

     negative rho (up, down):  3.038E-04 0.000E+00
 
     Adding external electric field

     Computed dipole along edir(3) : 
        Dipole               -5.0179 Ry au,        -12.7542 Debye
        Dipole field         -0.0095 Ry au, 
 
        Potential amp.        0.8778 Ry
        Total length         46.3494 bohr
 

     total cpu time spent up to now is      306.3 secs

     total energy              =   -2981.78852002 Ry
     estimated scf accuracy    <      18.55863880 Ry

     iteration # 10     ecut=    29.40 Ry     beta= 0.05
     Davidson diagonalization with overlap
     ethr =  4.56E-03,  avg # of iterations =  1.7

     negative rho (up, down):  5.089E-04 0.000E+00
 
     Adding external electric field

     Computed dipole along edir(3) : 
        Dipole                4.6343 Ry au,         11.7793 Debye
        Dipole field          0.0087 Ry au, 
 
        Potential amp.       -0.8107 Ry
        Total length         46.3494 bohr
 

     total cpu time spent up to now is      316.6 secs

     total energy              =   -2977.13695672 Ry
     estimated scf accuracy    <      17.56725234 Ry

     iteration # 11     ecut=    29.40 Ry     beta= 0.05
     Davidson diagonalization with overlap
     ethr =  4.33E-03,  avg # of iterations = 12.1

     negative rho (up, down):  5.834E-04 0.000E+00
 
     Adding external electric field

     Computed dipole along edir(3) : 
        Dipole                3.5554 Ry au,          9.0368 Debye
        Dipole field          0.0067 Ry au, 
 
        Potential amp.       -0.6220 Ry
        Total length         46.3494 bohr
 

     total cpu time spent up to now is      341.1 secs

     total energy              =   -3031.79244907 Ry
     estimated scf accuracy    <    5957.97521438 Ry

     iteration # 12     ecut=    29.40 Ry     beta= 0.05
     Davidson diagonalization with overlap
     ethr =  4.33E-03,  avg # of iterations =  4.5

     negative rho (up, down):  5.914E-04 0.000E+00
 
     Adding external electric field

     Computed dipole along edir(3) : 
        Dipole                3.3387 Ry au,          8.4862 Debye
        Dipole field          0.0063 Ry au, 
 
        Potential amp.       -0.5841 Ry
        Total length         46.3494 bohr
 

     total cpu time spent up to now is      352.9 secs

     total energy              =   -3031.88556847 Ry
     estimated scf accuracy    <    4619.38107589 Ry

     iteration # 13     ecut=    29.40 Ry     beta= 0.05
     Davidson diagonalization with overlap
     ethr =  4.33E-03,  avg # of iterations =  1.4

     negative rho (up, down):  5.825E-04 0.000E+00
 
     Adding external electric field

     Computed dipole along edir(3) : 
        Dipole                2.7885 Ry au,          7.0876 Debye
        Dipole field          0.0053 Ry au, 
 
        Potential amp.       -0.4878 Ry
        Total length         46.3494 bohr
 

     total cpu time spent up to now is      363.3 secs

     total energy              =   -3024.38145342 Ry
     estimated scf accuracy    <    4507.17198675 Ry

     iteration # 14     ecut=    29.40 Ry     beta= 0.05
     Davidson diagonalization with overlap
     ethr =  4.33E-03,  avg # of iterations =  4.3

     negative rho (up, down):  4.292E-04 0.000E+00
 
     Adding external electric field

     Computed dipole along edir(3) : 
        Dipole               -0.9474 Ry au,         -2.4081 Debye
        Dipole field         -0.0018 Ry au, 
 
        Potential amp.        0.1657 Ry
        Total length         46.3494 bohr
 

     total cpu time spent up to now is      374.9 secs

     total energy              =   -2980.45185264 Ry
     estimated scf accuracy    <    4278.32322165 Ry

     iteration # 15     ecut=    29.40 Ry     beta= 0.05
     Davidson diagonalization with overlap
     ethr =  4.33E-03,  avg # of iterations = 12.6

     negative rho (up, down):  4.262E-04 0.000E+00
 
     Adding external electric field

     Computed dipole along edir(3) : 
        Dipole               -2.6475 Ry au,         -6.7293 Debye
        Dipole field         -0.0050 Ry au, 
 
        Potential amp.        0.4631 Ry
        Total length         46.3494 bohr
 

     total cpu time spent up to now is      395.4 secs

     total energy              =   -2971.65689436 Ry
     estimated scf accuracy    <    1925.37219399 Ry

     iteration # 16     ecut=    29.40 Ry     beta= 0.05
     Davidson diagonalization with overlap
     ethr =  4.33E-03,  avg # of iterations =  2.6

     negative rho (up, down):  5.125E-04 0.000E+00
 
     Adding external electric field

     Computed dipole along edir(3) : 
        Dipole               -1.9183 Ry au,         -4.8758 Debye
        Dipole field         -0.0036 Ry au, 
 
        Potential amp.        0.3356 Ry
        Total length         46.3494 bohr
 

     total cpu time spent up to now is      406.7 secs

     total energy              =   -2981.20616478 Ry
     estimated scf accuracy    <    1799.79967091 Ry

     iteration # 17     ecut=    29.40 Ry     beta= 0.05
     Davidson diagonalization with overlap
     ethr =  4.33E-03,  avg # of iterations =  3.2

     negative rho (up, down):  5.283E-04 0.000E+00
 
     Adding external electric field

     Computed dipole along edir(3) : 
        Dipole               -2.2565 Ry au,         -5.7355 Debye
        Dipole field         -0.0043 Ry au, 
 
        Potential amp.        0.3947 Ry
        Total length         46.3494 bohr
 

     total cpu time spent up to now is      417.6 secs

     total energy              =   -2978.91619169 Ry
     estimated scf accuracy    <    1686.80070435 Ry

     iteration # 18     ecut=    29.40 Ry     beta= 0.05
     Davidson diagonalization with overlap
     ethr =  4.33E-03,  avg # of iterations =  1.2

     negative rho (up, down):  4.637E-04 0.000E+00
 
     Adding external electric field

     Computed dipole along edir(3) : 
        Dipole               -5.2263 Ry au,        -13.2838 Debye
        Dipole field         -0.0099 Ry au, 
 
        Potential amp.        0.9143 Ry
        Total length         46.3494 bohr
 

     total cpu time spent up to now is      427.9 secs

     total energy              =   -2958.96720927 Ry
     estimated scf accuracy    <    1643.44501760 Ry

     iteration # 19     ecut=    29.40 Ry     beta= 0.05
     Davidson diagonalization with overlap
     ethr =  4.33E-03,  avg # of iterations = 17.0

     negative rho (up, down):  5.237E-04 0.000E+00
 
     Adding external electric field

     Computed dipole along edir(3) : 
        Dipole               -4.8431 Ry au,        -12.3100 Debye
        Dipole field         -0.0091 Ry au, 
 
        Potential amp.        0.8472 Ry
        Total length         46.3494 bohr
 

     total cpu time spent up to now is      455.3 secs

     total energy              =   -2978.97774419 Ry
     estimated scf accuracy    <      25.17250169 Ry

     iteration # 20     ecut=    29.40 Ry     beta= 0.05
     Davidson diagonalization with overlap
     ethr =  4.33E-03,  avg # of iterations =  5.5

     negative rho (up, down):  7.664E-04 0.000E+00
 
     Adding external electric field

     Computed dipole along edir(3) : 
        Dipole               -2.5326 Ry au,         -6.4371 Debye
        Dipole field         -0.0048 Ry au, 
 
        Potential amp.        0.4430 Ry
        Total length         46.3494 bohr
 

     total cpu time spent up to now is      467.2 secs

     total energy              =   -2977.65056951 Ry
     estimated scf accuracy    <      26.96898239 Ry

     iteration # 21     ecut=    29.40 Ry     beta= 0.05
     Davidson diagonalization with overlap
     ethr =  4.33E-03,  avg # of iterations =  4.3

     negative rho (up, down):  7.250E-04 0.000E+00
 
     Adding external electric field

     Computed dipole along edir(3) : 
        Dipole               -2.1260 Ry au,         -5.4038 Debye
        Dipole field         -0.0040 Ry au, 
 
        Potential amp.        0.3719 Ry
        Total length         46.3494 bohr
 

     total cpu time spent up to now is      479.0 secs

     total energy              =   -2977.85938243 Ry
     estimated scf accuracy    <      90.62990462 Ry

     iteration # 22     ecut=    29.40 Ry     beta= 0.05
     Davidson diagonalization with overlap
     ethr =  4.33E-03,  avg # of iterations =  1.1

     negative rho (up, down):  7.135E-04 0.000E+00
 
     Adding external electric field

     Computed dipole along edir(3) : 
        Dipole               -1.4451 Ry au,         -3.6730 Debye
        Dipole field         -0.0027 Ry au, 
 
        Potential amp.        0.2528 Ry
        Total length         46.3494 bohr
 

     total cpu time spent up to now is      489.2 secs

     total energy              =   -2977.81805903 Ry
     estimated scf accuracy    <       7.78897620 Ry

     iteration # 23     ecut=    29.40 Ry     beta= 0.05
     Davidson diagonalization with overlap
     ethr =  1.92E-03,  avg # of iterations =  3.8

     negative rho (up, down):  7.133E-04 0.000E+00
 
     Adding external electric field

     Computed dipole along edir(3) : 
        Dipole               -1.2185 Ry au,         -3.0971 Debye
        Dipole field         -0.0023 Ry au, 
 
        Potential amp.        0.2132 Ry
        Total length         46.3494 bohr
 

     total cpu time spent up to now is      500.4 secs

     total energy              =   -2977.97777307 Ry
     estimated scf accuracy    <       2.59573047 Ry

     iteration # 24     ecut=    29.40 Ry     beta= 0.05
     Davidson diagonalization with overlap
     ethr =  6.39E-04,  avg # of iterations =  6.1

     negative rho (up, down):  7.476E-04 0.000E+00
 
     Adding external electric field

     Computed dipole along edir(3) : 
        Dipole               -1.3296 Ry au,         -3.3796 Debye
        Dipole field         -0.0025 Ry au, 
 
        Potential amp.        0.2326 Ry
        Total length         46.3494 bohr
 

     total cpu time spent up to now is      512.4 secs

     total energy              =   -2977.94240456 Ry
     estimated scf accuracy    <       2.21089813 Ry

     iteration # 25     ecut=    29.40 Ry     beta= 0.05
     Davidson diagonalization with overlap
     c_bands:  1 eigenvalues not converged
     ethr =  5.45E-04,  avg # of iterations = 11.0

     negative rho (up, down):  8.774E-04 0.000E+00
 
     Adding external electric field

     Computed dipole along edir(3) : 
        Dipole               -0.5772 Ry au,         -1.4671 Debye
        Dipole field         -0.0011 Ry au, 
 
        Potential amp.        0.1010 Ry
        Total length         46.3494 bohr
 

     total cpu time spent up to now is      526.2 secs

     total energy              =   -2977.81251973 Ry
     estimated scf accuracy    <       3.27560324 Ry

     iteration # 26     ecut=    29.40 Ry     beta= 0.05
     Davidson diagonalization with overlap
     ethr =  5.45E-04,  avg # of iterations =  5.7

     negative rho (up, down):  9.849E-04 0.000E+00
 
     Adding external electric field

     Computed dipole along edir(3) : 
        Dipole               -0.4819 Ry au,         -1.2250 Debye
        Dipole field         -0.0009 Ry au, 
 
        Potential amp.        0.0843 Ry
        Total length         46.3494 bohr
 

     total cpu time spent up to now is      538.2 secs

     total energy              =   -2977.80022416 Ry
     estimated scf accuracy    <       2.04367295 Ry

     iteration # 27     ecut=    29.40 Ry     beta= 0.05
     Davidson diagonalization with overlap
     ethr =  5.03E-04,  avg # of iterations =  3.7

     negative rho (up, down):  1.366E-03 0.000E+00
 
     Adding external electric field

     Computed dipole along edir(3) : 
        Dipole               -0.0997 Ry au,         -0.2535 Debye
        Dipole field         -0.0002 Ry au, 
 
        Potential amp.        0.0174 Ry
        Total length         46.3494 bohr
 

     total cpu time spent up to now is      549.4 secs

     total energy              =   -2977.65178690 Ry
     estimated scf accuracy    <       2.31028149 Ry

     iteration # 28     ecut=    29.40 Ry     beta= 0.05
     Davidson diagonalization with overlap
     ethr =  5.03E-04,  avg # of iterations =  8.6

     negative rho (up, down):  1.365E-03 0.000E+00
 
     Adding external electric field

     Computed dipole along edir(3) : 
        Dipole               -0.0535 Ry au,         -0.1359 Debye
        Dipole field         -0.0001 Ry au, 
 
        Potential amp.        0.0094 Ry
        Total length         46.3494 bohr
 

     total cpu time spent up to now is      562.7 secs

     total energy              =   -2977.78580434 Ry
     estimated scf accuracy    <       1.26058364 Ry

     iteration # 29     ecut=    29.40 Ry     beta= 0.05
     Davidson diagonalization with overlap
     ethr =  3.10E-04,  avg # of iterations =  2.8

     negative rho (up, down):  1.683E-03 0.000E+00
 
     Adding external electric field

     Computed dipole along edir(3) : 
        Dipole                0.1799 Ry au,          0.4574 Debye
        Dipole field          0.0003 Ry au, 
 
        Potential amp.       -0.0315 Ry
        Total length         46.3494 bohr
 

     total cpu time spent up to now is      573.9 secs

     total energy              =   -2977.83879454 Ry
     estimated scf accuracy    <       1.51437270 Ry

     iteration # 30     ecut=    29.40 Ry     beta= 0.05
     Davidson diagonalization with overlap
     c_bands:  4 eigenvalues not converged
     c_bands:  1 eigenvalues not converged
     c_bands:  1 eigenvalues not converged
     c_bands:  1 eigenvalues not converged
     c_bands:  1 eigenvalues not converged
     c_bands:  1 eigenvalues not converged
     ethr =  3.10E-04,  avg # of iterations = 17.8

     negative rho (up, down):  1.440E-03 0.000E+00
 
     Adding external electric field

     Computed dipole along edir(3) : 
        Dipole                0.0820 Ry au,          0.2084 Debye
        Dipole field          0.0002 Ry au, 
 
        Potential amp.       -0.0143 Ry
        Total length         46.3494 bohr
 

     total cpu time spent up to now is      592.9 secs

     total energy              =   -2978.03453724 Ry
     estimated scf accuracy    <       2.27385723 Ry

     iteration # 31     ecut=    29.40 Ry     beta= 0.05
     Davidson diagonalization with overlap
     c_bands:  1 eigenvalues not converged
     c_bands:  2 eigenvalues not converged
     c_bands:  4 eigenvalues not converged
     ethr =  3.10E-04,  avg # of iterations = 16.7

     negative rho (up, down):  1.364E-03 0.000E+00
 
     Adding external electric field

     Computed dipole along edir(3) : 
        Dipole                0.0273 Ry au,          0.0693 Debye
        Dipole field          0.0001 Ry au, 
 
        Potential amp.       -0.0048 Ry
        Total length         46.3494 bohr
 

     total cpu time spent up to now is      609.5 secs

     total energy              =   -2978.10438669 Ry
     estimated scf accuracy    <      22.08315000 Ry

     iteration # 32     ecut=    29.40 Ry     beta= 0.05
     Davidson diagonalization with overlap
     ethr =  3.10E-04,  avg # of iterations =  4.8

     negative rho (up, down):  1.268E-03 0.000E+00
 
     Adding external electric field

     Computed dipole along edir(3) : 
        Dipole               -0.0253 Ry au,         -0.0643 Debye
        Dipole field         -0.0000 Ry au, 
 
        Potential amp.        0.0044 Ry
        Total length         46.3494 bohr
 

     total cpu time spent up to now is      620.8 secs

     total energy              =   -2977.98124739 Ry
     estimated scf accuracy    <      17.71070931 Ry

     iteration # 33     ecut=    29.40 Ry     beta= 0.05
     Davidson diagonalization with overlap
     ethr =  3.10E-04,  avg # of iterations =  1.0

     negative rho (up, down):  1.743E-03 0.000E+00
 
     Adding external electric field

     Computed dipole along edir(3) : 
        Dipole                0.3684 Ry au,          0.9365 Debye
        Dipole field          0.0007 Ry au, 
 
        Potential amp.       -0.0645 Ry
        Total length         46.3494 bohr
 

     total cpu time spent up to now is      630.9 secs

     total energy              =   -2977.89970894 Ry
     estimated scf accuracy    <       9.87367563 Ry

     iteration # 34     ecut=    29.40 Ry     beta= 0.05
     Davidson diagonalization with overlap
     ethr =  3.10E-04,  avg # of iterations =  2.8

     negative rho (up, down):  1.720E-03 0.000E+00
 
     Adding external electric field

     Computed dipole along edir(3) : 
        Dipole                0.2778 Ry au,          0.7062 Debye
        Dipole field          0.0005 Ry au, 
 
        Potential amp.       -0.0486 Ry
        Total length         46.3494 bohr
 

     total cpu time spent up to now is      642.2 secs

     total energy              =   -2977.65479874 Ry
     estimated scf accuracy    <       4.93614266 Ry

     iteration # 35     ecut=    29.40 Ry     beta= 0.05
     Davidson diagonalization with overlap
     ethr =  3.10E-04,  avg # of iterations = 10.8

     negative rho (up, down):  1.691E-03 0.000E+00
 
     Adding external electric field

     Computed dipole along edir(3) : 
        Dipole                0.2197 Ry au,          0.5583 Debye
        Dipole field          0.0004 Ry au, 
 
        Potential amp.       -0.0384 Ry
        Total length         46.3494 bohr
 

     total cpu time spent up to now is      656.4 secs

     total energy              =   -2977.75143475 Ry
     estimated scf accuracy    <       1.26463278 Ry

     iteration # 36     ecut=    29.40 Ry     beta= 0.05
     Davidson diagonalization with overlap
     ethr =  3.10E-04,  avg # of iterations =  2.5

     negative rho (up, down):  1.724E-03 0.000E+00
 
     Adding external electric field

     Computed dipole along edir(3) : 
        Dipole                0.3221 Ry au,          0.8186 Debye
        Dipole field          0.0006 Ry au, 
 
        Potential amp.       -0.0563 Ry
        Total length         46.3494 bohr
 

     total cpu time spent up to now is      667.2 secs

     total energy              =   -2977.78590185 Ry
     estimated scf accuracy    <       1.07317671 Ry

     iteration # 37     ecut=    29.40 Ry     beta= 0.05
     Davidson diagonalization with overlap
     ethr =  2.64E-04,  avg # of iterations =  2.9

     negative rho (up, down):  1.588E-03 0.000E+00
 
     Adding external electric field

     Computed dipole along edir(3) : 
        Dipole                0.0149 Ry au,          0.0380 Debye
        Dipole field          0.0000 Ry au, 
 
        Potential amp.       -0.0026 Ry
        Total length         46.3494 bohr
 

     total cpu time spent up to now is      678.1 secs

     total energy              =   -2977.56182687 Ry
     estimated scf accuracy    <       1.35673297 Ry

     iteration # 38     ecut=    29.40 Ry     beta= 0.05
     Davidson diagonalization with overlap
     c_bands:  2 eigenvalues not converged
     c_bands:  1 eigenvalues not converged
     c_bands:  1 eigenvalues not converged
     ethr =  2.64E-04,  avg # of iterations = 17.6

     negative rho (up, down):  1.732E-03 0.000E+00
 
     Adding external electric field

     Computed dipole along edir(3) : 
        Dipole               -0.0284 Ry au,         -0.0721 Debye
        Dipole field         -0.0001 Ry au, 
 
        Potential amp.        0.0050 Ry
        Total length         46.3494 bohr
 

     total cpu time spent up to now is      698.9 secs

     total energy              =   -2977.76231194 Ry
     estimated scf accuracy    <       1.16378113 Ry

     iteration # 39     ecut=    29.40 Ry     beta= 0.05
     Davidson diagonalization with overlap
     ethr =  2.64E-04,  avg # of iterations =  3.2

     negative rho (up, down):  2.035E-03 0.000E+00
 
     Adding external electric field

     Computed dipole along edir(3) : 
        Dipole                0.0195 Ry au,          0.0496 Debye
        Dipole field          0.0000 Ry au, 
 
        Potential amp.       -0.0034 Ry
        Total length         46.3494 bohr
 

     total cpu time spent up to now is      710.1 secs

     total energy              =   -2977.73740581 Ry
     estimated scf accuracy    <       1.60391482 Ry

     iteration # 40     ecut=    29.40 Ry     beta= 0.05
     Davidson diagonalization with overlap
     ethr =  2.64E-04,  avg # of iterations =  2.0

     negative rho (up, down):  2.199E-03 0.000E+00
 
     Adding external electric field

     Computed dipole along edir(3) : 
        Dipole                0.1684 Ry au,          0.4279 Debye
        Dipole field          0.0003 Ry au, 
 
        Potential amp.       -0.0295 Ry
        Total length         46.3494 bohr
 

     total cpu time spent up to now is      721.2 secs

     total energy              =   -2977.71339767 Ry
     estimated scf accuracy    <       1.62065614 Ry

     iteration # 41     ecut=    29.40 Ry     beta= 0.05
     Davidson diagonalization with overlap
     ethr =  2.64E-04,  avg # of iterations =  1.7

     negative rho (up, down):  2.338E-03 0.000E+00
 
     Adding external electric field

     Computed dipole along edir(3) : 
        Dipole                0.5527 Ry au,          1.4049 Debye
        Dipole field          0.0010 Ry au, 
 
        Potential amp.       -0.0967 Ry
        Total length         46.3494 bohr
 

     total cpu time spent up to now is      731.9 secs

     total energy              =   -2977.66767943 Ry
     estimated scf accuracy    <       0.92572931 Ry

     iteration # 42     ecut=    29.40 Ry     beta= 0.05
     Davidson diagonalization with overlap
     c_bands:  2 eigenvalues not converged
     c_bands:  1 eigenvalues not converged
     c_bands:  1 eigenvalues not converged
     c_bands:  1 eigenvalues not converged
     ethr =  2.28E-04,  avg # of iterations = 17.7

     negative rho (up, down):  2.369E-03 0.000E+00
 
     Adding external electric field

     Computed dipole along edir(3) : 
        Dipole                0.6511 Ry au,          1.6549 Debye
        Dipole field          0.0012 Ry au, 
 
        Potential amp.       -0.1139 Ry
        Total length         46.3494 bohr
 

     total cpu time spent up to now is      749.5 secs

     total energy              =   -2977.70574923 Ry
     estimated scf accuracy    <       0.38680321 Ry

     iteration # 43     ecut=    29.40 Ry     beta= 0.05
     Davidson diagonalization with overlap
     c_bands:  4 eigenvalues not converged
     ethr =  9.53E-05,  avg # of iterations =  4.9

     negative rho (up, down):  2.362E-03 0.000E+00
 
     Adding external electric field

     Computed dipole along edir(3) : 
        Dipole                0.6611 Ry au,          1.6804 Debye
        Dipole field          0.0012 Ry au, 
 
        Potential amp.       -0.1157 Ry
        Total length         46.3494 bohr
 

     total cpu time spent up to now is      761.5 secs

     total energy              =   -2977.69192436 Ry
     estimated scf accuracy    <       0.21105593 Ry

     iteration # 44     ecut=    29.40 Ry     beta= 0.05
     Davidson diagonalization with overlap
     c_bands:  1 eigenvalues not converged
     ethr =  5.20E-05,  avg # of iterations =  9.8

     negative rho (up, down):  2.663E-03 0.000E+00
 
     Adding external electric field

     Computed dipole along edir(3) : 
        Dipole                0.9149 Ry au,          2.3256 Debye
        Dipole field          0.0017 Ry au, 
 
        Potential amp.       -0.1601 Ry
        Total length         46.3494 bohr
 

     total cpu time spent up to now is      775.0 secs

     total energy              =   -2977.68982882 Ry
     estimated scf accuracy    <       0.07889266 Ry

     iteration # 45     ecut=    29.40 Ry     beta= 0.05
     Davidson diagonalization with overlap
     c_bands:  3 eigenvalues not converged
     c_bands:  1 eigenvalues not converged
     c_bands:  3 eigenvalues not converged
     c_bands:  3 eigenvalues not converged
     c_bands:  1 eigenvalues not converged
     c_bands:  1 eigenvalues not converged
     c_bands:  1 eigenvalues not converged
     ethr =  1.94E-05,  avg # of iterations = 18.7

     negative rho (up, down):  3.109E-03 0.000E+00
 
     Adding external electric field

     Computed dipole along edir(3) : 
        Dipole                1.0678 Ry au,          2.7141 Debye
        Dipole field          0.0020 Ry au, 
 
        Potential amp.       -0.1868 Ry
        Total length         46.3494 bohr
 

     total cpu time spent up to now is      795.3 secs

     total energy              =   -2977.69506137 Ry
     estimated scf accuracy    <       0.03711517 Ry

     iteration # 46     ecut=    29.40 Ry     beta= 0.05
     Davidson diagonalization with overlap
     c_bands:  2 eigenvalues not converged
     c_bands:  1 eigenvalues not converged
     c_bands:  1 eigenvalues not converged
     c_bands:  3 eigenvalues not converged
     c_bands:  3 eigenvalues not converged
     c_bands:  1 eigenvalues not converged
     c_bands:  1 eigenvalues not converged
     ethr =  9.14E-06,  avg # of iterations = 18.4

     negative rho (up, down):  3.265E-03 0.000E+00
 
     Adding external electric field

     Computed dipole along edir(3) : 
        Dipole                1.0474 Ry au,          2.6622 Debye
        Dipole field          0.0020 Ry au, 
 
        Potential amp.       -0.1832 Ry
        Total length         46.3494 bohr
 

     total cpu time spent up to now is      813.9 secs

     total energy              =   -2977.69538450 Ry
     estimated scf accuracy    <       0.12829552 Ry

     iteration # 47     ecut=    29.40 Ry     beta= 0.05
     Davidson diagonalization with overlap
     ethr =  9.14E-06,  avg # of iterations =  6.9

     negative rho (up, down):  4.133E-03 0.000E+00
 
     Adding external electric field

     Computed dipole along edir(3) : 
        Dipole                1.1371 Ry au,          2.8903 Debye
        Dipole field          0.0021 Ry au, 
 
        Potential amp.       -0.1989 Ry
        Total length         46.3494 bohr
 

     total cpu time spent up to now is      826.1 secs

     total energy              =   -2977.69733843 Ry
     estimated scf accuracy    <       0.01558152 Ry

     iteration # 48     ecut=    29.40 Ry     beta= 0.05
     Davidson diagonalization with overlap
     c_bands:  1 eigenvalues not converged
     c_bands:  1 eigenvalues not converged
     c_bands:  1 eigenvalues not converged
     c_bands:  1 eigenvalues not converged
     ethr =  3.84E-06,  avg # of iterations = 17.8

     negative rho (up, down):  8.305E-03 0.000E+00
 
     Adding external electric field

     Computed dipole along edir(3) : 
        Dipole                1.3456 Ry au,          3.4202 Debye
        Dipole field          0.0025 Ry au, 
 
        Potential amp.       -0.2354 Ry
        Total length         46.3494 bohr
 

     total cpu time spent up to now is      842.6 secs

     total energy              =   -2977.69811201 Ry
     estimated scf accuracy    <       0.01193898 Ry

     iteration # 49     ecut=    29.40 Ry     beta= 0.05
     Davidson diagonalization with overlap
     c_bands:  2 eigenvalues not converged
     c_bands:  1 eigenvalues not converged
     c_bands:  1 eigenvalues not converged
     c_bands:  1 eigenvalues not converged
     ethr =  2.94E-06,  avg # of iterations = 16.2

     negative rho (up, down):  8.590E-03 0.000E+00
 
     Adding external electric field

     Computed dipole along edir(3) : 
        Dipole                1.3497 Ry au,          3.4306 Debye
        Dipole field          0.0025 Ry au, 
 
        Potential amp.       -0.2361 Ry
        Total length         46.3494 bohr
 

     total cpu time spent up to now is      863.4 secs

     total energy              =   -2977.69915681 Ry
     estimated scf accuracy    <       0.02182254 Ry

     iteration # 50     ecut=    29.40 Ry     beta= 0.05
     Davidson diagonalization with overlap
     ethr =  2.94E-06,  avg # of iterations =  2.2

     negative rho (up, down):  9.601E-03 0.000E+00
 
     Adding external electric field

     Computed dipole along edir(3) : 
        Dipole                1.3197 Ry au,          3.3542 Debye
        Dipole field          0.0025 Ry au, 
 
        Potential amp.       -0.2309 Ry
        Total length         46.3494 bohr
 

     total cpu time spent up to now is      874.1 secs

     total energy              =   -2977.69896275 Ry
     estimated scf accuracy    <       0.00410212 Ry

     iteration # 51     ecut=    29.40 Ry     beta= 0.05
     Davidson diagonalization with overlap
     c_bands:  2 eigenvalues not converged
     ethr =  1.01E-06,  avg # of iterations = 15.8

     negative rho (up, down):  1.145E-02 0.000E+00
 
     Adding external electric field

     Computed dipole along edir(3) : 
        Dipole                1.3501 Ry au,          3.4317 Debye
        Dipole field          0.0025 Ry au, 
 
        Potential amp.       -0.2362 Ry
        Total length         46.3494 bohr
 

     total cpu time spent up to now is      893.3 secs

     total energy              =   -2977.69964289 Ry
     estimated scf accuracy    <       0.00141259 Ry

     iteration # 52     ecut=    29.40 Ry     beta= 0.05
     Davidson diagonalization with overlap
     ethr =  3.48E-07,  avg # of iterations =  4.4

     negative rho (up, down):  1.261E-02 0.000E+00
 
     Adding external electric field

     Computed dipole along edir(3) : 
        Dipole                1.3763 Ry au,          3.4983 Debye
        Dipole field          0.0026 Ry au, 
 
        Potential amp.       -0.2408 Ry
        Total length         46.3494 bohr
 

     total cpu time spent up to now is      905.4 secs

     total energy              =   -2977.69971784 Ry
     estimated scf accuracy    <       0.00081731 Ry

     iteration # 53     ecut=    29.40 Ry     beta= 0.05
     Davidson diagonalization with overlap
     c_bands:  1 eigenvalues not converged
     ethr =  2.01E-07,  avg # of iterations = 15.5

     negative rho (up, down):  1.266E-02 0.000E+00
 
     Adding external electric field

     Computed dipole along edir(3) : 
        Dipole                1.3540 Ry au,          3.4414 Debye
        Dipole field          0.0026 Ry au, 
 
        Potential amp.       -0.2369 Ry
        Total length         46.3494 bohr
 

     total cpu time spent up to now is      923.5 secs

     total energy              =   -2977.69974250 Ry
     estimated scf accuracy    <       0.00071412 Ry

     iteration # 54     ecut=    29.40 Ry     beta= 0.05
     Davidson diagonalization with overlap
     ethr =  1.76E-07,  avg # of iterations =  6.9

     negative rho (up, down):  1.337E-02 0.000E+00
 
     Adding external electric field

     Computed dipole along edir(3) : 
        Dipole                1.3372 Ry au,          3.3989 Debye
        Dipole field          0.0025 Ry au, 
 
        Potential amp.       -0.2339 Ry
        Total length         46.3494 bohr
 

     total cpu time spent up to now is      936.5 secs

     total energy              =   -2977.69979834 Ry
     estimated scf accuracy    <       0.00027217 Ry

     iteration # 55     ecut=    29.40 Ry     beta= 0.05
     Davidson diagonalization with overlap
     ethr =  6.70E-08,  avg # of iterations = 14.3

     negative rho (up, down):  1.339E-02 0.000E+00
 
     Adding external electric field

     Computed dipole along edir(3) : 
        Dipole                1.3473 Ry au,          3.4245 Debye
        Dipole field          0.0025 Ry au, 
 
        Potential amp.       -0.2357 Ry
        Total length         46.3494 bohr
 

     total cpu time spent up to now is      956.5 secs

     total energy              =   -2977.69983896 Ry
     estimated scf accuracy    <       0.00020846 Ry

     iteration # 56     ecut=    29.40 Ry     beta= 0.05
     Davidson diagonalization with overlap
     ethr =  5.13E-08,  avg # of iterations = 10.0

     negative rho (up, down):  1.337E-02 0.000E+00
 
     Adding external electric field

     Computed dipole along edir(3) : 
        Dipole                1.3489 Ry au,          3.4285 Debye
        Dipole field          0.0025 Ry au, 
 
        Potential amp.       -0.2360 Ry
        Total length         46.3494 bohr
 

     total cpu time spent up to now is      970.1 secs

     total energy              =   -2977.69984980 Ry
     estimated scf accuracy    <       0.00012909 Ry

     iteration # 57     ecut=    29.40 Ry     beta= 0.05
     Davidson diagonalization with overlap
     c_bands:  1 eigenvalues not converged
     ethr =  3.18E-08,  avg # of iterations = 10.8

     negative rho (up, down):  1.380E-02 0.000E+00
 
     Adding external electric field

     Computed dipole along edir(3) : 
        Dipole                1.3404 Ry au,          3.4070 Debye
        Dipole field          0.0025 Ry au, 
 
        Potential amp.       -0.2345 Ry
        Total length         46.3494 bohr
 

     total cpu time spent up to now is      986.0 secs

     total energy              =   -2977.69987945 Ry
     estimated scf accuracy    <       0.00009057 Ry

     iteration # 58     ecut=    29.40 Ry     beta= 0.05
     Davidson diagonalization with overlap
     ethr =  2.23E-08,  avg # of iterations =  9.9

     negative rho (up, down):  1.409E-02 0.000E+00
 
     Adding external electric field

     Computed dipole along edir(3) : 
        Dipole                1.3371 Ry au,          3.3985 Debye
        Dipole field          0.0025 Ry au, 
 
        Potential amp.       -0.2339 Ry
        Total length         46.3494 bohr
 

     total cpu time spent up to now is     1000.3 secs

     total energy              =   -2977.69990124 Ry
     estimated scf accuracy    <       0.00003484 Ry

     iteration # 59     ecut=    29.40 Ry     beta= 0.05
     Davidson diagonalization with overlap
     c_bands:  2 eigenvalues not converged
     ethr =  8.58E-09,  avg # of iterations = 12.6

     negative rho (up, down):  1.410E-02 0.000E+00
 
     Adding external electric field

     Computed dipole along edir(3) : 
        Dipole                1.3386 Ry au,          3.4024 Debye
        Dipole field          0.0025 Ry au, 
 
        Potential amp.       -0.2342 Ry
        Total length         46.3494 bohr
 

     total cpu time spent up to now is     1018.2 secs

     total energy              =   -2977.69991394 Ry
     estimated scf accuracy    <       0.00002833 Ry

     iteration # 60     ecut=    29.40 Ry     beta= 0.05
     Davidson diagonalization with overlap
     ethr =  6.98E-09,  avg # of iterations =  6.8

     negative rho (up, down):  1.404E-02 0.000E+00
 
     Adding external electric field

     Computed dipole along edir(3) : 
        Dipole                1.3400 Ry au,          3.4059 Debye
        Dipole field          0.0025 Ry au, 
 
        Potential amp.       -0.2344 Ry
        Total length         46.3494 bohr
 

     total cpu time spent up to now is     1030.5 secs

     total energy              =   -2977.69992131 Ry
     estimated scf accuracy    <       0.00001865 Ry

     iteration # 61     ecut=    29.40 Ry     beta= 0.05
     Davidson diagonalization with overlap
     c_bands:  2 eigenvalues not converged
     ethr =  4.59E-09,  avg # of iterations = 15.7

     negative rho (up, down):  1.413E-02 0.000E+00
 
     Adding external electric field

     Computed dipole along edir(3) : 
        Dipole                1.3386 Ry au,          3.4024 Debye
        Dipole field          0.0025 Ry au, 
 
        Potential amp.       -0.2342 Ry
        Total length         46.3494 bohr
 

     total cpu time spent up to now is     1050.9 secs

     total energy              =   -2977.69993291 Ry
     estimated scf accuracy    <       0.00001374 Ry

     iteration # 62     ecut=    29.40 Ry     beta= 0.05
     Davidson diagonalization with overlap
     ethr =  3.38E-09,  avg # of iterations =  5.0

     negative rho (up, down):  1.417E-02 0.000E+00
 
     Adding external electric field

     Computed dipole along edir(3) : 
        Dipole                1.3375 Ry au,          3.3997 Debye
        Dipole field          0.0025 Ry au, 
 
        Potential amp.       -0.2340 Ry
        Total length         46.3494 bohr
 

     total cpu time spent up to now is     1062.8 secs

     total energy              =   -2977.69993939 Ry
     estimated scf accuracy    <       0.00000918 Ry

     iteration # 63     ecut=    29.40 Ry     beta= 0.05
     Davidson diagonalization with overlap
     c_bands:  2 eigenvalues not converged
     c_bands:  1 eigenvalues not converged
     ethr =  2.26E-09,  avg # of iterations = 16.2

     negative rho (up, down):  1.413E-02 0.000E+00
 
     Adding external electric field

     Computed dipole along edir(3) : 
        Dipole                1.3382 Ry au,          3.4012 Debye
        Dipole field          0.0025 Ry au, 
 
        Potential amp.       -0.2341 Ry
        Total length         46.3494 bohr
 

     total cpu time spent up to now is     1081.6 secs

     total energy              =   -2977.69994702 Ry
     estimated scf accuracy    <       0.00000642 Ry

     iteration # 64     ecut=    29.40 Ry     beta= 0.05
     Davidson diagonalization with overlap
     ethr =  1.58E-09,  avg # of iterations =  4.8

     negative rho (up, down):  1.405E-02 0.000E+00
 
     Adding external electric field

     Computed dipole along edir(3) : 
        Dipole                1.3398 Ry au,          3.4055 Debye
        Dipole field          0.0025 Ry au, 
 
        Potential amp.       -0.2344 Ry
        Total length         46.3494 bohr
 

     total cpu time spent up to now is     1093.6 secs

     total energy              =   -2977.69995251 Ry
     estimated scf accuracy    <       0.00000303 Ry

     iteration # 65     ecut=    29.40 Ry     beta= 0.05
     Davidson diagonalization with overlap
     c_bands:  1 eigenvalues not converged
     ethr =  7.46E-10,  avg # of iterations = 15.2

     negative rho (up, down):  1.407E-02 0.000E+00
 
     Adding external electric field

     Computed dipole along edir(3) : 
        Dipole                1.3398 Ry au,          3.4054 Debye
        Dipole field          0.0025 Ry au, 
 
        Potential amp.       -0.2344 Ry
        Total length         46.3494 bohr
 

     total cpu time spent up to now is     1114.3 secs

     total energy              =   -2977.69995833 Ry
     estimated scf accuracy    <       0.00000287 Ry

     iteration # 66     ecut=    29.40 Ry     beta= 0.05
     Davidson diagonalization with overlap
     ethr =  7.08E-10,  avg # of iterations =  2.0

     negative rho (up, down):  1.409E-02 0.000E+00
 
     Adding external electric field

     Computed dipole along edir(3) : 
        Dipole                1.3398 Ry au,          3.4054 Debye
        Dipole field          0.0025 Ry au, 
 
        Potential amp.       -0.2344 Ry
        Total length         46.3494 bohr
 

     total cpu time spent up to now is     1125.4 secs

     total energy              =   -2977.69996295 Ry
     estimated scf accuracy    <       0.00000176 Ry

     iteration # 67     ecut=    29.40 Ry     beta= 0.05
     Davidson diagonalization with overlap
     ethr =  4.33E-10,  avg # of iterations = 14.2

     negative rho (up, down):  1.407E-02 0.000E+00
 
     Adding external electric field

     Computed dipole along edir(3) : 
        Dipole                1.3397 Ry au,          3.4052 Debye
        Dipole field          0.0025 Ry au, 
 
        Potential amp.       -0.2344 Ry
        Total length         46.3494 bohr
 

     total cpu time spent up to now is     1146.1 secs

     total energy              =   -2977.69996748 Ry
     estimated scf accuracy    <       0.00000133 Ry

     iteration # 68     ecut=    29.40 Ry     beta= 0.05
     Davidson diagonalization with overlap
     ethr =  3.29E-10,  avg # of iterations =  6.2

     negative rho (up, down):  1.406E-02 0.000E+00
 
     Adding external electric field

     Computed dipole along edir(3) : 
        Dipole                1.3396 Ry au,          3.4048 Debye
        Dipole field          0.0025 Ry au, 
 
        Potential amp.       -0.2343 Ry
        Total length         46.3494 bohr
 

     total cpu time spent up to now is     1158.6 secs

     total energy              =   -2977.69997141 Ry
     estimated scf accuracy    <       0.00000038 Ry

     iteration # 69     ecut=    29.40 Ry     beta= 0.05
     Davidson diagonalization with overlap
     ethr =  9.28E-11,  avg # of iterations = 14.3

     negative rho (up, down):  1.406E-02 0.000E+00
 
     Adding external electric field

     Computed dipole along edir(3) : 
        Dipole                1.3397 Ry au,          3.4051 Debye
        Dipole field          0.0025 Ry au, 
 
        Potential amp.       -0.2344 Ry
        Total length         46.3494 bohr
 

     total cpu time spent up to now is     1176.0 secs

     total energy              =   -2977.69997496 Ry
     estimated scf accuracy    <       0.00000023 Ry

     iteration # 70     ecut=    29.40 Ry     beta= 0.05
     Davidson diagonalization with overlap
     ethr =  5.60E-11,  avg # of iterations =  8.0

     negative rho (up, down):  1.404E-02 0.000E+00
 
     Adding external electric field

     Computed dipole along edir(3) : 
        Dipole                1.3396 Ry au,          3.4048 Debye
        Dipole field          0.0025 Ry au, 
 
        Potential amp.       -0.2343 Ry
        Total length         46.3494 bohr
 

     total cpu time spent up to now is     1190.0 secs

     total energy              =   -2977.69997815 Ry
     estimated scf accuracy    <       0.00000017 Ry

     iteration # 71     ecut=    29.40 Ry     beta= 0.05
     Davidson diagonalization with overlap
     ethr =  4.18E-11,  avg # of iterations = 11.5

     negative rho (up, down):  1.404E-02 0.000E+00
 
     Adding external electric field

     Computed dipole along edir(3) : 
        Dipole                1.3392 Ry au,          3.4040 Debye
        Dipole field          0.0025 Ry au, 
 
        Potential amp.       -0.2343 Ry
        Total length         46.3494 bohr
 

     total cpu time spent up to now is     1206.5 secs

     total energy              =   -2977.69998099 Ry
     estimated scf accuracy    <       0.00000010 Ry

     iteration # 72     ecut=    29.40 Ry     beta= 0.05
     Davidson diagonalization with overlap
     c_bands:  2 eigenvalues not converged
     ethr =  2.46E-11,  avg # of iterations = 12.8

     negative rho (up, down):  1.405E-02 0.000E+00
 
     Adding external electric field

     Computed dipole along edir(3) : 
        Dipole                1.3392 Ry au,          3.4038 Debye
        Dipole field          0.0025 Ry au, 
 
        Potential amp.       -0.2343 Ry
        Total length         46.3494 bohr
 

     total cpu time spent up to now is     1226.0 secs

     total energy              =   -2977.69998356 Ry
     estimated scf accuracy    <       0.00000012 Ry

     iteration # 73     ecut=    29.40 Ry     beta= 0.05
     Davidson diagonalization with overlap
     c_bands:  1 eigenvalues not converged
     ethr =  2.46E-11,  avg # of iterations = 10.3

     negative rho (up, down):  1.407E-02 0.000E+00
 
     Adding external electric field

     Computed dipole along edir(3) : 
        Dipole                1.3386 Ry au,          3.4025 Debye
        Dipole field          0.0025 Ry au, 
 
        Potential amp.       -0.2342 Ry
        Total length         46.3494 bohr
 

     total cpu time spent up to now is     1241.0 secs

     End of self-consistent calculation

          k = 0.0000 0.0000 0.0000 ( 18029 PWs)   bands (ev):

   -55.1190 -55.0823 -55.0748 -55.0407 -55.0349 -55.0299 -54.9982 -54.9624
   -54.9438 -54.9090 -54.9053 -54.8883 -54.8716 -54.8380 -54.1046 -54.0706
   -31.6808 -31.5947 -31.5672 -31.4873 -31.4329 -31.4302 -31.4166 -31.4108
   -31.3638 -31.3411 -31.3306 -31.3196 -31.3128 -31.3100 -31.2917 -31.2835
   -31.2633 -31.2607 -31.2583 -31.2400 -31.2273 -31.2181 -31.2006 -31.1963
   -31.1886 -31.1770 -31.1739 -31.1447 -31.1320 -31.1291 -31.1243 -31.1038
   -31.1011 -31.0934 -31.0900 -31.0663 -31.0572 -31.0406 -31.0332 -31.0315
   -31.0163 -31.0153 -30.5140 -30.4198 -30.3977 -30.3304 -30.2436 -30.1327
   -18.8546 -17.8185 -15.9502 -15.6947 -15.5581 -15.4571 -15.3223 -15.2162
   -15.1349 -15.0208 -14.9709 -14.8554 -14.8233 -14.8188 -14.7792 -14.7480
   -14.6992 -14.6604 -14.6582 -14.6359 -14.6164 -14.6087 -14.5659 -14.5590
   -14.5190 -14.5174 -14.4975 -14.3616 -14.2799 -14.2098 -14.0279 -13.2016
   -12.6072 -12.4897  -9.7782  -6.6341  -6.4041  -5.4498  -4.9207  -3.5343
    -3.2837  -3.1390  -3.0852  -3.0492  -3.0151  -2.9403  -2.8807  -2.8033
    -2.6486  -2.5814  -2.5561  -2.4038  -2.3300  -2.3202  -2.2632  -2.1642
    -2.1391  -2.0922  -2.0510  -1.9856  -1.9475  -1.9245  -1.9028  -1.8678
    -1.8634  -1.8102  -1.7563  -1.6868  -1.5968  -1.5656  -1.5200  -1.4763
    -1.4543  -1.4515  -1.4111  -1.4047  -1.3962  -1.3496  -1.3439  -1.3135
    -1.2675  -1.1580  -1.0079  -0.9458  -0.8564  -0.7614  -0.7375  -0.7107
    -0.6906  -0.6284  -0.6058  -0.5768  -0.5009  -0.4526  -0.3734  -0.3297
    -0.3047  -0.2248  -0.1201  -0.1028  -0.0950  -0.0078   0.0844   0.0973
     0.1120   0.1216   0.2194   0.2850   0.3188   0.3606   0.4247   0.4337
     0.4915   0.5206   0.5723   0.6385   0.6715   0.7507   0.7900   0.8109
     0.8164   0.8389   0.8591   0.8705   0.9517   0.9605   0.9860   1.0746
     1.1792   1.3332   1.4795   1.4904   1.8237   1.8248   1.9182   2.1018
     2.4943   2.5426   3.9754   4.0510   4.1095   4.1207   4.1263   4.2112
     4.4602   4.4780   4.4894   4.4910   4.5259

          k = 0.0000 0.0419 0.0000 ( 17933 PWs)   bands (ev):

   -55.1138 -55.0873 -55.0697 -55.0456 -55.0339 -55.0289 -54.9934 -54.9671
   -54.9388 -54.9138 -54.9003 -54.8892 -54.8764 -54.8388 -54.0996 -54.0755
   -31.6240 -31.5560 -31.5132 -31.4325 -31.4051 -31.3814 -31.3795 -31.3681
   -31.3588 -31.3516 -31.3425 -31.3193 -31.3148 -31.3036 -31.2979 -31.2849
   -31.2762 -31.2679 -31.2565 -31.2452 -31.2254 -31.2232 -31.2134 -31.2058
   -31.2024 -31.1713 -31.1698 -31.1585 -31.1480 -31.1471 -31.1454 -31.1364
   -31.1131 -31.0950 -31.0926 -31.0900 -31.0853 -31.0738 -31.0703 -31.0560
   -31.0437 -31.0271 -30.4597 -30.4163 -30.4007 -30.3178 -30.2562 -30.1898
   -18.8540 -17.8170 -15.8241 -15.5830 -15.4770 -15.3835 -15.2172 -15.1563
   -15.0962 -15.0209 -14.9642 -14.9285 -14.8791 -14.8112 -14.7698 -14.7624
   -14.7261 -14.6916 -14.6785 -14.6295 -14.6220 -14.6043 -14.6024 -14.5738
   -14.5574 -14.5570 -14.4913 -14.4178 -14.3352 -14.2695 -14.1358 -13.2017
   -12.6108 -12.5290  -9.7760  -6.6366  -6.3949  -5.4532  -4.9243  -3.5173
    -3.0996  -2.9803  -2.9696  -2.9279  -2.8743  -2.8391  -2.7704  -2.7380
    -2.4726  -2.4623  -2.4272  -2.3530  -2.2842  -2.2804  -2.2225  -2.1904
    -2.1465  -2.1361  -2.1072  -2.0683  -2.0493  -2.0246  -1.9840  -1.9180
    -1.8926  -1.8633  -1.8370  -1.7616  -1.7450  -1.7160  -1.6805  -1.6733
    -1.6364  -1.5575  -1.5487  -1.4415  -1.4337  -1.3675  -1.2842  -1.1709
    -1.0764  -0.9928  -0.9502  -0.9245  -0.8381  -0.7455  -0.7193  -0.6743
    -0.5494  -0.4826  -0.4614  -0.4398  -0.4270  -0.4012  -0.3140  -0.2877
    -0.2251  -0.1346  -0.1134  -0.0733  -0.0572  -0.0464   0.0377   0.0561
     0.0684   0.1083   0.2078   0.2539   0.2685   0.2910   0.3308   0.3709
     0.4346   0.4794   0.5161   0.5756   0.6247   0.6294   0.6653   0.6851
     0.6919   0.8172   0.8332   0.8743   0.8994   0.9104   0.9914   1.0577
     1.1693   1.1742   1.1933   1.3494   1.5262   1.6991   2.1018   2.1778
     2.4492   2.4530   4.1702   4.1790   4.2105   4.2670   4.3509   4.3712
     4.3890   4.4125   4.4643   4.4726   4.5417

          k = 0.0000-0.0839 0.0000 ( 17884 PWs)   bands (ev):

   -55.1045 -55.0965 -55.0577 -55.0575 -55.0329 -55.0280 -54.9853 -54.9752
   -54.9294 -54.9231 -54.8902 -54.8889 -54.8877 -54.8396 -54.0875 -54.0874
   -31.5096 -31.4900 -31.4801 -31.3808 -31.3806 -31.3768 -31.3695 -31.3490
   -31.3489 -31.3122 -31.3076 -31.3030 -31.2957 -31.2935 -31.2918 -31.2876
   -31.2736 -31.2662 -31.2551 -31.2514 -31.2491 -31.2432 -31.2274 -31.2071
   -31.1948 -31.1938 -31.1903 -31.1866 -31.1796 -31.1795 -31.1788 -31.1626
   -31.1588 -31.1541 -31.1496 -31.1012 -31.0866 -31.0837 -31.0814 -31.0691
   -31.0683 -31.0240 -30.4083 -30.4083 -30.3267 -30.3265 -30.2870 -30.2870
   -18.8535 -17.8156 -15.5915 -15.4823 -15.3321 -15.2786 -15.1707 -15.1503
   -15.1268 -15.0375 -14.9608 -14.9535 -14.9454 -14.9035 -14.8083 -14.7332
   -14.7172 -14.7131 -14.7100 -14.6970 -14.6328 -14.5859 -14.5591 -14.5492
   -14.5299 -14.5268 -14.4732 -14.4655 -14.4148 -14.4121 -14.3016 -13.2020
   -12.5917 -12.5916  -9.7739  -6.6392  -6.3865  -5.4570  -4.9277  -3.5027
    -2.9824  -2.7900  -2.6912  -2.6721  -2.5947  -2.5711  -2.5592  -2.5487
    -2.5122  -2.4706  -2.4010  -2.3969  -2.3762  -2.3093  -2.2935  -2.2829
    -2.2651  -2.2520  -2.1790  -2.1347  -2.1130  -2.0462  -2.0134  -1.9904
    -1.9851  -1.9700  -1.9537  -1.8861  -1.8432  -1.7619  -1.7302  -1.6287
    -1.5693  -1.5058  -1.4907  -1.4604  -1.2680  -1.2552  -1.2089  -1.1955
    -1.0553  -0.9414  -0.9182  -0.8926  -0.8863  -0.6711  -0.6496  -0.6069
    -0.5957  -0.5787  -0.5722  -0.5332  -0.5070  -0.4965  -0.3781  -0.3088
    -0.2904  -0.2203  -0.1757  -0.1029  -0.0195   0.1355   0.1511   0.1749
     0.2099   0.2344   0.2550   0.2742   0.2822   0.2984   0.3414   0.3930
     0.4005   0.4283   0.4709   0.5036   0.5228   0.5462   0.5701   0.6203
     0.6426   0.6652   0.6663   0.6912   0.7063   0.8701   0.9900   1.0519
     1.0895   1.0906   1.2335   1.2451   1.4402   1.4508   2.2434   2.2446
     2.3850   2.3850   4.2529   4.2808   4.2915   4.3066   4.3905   4.4044
     4.4572   4.4626   4.5484   4.5714   4.5844

          k = 0.0380 0.0000 0.0000 ( 17913 PWs)   bands (ev):

   -55.1188 -55.0822 -55.0747 -55.0406 -55.0344 -55.0302 -54.9982 -54.9623
   -54.9435 -54.9089 -54.9053 -54.8881 -54.8715 -54.8379 -54.1045 -54.0705
   -31.6809 -31.5948 -31.5681 -31.4927 -31.4369 -31.4339 -31.4164 -31.4111
   -31.3636 -31.3408 -31.3196 -31.3143 -31.3120 -31.3101 -31.2916 -31.2676
   -31.2630 -31.2605 -31.2518 -31.2252 -31.2195 -31.2180 -31.2074 -31.1963
   -31.1944 -31.1883 -31.1736 -31.1447 -31.1317 -31.1285 -31.1168 -31.1125
   -31.1036 -31.1009 -31.0925 -31.0635 -31.0559 -31.0402 -31.0370 -31.0331
   -31.0167 -31.0156 -30.5135 -30.4233 -30.3957 -30.3302 -30.2435 -30.1324
   -18.8541 -17.8184 -15.8706 -15.6080 -15.5624 -15.4041 -15.2386 -15.2094
   -15.1399 -15.0440 -14.9766 -14.9460 -14.8967 -14.8922 -14.8204 -14.8158
   -14.7920 -14.7211 -14.6794 -14.6614 -14.6101 -14.5638 -14.5448 -14.5224
   -14.4800 -14.4347 -14.3771 -14.3547 -14.3440 -14.2965 -14.0263 -13.2028
   -12.6039 -12.4894  -9.7787  -6.6365  -6.3991  -5.4454  -4.9234  -3.5339
    -3.1592  -3.0301  -2.9448  -2.9056  -2.8626  -2.7798  -2.7677  -2.7291
    -2.6490  -2.6322  -2.5919  -2.5529  -2.4858  -2.4424  -2.2624  -2.1986
    -2.1892  -2.1051  -2.0330  -1.9075  -1.8949  -1.8645  -1.8373  -1.8075
    -1.7839  -1.7266  -1.7069  -1.6544  -1.5420  -1.5207  -1.4808  -1.4706
    -1.4539  -1.4443  -1.4022  -1.3766  -1.3595  -1.3058  -1.2098  -1.1859
    -1.1656  -1.0611  -0.9802  -0.9370  -0.8662  -0.8329  -0.7701  -0.7512
    -0.6955  -0.6452  -0.6330  -0.5787  -0.5422  -0.5355  -0.4688  -0.4346
    -0.4275  -0.2055  -0.1599  -0.1399  -0.0676  -0.0179  -0.0003   0.0392
     0.0944   0.1713   0.2071   0.2304   0.2695   0.3058   0.3589   0.4060
     0.4351   0.4892   0.5562   0.5757   0.6093   0.6308   0.6516   0.6904
     0.7354   0.7677   0.8251   0.8390   0.8755   0.9048   0.9250   0.9970
     1.0742   1.1122   1.3164   1.5411   1.6857   1.8295   1.9301   2.0706
     2.3817   2.4598   3.9898   4.0773   4.1929   4.2893   4.3128   4.3686
     4.4166   4.4240   4.4667   4.4799   4.4908

          k = 0.0380 0.0419 0.0000 ( 17878 PWs)   bands (ev):

   -55.1137 -55.0872 -55.0696 -55.0456 -55.0334 -55.0292 -54.9934 -54.9671
   -54.9386 -54.9137 -54.9003 -54.8891 -54.8764 -54.8388 -54.0995 -54.0754
   -31.6241 -31.5561 -31.5140 -31.4389 -31.4052 -31.3852 -31.3837 -31.3685
   -31.3586 -31.3516 -31.3426 -31.3150 -31.3065 -31.3030 -31.2979 -31.2850
   -31.2625 -31.2585 -31.2561 -31.2453 -31.2233 -31.2117 -31.2082 -31.2072
   -31.2048 -31.1874 -31.1695 -31.1562 -31.1483 -31.1453 -31.1388 -31.1343
   -31.1225 -31.0985 -31.0943 -31.0924 -31.0919 -31.0712 -31.0700 -31.0559
   -31.0438 -31.0333 -30.4594 -30.4191 -30.3997 -30.3176 -30.2563 -30.1897
   -18.8536 -17.8169 -15.7525 -15.5224 -15.4766 -15.3135 -15.1705 -15.1224
   -15.0901 -15.0197 -14.9898 -14.9361 -14.9147 -14.8692 -14.8246 -14.7945
   -14.7693 -14.7355 -14.7079 -14.6744 -14.6511 -14.5973 -14.5758 -14.5576
   -14.5343 -14.4876 -14.4459 -14.4133 -14.4030 -14.3504 -14.1351 -13.2028
   -12.6084 -12.5293  -9.7767  -6.6503  -6.3774  -5.4479  -4.9262  -3.5191
    -3.0051  -2.9311  -2.8742  -2.7905  -2.7392  -2.6703  -2.6166  -2.5568
    -2.5027  -2.4699  -2.4359  -2.3940  -2.3241  -2.2570  -2.1953  -2.1632
    -2.1399  -2.1203  -2.0565  -2.0173  -1.9952  -1.9575  -1.9397  -1.9173
    -1.8796  -1.8276  -1.8164  -1.7620  -1.7465  -1.7033  -1.6431  -1.6256
    -1.5841  -1.5678  -1.5181  -1.4479  -1.3360  -1.2820  -1.1911  -1.1457
    -1.1053  -0.9767  -0.9418  -0.8721  -0.8387  -0.8014  -0.7327  -0.6554
    -0.6107  -0.5688  -0.5300  -0.5153  -0.4863  -0.4526  -0.4015  -0.3761
    -0.2966  -0.2500  -0.2123  -0.1641  -0.0945  -0.0635  -0.0568  -0.0258
     0.0452   0.1103   0.1155   0.1616   0.1817   0.2224   0.2595   0.2859
     0.3068   0.3480   0.3951   0.4410   0.4769   0.5280   0.6015   0.6259
     0.7221   0.7547   0.8137   0.8586   0.8918   0.9406   0.9981   1.0311
     1.1113   1.1532   1.2971   1.3028   1.4724   1.6541   2.1127   2.1812
     2.3714   2.4347   4.1472   4.1739   4.1967   4.3200   4.3562   4.3909
     4.4101   4.4650   4.5257   4.5521   4.5806

          k = 0.0380-0.0839 0.0000 ( 17916 PWs)   bands (ev):

   -55.1045 -55.0965 -55.0577 -55.0575 -55.0326 -55.0284 -54.9853 -54.9752
   -54.9294 -54.9230 -54.8902 -54.8890 -54.8878 -54.8396 -54.0875 -54.0875
   -31.5098 -31.4902 -31.4803 -31.3816 -31.3814 -31.3769 -31.3698 -31.3490
   -31.3490 -31.3205 -31.3160 -31.3149 -31.3079 -31.2891 -31.2748 -31.2658
   -31.2649 -31.2572 -31.2563 -31.2533 -31.2524 -31.2490 -31.2277 -31.2130
   -31.1966 -31.1957 -31.1788 -31.1787 -31.1739 -31.1699 -31.1681 -31.1658
   -31.1624 -31.1579 -31.1540 -31.1024 -31.0982 -31.0956 -31.0762 -31.0691
   -31.0684 -31.0322 -30.4093 -30.4093 -30.3266 -30.3264 -30.2870 -30.2870
   -18.8533 -17.8153 -15.5623 -15.4410 -15.2943 -15.2260 -15.1569 -15.1083
   -15.0714 -15.0103 -14.9720 -14.9669 -14.9091 -14.8657 -14.8022 -14.7735
   -14.7449 -14.7399 -14.7147 -14.7023 -14.6939 -14.6094 -14.6029 -14.5602
   -14.5562 -14.5485 -14.4932 -14.4863 -14.4659 -14.4647 -14.2935 -13.2028
   -12.5915 -12.5914  -9.7744  -6.6555  -6.3638  -5.4519  -4.9295  -3.5051
    -2.9585  -2.7940  -2.6597  -2.6263  -2.4842  -2.4185  -2.3984  -2.3890
    -2.3502  -2.3082  -2.3000  -2.2505  -2.2368  -2.2233  -2.2012  -2.1975
    -2.1792  -2.1624  -2.1240  -2.1044  -2.0679  -2.0288  -2.0074  -1.9782
    -1.9596  -1.8997  -1.8903  -1.8418  -1.8095  -1.7829  -1.7462  -1.6915
    -1.6097  -1.4726  -1.4019  -1.3230  -1.2905  -1.2699  -1.2081  -1.1155
    -1.0873  -1.0530  -1.0169  -0.9825  -0.9238  -0.8807  -0.8245  -0.8049
    -0.7963  -0.7415  -0.6776  -0.5993  -0.4838  -0.4641  -0.4389  -0.3883
    -0.3615  -0.2722  -0.2049  -0.1655  -0.1467  -0.0795  -0.0311   0.0182
     0.0567   0.0650   0.0864   0.1028   0.1867   0.2340   0.2400   0.2714
     0.3115   0.3507   0.3604   0.3833   0.4050   0.5567   0.5978   0.6125
     0.6401   0.7554   0.7945   0.8883   0.9400   0.9433   0.9518   1.0319
     1.0958   1.1220   1.2002   1.2112   1.4298   1.4402   2.2569   2.2580
     2.3754   2.3761   4.1524   4.2291   4.2778   4.3081   4.3932   4.4283
     4.4345   4.4631   4.5588   4.5897   4.6289

          k = 0.0380-0.0419 0.0000 ( 17876 PWs)   bands (ev):

   -55.1137 -55.0872 -55.0696 -55.0456 -55.0334 -55.0292 -54.9934 -54.9671
   -54.9386 -54.9137 -54.9003 -54.8891 -54.8764 -54.8388 -54.0995 -54.0754
   -31.6241 -31.5561 -31.5140 -31.4389 -31.4052 -31.3853 -31.3837 -31.3685
   -31.3586 -31.3516 -31.3426 -31.3150 -31.3065 -31.3031 -31.2978 -31.2851
   -31.2612 -31.2585 -31.2560 -31.2452 -31.2234 -31.2117 -31.2098 -31.2071
   -31.2043 -31.1875 -31.1695 -31.1562 -31.1484 -31.1453 -31.1388 -31.1342
   -31.1227 -31.0983 -31.0944 -31.0937 -31.0919 -31.0704 -31.0699 -31.0546
   -31.0438 -31.0342 -30.4593 -30.4191 -30.3997 -30.3176 -30.2563 -30.1897
   -18.8537 -17.8168 -15.7526 -15.5227 -15.4759 -15.3103 -15.1691 -15.1228
   -15.0902 -15.0219 -14.9936 -14.9351 -14.9189 -14.8685 -14.8240 -14.7933
   -14.7697 -14.7353 -14.7039 -14.6739 -14.6511 -14.5973 -14.5786 -14.5585
   -14.5347 -14.4875 -14.4452 -14.4131 -14.4033 -14.3507 -14.1338 -13.2026
   -12.6084 -12.5293  -9.7764  -6.6424  -6.3838  -5.4490  -4.9268  -3.5187
    -3.0020  -2.9200  -2.8765  -2.8233  -2.7395  -2.6686  -2.6157  -2.5563
    -2.4999  -2.4662  -2.4349  -2.3966  -2.3178  -2.2525  -2.1951  -2.1626
    -2.1367  -2.1220  -2.0576  -2.0176  -1.9977  -1.9597  -1.9380  -1.9155
    -1.8806  -1.8264  -1.8163  -1.7604  -1.7457  -1.7040  -1.6379  -1.6210
    -1.5948  -1.5600  -1.5244  -1.4534  -1.3387  -1.2816  -1.1888  -1.1403
    -1.1058  -0.9845  -0.9483  -0.8721  -0.8375  -0.7887  -0.7394  -0.6551
    -0.6085  -0.5674  -0.5318  -0.5140  -0.4773  -0.4544  -0.4006  -0.3814
    -0.2953  -0.2407  -0.2103  -0.1577  -0.0979  -0.0725  -0.0623  -0.0243
     0.0423   0.0985   0.1242   0.1677   0.1813   0.2168   0.2599   0.2763
     0.3094   0.3521   0.4081   0.4459   0.4834   0.5286   0.5999   0.6147
     0.7045   0.7613   0.8247   0.8632   0.8957   0.9396   0.9905   1.0317
     1.1023   1.1540   1.2968   1.3035   1.4728   1.6545   2.1127   2.1812
     2.3712   2.4353   4.1455   4.1742   4.1958   4.3196   4.3603   4.3932
     4.4115   4.4669   4.5275   4.5539   4.5780

          k =-0.0760-0.0000 0.0000 ( 17886 PWs)   bands (ev):

   -55.1187 -55.0822 -55.0746 -55.0406 -55.0338 -55.0307 -54.9982 -54.9623
   -54.9433 -54.9088 -54.9054 -54.8881 -54.8715 -54.8379 -54.1045 -54.0704
   -31.6811 -31.5950 -31.5690 -31.4978 -31.4408 -31.4376 -31.4162 -31.4114
   -31.3634 -31.3408 -31.3195 -31.3127 -31.3108 -31.2916 -31.2884 -31.2629
   -31.2602 -31.2462 -31.2392 -31.2278 -31.2215 -31.2199 -31.2179 -31.1963
   -31.1882 -31.1858 -31.1739 -31.1469 -31.1445 -31.1320 -31.1283 -31.1085
   -31.1038 -31.1011 -31.0961 -31.0598 -31.0550 -31.0460 -31.0382 -31.0330
   -31.0174 -31.0162 -30.5131 -30.4267 -30.3943 -30.3301 -30.2434 -30.1325
   -18.8536 -17.8184 -15.7238 -15.6604 -15.4697 -15.3352 -15.2066 -15.1654
   -15.0918 -15.0496 -15.0200 -14.9927 -14.9730 -14.9446 -14.8987 -14.8754
   -14.8418 -14.8063 -14.6743 -14.6204 -14.6055 -14.5645 -14.5492 -14.5273
   -14.5179 -14.4518 -14.3980 -14.3677 -14.2871 -14.2558 -14.0251 -13.2040
   -12.6008 -12.4891  -9.7794  -6.6390  -6.3943  -5.4411  -4.9260  -3.5356
    -3.1223  -3.0106  -2.9348  -2.7965  -2.7582  -2.6708  -2.6415  -2.6234
    -2.6055  -2.5872  -2.5558  -2.5406  -2.4341  -2.3691  -2.3533  -2.1764
    -2.0746  -2.0153  -1.9715  -1.8645  -1.8019  -1.7751  -1.7654  -1.7241
    -1.7070  -1.6652  -1.6346  -1.6088  -1.6004  -1.5892  -1.5712  -1.4792
    -1.4543  -1.4343  -1.4107  -1.4007  -1.3267  -1.2820  -1.2356  -1.1373
    -1.1230  -1.0521  -0.9411  -0.8663  -0.7968  -0.7859  -0.7651  -0.7568
    -0.7313  -0.7101  -0.6867  -0.6317  -0.5990  -0.5656  -0.5313  -0.4613
    -0.4236  -0.3963  -0.3910  -0.3216  -0.1257  -0.0969  -0.0311  -0.0057
     0.0744   0.1025   0.1489   0.1825   0.2336   0.2720   0.3215   0.3525
     0.3829   0.3920   0.4561   0.4689   0.5401   0.5620   0.6299   0.6632
     0.6808   0.7013   0.7275   0.7724   0.8081   0.8612   0.8941   1.0067
     1.1210   1.1505   1.3679   1.4067   1.5664   1.8342   1.9515   2.0457
     2.2515   2.4048   3.9897   4.0351   4.1254   4.2466   4.2615   4.3600
     4.4180   4.4341   4.4660   4.4818   4.5627

          k =-0.0760 0.0419 0.0000 ( 17914 PWs)   bands (ev):

   -55.1137 -55.0873 -55.0697 -55.0456 -55.0330 -55.0297 -54.9934 -54.9671
   -54.9385 -54.9137 -54.9005 -54.8891 -54.8765 -54.8388 -54.0995 -54.0755
   -31.6244 -31.5563 -31.5151 -31.4450 -31.4056 -31.3890 -31.3881 -31.3691
   -31.3586 -31.3516 -31.3426 -31.3152 -31.3040 -31.2986 -31.2877 -31.2850
   -31.2563 -31.2490 -31.2455 -31.2353 -31.2279 -31.2231 -31.2089 -31.2069
   -31.2050 -31.1739 -31.1703 -31.1555 -31.1537 -31.1485 -31.1449 -31.1416
   -31.1123 -31.1090 -31.1000 -31.0950 -31.0926 -31.0707 -31.0674 -31.0533
   -31.0438 -31.0431 -30.4591 -30.4221 -30.3990 -30.3176 -30.2563 -30.1897
   -18.8534 -17.8167 -15.6101 -15.5940 -15.3802 -15.2440 -15.1363 -15.0893
   -15.0416 -15.0200 -15.0045 -14.9541 -14.9234 -14.9129 -14.8993 -14.8504
   -14.8249 -14.7785 -14.7155 -14.6829 -14.6708 -14.5948 -14.5807 -14.5695
   -14.5470 -14.4999 -14.4974 -14.4116 -14.3750 -14.3628 -14.1337 -13.2037
   -12.6063 -12.5296  -9.7772  -6.6555  -6.3671  -5.4438  -4.9288  -3.5212
    -2.9832  -2.9003  -2.8604  -2.8043  -2.5435  -2.4890  -2.4829  -2.3981
    -2.3946  -2.3679  -2.3600  -2.3222  -2.2614  -2.2033  -2.1528  -2.1335
    -2.0795  -2.0750  -2.0467  -2.0146  -1.9432  -1.9348  -1.8677  -1.8403
    -1.8008  -1.7851  -1.7584  -1.7323  -1.7028  -1.6829  -1.6736  -1.6631
    -1.5858  -1.5711  -1.3778  -1.3527  -1.2861  -1.2625  -1.2144  -1.1172
    -1.0702  -1.0359  -0.9211  -0.8901  -0.8141  -0.7817  -0.7543  -0.7264
    -0.7030  -0.6348  -0.6156  -0.6014  -0.5174  -0.5136  -0.4800  -0.4590
    -0.3997  -0.3764  -0.3585  -0.3298  -0.3018  -0.2557  -0.1919  -0.1759
    -0.1100  -0.0905   0.0125   0.0789   0.0970   0.1075   0.1420   0.1792
     0.1945   0.3276   0.3489   0.3916   0.4503   0.5076   0.6040   0.6183
     0.6968   0.7650   0.8097   0.8205   0.9051   0.9943   1.0748   1.1233
     1.1511   1.2180   1.2924   1.3742   1.3937   1.5317   2.1279   2.1833
     2.2935   2.4238   4.1523   4.1728   4.1754   4.2028   4.2876   4.3587
     4.3783   4.4473   4.4787   4.5847   4.6158

          k =-0.0760-0.0839 0.0000 ( 17948 PWs)   bands (ev):

   -55.1045 -55.0965 -55.0577 -55.0576 -55.0321 -55.0288 -54.9854 -54.9752
   -54.9293 -54.9230 -54.8902 -54.8891 -54.8879 -54.8397 -54.0876 -54.0875
   -31.5101 -31.4905 -31.4807 -31.3824 -31.3822 -31.3769 -31.3702 -31.3491
   -31.3490 -31.3285 -31.3234 -31.3178 -31.3081 -31.2892 -31.2757 -31.2612
   -31.2569 -31.2556 -31.2522 -31.2457 -31.2438 -31.2398 -31.2281 -31.2270
   -31.1978 -31.1969 -31.1797 -31.1774 -31.1773 -31.1687 -31.1685 -31.1624
   -31.1540 -31.1418 -31.1362 -31.1207 -31.1191 -31.1033 -31.0692 -31.0685
   -31.0672 -31.0442 -30.4104 -30.4104 -30.3265 -30.3264 -30.2870 -30.2870
   -18.8531 -17.8151 -15.5302 -15.3916 -15.2525 -15.1488 -15.1339 -15.0804
   -15.0312 -14.9895 -14.9477 -14.9036 -14.8935 -14.8754 -14.8464 -14.8199
   -14.7955 -14.7365 -14.7202 -14.7046 -14.6824 -14.6354 -14.6276 -14.6248
   -14.6177 -14.5714 -14.5688 -14.5439 -14.4752 -14.4731 -14.2871 -13.2036
   -12.5913 -12.5912  -9.7750  -6.6696  -6.3431  -5.4469  -4.9314  -3.5075
    -2.9311  -2.8173  -2.6536  -2.6178  -2.4709  -2.3717  -2.3264  -2.2984
    -2.2446  -2.1990  -2.1389  -2.1238  -2.1056  -2.0468  -2.0224  -2.0027
    -1.9710  -1.9521  -1.9384  -1.9199  -1.9028  -1.8751  -1.8482  -1.8394
    -1.8347  -1.8063  -1.7905  -1.7509  -1.7440  -1.7361  -1.6933  -1.6808
    -1.6547  -1.5971  -1.4907  -1.4805  -1.3280  -1.3257  -1.2915  -1.2462
    -1.2268  -1.2162  -1.1553  -1.1473  -1.1350  -0.8997  -0.8723  -0.8622
    -0.8352  -0.7779  -0.7593  -0.6965  -0.6871  -0.6034  -0.5887  -0.4866
    -0.4709  -0.4148  -0.3311  -0.3233  -0.3109  -0.2007  -0.1501  -0.1124
    -0.0857  -0.0757  -0.0577  -0.0204  -0.0202   0.0698   0.1130   0.1433
     0.1585   0.1885   0.3528   0.4018   0.4105   0.5495   0.5633   0.7118
     0.7751   0.7891   0.8767   0.8971   0.9848   0.9948   1.0344   1.1739
     1.1855   1.2085   1.2557   1.2841   1.3361   1.3413   2.2745   2.2758
     2.3625   2.3627   4.1078   4.2329   4.2394   4.3000   4.4094   4.4424
     4.4888   4.5224   4.5598   4.5625   4.6306

     the Fermi energy is     4.0374 ev

!    total energy              =   -2977.70000693 Ry
     estimated scf accuracy    <       0.00000004 Ry
     smearing contrib. (-TS)   =      -0.03675122 Ry
     internal energy E=F+TS    =   -2977.66325571 Ry

     The total energy is F=E-TS. E is the sum of the following terms:
     one-electron contribution =  -23082.98859351 Ry
     hartree contribution      =   11640.63560058 Ry
     xc contribution           =    -496.63214859 Ry
     ewald contribution        =    8961.31850416 Ry
     electric field correction =       0.00338165 Ry

     convergence has been achieved in  73 iterations

     Forces acting on atoms (cartesian axes, Ry/au):

     atom    1 type  1   force =     0.00018136   -0.00018819    0.09314041
     atom    2 type  1   force =    -0.00010039   -0.00033356   -0.17819517
     atom    3 type  2   force =     0.00002096   -0.00018125   -0.02037769
     atom    4 type  2   force =    -0.00002572   -0.00200788    0.05900950
     atom    5 type  2   force =    -0.01060661   -0.00142051    0.00860163
     atom    6 type  2   force =     0.01187161   -0.00070334    0.00713334
     atom    7 type  1   force =    -0.00089025    0.00312689   -0.01229365
     atom    8 type  1   force =     0.00054361    0.00113580   -0.00450349
     atom    9 type  2   force =    -0.00007402   -0.00037435    0.00014079
     atom   10 type  2   force =    -0.00129278   -0.00051429   -0.00194580
     atom   11 type  2   force =    -0.00022170   -0.00021919   -0.00006206
     atom   12 type  2   force =     0.00061344   -0.00007665   -0.00024665
     atom   13 type  1   force =    -0.00103239   -0.00062933    0.00021619
     atom   14 type  1   force =     0.00011551   -0.00004158    0.00016693
     atom   15 type  2   force =    -0.00027389   -0.00053814   -0.00004575
     atom   16 type  2   force =    -0.00000700   -0.00008503    0.00070248
     atom   17 type  2   force =    -0.00019457    0.00032548    0.00033400
     atom   18 type  2   force =     0.00010820    0.00011366    0.00013437
     atom   19 type  1   force =     0.00023430   -0.00015440    0.00059721
     atom   20 type  1   force =    -0.00018937   -0.00019122    0.00026322
     atom   21 type  2   force =     0.00007259   -0.00001751    0.10395841
     atom   22 type  2   force =     0.00003711   -0.00023616   -0.00104252
     atom   23 type  2   force =    -0.07038561   -0.00011584   -0.02687177
     atom   24 type  2   force =     0.07026783    0.00032938   -0.02691430
     atom   25 type  1   force =     0.00000268   -0.00023016    0.09277846
     atom   26 type  1   force =    -0.00019802   -0.00037016   -0.17830759
     atom   27 type  2   force =     0.00010500   -0.00028552   -0.01934944
     atom   28 type  2   force =     0.00003891   -0.00162539    0.05808183
     atom   29 type  2   force =    -0.01068913   -0.00080748    0.00799953
     atom   30 type  2   force =     0.01181086   -0.00047840    0.00652600
     atom   31 type  1   force =    -0.00072873    0.00504560   -0.01493231
     atom   32 type  1   force =     0.00040132   -0.00140100   -0.00477889
     atom   33 type  2   force =    -0.00010980    0.00021603    0.00028991
     atom   34 type  2   force =    -0.00128913    0.00140829   -0.00089522
     atom   35 type  2   force =     0.00019254    0.00013731    0.00001736
     atom   36 type  2   force =     0.00012245   -0.00001463   -0.00011709
     atom   37 type  1   force =    -0.00103423    0.00056198    0.00003868
     atom   38 type  1   force =     0.00014714   -0.00015404   -0.00005337
     atom   39 type  2   force =    -0.00002975   -0.00011633    0.00011733
     atom   40 type  2   force =    -0.00020448    0.00021361    0.00024321
     atom   41 type  2   force =    -0.00005573   -0.00007893    0.00053995
     atom   42 type  2   force =    -0.00009431    0.00001686    0.00018859
     atom   43 type  1   force =     0.00007592    0.00058853    0.00039701
     atom   44 type  1   force =    -0.00008902    0.00020120   -0.00040643
     atom   45 type  2   force =     0.00004085   -0.00005296    0.10394457
     atom   46 type  2   force =    -0.07037866   -0.00004964   -0.02690073
     atom   47 type  2   force =     0.07028784    0.00037795   -0.02692921
     atom   48 type  3   force =     0.00001898    0.00020071   -0.00031490
     atom   49 type  3   force =    -0.00085758   -0.00028286    0.00026258
     atom   50 type  4   force =     0.00068296    0.00036549   -0.00053323
     atom   51 type  5   force =     0.00012129   -0.00026303    0.00010672
     atom   52 type  5   force =     0.00033523   -0.00061067    0.00049735
     atom   53 type  5   force =     0.00059434    0.00011045   -0.00019329
     atom   54 type  5   force =     0.00079706   -0.00025463   -0.00028709
     atom   55 type  5   force =     0.00041337    0.00084865   -0.00000759
     atom   56 type  5   force =     0.00006725    0.00033183    0.00017458
     atom   57 type  2   force =     0.00196891   -0.01595707   -0.00311167
     atom   58 type  5   force =     0.00553021    0.00337162    0.00088103
     atom   59 type  5   force =    -0.00676877    0.01203399    0.00213373

     Total force =     0.366748     Total SCF correction =     0.000510
  @ DRIVER MODE: Message from server: STATUS
  @ DRIVER MODE: Message from server: GETFORCE
  @ DRIVER MODE: Returning v,forces,stress,ensemble 

     Writing output data file ./calc.save/
  @ DRIVER MODE: Message from server: EXIT
  @ DRIVE MODE: Exiting  
 
     init_run     :     11.00s CPU     11.26s WALL (       1 calls)
     electrons    :   1212.29s CPU   1229.47s WALL (       1 calls)
     forces       :      2.52s CPU      2.61s WALL (       1 calls)

     Called by init_run:
     wfcinit      :      4.95s CPU      5.03s WALL (       1 calls)
     potinit      :      5.35s CPU      5.42s WALL (       1 calls)
     hinit0       :      0.33s CPU      0.35s WALL (       1 calls)

     Called by electrons:
     c_bands      :   1034.95s CPU   1042.09s WALL (      73 calls)
     sum_band     :    119.77s CPU    123.84s WALL (      73 calls)
     v_of_rho     :     42.67s CPU     44.79s WALL (      74 calls)
     newd         :     17.72s CPU     21.54s WALL (      74 calls)
     mix_rho      :      1.59s CPU      1.64s WALL (      73 calls)
     vdW_kernel   :      4.55s CPU      4.56s WALL (       1 calls)

     Called by c_bands:
     init_us_2    :      8.40s CPU      8.44s WALL (    1480 calls)
     cegterg      :   1013.46s CPU   1020.26s WALL (     742 calls)

     Called by *egterg:
     cdiaghg      :    165.61s CPU    166.32s WALL (    7410 calls)
     h_psi        :    531.08s CPU    535.84s WALL (    7422 calls)
     s_psi        :     72.73s CPU     72.95s WALL (    7422 calls)
     g_psi        :      2.12s CPU      2.14s WALL (    6670 calls)

     Called by h_psi:
     h_psi:calbec :     68.89s CPU     69.20s WALL (    7422 calls)
     vloc_psi     :    384.81s CPU    388.59s WALL (    7422 calls)
     add_vuspsi   :     73.32s CPU     73.75s WALL (    7422 calls)

     General routines
     calbec       :     90.30s CPU     90.69s WALL (    8192 calls)
     fft          :     22.18s CPU     22.37s WALL (    4662 calls)
     ffts         :      0.13s CPU      0.13s WALL (     147 calls)
     fftw         :    429.92s CPU    434.14s WALL ( 1032972 calls)
     interpolate  :      0.47s CPU      0.47s WALL (      74 calls)
     davcio       :      0.00s CPU      1.10s WALL (      10 calls)
 
     Parallel routines
 
     PWSCF        :  20m26.15s CPU  20m45.26s WALL

 
   This run was terminated on:  12:30: 9  16Sep2021            

=------------------------------------------------------------------------------=
   JOB DONE.
=------------------------------------------------------------------------------=
