
     Program PWSCF v.6.7GPU starts on 24Aug2021 at 17:14:30 

     This program is part of the open-source Quantum ESPRESSO suite
     for quantum simulation of materials; please cite
         "P. Giannozzi et al., J. Phys.:Condens. Matter 21 395502 (2009);
         "P. Giannozzi et al., J. Phys.:Condens. Matter 29 465901 (2017);
         "P. Giannozzi et al., J. Chem. Phys. 152 154105 (2020);
          URL http://www.quantum-espresso.org", 
     in publications or presentations arising from this work. More details at
     http://www.quantum-espresso.org/quote

     Parallel version (MPI), running on    72 processors

     MPI processes distributed on     4 nodes
     R & G space division:  proc/nbgrp/npool/nimage =      72
     Reading input from /storage/home/hcoda1/3/ntian30/research/carbon/CH2_vib/ads_slab/CH2NHH_a/out_0021/pw.inp
Warning: card &CELL ignored
Warning: card   CELL_DYNAMICS='IPI', ignored
Warning: card / ignored

     Current dimensions of program PWSCF are:
     Max number of different atomic species (ntypx) = 10
     Max number of k-points (npk) =  40000
     Max angular momentum in pseudopotentials (lmaxx) =  3
     Presently no symmetry can be used with electric field

     Message from routine cell_base_init:
     DEPRECATED: use true lattice parameter, not A to a.u. conversion factor

     **************************************************************************
     Initializing libbeef V0.1.2 with the BEEF-vdW functional.
     Citation: Wellendorff et al., PRB 85, 235149 (2012).
     **************************************************************************


     IMPORTANT: XC functional enforced from input :
     Exchange-correlation= BEEF-VDW
                           (   1   4  43  14   2   0   0)
     Any further DFT definition will be discarded
     Please, verify this is what you really want


     Subspace diagonalization in iterative solution of the eigenvalue problem:
     one sub-group per band group will be used
     scalapack distributed-memory algorithm (size of sub-group:  8*  8 procs)

  @ DRIVER MODE: Connecting to 
 qe_1139763_2641439.sched-torque.pace.gatech.edukyynib4h_scratch
  using UNIX socket
  @ DRIVER MODE: Message from server: STATUS
  @ DRIVER MODE: Message from server: INIT
  @ DRIVER MODE: Receiving replica           0          -1
  @ DRIVER MODE: Receiving encoded integer          25
  @ DRIVER MODE:  SCF:  T  FORCE:  T  STRESS:  F  VC:  F  ENSEMBLE:  F
  @ DRIVER MODE:  SCF:  T  FORCE:  T  STRESS:  F  VC:  F  ENSEMBLE:  F
 
     Parallelization info
     --------------------
     sticks:   dense  smooth     PW     G-vecs:    dense   smooth      PW
     Min          45      18      5                 7865     1988     295
     Max          46      19      6                 7884     2001     312
     Sum        3275    1317    379               566857   143421   21985
 
     Using Slab Decomposition
 


     bravais-lattice index     =            0
     lattice parameter (alat)  =       1.8897  a.u.
     unit-cell volume          =    6658.9804 (a.u.)^3
     number of atoms/cell      =           53
     number of atomic types    =            5
     number of electrons       =       391.00
     number of Kohn-Sham states=          205
     kinetic-energy cutoff     =      29.3995  Ry
     charge density cutoff     =     293.9946  Ry
     scf convergence threshold =      7.3E-08
     mixing beta               =       0.0500
     number of iterations used =            8  plain     mixing
     Exchange-correlation= BEEF-VDW
                           (   1   4  43  14   2   0   0)

     celldm(1)=   1.889726  celldm(2)=   0.000000  celldm(3)=   0.000000
     celldm(4)=   0.000000  celldm(5)=   0.000000  celldm(6)=   0.000000

     crystal axes: (cart. coord. in units of alat)
               a(1) = (   6.579727   0.000000   0.000000 )  
               a(2) = (  -0.000775   5.961596   0.000000 )  
               a(3) = (   0.000000   0.000000  25.155947 )  

     reciprocal axes: (cart. coord. in units 2 pi/alat)
               b(1) = (  0.151982  0.000020  0.000000 )  
               b(2) = (  0.000000  0.167740  0.000000 )  
               b(3) = (  0.000000  0.000000  0.039752 )  


     PseudoPot. # 1 for Ti read from file:
     /storage/coda1/p-amedford6/0/shared/rich_project_chbe-medford/medford-share/data/pseudos_module/espresso/nninc/pbe/van/Ti.UPF
     MD5 check sum: 8e4df49b7f0d34bbd5052bf3f5ea0213
     Pseudo is Ultrasoft, Zval = 12.0
     Generated by new atomic code, or converted to UPF format
     Using radial grid of  851 points,  6 beta functions with: 
                l(1) =   0
                l(2) =   0
                l(3) =   1
                l(4) =   1
                l(5) =   2
                l(6) =   2
     Q(r) pseudized with  8 coefficients,  rinner =    1.000   1.000   1.000
                                                       1.000   1.000

     PseudoPot. # 2 for O  read from file:
     /storage/coda1/p-amedford6/0/shared/rich_project_chbe-medford/medford-share/data/pseudos_module/espresso/nninc/pbe/van/O.UPF
     MD5 check sum: 78c19812648e8988a0fe644b0f25305e
     Pseudo is Ultrasoft, Zval =  6.0
     Generated by new atomic code, or converted to UPF format
     Using radial grid of  737 points,  4 beta functions with: 
                l(1) =   0
                l(2) =   0
                l(3) =   1
                l(4) =   1
     Q(r) pseudized with  8 coefficients,  rinner =    0.800   0.800   0.800


     PseudoPot. # 3 for N  read from file:
     /storage/coda1/p-amedford6/0/shared/rich_project_chbe-medford/medford-share/data/pseudos_module/espresso/nninc/pbe/van/N.UPF
     MD5 check sum: 90d10febe142ad51ac9d5be1deb811c4
     Pseudo is Ultrasoft, Zval =  5.0
     Generated by new atomic code, or converted to UPF format
     Using radial grid of  729 points,  4 beta functions with: 
                l(1) =   0
                l(2) =   0
                l(3) =   1
                l(4) =   1
     Q(r) pseudized with  8 coefficients,  rinner =    0.800   0.800   0.800


     PseudoPot. # 4 for C  read from file:
     /storage/coda1/p-amedford6/0/shared/rich_project_chbe-medford/medford-share/data/pseudos_module/espresso/nninc/pbe/van/C.UPF
     MD5 check sum: 1a69bf6b8db32088f5b2163dbdb77a27
     Pseudo is Ultrasoft, Zval =  4.0
     Generated by new atomic code, or converted to UPF format
     Using radial grid of  721 points,  4 beta functions with: 
                l(1) =   0
                l(2) =   0
                l(3) =   1
                l(4) =   1
     Q(r) pseudized with  8 coefficients,  rinner =    0.800   0.800   0.800


     PseudoPot. # 5 for H  read from file:
     /storage/coda1/p-amedford6/0/shared/rich_project_chbe-medford/medford-share/data/pseudos_module/espresso/nninc/pbe/van/H.UPF
     MD5 check sum: b5ee9d7bfd3a09ee7748110bda690ff7
     Pseudo is Ultrasoft, Zval =  1.0
     Generated by new atomic code, or converted to UPF format
     Using radial grid of  615 points,  1 beta functions with: 
                l(1) =   0
     Q(r) pseudized with  8 coefficients,  rinner =    0.800

     atomic species   valence    mass     pseudopotential
        Ti1           12.00    47.86700     Ti( 1.00)
        O1             6.00    15.99900     O ( 1.00)
        N1             5.00    14.00700     N ( 1.00)
        C1             4.00    12.01100     C ( 1.00)
        H1             1.00     1.00800     H ( 1.00)

     No symmetry found



   Cartesian axes

     site n.     atom                  positions (alat units)
         1           Ti1 tau(   1) = (   0.0004258   2.9801865   6.0000000  )
         2           Ti1 tau(   2) = (   3.2906075   1.4906267   6.0002472  )
         3           O1  tau(   3) = (   0.0006271   0.0005054   7.9858123  )
         4           O1  tau(   4) = (   3.2906025   0.0005020   7.3038282  )
         5           O1  tau(   5) = (   4.5942328   1.4918067   9.2879030  )
         6           O1  tau(   6) = (   1.9868534   1.4903216   9.2879459  )
         7           Ti1 tau(   7) = (   3.2907910   2.8959150   9.1758416  )
         8           Ti1 tau(   8) = (   0.0015273   1.4827037   9.2680791  )
         9           O1  tau(   9) = (   3.2941312   5.9515177  11.3840049  )
        10           O1  tau(  10) = (   0.0116148   5.9584955  10.6183126  )
        11           O1  tau(  11) = (   1.2915503   1.4777401  12.6967708  )
        12           O1  tau(  12) = (   5.3002239   1.4803738  12.6794006  )
        13           Ti1 tau(  13) = (   0.0161863   2.9610389  12.5056540  )
        14           Ti1 tau(  14) = (   3.3199580   1.4690355  12.5397617  )
        15           O1  tau(  15) = (   6.5577523   5.8663973  14.6994336  )
        16           O1  tau(  16) = (   3.3105950   5.9380289  14.0083265  )
        17           O1  tau(  17) = (   4.5355139   1.5078041  16.1868020  )
        18           O1  tau(  18) = (   2.0231344   1.4922588  16.1350940  )
        19           Ti1 tau(  19) = (   3.2781988   2.9761027  15.7713632  )
        20           Ti1 tau(  20) = (   0.0162001   1.2772015  15.8797579  )
        21           O1  tau(  21) = (   3.2904802   0.0005063   4.7018136  )
        22           O1  tau(  22) = (   6.5682446   0.1140876  17.2519115  )
        23           O1  tau(  23) = (   1.3043587   1.4918075   6.0039043  )
        24           O1  tau(  24) = (   5.2767064   1.4903225   6.0039473  )
        25           Ti1 tau(  25) = (   0.0000382   5.9609847   6.0000000  )
        26           Ti1 tau(  26) = (   3.2902200   4.4714249   6.0002472  )
        27           O1  tau(  27) = (   0.0002396   2.9813036   7.9858123  )
        28           O1  tau(  28) = (   3.2902150   2.9813002   7.3038282  )
        29           O1  tau(  29) = (   4.5938453   4.4726049   9.2879030  )
        30           O1  tau(  30) = (   1.9864658   4.4711199   9.2879459  )
        31           Ti1 tau(  31) = (   3.2891106   5.8743827   9.1763621  )
        32           Ti1 tau(  32) = (   0.0006254   4.4649316   9.2693709  )
        33           O1  tau(  33) = (   3.2958891   2.9587481  11.3780895  )
        34           O1  tau(  34) = (   0.0092240   2.9805883  10.6323155  )
        35           O1  tau(  35) = (   1.2947421   4.4484190  12.6652604  )
        36           O1  tau(  36) = (   5.2996063   4.4466420  12.6515021  )
        37           Ti1 tau(  37) = (   0.0283143   5.9336383  12.5061025  )
        38           Ti1 tau(  38) = (   3.3214233   4.4478814  12.5310514  )
        39           O1  tau(  39) = (   6.5589476   3.0029366  14.9874712  )
        40           O1  tau(  40) = (   3.3011147   2.9794859  13.9794371  )
        41           O1  tau(  41) = (   4.5155863   4.4560770  16.2359875  )
        42           O1  tau(  42) = (   2.0187475   4.4548860  16.2131175  )
        43           Ti1 tau(  43) = (   3.3138217   5.9556645  15.8088081  )
        44           Ti1 tau(  44) = (   0.0451788   4.5003401  16.0524233  )
        45           O1  tau(  45) = (   3.2900926   2.9813045   4.7018136  )
        46           O1  tau(  46) = (   1.3039711   4.4726057   6.0039043  )
        47           O1  tau(  47) = (   5.2763189   4.4711207   6.0039473  )
        48           N1  tau(  48) = (   6.2013940   3.4221407  18.2524812  )
        49           C1  tau(  49) = (   0.6861764   3.1362451  19.0985974  )
        50           H1  tau(  50) = (   1.2250757   3.9700495  19.5149693  )
        51           H1  tau(  51) = (   1.1126790   2.1386344  19.0481404  )
        52           H1  tau(  52) = (   5.7034377   4.2789310  18.4761913  )
        53           H1  tau(  53) = (   5.5430662   2.6552022  18.1284619  )

     number of k points=    10  Fermi-Dirac smearing, width (Ry)=  0.0073
                       cart. coord. in units 2pi/alat
        k(    1) = (   0.0000000   0.0000000   0.0000000), wk =   0.1250000
        k(    2) = (   0.0000000   0.0419351   0.0000000), wk =   0.2500000
        k(    3) = (   0.0000000  -0.0838702   0.0000000), wk =   0.1250000
        k(    4) = (   0.0379955   0.0000049   0.0000000), wk =   0.2500000
        k(    5) = (   0.0379955   0.0419400   0.0000000), wk =   0.2500000
        k(    6) = (   0.0379955  -0.0838652   0.0000000), wk =   0.2500000
        k(    7) = (   0.0379955  -0.0419301   0.0000000), wk =   0.2500000
        k(    8) = (  -0.0759910  -0.0000099   0.0000000), wk =   0.1250000
        k(    9) = (  -0.0759910   0.0419252   0.0000000), wk =   0.2500000
        k(   10) = (  -0.0759910  -0.0838800   0.0000000), wk =   0.1250000

     Dense  grid:   566857 G-vectors     FFT dimensions: (  72,  64, 270)

     Smooth grid:   143421 G-vectors     FFT dimensions: (  45,  40, 180)

     Estimated max dynamical RAM per process >      56.41 MB

     Estimated total dynamical RAM >       3.97 GB
     Cannot read rho : file not found

     Initial potential from superposition of free atoms

     starting charge  374.99916, renormalised to  391.00000

     negative rho (up, down):  1.684E-02 0.000E+00


     %%%%%%%%%%%%%%%%%%%%%%%%%%%%%%%%%%%%%%%%%%%%%%%%%%%%%%%%%%%%%%%%%%%%%%%%
     %                                                                      %
     % You are using vdW-DF, which was implemented by the Thonhauser group. %
     % Please cite the following two papers that made this development      %
     % possible and the two reviews that describe the various versions:     %
     %                                                                      %
     %   T. Thonhauser et al., PRL 115, 136402 (2015).                      %
     %   T. Thonhauser et al., PRB 76, 125112 (2007).                       %
     %   K. Berland et al., Rep. Prog. Phys. 78, 066501 (2015).             %
     %   D.C. Langreth et al., J. Phys.: Condens. Matter 21, 084203 (2009). %
     %                                                                      %
     %                                                                      %
     % If you are calculating the stress with vdW-DF, please also cite:     %
     %                                                                      %
     %   R. Sabatini et al., J. Phys.: Condens. Matter 24, 424209 (2012).   %
     %                                                                      %
     %%%%%%%%%%%%%%%%%%%%%%%%%%%%%%%%%%%%%%%%%%%%%%%%%%%%%%%%%%%%%%%%%%%%%%%%


 
     Adding external electric field

     Computed dipole along edir(3) : 
        Dipole               -6.9321 Ry au,        -17.6197 Debye
        Dipole field         -0.0131 Ry au, 
 
        Potential amp.        1.2127 Ry
        Total length         46.3494 bohr
 
     Starting wfcs are  296 atomic wfcs
  @ DRIVER MODE: Message from server: STATUS
  @ DRIVER MODE: Message from server: POSDATA
  @ DRIVER MODE: Reading and sharing cell 
  @ DRIVER MODE: Reading and sharing positions 
  @ DRIVER MODE: Received positions 

     total cpu time spent up to now is       30.1 secs

     Self-consistent Calculation

     iteration #  1     ecut=    29.40 Ry     beta= 0.05
     Davidson diagonalization with overlap
     c_bands:  1 eigenvalues not converged
     ethr =  1.00E-05,  avg # of iterations = 15.4

     negative rho (up, down):  1.607E-02 0.000E+00
 
     Adding external electric field

     Computed dipole along edir(3) : 
        Dipole               30.5095 Ry au,         77.5475 Debye
        Dipole field          0.0576 Ry au, 
 
        Potential amp.       -5.3372 Ry
        Total length         46.3494 bohr
 

     total cpu time spent up to now is       81.2 secs

     total energy              =   -2713.44437697 Ry
     estimated scf accuracy    <    2282.81770495 Ry

     iteration #  2     ecut=    29.40 Ry     beta= 0.05
     Davidson diagonalization with overlap
     c_bands:  1 eigenvalues not converged
     ethr =  1.00E-02,  avg # of iterations = 18.3

     negative rho (up, down):  6.561E-03 0.000E+00
 
     Adding external electric field

     Computed dipole along edir(3) : 
        Dipole               -2.3201 Ry au,         -5.8972 Debye
        Dipole field         -0.0044 Ry au, 
 
        Potential amp.        0.4059 Ry
        Total length         46.3494 bohr
 

     total cpu time spent up to now is      118.9 secs

     total energy              =   -2624.31023765 Ry
     estimated scf accuracy    <   40775.45856614 Ry

     iteration #  3     ecut=    29.40 Ry     beta= 0.05
     Davidson diagonalization with overlap
     ethr =  1.00E-02,  avg # of iterations = 15.4

     negative rho (up, down):  6.612E-03 0.000E+00
 
     Adding external electric field

     Computed dipole along edir(3) : 
        Dipole               -3.7355 Ry au,         -9.4946 Debye
        Dipole field         -0.0070 Ry au, 
 
        Potential amp.        0.6535 Ry
        Total length         46.3494 bohr
 

     total cpu time spent up to now is      153.6 secs

     total energy              =   -2909.84761518 Ry
     estimated scf accuracy    <    1707.54096288 Ry

     iteration #  4     ecut=    29.40 Ry     beta= 0.05
     Davidson diagonalization with overlap
     ethr =  1.00E-02,  avg # of iterations =  3.4

     negative rho (up, down):  6.754E-03 0.000E+00
 
     Adding external electric field

     Computed dipole along edir(3) : 
        Dipole               -5.1046 Ry au,        -12.9747 Debye
        Dipole field         -0.0096 Ry au, 
 
        Potential amp.        0.8930 Ry
        Total length         46.3494 bohr
 

     total cpu time spent up to now is      163.6 secs

     total energy              =   -2892.48606557 Ry
     estimated scf accuracy    <    1617.77559734 Ry

     iteration #  5     ecut=    29.40 Ry     beta= 0.05
     Davidson diagonalization with overlap
     ethr =  1.00E-02,  avg # of iterations = 15.8

     negative rho (up, down):  6.074E-03 0.000E+00
 
     Adding external electric field

     Computed dipole along edir(3) : 
        Dipole               -4.4630 Ry au,        -11.3439 Debye
        Dipole field         -0.0084 Ry au, 
 
        Potential amp.        0.7807 Ry
        Total length         46.3494 bohr
 

     total cpu time spent up to now is      175.6 secs

     total energy              =   -2923.29029032 Ry
     estimated scf accuracy    <      25.30969204 Ry

     iteration #  6     ecut=    29.40 Ry     beta= 0.05
     Davidson diagonalization with overlap
     ethr =  6.47E-03,  avg # of iterations =  1.4

     negative rho (up, down):  6.447E-03 0.000E+00
 
     Adding external electric field

     Computed dipole along edir(3) : 
        Dipole               -2.6829 Ry au,         -6.8193 Debye
        Dipole field         -0.0051 Ry au, 
 
        Potential amp.        0.4693 Ry
        Total length         46.3494 bohr
 

     total cpu time spent up to now is      179.1 secs

     total energy              =   -2920.71828533 Ry
     estimated scf accuracy    <      21.47013736 Ry

     iteration #  7     ecut=    29.40 Ry     beta= 0.05
     Davidson diagonalization with overlap
     ethr =  5.49E-03,  avg # of iterations =  2.3

     negative rho (up, down):  7.085E-03 0.000E+00
 
     Adding external electric field

     Computed dipole along edir(3) : 
        Dipole               -1.2120 Ry au,         -3.0805 Debye
        Dipole field         -0.0023 Ry au, 
 
        Potential amp.        0.2120 Ry
        Total length         46.3494 bohr
 

     total cpu time spent up to now is      183.9 secs

     total energy              =   -2920.66810169 Ry
     estimated scf accuracy    <       8.60619249 Ry

     iteration #  8     ecut=    29.40 Ry     beta= 0.05
     Davidson diagonalization with overlap
     c_bands:  4 eigenvalues not converged
     ethr =  2.20E-03,  avg # of iterations = 17.7

     negative rho (up, down):  7.042E-03 0.000E+00
 
     Adding external electric field

     Computed dipole along edir(3) : 
        Dipole               -1.2228 Ry au,         -3.1079 Debye
        Dipole field         -0.0023 Ry au, 
 
        Potential amp.        0.2139 Ry
        Total length         46.3494 bohr
 

     total cpu time spent up to now is      222.7 secs

     total energy              =   -2923.81751449 Ry
     estimated scf accuracy    <     432.28177018 Ry

     iteration #  9     ecut=    29.40 Ry     beta= 0.05
     Davidson diagonalization with overlap
     ethr =  2.20E-03,  avg # of iterations =  2.1

     negative rho (up, down):  6.073E-03 0.000E+00
 
     Adding external electric field

     Computed dipole along edir(3) : 
        Dipole               -2.6311 Ry au,         -6.6877 Debye
        Dipole field         -0.0050 Ry au, 
 
        Potential amp.        0.4603 Ry
        Total length         46.3494 bohr
 

     total cpu time spent up to now is      232.1 secs

     total energy              =   -2916.41535433 Ry
     estimated scf accuracy    <     428.10773396 Ry

     iteration # 10     ecut=    29.40 Ry     beta= 0.05
     Davidson diagonalization with overlap
     c_bands:  1 eigenvalues not converged
     ethr =  2.20E-03,  avg # of iterations = 12.7

     negative rho (up, down):  5.610E-03 0.000E+00
 
     Adding external electric field

     Computed dipole along edir(3) : 
        Dipole               -2.4758 Ry au,         -6.2928 Debye
        Dipole field         -0.0047 Ry au, 
 
        Potential amp.        0.4331 Ry
        Total length         46.3494 bohr
 

     total cpu time spent up to now is      244.9 secs

     total energy              =   -2920.59336342 Ry
     estimated scf accuracy    <       7.47872394 Ry

     iteration # 11     ecut=    29.40 Ry     beta= 0.05
     Davidson diagonalization with overlap
     ethr =  1.91E-03,  avg # of iterations =  5.2

     negative rho (up, down):  5.806E-03 0.000E+00
 
     Adding external electric field

     Computed dipole along edir(3) : 
        Dipole               -1.7749 Ry au,         -4.5112 Debye
        Dipole field         -0.0033 Ry au, 
 
        Potential amp.        0.3105 Ry
        Total length         46.3494 bohr
 

     total cpu time spent up to now is      250.9 secs

     total energy              =   -2920.98578514 Ry
     estimated scf accuracy    <       8.14253174 Ry

     iteration # 12     ecut=    29.40 Ry     beta= 0.05
     Davidson diagonalization with overlap
     c_bands:  1 eigenvalues not converged
     c_bands:  3 eigenvalues not converged
     c_bands:  3 eigenvalues not converged
     ethr =  1.91E-03,  avg # of iterations = 11.9

     negative rho (up, down):  5.915E-03 0.000E+00
 
     Adding external electric field

     Computed dipole along edir(3) : 
        Dipole               -1.7363 Ry au,         -4.4132 Debye
        Dipole field         -0.0033 Ry au, 
 
        Potential amp.        0.3037 Ry
        Total length         46.3494 bohr
 

     total cpu time spent up to now is      270.8 secs

     total energy              =   -2921.00678341 Ry
     estimated scf accuracy    <       7.43559059 Ry

     iteration # 13     ecut=    29.40 Ry     beta= 0.05
     Davidson diagonalization with overlap
     ethr =  1.90E-03,  avg # of iterations =  1.8

     negative rho (up, down):  5.949E-03 0.000E+00
 
     Adding external electric field

     Computed dipole along edir(3) : 
        Dipole               -2.7556 Ry au,         -7.0040 Debye
        Dipole field         -0.0052 Ry au, 
 
        Potential amp.        0.4821 Ry
        Total length         46.3494 bohr
 

     total cpu time spent up to now is      280.4 secs

     total energy              =   -2920.59471696 Ry
     estimated scf accuracy    <       5.62846943 Ry

     iteration # 14     ecut=    29.40 Ry     beta= 0.05
     Davidson diagonalization with overlap
     ethr =  1.44E-03,  avg # of iterations =  2.9

     negative rho (up, down):  6.899E-03 0.000E+00
 
     Adding external electric field

     Computed dipole along edir(3) : 
        Dipole               -2.8637 Ry au,         -7.2787 Debye
        Dipole field         -0.0054 Ry au, 
 
        Potential amp.        0.5010 Ry
        Total length         46.3494 bohr
 

     total cpu time spent up to now is      286.6 secs

     total energy              =   -2920.29372342 Ry
     estimated scf accuracy    <       9.31661420 Ry

     iteration # 15     ecut=    29.40 Ry     beta= 0.05
     Davidson diagonalization with overlap
     c_bands:  1 eigenvalues not converged
     c_bands:  5 eigenvalues not converged
     c_bands:  1 eigenvalues not converged
     c_bands:  1 eigenvalues not converged
     ethr =  1.44E-03,  avg # of iterations = 16.3

     negative rho (up, down):  6.973E-03 0.000E+00
 
     Adding external electric field

     Computed dipole along edir(3) : 
        Dipole               -2.0185 Ry au,         -5.1305 Debye
        Dipole field         -0.0038 Ry au, 
 
        Potential amp.        0.3531 Ry
        Total length         46.3494 bohr
 

     total cpu time spent up to now is      297.5 secs

     total energy              =   -2920.26856037 Ry
     estimated scf accuracy    <      64.15344844 Ry

     iteration # 16     ecut=    29.40 Ry     beta= 0.05
     Davidson diagonalization with overlap
     ethr =  1.44E-03,  avg # of iterations =  1.7

     negative rho (up, down):  6.654E-03 0.000E+00
 
     Adding external electric field

     Computed dipole along edir(3) : 
        Dipole               -1.4070 Ry au,         -3.5762 Debye
        Dipole field         -0.0027 Ry au, 
 
        Potential amp.        0.2461 Ry
        Total length         46.3494 bohr
 

     total cpu time spent up to now is      304.5 secs

     total energy              =   -2920.22400710 Ry
     estimated scf accuracy    <      10.59542767 Ry

     iteration # 17     ecut=    29.40 Ry     beta= 0.05
     Davidson diagonalization with overlap
     ethr =  1.44E-03,  avg # of iterations =  2.4

     negative rho (up, down):  6.469E-03 0.000E+00
 
     Adding external electric field

     Computed dipole along edir(3) : 
        Dipole               -0.9703 Ry au,         -2.4663 Debye
        Dipole field         -0.0018 Ry au, 
 
        Potential amp.        0.1697 Ry
        Total length         46.3494 bohr
 

     total cpu time spent up to now is      319.8 secs

     total energy              =   -2920.30040287 Ry
     estimated scf accuracy    <       5.98506144 Ry

     iteration # 18     ecut=    29.40 Ry     beta= 0.05
     Davidson diagonalization with overlap
     ethr =  1.44E-03,  avg # of iterations =  2.4

     negative rho (up, down):  6.506E-03 0.000E+00
 
     Adding external electric field

     Computed dipole along edir(3) : 
        Dipole               -0.5590 Ry au,         -1.4207 Debye
        Dipole field         -0.0011 Ry au, 
 
        Potential amp.        0.0978 Ry
        Total length         46.3494 bohr
 

     total cpu time spent up to now is      336.5 secs

     total energy              =   -2920.38567536 Ry
     estimated scf accuracy    <       5.37957371 Ry

     iteration # 19     ecut=    29.40 Ry     beta= 0.05
     Davidson diagonalization with overlap
     ethr =  1.38E-03,  avg # of iterations =  2.5

     negative rho (up, down):  6.734E-03 0.000E+00
 
     Adding external electric field

     Computed dipole along edir(3) : 
        Dipole               -0.2368 Ry au,         -0.6019 Debye
        Dipole field         -0.0004 Ry au, 
 
        Potential amp.        0.0414 Ry
        Total length         46.3494 bohr
 

     total cpu time spent up to now is      356.3 secs

     total energy              =   -2920.28727071 Ry
     estimated scf accuracy    <       5.30308506 Ry

     iteration # 20     ecut=    29.40 Ry     beta= 0.05
     Davidson diagonalization with overlap
     c_bands:  4 eigenvalues not converged
     c_bands:  3 eigenvalues not converged
     ethr =  1.36E-03,  avg # of iterations =  8.4

     negative rho (up, down):  6.826E-03 0.000E+00
 
     Adding external electric field

     Computed dipole along edir(3) : 
        Dipole               -0.8158 Ry au,         -2.0735 Debye
        Dipole field         -0.0015 Ry au, 
 
        Potential amp.        0.1427 Ry
        Total length         46.3494 bohr
 

     total cpu time spent up to now is      373.3 secs

     total energy              =   -2920.31906018 Ry
     estimated scf accuracy    <       2.08419839 Ry

     iteration # 21     ecut=    29.40 Ry     beta= 0.05
     Davidson diagonalization with overlap
     ethr =  5.33E-04,  avg # of iterations =  5.9

     negative rho (up, down):  7.014E-03 0.000E+00
 
     Adding external electric field

     Computed dipole along edir(3) : 
        Dipole               -1.0367 Ry au,         -2.6351 Debye
        Dipole field         -0.0020 Ry au, 
 
        Potential amp.        0.1814 Ry
        Total length         46.3494 bohr
 

     total cpu time spent up to now is      389.1 secs

     total energy              =   -2920.42503723 Ry
     estimated scf accuracy    <       4.58763797 Ry

     iteration # 22     ecut=    29.40 Ry     beta= 0.05
     Davidson diagonalization with overlap
     c_bands:  1 eigenvalues not converged
     c_bands:  1 eigenvalues not converged
     ethr =  5.33E-04,  avg # of iterations = 12.9

     negative rho (up, down):  7.075E-03 0.000E+00
 
     Adding external electric field

     Computed dipole along edir(3) : 
        Dipole               -0.3901 Ry au,         -0.9915 Debye
        Dipole field         -0.0007 Ry au, 
 
        Potential amp.        0.0682 Ry
        Total length         46.3494 bohr
 

     total cpu time spent up to now is      396.3 secs

     total energy              =   -2920.39687030 Ry
     estimated scf accuracy    <       3.69352719 Ry

     iteration # 23     ecut=    29.40 Ry     beta= 0.05
     Davidson diagonalization with overlap
     ethr =  5.33E-04,  avg # of iterations =  2.0

     negative rho (up, down):  7.095E-03 0.000E+00
 
     Adding external electric field

     Computed dipole along edir(3) : 
        Dipole                0.2664 Ry au,          0.6771 Debye
        Dipole field          0.0005 Ry au, 
 
        Potential amp.       -0.0466 Ry
        Total length         46.3494 bohr
 

     total cpu time spent up to now is      400.2 secs

     total energy              =   -2920.24476381 Ry
     estimated scf accuracy    <       3.09133871 Ry

     iteration # 24     ecut=    29.40 Ry     beta= 0.05
     Davidson diagonalization with overlap
     ethr =  5.33E-04,  avg # of iterations =  6.4

     negative rho (up, down):  6.726E-03 0.000E+00
 
     Adding external electric field

     Computed dipole along edir(3) : 
        Dipole               -0.9132 Ry au,         -2.3211 Debye
        Dipole field         -0.0017 Ry au, 
 
        Potential amp.        0.1598 Ry
        Total length         46.3494 bohr
 

     total cpu time spent up to now is      405.2 secs

     total energy              =   -2920.20664904 Ry
     estimated scf accuracy    <       1.40011392 Ry

     iteration # 25     ecut=    29.40 Ry     beta= 0.05
     Davidson diagonalization with overlap
     ethr =  3.58E-04,  avg # of iterations =  5.7

     negative rho (up, down):  6.784E-03 0.000E+00
 
     Adding external electric field

     Computed dipole along edir(3) : 
        Dipole               -0.7702 Ry au,         -1.9576 Debye
        Dipole field         -0.0015 Ry au, 
 
        Potential amp.        0.1347 Ry
        Total length         46.3494 bohr
 

     total cpu time spent up to now is      409.9 secs

     total energy              =   -2920.33641002 Ry
     estimated scf accuracy    <       2.23314237 Ry

     iteration # 26     ecut=    29.40 Ry     beta= 0.05
     Davidson diagonalization with overlap
     ethr =  3.58E-04,  avg # of iterations =  1.1

     negative rho (up, down):  6.645E-03 0.000E+00
 
     Adding external electric field

     Computed dipole along edir(3) : 
        Dipole               -1.2122 Ry au,         -3.0812 Debye
        Dipole field         -0.0023 Ry au, 
 
        Potential amp.        0.2121 Ry
        Total length         46.3494 bohr
 

     total cpu time spent up to now is      413.3 secs

     total energy              =   -2920.38399233 Ry
     estimated scf accuracy    <       2.03827175 Ry

     iteration # 27     ecut=    29.40 Ry     beta= 0.05
     Davidson diagonalization with overlap
     ethr =  3.58E-04,  avg # of iterations =  2.8

     negative rho (up, down):  6.392E-03 0.000E+00
 
     Adding external electric field

     Computed dipole along edir(3) : 
        Dipole               -1.0018 Ry au,         -2.5464 Debye
        Dipole field         -0.0019 Ry au, 
 
        Potential amp.        0.1753 Ry
        Total length         46.3494 bohr
 

     total cpu time spent up to now is      417.2 secs

     total energy              =   -2920.23298198 Ry
     estimated scf accuracy    <       3.18537801 Ry

     iteration # 28     ecut=    29.40 Ry     beta= 0.05
     Davidson diagonalization with overlap
     c_bands:  1 eigenvalues not converged
     c_bands:  1 eigenvalues not converged
     c_bands:  1 eigenvalues not converged
     c_bands:  1 eigenvalues not converged
     ethr =  3.58E-04,  avg # of iterations = 16.9

     negative rho (up, down):  6.647E-03 0.000E+00
 
     Adding external electric field

     Computed dipole along edir(3) : 
        Dipole               -0.6883 Ry au,         -1.7495 Debye
        Dipole field         -0.0013 Ry au, 
 
        Potential amp.        0.1204 Ry
        Total length         46.3494 bohr
 

     total cpu time spent up to now is      429.8 secs

     total energy              =   -2920.33519774 Ry
     estimated scf accuracy    <       2.65350831 Ry

     iteration # 29     ecut=    29.40 Ry     beta= 0.05
     Davidson diagonalization with overlap
     ethr =  3.58E-04,  avg # of iterations =  2.4

     negative rho (up, down):  7.069E-03 0.000E+00
 
     Adding external electric field

     Computed dipole along edir(3) : 
        Dipole                0.3705 Ry au,          0.9416 Debye
        Dipole field          0.0007 Ry au, 
 
        Potential amp.       -0.0648 Ry
        Total length         46.3494 bohr
 

     total cpu time spent up to now is      439.1 secs

     total energy              =   -2920.25897331 Ry
     estimated scf accuracy    <       2.45258274 Ry

     iteration # 30     ecut=    29.40 Ry     beta= 0.05
     Davidson diagonalization with overlap
     c_bands:  2 eigenvalues not converged
     c_bands:  1 eigenvalues not converged
     c_bands:  1 eigenvalues not converged
     ethr =  3.58E-04,  avg # of iterations = 14.0

     negative rho (up, down):  6.942E-03 0.000E+00
 
     Adding external electric field

     Computed dipole along edir(3) : 
        Dipole               -0.1163 Ry au,         -0.2956 Debye
        Dipole field         -0.0002 Ry au, 
 
        Potential amp.        0.0203 Ry
        Total length         46.3494 bohr
 

     total cpu time spent up to now is      448.4 secs

     total energy              =   -2920.23525548 Ry
     estimated scf accuracy    <       3.41490232 Ry

     iteration # 31     ecut=    29.40 Ry     beta= 0.05
     Davidson diagonalization with overlap
     ethr =  3.58E-04,  avg # of iterations =  2.8

     negative rho (up, down):  6.869E-03 0.000E+00
 
     Adding external electric field

     Computed dipole along edir(3) : 
        Dipole               -0.5792 Ry au,         -1.4722 Debye
        Dipole field         -0.0011 Ry au, 
 
        Potential amp.        0.1013 Ry
        Total length         46.3494 bohr
 

     total cpu time spent up to now is      456.8 secs

     total energy              =   -2920.23788241 Ry
     estimated scf accuracy    <       0.51690625 Ry

     iteration # 32     ecut=    29.40 Ry     beta= 0.05
     Davidson diagonalization with overlap
     c_bands:  2 eigenvalues not converged
     c_bands:  1 eigenvalues not converged
     c_bands:  2 eigenvalues not converged
     c_bands:  1 eigenvalues not converged
     c_bands:  2 eigenvalues not converged
     c_bands:  1 eigenvalues not converged
     c_bands:  2 eigenvalues not converged
     ethr =  1.32E-04,  avg # of iterations = 18.8

     negative rho (up, down):  6.935E-03 0.000E+00
 
     Adding external electric field

     Computed dipole along edir(3) : 
        Dipole               -0.4581 Ry au,         -1.1644 Debye
        Dipole field         -0.0009 Ry au, 
 
        Potential amp.        0.0801 Ry
        Total length         46.3494 bohr
 

     total cpu time spent up to now is      501.9 secs

     total energy              =   -2920.34597411 Ry
     estimated scf accuracy    <       4.09319781 Ry

     iteration # 33     ecut=    29.40 Ry     beta= 0.05
     Davidson diagonalization with overlap
     ethr =  1.32E-04,  avg # of iterations =  2.7

     negative rho (up, down):  7.251E-03 0.000E+00
 
     Adding external electric field

     Computed dipole along edir(3) : 
        Dipole                0.2511 Ry au,          0.6383 Debye
        Dipole field          0.0005 Ry au, 
 
        Potential amp.       -0.0439 Ry
        Total length         46.3494 bohr
 

     total cpu time spent up to now is      521.6 secs

     total energy              =   -2920.27750792 Ry
     estimated scf accuracy    <       3.90236135 Ry

     iteration # 34     ecut=    29.40 Ry     beta= 0.05
     Davidson diagonalization with overlap
     c_bands:  4 eigenvalues not converged
     c_bands:  2 eigenvalues not converged
     ethr =  1.32E-04,  avg # of iterations = 15.0

     negative rho (up, down):  7.463E-03 0.000E+00
 
     Adding external electric field

     Computed dipole along edir(3) : 
        Dipole                0.4691 Ry au,          1.1924 Debye
        Dipole field          0.0009 Ry au, 
 
        Potential amp.       -0.0821 Ry
        Total length         46.3494 bohr
 

     total cpu time spent up to now is      535.2 secs

     total energy              =   -2920.32076582 Ry
     estimated scf accuracy    <       5.50271065 Ry

     iteration # 35     ecut=    29.40 Ry     beta= 0.05
     Davidson diagonalization with overlap
     ethr =  1.32E-04,  avg # of iterations =  4.7

     negative rho (up, down):  7.460E-03 0.000E+00
 
     Adding external electric field

     Computed dipole along edir(3) : 
        Dipole                0.6756 Ry au,          1.7171 Debye
        Dipole field          0.0013 Ry au, 
 
        Potential amp.       -0.1182 Ry
        Total length         46.3494 bohr
 

     total cpu time spent up to now is      541.1 secs

     total energy              =   -2920.24662986 Ry
     estimated scf accuracy    <       4.31167457 Ry

     iteration # 36     ecut=    29.40 Ry     beta= 0.05
     Davidson diagonalization with overlap
     c_bands:  2 eigenvalues not converged
     c_bands:  2 eigenvalues not converged
     c_bands:  1 eigenvalues not converged
     ethr =  1.32E-04,  avg # of iterations = 18.7

     negative rho (up, down):  7.222E-03 0.000E+00
 
     Adding external electric field

     Computed dipole along edir(3) : 
        Dipole                0.1416 Ry au,          0.3599 Debye
        Dipole field          0.0003 Ry au, 
 
        Potential amp.       -0.0248 Ry
        Total length         46.3494 bohr
 

     total cpu time spent up to now is      552.7 secs

     total energy              =   -2920.16318381 Ry
     estimated scf accuracy    <       1.49920809 Ry

     iteration # 37     ecut=    29.40 Ry     beta= 0.05
     Davidson diagonalization with overlap
     c_bands:  2 eigenvalues not converged
     c_bands:  1 eigenvalues not converged
     c_bands:  1 eigenvalues not converged
     c_bands:  1 eigenvalues not converged
     c_bands:  2 eigenvalues not converged
     ethr =  1.32E-04,  avg # of iterations = 13.9

     negative rho (up, down):  7.302E-03 0.000E+00
 
     Adding external electric field

     Computed dipole along edir(3) : 
        Dipole                0.5240 Ry au,          1.3320 Debye
        Dipole field          0.0010 Ry au, 
 
        Potential amp.       -0.0917 Ry
        Total length         46.3494 bohr
 

     total cpu time spent up to now is      560.4 secs

     total energy              =   -2920.23709098 Ry
     estimated scf accuracy    <       5.19141430 Ry

     iteration # 38     ecut=    29.40 Ry     beta= 0.05
     Davidson diagonalization with overlap
     ethr =  1.32E-04,  avg # of iterations =  4.3

     negative rho (up, down):  7.245E-03 0.000E+00
 
     Adding external electric field

     Computed dipole along edir(3) : 
        Dipole                0.3734 Ry au,          0.9491 Debye
        Dipole field          0.0007 Ry au, 
 
        Potential amp.       -0.0653 Ry
        Total length         46.3494 bohr
 

     total cpu time spent up to now is      566.7 secs

     total energy              =   -2920.25499459 Ry
     estimated scf accuracy    <       0.40316646 Ry

     iteration # 39     ecut=    29.40 Ry     beta= 0.05
     Davidson diagonalization with overlap
     ethr =  1.03E-04,  avg # of iterations =  2.1

     negative rho (up, down):  7.313E-03 0.000E+00
 
     Adding external electric field

     Computed dipole along edir(3) : 
        Dipole                0.6681 Ry au,          1.6981 Debye
        Dipole field          0.0013 Ry au, 
 
        Potential amp.       -0.1169 Ry
        Total length         46.3494 bohr
 

     total cpu time spent up to now is      581.7 secs

     total energy              =   -2920.22925739 Ry
     estimated scf accuracy    <       2.60223126 Ry

     iteration # 40     ecut=    29.40 Ry     beta= 0.05
     Davidson diagonalization with overlap
     c_bands:  1 eigenvalues not converged
     ethr =  1.03E-04,  avg # of iterations = 11.6

     negative rho (up, down):  7.156E-03 0.000E+00
 
     Adding external electric field

     Computed dipole along edir(3) : 
        Dipole                0.2690 Ry au,          0.6838 Debye
        Dipole field          0.0005 Ry au, 
 
        Potential amp.       -0.0471 Ry
        Total length         46.3494 bohr
 

     total cpu time spent up to now is      587.8 secs

     total energy              =   -2920.21918307 Ry
     estimated scf accuracy    <       0.81287800 Ry

     iteration # 41     ecut=    29.40 Ry     beta= 0.05
     Davidson diagonalization with overlap
     ethr =  1.03E-04,  avg # of iterations =  8.3

     negative rho (up, down):  7.255E-03 0.000E+00
 
     Adding external electric field

     Computed dipole along edir(3) : 
        Dipole                0.2985 Ry au,          0.7587 Debye
        Dipole field          0.0006 Ry au, 
 
        Potential amp.       -0.0522 Ry
        Total length         46.3494 bohr
 

     total cpu time spent up to now is      599.4 secs

     total energy              =   -2920.27390847 Ry
     estimated scf accuracy    <       1.78791006 Ry

     iteration # 42     ecut=    29.40 Ry     beta= 0.05
     Davidson diagonalization with overlap
     ethr =  1.03E-04,  avg # of iterations =  1.3

     negative rho (up, down):  7.757E-03 0.000E+00
 
     Adding external electric field

     Computed dipole along edir(3) : 
        Dipole                0.4397 Ry au,          1.1176 Debye
        Dipole field          0.0008 Ry au, 
 
        Potential amp.       -0.0769 Ry
        Total length         46.3494 bohr
 

     total cpu time spent up to now is      607.5 secs

     total energy              =   -2920.28553419 Ry
     estimated scf accuracy    <       3.46166520 Ry

     iteration # 43     ecut=    29.40 Ry     beta= 0.05
     Davidson diagonalization with overlap
     c_bands:  3 eigenvalues not converged
     ethr =  1.03E-04,  avg # of iterations =  9.5

     negative rho (up, down):  7.315E-03 0.000E+00
 
     Adding external electric field

     Computed dipole along edir(3) : 
        Dipole                0.3649 Ry au,          0.9275 Debye
        Dipole field          0.0007 Ry au, 
 
        Potential amp.       -0.0638 Ry
        Total length         46.3494 bohr
 

     total cpu time spent up to now is      613.2 secs

     total energy              =   -2920.27296806 Ry
     estimated scf accuracy    <       4.11432462 Ry

     iteration # 44     ecut=    29.40 Ry     beta= 0.05
     Davidson diagonalization with overlap
     ethr =  1.03E-04,  avg # of iterations =  2.1

     negative rho (up, down):  7.845E-03 0.000E+00
 
     Adding external electric field

     Computed dipole along edir(3) : 
        Dipole                0.5921 Ry au,          1.5051 Debye
        Dipole field          0.0011 Ry au, 
 
        Potential amp.       -0.1036 Ry
        Total length         46.3494 bohr
 

     total cpu time spent up to now is      616.8 secs

     total energy              =   -2920.29297708 Ry
     estimated scf accuracy    <       1.90269572 Ry

     iteration # 45     ecut=    29.40 Ry     beta= 0.05
     Davidson diagonalization with overlap
     ethr =  1.03E-04,  avg # of iterations =  1.5

     negative rho (up, down):  8.733E-03 0.000E+00
 
     Adding external electric field

     Computed dipole along edir(3) : 
        Dipole                0.6539 Ry au,          1.6621 Debye
        Dipole field          0.0012 Ry au, 
 
        Potential amp.       -0.1144 Ry
        Total length         46.3494 bohr
 

     total cpu time spent up to now is      621.6 secs

     total energy              =   -2920.27628429 Ry
     estimated scf accuracy    <       2.49468516 Ry

     iteration # 46     ecut=    29.40 Ry     beta= 0.05
     Davidson diagonalization with overlap
     ethr =  1.03E-04,  avg # of iterations =  6.3

     negative rho (up, down):  9.253E-03 0.000E+00
 
     Adding external electric field

     Computed dipole along edir(3) : 
        Dipole                0.4844 Ry au,          1.2312 Debye
        Dipole field          0.0009 Ry au, 
 
        Potential amp.       -0.0847 Ry
        Total length         46.3494 bohr
 

     total cpu time spent up to now is      626.4 secs

     total energy              =   -2920.22316491 Ry
     estimated scf accuracy    <       0.87907237 Ry

     iteration # 47     ecut=    29.40 Ry     beta= 0.05
     Davidson diagonalization with overlap
     ethr =  1.03E-04,  avg # of iterations =  4.9

     negative rho (up, down):  8.883E-03 0.000E+00
 
     Adding external electric field

     Computed dipole along edir(3) : 
        Dipole                0.6859 Ry au,          1.7435 Debye
        Dipole field          0.0013 Ry au, 
 
        Potential amp.       -0.1200 Ry
        Total length         46.3494 bohr
 

     total cpu time spent up to now is      650.8 secs

     total energy              =   -2920.21628432 Ry
     estimated scf accuracy    <       5.30703652 Ry

     iteration # 48     ecut=    29.40 Ry     beta= 0.05
     Davidson diagonalization with overlap
     ethr =  1.03E-04,  avg # of iterations =  5.9

     negative rho (up, down):  8.647E-03 0.000E+00
 
     Adding external electric field

     Computed dipole along edir(3) : 
        Dipole                0.7240 Ry au,          1.8402 Debye
        Dipole field          0.0014 Ry au, 
 
        Potential amp.       -0.1267 Ry
        Total length         46.3494 bohr
 

     total cpu time spent up to now is      670.0 secs

     total energy              =   -2920.24215920 Ry
     estimated scf accuracy    <       0.67940638 Ry

     iteration # 49     ecut=    29.40 Ry     beta= 0.05
     Davidson diagonalization with overlap
     ethr =  1.03E-04,  avg # of iterations =  2.0

     negative rho (up, down):  8.798E-03 0.000E+00
 
     Adding external electric field

     Computed dipole along edir(3) : 
        Dipole                0.6615 Ry au,          1.6814 Debye
        Dipole field          0.0012 Ry au, 
 
        Potential amp.       -0.1157 Ry
        Total length         46.3494 bohr
 

     total cpu time spent up to now is      676.6 secs

     total energy              =   -2920.25306155 Ry
     estimated scf accuracy    <       0.18963197 Ry

     iteration # 50     ecut=    29.40 Ry     beta= 0.05
     Davidson diagonalization with overlap
     ethr =  4.85E-05,  avg # of iterations =  4.6

     negative rho (up, down):  8.945E-03 0.000E+00
 
     Adding external electric field

     Computed dipole along edir(3) : 
        Dipole                0.7634 Ry au,          1.9402 Debye
        Dipole field          0.0014 Ry au, 
 
        Potential amp.       -0.1335 Ry
        Total length         46.3494 bohr
 

     total cpu time spent up to now is      698.2 secs

     total energy              =   -2920.25175802 Ry
     estimated scf accuracy    <       0.06023768 Ry

     iteration # 51     ecut=    29.40 Ry     beta= 0.05
     Davidson diagonalization with overlap
     c_bands:  3 eigenvalues not converged
     c_bands:  5 eigenvalues not converged
     ethr =  1.54E-05,  avg # of iterations = 16.3

     negative rho (up, down):  9.425E-03 0.000E+00
 
     Adding external electric field

     Computed dipole along edir(3) : 
        Dipole                0.7999 Ry au,          2.0332 Debye
        Dipole field          0.0015 Ry au, 
 
        Potential amp.       -0.1399 Ry
        Total length         46.3494 bohr
 

     total cpu time spent up to now is      721.4 secs

     total energy              =   -2920.25370453 Ry
     estimated scf accuracy    <       0.69303325 Ry

     iteration # 52     ecut=    29.40 Ry     beta= 0.05
     Davidson diagonalization with overlap
     ethr =  1.54E-05,  avg # of iterations =  7.5

     negative rho (up, down):  9.835E-03 0.000E+00
 
     Adding external electric field

     Computed dipole along edir(3) : 
        Dipole                0.8395 Ry au,          2.1339 Debye
        Dipole field          0.0016 Ry au, 
 
        Potential amp.       -0.1469 Ry
        Total length         46.3494 bohr
 

     total cpu time spent up to now is      738.7 secs

     total energy              =   -2920.24478608 Ry
     estimated scf accuracy    <       0.23156661 Ry

     iteration # 53     ecut=    29.40 Ry     beta= 0.05
     Davidson diagonalization with overlap
     c_bands:  1 eigenvalues not converged
     c_bands:  1 eigenvalues not converged
     c_bands:  1 eigenvalues not converged
     c_bands:  1 eigenvalues not converged
     ethr =  1.54E-05,  avg # of iterations = 15.7

     negative rho (up, down):  1.178E-02 0.000E+00
 
     Adding external electric field

     Computed dipole along edir(3) : 
        Dipole                0.8357 Ry au,          2.1242 Debye
        Dipole field          0.0016 Ry au, 
 
        Potential amp.       -0.1462 Ry
        Total length         46.3494 bohr
 

     total cpu time spent up to now is      837.7 secs

     total energy              =   -2920.25622006 Ry
     estimated scf accuracy    <       0.05215512 Ry

     iteration # 54     ecut=    29.40 Ry     beta= 0.05
     Davidson diagonalization with overlap
     c_bands:  1 eigenvalues not converged
     ethr =  1.33E-05,  avg # of iterations = 11.7

     negative rho (up, down):  1.267E-02 0.000E+00
 
     Adding external electric field

     Computed dipole along edir(3) : 
        Dipole                0.8390 Ry au,          2.1326 Debye
        Dipole field          0.0016 Ry au, 
 
        Potential amp.       -0.1468 Ry
        Total length         46.3494 bohr
 

     total cpu time spent up to now is      845.0 secs

     total energy              =   -2920.24951860 Ry
     estimated scf accuracy    <       0.14637810 Ry

     iteration # 55     ecut=    29.40 Ry     beta= 0.05
     Davidson diagonalization with overlap
     ethr =  1.33E-05,  avg # of iterations = 10.1

     negative rho (up, down):  1.257E-02 0.000E+00
 
     Adding external electric field

     Computed dipole along edir(3) : 
        Dipole                0.8214 Ry au,          2.0877 Debye
        Dipole field          0.0016 Ry au, 
 
        Potential amp.       -0.1437 Ry
        Total length         46.3494 bohr
 

     total cpu time spent up to now is      853.4 secs

     total energy              =   -2920.25678034 Ry
     estimated scf accuracy    <       0.01137113 Ry

     iteration # 56     ecut=    29.40 Ry     beta= 0.05
     Davidson diagonalization with overlap
     c_bands:  1 eigenvalues not converged
     c_bands:  1 eigenvalues not converged
     c_bands:  1 eigenvalues not converged
     c_bands:  1 eigenvalues not converged
     ethr =  2.91E-06,  avg # of iterations = 17.5

     negative rho (up, down):  1.220E-02 0.000E+00
 
     Adding external electric field

     Computed dipole along edir(3) : 
        Dipole                0.8030 Ry au,          2.0411 Debye
        Dipole field          0.0015 Ry au, 
 
        Potential amp.       -0.1405 Ry
        Total length         46.3494 bohr
 

     total cpu time spent up to now is      865.2 secs

     total energy              =   -2920.25747783 Ry
     estimated scf accuracy    <       0.02751057 Ry

     iteration # 57     ecut=    29.40 Ry     beta= 0.05
     Davidson diagonalization with overlap
     c_bands:  1 eigenvalues not converged
     c_bands:  1 eigenvalues not converged
     ethr =  2.91E-06,  avg # of iterations =  6.8

     negative rho (up, down):  1.257E-02 0.000E+00
 
     Adding external electric field

     Computed dipole along edir(3) : 
        Dipole                0.8381 Ry au,          2.1303 Debye
        Dipole field          0.0016 Ry au, 
 
        Potential amp.       -0.1466 Ry
        Total length         46.3494 bohr
 

     total cpu time spent up to now is      870.2 secs

     total energy              =   -2920.25445256 Ry
     estimated scf accuracy    <       0.02063661 Ry

     iteration # 58     ecut=    29.40 Ry     beta= 0.05
     Davidson diagonalization with overlap
     ethr =  2.91E-06,  avg # of iterations = 13.1

     negative rho (up, down):  1.299E-02 0.000E+00
 
     Adding external electric field

     Computed dipole along edir(3) : 
        Dipole                0.8489 Ry au,          2.1578 Debye
        Dipole field          0.0016 Ry au, 
 
        Potential amp.       -0.1485 Ry
        Total length         46.3494 bohr
 

     total cpu time spent up to now is      880.8 secs

     total energy              =   -2920.25607982 Ry
     estimated scf accuracy    <       0.00452072 Ry

     iteration # 59     ecut=    29.40 Ry     beta= 0.05
     Davidson diagonalization with overlap
     ethr =  1.16E-06,  avg # of iterations =  6.4

     negative rho (up, down):  1.358E-02 0.000E+00
 
     Adding external electric field

     Computed dipole along edir(3) : 
        Dipole                0.8685 Ry au,          2.2074 Debye
        Dipole field          0.0016 Ry au, 
 
        Potential amp.       -0.1519 Ry
        Total length         46.3494 bohr
 

     total cpu time spent up to now is      886.2 secs

     total energy              =   -2920.25618366 Ry
     estimated scf accuracy    <       0.00282559 Ry

     iteration # 60     ecut=    29.40 Ry     beta= 0.05
     Davidson diagonalization with overlap
     c_bands:  1 eigenvalues not converged
     c_bands:  1 eigenvalues not converged
     ethr =  7.23E-07,  avg # of iterations = 13.0

     negative rho (up, down):  1.438E-02 0.000E+00
 
     Adding external electric field

     Computed dipole along edir(3) : 
        Dipole                0.8901 Ry au,          2.2625 Debye
        Dipole field          0.0017 Ry au, 
 
        Potential amp.       -0.1557 Ry
        Total length         46.3494 bohr
 

     total cpu time spent up to now is      905.7 secs

     total energy              =   -2920.25661528 Ry
     estimated scf accuracy    <       0.00105389 Ry

     iteration # 61     ecut=    29.40 Ry     beta= 0.05
     Davidson diagonalization with overlap
     c_bands:  1 eigenvalues not converged
     c_bands:  1 eigenvalues not converged
     ethr =  2.70E-07,  avg # of iterations = 17.1

     negative rho (up, down):  1.487E-02 0.000E+00
 
     Adding external electric field

     Computed dipole along edir(3) : 
        Dipole                0.8907 Ry au,          2.2640 Debye
        Dipole field          0.0017 Ry au, 
 
        Potential amp.       -0.1558 Ry
        Total length         46.3494 bohr
 

     total cpu time spent up to now is      923.7 secs

     total energy              =   -2920.25647404 Ry
     estimated scf accuracy    <       0.00414621 Ry

     iteration # 62     ecut=    29.40 Ry     beta= 0.05
     Davidson diagonalization with overlap
     ethr =  2.70E-07,  avg # of iterations = 12.7

     negative rho (up, down):  1.583E-02 0.000E+00
 
     Adding external electric field

     Computed dipole along edir(3) : 
        Dipole                0.9022 Ry au,          2.2932 Debye
        Dipole field          0.0017 Ry au, 
 
        Potential amp.       -0.1578 Ry
        Total length         46.3494 bohr
 

     total cpu time spent up to now is      932.7 secs

     total energy              =   -2920.25670825 Ry
     estimated scf accuracy    <       0.00097699 Ry

     iteration # 63     ecut=    29.40 Ry     beta= 0.05
     Davidson diagonalization with overlap
     ethr =  2.50E-07,  avg # of iterations =  2.2

     negative rho (up, down):  1.608E-02 0.000E+00
 
     Adding external electric field

     Computed dipole along edir(3) : 
        Dipole                0.9013 Ry au,          2.2908 Debye
        Dipole field          0.0017 Ry au, 
 
        Potential amp.       -0.1577 Ry
        Total length         46.3494 bohr
 

     total cpu time spent up to now is      937.9 secs

     total energy              =   -2920.25683226 Ry
     estimated scf accuracy    <       0.00073099 Ry

     iteration # 64     ecut=    29.40 Ry     beta= 0.05
     Davidson diagonalization with overlap
     c_bands:  1 eigenvalues not converged
     ethr =  1.87E-07,  avg # of iterations = 11.9

     negative rho (up, down):  1.610E-02 0.000E+00
 
     Adding external electric field

     Computed dipole along edir(3) : 
        Dipole                0.8970 Ry au,          2.2799 Debye
        Dipole field          0.0017 Ry au, 
 
        Potential amp.       -0.1569 Ry
        Total length         46.3494 bohr
 

     total cpu time spent up to now is      954.5 secs

     total energy              =   -2920.25669867 Ry
     estimated scf accuracy    <       0.00097137 Ry

     iteration # 65     ecut=    29.40 Ry     beta= 0.05
     Davidson diagonalization with overlap
     ethr =  1.87E-07,  avg # of iterations = 10.0

     negative rho (up, down):  1.602E-02 0.000E+00
 
     Adding external electric field

     Computed dipole along edir(3) : 
        Dipole                0.8969 Ry au,          2.2796 Debye
        Dipole field          0.0017 Ry au, 
 
        Potential amp.       -0.1569 Ry
        Total length         46.3494 bohr
 

     total cpu time spent up to now is      970.1 secs

     total energy              =   -2920.25680292 Ry
     estimated scf accuracy    <       0.00018485 Ry

     iteration # 66     ecut=    29.40 Ry     beta= 0.05
     Davidson diagonalization with overlap
     c_bands:  1 eigenvalues not converged
     ethr =  4.73E-08,  avg # of iterations = 12.2

     negative rho (up, down):  1.602E-02 0.000E+00
 
     Adding external electric field

     Computed dipole along edir(3) : 
        Dipole                0.8968 Ry au,          2.2795 Debye
        Dipole field          0.0017 Ry au, 
 
        Potential amp.       -0.1569 Ry
        Total length         46.3494 bohr
 

     total cpu time spent up to now is      979.5 secs

     total energy              =   -2920.25684159 Ry
     estimated scf accuracy    <       0.00016667 Ry

     iteration # 67     ecut=    29.40 Ry     beta= 0.05
     Davidson diagonalization with overlap
     ethr =  4.26E-08,  avg # of iterations =  1.1

     negative rho (up, down):  1.600E-02 0.000E+00
 
     Adding external electric field

     Computed dipole along edir(3) : 
        Dipole                0.8983 Ry au,          2.2833 Debye
        Dipole field          0.0017 Ry au, 
 
        Potential amp.       -0.1571 Ry
        Total length         46.3494 bohr
 

     total cpu time spent up to now is      990.4 secs

     total energy              =   -2920.25682525 Ry
     estimated scf accuracy    <       0.00016637 Ry

     iteration # 68     ecut=    29.40 Ry     beta= 0.05
     Davidson diagonalization with overlap
     ethr =  4.26E-08,  avg # of iterations =  1.1

     negative rho (up, down):  1.597E-02 0.000E+00
 
     Adding external electric field

     Computed dipole along edir(3) : 
        Dipole                0.8978 Ry au,          2.2821 Debye
        Dipole field          0.0017 Ry au, 
 
        Potential amp.       -0.1571 Ry
        Total length         46.3494 bohr
 

     total cpu time spent up to now is      995.9 secs

     total energy              =   -2920.25682970 Ry
     estimated scf accuracy    <       0.00011542 Ry

     iteration # 69     ecut=    29.40 Ry     beta= 0.05
     Davidson diagonalization with overlap
     ethr =  2.95E-08,  avg # of iterations =  1.0

     negative rho (up, down):  1.596E-02 0.000E+00
 
     Adding external electric field

     Computed dipole along edir(3) : 
        Dipole                0.8981 Ry au,          2.2828 Debye
        Dipole field          0.0017 Ry au, 
 
        Potential amp.       -0.1571 Ry
        Total length         46.3494 bohr
 

     total cpu time spent up to now is     1007.0 secs

     total energy              =   -2920.25682907 Ry
     estimated scf accuracy    <       0.00011414 Ry

     iteration # 70     ecut=    29.40 Ry     beta= 0.05
     Davidson diagonalization with overlap
     ethr =  2.92E-08,  avg # of iterations =  1.0

     negative rho (up, down):  1.574E-02 0.000E+00
 
     Adding external electric field

     Computed dipole along edir(3) : 
        Dipole                0.8958 Ry au,          2.2770 Debye
        Dipole field          0.0017 Ry au, 
 
        Potential amp.       -0.1567 Ry
        Total length         46.3494 bohr
 

     total cpu time spent up to now is     1017.0 secs

     total energy              =   -2920.25680997 Ry
     estimated scf accuracy    <       0.00010133 Ry

     iteration # 71     ecut=    29.40 Ry     beta= 0.05
     Davidson diagonalization with overlap
     ethr =  2.59E-08,  avg # of iterations =  3.9

     negative rho (up, down):  1.569E-02 0.000E+00
 
     Adding external electric field

     Computed dipole along edir(3) : 
        Dipole                0.8924 Ry au,          2.2681 Debye
        Dipole field          0.0017 Ry au, 
 
        Potential amp.       -0.1561 Ry
        Total length         46.3494 bohr
 

     total cpu time spent up to now is     1025.0 secs

     total energy              =   -2920.25680684 Ry
     estimated scf accuracy    <       0.00009841 Ry

     iteration # 72     ecut=    29.40 Ry     beta= 0.05
     Davidson diagonalization with overlap
     ethr =  2.52E-08,  avg # of iterations =  5.2

     negative rho (up, down):  1.585E-02 0.000E+00
 
     Adding external electric field

     Computed dipole along edir(3) : 
        Dipole                0.8923 Ry au,          2.2679 Debye
        Dipole field          0.0017 Ry au, 
 
        Potential amp.       -0.1561 Ry
        Total length         46.3494 bohr
 

     total cpu time spent up to now is     1029.7 secs

     total energy              =   -2920.25683528 Ry
     estimated scf accuracy    <       0.00004524 Ry

     iteration # 73     ecut=    29.40 Ry     beta= 0.05
     Davidson diagonalization with overlap
     c_bands:  1 eigenvalues not converged
     c_bands:  1 eigenvalues not converged
     c_bands:  1 eigenvalues not converged
     ethr =  1.16E-08,  avg # of iterations = 18.3

     negative rho (up, down):  1.605E-02 0.000E+00
 
     Adding external electric field

     Computed dipole along edir(3) : 
        Dipole                0.8934 Ry au,          2.2709 Debye
        Dipole field          0.0017 Ry au, 
 
        Potential amp.       -0.1563 Ry
        Total length         46.3494 bohr
 

     total cpu time spent up to now is     1055.5 secs

     total energy              =   -2920.25687647 Ry
     estimated scf accuracy    <       0.00016097 Ry

     iteration # 74     ecut=    29.40 Ry     beta= 0.05
     Davidson diagonalization with overlap
     c_bands:  1 eigenvalues not converged
     ethr =  1.16E-08,  avg # of iterations = 13.7

     negative rho (up, down):  1.589E-02 0.000E+00
 
     Adding external electric field

     Computed dipole along edir(3) : 
        Dipole                0.8936 Ry au,          2.2713 Debye
        Dipole field          0.0017 Ry au, 
 
        Potential amp.       -0.1563 Ry
        Total length         46.3494 bohr
 

     total cpu time spent up to now is     1071.4 secs

     total energy              =   -2920.25684514 Ry
     estimated scf accuracy    <       0.00018979 Ry

     iteration # 75     ecut=    29.40 Ry     beta= 0.05
     Davidson diagonalization with overlap
     ethr =  1.16E-08,  avg # of iterations = 10.2

     negative rho (up, down):  1.586E-02 0.000E+00
 
     Adding external electric field

     Computed dipole along edir(3) : 
        Dipole                0.8954 Ry au,          2.2758 Debye
        Dipole field          0.0017 Ry au, 
 
        Potential amp.       -0.1566 Ry
        Total length         46.3494 bohr
 

     total cpu time spent up to now is     1083.4 secs

     total energy              =   -2920.25681987 Ry
     estimated scf accuracy    <       0.00012158 Ry

     iteration # 76     ecut=    29.40 Ry     beta= 0.05
     Davidson diagonalization with overlap
     ethr =  1.16E-08,  avg # of iterations = 12.8

     negative rho (up, down):  1.599E-02 0.000E+00
 
     Adding external electric field

     Computed dipole along edir(3) : 
        Dipole                0.8942 Ry au,          2.2727 Debye
        Dipole field          0.0017 Ry au, 
 
        Potential amp.       -0.1564 Ry
        Total length         46.3494 bohr
 

     total cpu time spent up to now is     1098.6 secs

     total energy              =   -2920.25684294 Ry
     estimated scf accuracy    <       0.00003854 Ry

     iteration # 77     ecut=    29.40 Ry     beta= 0.05
     Davidson diagonalization with overlap
     ethr =  9.86E-09,  avg # of iterations = 10.9

     negative rho (up, down):  1.606E-02 0.000E+00
 
     Adding external electric field

     Computed dipole along edir(3) : 
        Dipole                0.8951 Ry au,          2.2751 Debye
        Dipole field          0.0017 Ry au, 
 
        Potential amp.       -0.1566 Ry
        Total length         46.3494 bohr
 

     total cpu time spent up to now is     1107.4 secs

     total energy              =   -2920.25685228 Ry
     estimated scf accuracy    <       0.00008578 Ry

     iteration # 78     ecut=    29.40 Ry     beta= 0.05
     Davidson diagonalization with overlap
     ethr =  9.86E-09,  avg # of iterations =  7.8

     negative rho (up, down):  1.606E-02 0.000E+00
 
     Adding external electric field

     Computed dipole along edir(3) : 
        Dipole                0.8941 Ry au,          2.2726 Debye
        Dipole field          0.0017 Ry au, 
 
        Potential amp.       -0.1564 Ry
        Total length         46.3494 bohr
 

     total cpu time spent up to now is     1112.5 secs

     total energy              =   -2920.25684710 Ry
     estimated scf accuracy    <       0.00004254 Ry

     iteration # 79     ecut=    29.40 Ry     beta= 0.05
     Davidson diagonalization with overlap
     c_bands:  1 eigenvalues not converged
     c_bands:  1 eigenvalues not converged
     c_bands:  1 eigenvalues not converged
     ethr =  9.86E-09,  avg # of iterations = 16.4

     negative rho (up, down):  1.615E-02 0.000E+00
 
     Adding external electric field

     Computed dipole along edir(3) : 
        Dipole                0.8957 Ry au,          2.2766 Debye
        Dipole field          0.0017 Ry au, 
 
        Potential amp.       -0.1567 Ry
        Total length         46.3494 bohr
 

     total cpu time spent up to now is     1126.3 secs

     total energy              =   -2920.25686404 Ry
     estimated scf accuracy    <       0.00004255 Ry

     iteration # 80     ecut=    29.40 Ry     beta= 0.05
     Davidson diagonalization with overlap
     ethr =  9.86E-09,  avg # of iterations =  2.2

     negative rho (up, down):  1.617E-02 0.000E+00
 
     Adding external electric field

     Computed dipole along edir(3) : 
        Dipole                0.8955 Ry au,          2.2761 Debye
        Dipole field          0.0017 Ry au, 
 
        Potential amp.       -0.1567 Ry
        Total length         46.3494 bohr
 

     total cpu time spent up to now is     1134.0 secs

     total energy              =   -2920.25686135 Ry
     estimated scf accuracy    <       0.00003653 Ry

     iteration # 81     ecut=    29.40 Ry     beta= 0.05
     Davidson diagonalization with overlap
     ethr =  9.34E-09,  avg # of iterations =  3.4

     negative rho (up, down):  1.622E-02 0.000E+00
 
     Adding external electric field

     Computed dipole along edir(3) : 
        Dipole                0.8962 Ry au,          2.2779 Debye
        Dipole field          0.0017 Ry au, 
 
        Potential amp.       -0.1568 Ry
        Total length         46.3494 bohr
 

     total cpu time spent up to now is     1138.1 secs

     total energy              =   -2920.25685798 Ry
     estimated scf accuracy    <       0.00002151 Ry

     iteration # 82     ecut=    29.40 Ry     beta= 0.05
     Davidson diagonalization with overlap
     c_bands:  1 eigenvalues not converged
     ethr =  5.50E-09,  avg # of iterations = 14.7

     negative rho (up, down):  1.620E-02 0.000E+00
 
     Adding external electric field

     Computed dipole along edir(3) : 
        Dipole                0.8958 Ry au,          2.2769 Debye
        Dipole field          0.0017 Ry au, 
 
        Potential amp.       -0.1567 Ry
        Total length         46.3494 bohr
 

     total cpu time spent up to now is     1162.5 secs

     total energy              =   -2920.25686184 Ry
     estimated scf accuracy    <       0.00000254 Ry

     iteration # 83     ecut=    29.40 Ry     beta= 0.05
     Davidson diagonalization with overlap
     c_bands:  1 eigenvalues not converged
     ethr =  6.50E-10,  avg # of iterations = 15.5

     negative rho (up, down):  1.616E-02 0.000E+00
 
     Adding external electric field

     Computed dipole along edir(3) : 
        Dipole                0.8952 Ry au,          2.2755 Debye
        Dipole field          0.0017 Ry au, 
 
        Potential amp.       -0.1566 Ry
        Total length         46.3494 bohr
 

     total cpu time spent up to now is     1187.8 secs

     total energy              =   -2920.25686311 Ry
     estimated scf accuracy    <       0.00000321 Ry

     iteration # 84     ecut=    29.40 Ry     beta= 0.05
     Davidson diagonalization with overlap
     ethr =  6.50E-10,  avg # of iterations =  7.0

     negative rho (up, down):  1.614E-02 0.000E+00
 
     Adding external electric field

     Computed dipole along edir(3) : 
        Dipole                0.8948 Ry au,          2.2743 Debye
        Dipole field          0.0017 Ry au, 
 
        Potential amp.       -0.1565 Ry
        Total length         46.3494 bohr
 

     total cpu time spent up to now is     1197.3 secs

     total energy              =   -2920.25686333 Ry
     estimated scf accuracy    <       0.00000349 Ry

     iteration # 85     ecut=    29.40 Ry     beta= 0.05
     Davidson diagonalization with overlap
     ethr =  6.50E-10,  avg # of iterations =  7.3

     negative rho (up, down):  1.616E-02 0.000E+00
 
     Adding external electric field

     Computed dipole along edir(3) : 
        Dipole                0.8950 Ry au,          2.2749 Debye
        Dipole field          0.0017 Ry au, 
 
        Potential amp.       -0.1566 Ry
        Total length         46.3494 bohr
 

     total cpu time spent up to now is     1204.8 secs

     total energy              =   -2920.25686373 Ry
     estimated scf accuracy    <       0.00000201 Ry

     iteration # 86     ecut=    29.40 Ry     beta= 0.05
     Davidson diagonalization with overlap
     c_bands:  1 eigenvalues not converged
     ethr =  5.15E-10,  avg # of iterations = 13.1

     negative rho (up, down):  1.614E-02 0.000E+00
 
     Adding external electric field

     Computed dipole along edir(3) : 
        Dipole                0.8949 Ry au,          2.2746 Debye
        Dipole field          0.0017 Ry au, 
 
        Potential amp.       -0.1565 Ry
        Total length         46.3494 bohr
 

     total cpu time spent up to now is     1212.6 secs

     total energy              =   -2920.25686424 Ry
     estimated scf accuracy    <       0.00000060 Ry

     iteration # 87     ecut=    29.40 Ry     beta= 0.05
     Davidson diagonalization with overlap
     c_bands:  1 eigenvalues not converged
     c_bands:  1 eigenvalues not converged
     ethr =  1.54E-10,  avg # of iterations = 14.3

     negative rho (up, down):  1.612E-02 0.000E+00
 
     Adding external electric field

     Computed dipole along edir(3) : 
        Dipole                0.8947 Ry au,          2.2740 Debye
        Dipole field          0.0017 Ry au, 
 
        Potential amp.       -0.1565 Ry
        Total length         46.3494 bohr
 

     total cpu time spent up to now is     1224.6 secs

     total energy              =   -2920.25686464 Ry
     estimated scf accuracy    <       0.00000076 Ry

     iteration # 88     ecut=    29.40 Ry     beta= 0.05
     Davidson diagonalization with overlap
     ethr =  1.54E-10,  avg # of iterations =  8.1

     negative rho (up, down):  1.610E-02 0.000E+00
 
     Adding external electric field

     Computed dipole along edir(3) : 
        Dipole                0.8943 Ry au,          2.2732 Debye
        Dipole field          0.0017 Ry au, 
 
        Potential amp.       -0.1565 Ry
        Total length         46.3494 bohr
 

     total cpu time spent up to now is     1232.6 secs

     total energy              =   -2920.25686490 Ry
     estimated scf accuracy    <       0.00000034 Ry

     iteration # 89     ecut=    29.40 Ry     beta= 0.05
     Davidson diagonalization with overlap
     c_bands:  1 eigenvalues not converged
     c_bands:  1 eigenvalues not converged
     c_bands:  3 eigenvalues not converged
     c_bands:  1 eigenvalues not converged
     c_bands:  1 eigenvalues not converged
     c_bands:  1 eigenvalues not converged
     ethr =  8.57E-11,  avg # of iterations = 19.2

     negative rho (up, down):  1.610E-02 0.000E+00
 
     Adding external electric field

     Computed dipole along edir(3) : 
        Dipole                0.8943 Ry au,          2.2730 Debye
        Dipole field          0.0017 Ry au, 
 
        Potential amp.       -0.1564 Ry
        Total length         46.3494 bohr
 

     total cpu time spent up to now is     1271.2 secs

     total energy              =   -2920.25686529 Ry
     estimated scf accuracy    <       0.00000073 Ry

     iteration # 90     ecut=    29.40 Ry     beta= 0.05
     Davidson diagonalization with overlap
     c_bands:  1 eigenvalues not converged
     ethr =  8.57E-11,  avg # of iterations = 13.5

     negative rho (up, down):  1.610E-02 0.000E+00
 
     Adding external electric field

     Computed dipole along edir(3) : 
        Dipole                0.8942 Ry au,          2.2728 Debye
        Dipole field          0.0017 Ry au, 
 
        Potential amp.       -0.1564 Ry
        Total length         46.3494 bohr
 

     total cpu time spent up to now is     1298.9 secs

     total energy              =   -2920.25686552 Ry
     estimated scf accuracy    <       0.00000015 Ry

     iteration # 91     ecut=    29.40 Ry     beta= 0.05
     Davidson diagonalization with overlap
     c_bands:  1 eigenvalues not converged
     c_bands:  1 eigenvalues not converged
     c_bands:  1 eigenvalues not converged
     c_bands:  1 eigenvalues not converged
     c_bands:  1 eigenvalues not converged
     ethr =  3.82E-11,  avg # of iterations = 19.0

     negative rho (up, down):  1.610E-02 0.000E+00
 
     Adding external electric field

     Computed dipole along edir(3) : 
        Dipole                0.8941 Ry au,          2.2727 Debye
        Dipole field          0.0017 Ry au, 
 
        Potential amp.       -0.1564 Ry
        Total length         46.3494 bohr
 

     total cpu time spent up to now is     1326.9 secs

     total energy              =   -2920.25686579 Ry
     estimated scf accuracy    <       0.00000046 Ry

     iteration # 92     ecut=    29.40 Ry     beta= 0.05
     Davidson diagonalization with overlap
     c_bands:  1 eigenvalues not converged
     ethr =  3.82E-11,  avg # of iterations = 14.6

     negative rho (up, down):  1.610E-02 0.000E+00
 
     Adding external electric field

     Computed dipole along edir(3) : 
        Dipole                0.8910 Ry au,          2.2647 Debye
        Dipole field          0.0017 Ry au, 
 
        Potential amp.       -0.1559 Ry
        Total length         46.3494 bohr
 

     total cpu time spent up to now is     1379.5 secs

     End of self-consistent calculation

          k = 0.0000 0.0000 0.0000 ( 18029 PWs)   bands (ev):

   -55.7220 -55.6860 -55.6737 -55.6396 -55.6114 -55.6022 -55.5678 -55.5462
   -55.5384 -55.5118 -55.5053 -55.4716 -55.4647 -55.3044 -54.7057 -54.6717
   -32.2873 -32.1667 -32.0902 -32.0573 -32.0427 -32.0352 -32.0319 -32.0113
   -31.9626 -31.9569 -31.9338 -31.9280 -31.9186 -31.8910 -31.8756 -31.8737
   -31.8608 -31.8496 -31.8416 -31.8263 -31.8208 -31.7881 -31.7808 -31.7768
   -31.7486 -31.7447 -31.7343 -31.7308 -31.7250 -31.7208 -31.7047 -31.7030
   -31.6946 -31.6918 -31.6714 -31.6596 -31.6572 -31.6422 -31.6332 -31.6168
   -31.5250 -31.4724 -31.1153 -31.0207 -30.9986 -30.9316 -30.8448 -30.7340
   -16.6745 -16.5290 -16.2732 -16.1133 -16.0183 -15.9216 -15.7902 -15.7626
   -15.6464 -15.5697 -15.4282 -15.3978 -15.3820 -15.3604 -15.3431 -15.3309
   -15.2695 -15.2635 -15.2437 -15.2180 -15.2147 -15.1678 -15.1631 -15.1226
   -15.0987 -15.0461 -14.9681 -14.8837 -14.8108 -14.4897 -13.2085 -13.0910
    -9.5051  -6.8564  -4.9312  -3.8864  -3.7429  -3.6746  -3.6246  -3.6156
    -3.4742  -3.3003  -3.1541  -3.1397  -3.0764  -2.9945  -2.9268  -2.9131
    -2.8888  -2.7479  -2.7335  -2.6797  -2.6519  -2.5748  -2.5700  -2.5269
    -2.5079  -2.4733  -2.4692  -2.4392  -2.3002  -2.2920  -2.2522  -2.1904
    -2.1312  -2.1284  -2.0732  -2.0539  -2.0126  -2.0034  -1.9947  -1.9516
    -1.9469  -1.9130  -1.8181  -1.7476  -1.6206  -1.5842  -1.4414  -1.3632
    -1.3155  -1.2953  -1.2146  -1.2074  -1.1478  -1.1031  -1.1012  -1.0610
    -0.9495  -0.8681  -0.8156  -0.7580  -0.7241  -0.7075  -0.6227  -0.5252
    -0.5017  -0.4891  -0.4532  -0.3534  -0.3283  -0.2674  -0.2034  -0.1910
    -0.1781  -0.0931  -0.0556   0.0169   0.0669   0.0869   0.1640   0.1861
     0.2098   0.2157   0.2463   0.2621   0.3337   0.3531   0.3780   0.4653
     0.5860   0.8281   0.8873   0.8957   1.2162   1.2212   1.3168   1.5000
     1.8934   1.9417   3.3709   3.3884   3.4527   3.5210   3.5247   3.5868
     3.6117   3.8582   3.8775   3.8856   3.9032

          k = 0.0000 0.0419 0.0000 ( 17933 PWs)   bands (ev):

   -55.7167 -55.6912 -55.6686 -55.6445 -55.6092 -55.5971 -55.5727 -55.5412
   -55.5403 -55.5167 -55.5003 -55.4764 -55.4636 -55.3054 -54.7007 -54.6766
   -32.2303 -32.1127 -32.0354 -32.0204 -32.0169 -31.9911 -31.9821 -31.9682
   -31.9658 -31.9576 -31.9505 -31.9223 -31.9143 -31.9109 -31.8942 -31.8706
   -31.8678 -31.8448 -31.8391 -31.8270 -31.8243 -31.8123 -31.7748 -31.7725
[...]
    -1.8216  -1.7898  -1.7553  -1.6789  -1.6527  -1.5297  -1.4804  -1.3888
    -1.3574  -1.3278  -1.2548  -1.2302  -1.1821  -1.1372  -1.1185  -1.0803
    -1.0685  -1.0396  -0.8093  -0.7708  -0.7174  -0.6544  -0.6165  -0.6012
    -0.5788  -0.5400  -0.4026  -0.3986  -0.3347  -0.3138  -0.2909  -0.2316
    -0.1891  -0.1681  -0.0981  -0.0565  -0.0293   0.0122   0.0223   0.0429
     0.0967   0.1325   0.2220   0.2400   0.2451   0.2905   0.3077   0.3943
     0.4679   0.5999   0.7149   0.9390   1.0767   1.2265   1.3287   1.4688
     1.7807   1.8589   3.3904   3.4084   3.4841   3.6832   3.6904   3.7098
     3.7667   3.8177   3.8401   3.8669   3.8885

          k = 0.0380 0.0419 0.0000 ( 17878 PWs)   bands (ev):

   -55.7166 -55.6911 -55.6685 -55.6445 -55.6092 -55.5970 -55.5727 -55.5410
   -55.5403 -55.5166 -55.5003 -55.4764 -55.4636 -55.3053 -54.7006 -54.6766
   -32.2304 -32.1136 -32.0417 -32.0202 -32.0171 -31.9935 -31.9863 -31.9686
   -31.9658 -31.9574 -31.9506 -31.9146 -31.9119 -31.9074 -31.8943 -31.8676
   -31.8609 -31.8449 -31.8311 -31.8245 -31.8113 -31.8081 -31.7914 -31.7722
   -31.7592 -31.7522 -31.7445 -31.7444 -31.7439 -31.7355 -31.7296 -31.7245
   -31.7104 -31.6998 -31.6946 -31.6934 -31.6752 -31.6706 -31.6478 -31.6435
   -31.5275 -31.5127 -31.0607 -31.0200 -31.0006 -30.9188 -30.8575 -30.7910
   -16.6520 -16.3350 -16.0827 -16.0397 -15.8885 -15.7603 -15.7323 -15.7090
   -15.6342 -15.5953 -15.5294 -15.4871 -15.4694 -15.4013 -15.3861 -15.3694
   -15.3394 -15.2913 -15.2806 -15.2507 -15.1982 -15.1715 -15.1427 -15.1016
   -15.0936 -15.0488 -15.0154 -15.0065 -14.9511 -14.6061 -13.2097 -13.1305
    -9.5061  -6.8471  -4.9220  -3.5841  -3.4576  -3.3418  -3.2936  -3.2146
    -3.1549  -3.1225  -3.0924  -3.0634  -3.0364  -2.9621  -2.9079  -2.8268
    -2.7988  -2.7600  -2.7387  -2.7255  -2.6731  -2.6268  -2.6100  -2.5592
    -2.5396  -2.5187  -2.4830  -2.4473  -2.4235  -2.4136  -2.3515  -2.3128
    -2.2661  -2.2296  -2.1753  -2.1475  -2.1113  -2.0145  -1.9437  -1.8958
    -1.7857  -1.7293  -1.7142  -1.5999  -1.5382  -1.5055  -1.4382  -1.3331
    -1.2765  -1.2128  -1.1964  -1.1412  -1.1108  -1.0776  -1.0633  -1.0061
    -0.9800  -0.9035  -0.8383  -0.8105  -0.7944  -0.6979  -0.6713  -0.6580
    -0.6263  -0.5337  -0.4936  -0.4860  -0.4336  -0.4160  -0.3715  -0.3469
    -0.3361  -0.3004  -0.2490  -0.1656  -0.1489  -0.0894  -0.0677  -0.0019
     0.0250   0.1056   0.1726   0.2317   0.2839   0.3550   0.3898   0.4286
     0.5290   0.5813   0.6955   0.7058   0.8693   1.0478   1.5111   1.5788
     1.7704   1.8338   3.3834   3.5755   3.5809   3.6330   3.7190   3.7839
     3.8018   3.8375   3.9056   3.9354   3.9629

          k = 0.0380-0.0839 0.0000 ( 17916 PWs)   bands (ev):

   -55.7053 -55.7024 -55.6567 -55.6564 -55.6070 -55.5857 -55.5841 -55.5425
   -55.5308 -55.5269 -55.4887 -55.4881 -55.4626 -55.3064 -54.6888 -54.6885
   -32.0926 -32.0901 -31.9997 -31.9810 -31.9810 -31.9785 -31.9687 -31.9478
   -31.9478 -31.9239 -31.9184 -31.9172 -31.9130 -31.8728 -31.8699 -31.8674
   -31.8642 -31.8579 -31.8543 -31.8501 -31.8296 -31.8169 -31.7989 -31.7978
   -31.7778 -31.7775 -31.7714 -31.7688 -31.7682 -31.7655 -31.7636 -31.7596
   -31.7460 -31.7310 -31.6993 -31.6968 -31.6829 -31.6690 -31.6686 -31.6475
   -31.5647 -31.5248 -31.0104 -31.0101 -30.9279 -30.9277 -30.8882 -30.8882
   -16.6429 -16.0986 -16.0049 -15.8899 -15.8174 -15.7952 -15.6759 -15.6627
   -15.6081 -15.5730 -15.5698 -15.5288 -15.4656 -15.4312 -15.3500 -15.3466
   -15.3165 -15.3099 -15.3038 -15.2615 -15.2166 -15.2064 -15.1611 -15.1549
   -15.0998 -15.0880 -15.0747 -15.0669 -15.0660 -14.7820 -13.1927 -13.1927
    -9.5046  -6.8396  -4.9180  -3.2251  -3.1982  -3.1649  -3.1265  -3.0176
    -2.9909  -2.9750  -2.9502  -2.9214  -2.9079  -2.8526  -2.8362  -2.8185
    -2.8023  -2.7988  -2.7683  -2.7594  -2.7143  -2.6901  -2.6538  -2.6309
    -2.6152  -2.6069  -2.5558  -2.5460  -2.4861  -2.4507  -2.3999  -2.3841
    -2.3444  -2.2981  -2.2503  -2.1992  -1.9840  -1.9237  -1.8962  -1.8020
    -1.7314  -1.6866  -1.6630  -1.6480  -1.5912  -1.5747  -1.4733  -1.4551
    -1.4059  -1.4010  -1.3723  -1.2837  -1.2075  -1.1254  -1.0835  -1.0572
    -1.0351  -1.0068  -0.9647  -0.7914  -0.7635  -0.7404  -0.6770  -0.6427
    -0.5761  -0.5489  -0.5271  -0.5146  -0.4852  -0.4156  -0.3705  -0.3616
    -0.3346  -0.2843  -0.2498  -0.2307  -0.2114  -0.1934  -0.0082   0.0028
     0.0227   0.0824   0.1578   0.1967   0.3361   0.3397   0.3734   0.4301
     0.4999   0.5270   0.6105   0.6247   0.8268   0.8324   1.6554   1.6559
     1.7744   1.7751   3.3733   3.6150   3.6352   3.6809   3.7053   3.8172
     3.8329   3.8931   3.9293   3.9658   4.0046

          k = 0.0380-0.0419 0.0000 ( 17876 PWs)   bands (ev):

   -55.7166 -55.6911 -55.6685 -55.6445 -55.6092 -55.5970 -55.5727 -55.5410
   -55.5403 -55.5166 -55.5003 -55.4764 -55.4636 -55.3053 -54.7006 -54.6766
   -32.2304 -32.1136 -32.0417 -32.0201 -32.0172 -31.9934 -31.9863 -31.9686
   -31.9658 -31.9574 -31.9506 -31.9146 -31.9118 -31.9076 -31.8943 -31.8676
   -31.8609 -31.8448 -31.8315 -31.8244 -31.8113 -31.8081 -31.7912 -31.7722
   -31.7593 -31.7522 -31.7444 -31.7439 -31.7407 -31.7355 -31.7300 -31.7247
   -31.7129 -31.6996 -31.6947 -31.6934 -31.6773 -31.6707 -31.6460 -31.6435
   -31.5269 -31.5133 -31.0607 -31.0200 -31.0006 -30.9188 -30.8575 -30.7910
   -16.6524 -16.3344 -16.0814 -16.0397 -15.8886 -15.7625 -15.7319 -15.7086
   -15.6335 -15.5957 -15.5309 -15.4821 -15.4698 -15.4007 -15.3864 -15.3698
   -15.3505 -15.2881 -15.2804 -15.2516 -15.1981 -15.1717 -15.1431 -15.0995
   -15.0893 -15.0481 -15.0152 -15.0069 -14.9514 -14.6068 -13.2097 -13.1305
    -9.5062  -6.8470  -4.9210  -3.5842  -3.4567  -3.3416  -3.2749  -3.2135
    -3.1559  -3.1368  -3.0929  -3.0667  -3.0302  -2.9634  -2.9137  -2.8349
    -2.7970  -2.7561  -2.7503  -2.7204  -2.6736  -2.6352  -2.6130  -2.5575
    -2.5413  -2.5164  -2.4814  -2.4483  -2.4217  -2.4174  -2.3533  -2.3146
    -2.2679  -2.2317  -2.1552  -2.1324  -2.1148  -2.0164  -1.9551  -1.9006
    -1.7874  -1.7275  -1.7066  -1.5956  -1.5307  -1.5063  -1.4370  -1.3469
    -1.2721  -1.2119  -1.1953  -1.1298  -1.1043  -1.0823  -1.0646  -1.0107
    -0.9765  -0.9038  -0.8538  -0.8125  -0.7909  -0.6952  -0.6693  -0.6583
    -0.6244  -0.5252  -0.5044  -0.4809  -0.4295  -0.4084  -0.3675  -0.3437
    -0.3379  -0.3037  -0.2468  -0.1682  -0.1541  -0.1043  -0.0690   0.0001
     0.0232   0.1012   0.1756   0.2364   0.2821   0.3487   0.3864   0.4268
     0.5315   0.5853   0.6952   0.7094   0.8696   1.0478   1.5111   1.5788
     1.7702   1.8344   3.4001   3.5759   3.5829   3.6263   3.7196   3.7867
     3.7970   3.8228   3.9120   3.9387   3.9583

          k =-0.0760-0.0000 0.0000 ( 17886 PWs)   bands (ev):

   -55.7217 -55.6859 -55.6735 -55.6395 -55.6112 -55.6021 -55.5677 -55.5458
   -55.5382 -55.5116 -55.5054 -55.4715 -55.4647 -55.3043 -54.7056 -54.6716
   -32.2876 -32.1686 -32.1007 -32.0577 -32.0474 -32.0431 -32.0315 -32.0119
   -31.9622 -31.9567 -31.9281 -31.9185 -31.8916 -31.8908 -31.8751 -31.8727
   -31.8488 -31.8309 -31.8244 -31.8207 -31.8204 -31.7881 -31.7878 -31.7768
   -31.7486 -31.7472 -31.7455 -31.7333 -31.7309 -31.7162 -31.7088 -31.7048
   -31.7030 -31.6985 -31.6806 -31.6574 -31.6568 -31.6457 -31.6330 -31.6178
   -31.5271 -31.4724 -31.1144 -31.0277 -30.9952 -30.9314 -30.8446 -30.7338
   -16.6558 -16.3262 -16.2081 -16.0334 -15.9277 -15.7903 -15.7578 -15.7538
   -15.6272 -15.5872 -15.5809 -15.5392 -15.5038 -15.5029 -15.4757 -15.4390
   -15.4191 -15.3354 -15.2163 -15.1903 -15.1534 -15.1337 -15.1299 -15.0826
   -15.0557 -15.0068 -14.9689 -14.8913 -14.8560 -14.4867 -13.2021 -13.0904
    -9.5104  -6.8549  -4.9184  -3.7243  -3.5926  -3.3616  -3.2679  -3.2267
    -3.2156  -3.2091  -3.2026  -3.1476  -3.1359  -3.0372  -3.0305  -2.9696
    -2.9538  -2.7847  -2.6555  -2.6378  -2.5673  -2.5287  -2.4402  -2.4279
    -2.3661  -2.3306  -2.2889  -2.2633  -2.2375  -2.2125  -2.2036  -2.1452
    -2.0974  -2.0766  -2.0559  -2.0520  -2.0352  -2.0203  -2.0124  -1.9268
    -1.8749  -1.7979  -1.6614  -1.5810  -1.5401  -1.4173  -1.4056  -1.3657
    -1.3490  -1.3342  -1.3204  -1.2881  -1.2565  -1.2297  -1.1635  -1.1498
    -1.0692  -1.0245  -1.0142  -0.9900  -0.9232  -0.6996  -0.6748  -0.6357
    -0.6078  -0.5681  -0.4803  -0.4322  -0.4156  -0.3773  -0.3262  -0.2755
    -0.2431  -0.2206  -0.1955  -0.1397  -0.1245  -0.0656  -0.0376   0.0200
     0.0532   0.0763   0.1212   0.1241   0.2086   0.2373   0.3187   0.4007
     0.5126   0.5383   0.7589   0.8015   0.9650   1.2311   1.3501   1.4438
     1.6503   1.8039   3.3915   3.4187   3.4557   3.5246   3.6498   3.7580
     3.7598   3.8290   3.8654   3.8919   3.9590

          k =-0.0760 0.0419 0.0000 ( 17914 PWs)   bands (ev):

   -55.7165 -55.6911 -55.6686 -55.6445 -55.6092 -55.5971 -55.5727 -55.5409
   -55.5403 -55.5166 -55.5004 -55.4765 -55.4637 -55.3054 -54.7006 -54.6766
   -32.2308 -32.1146 -32.0478 -32.0201 -32.0175 -31.9960 -31.9906 -31.9692
   -31.9658 -31.9574 -31.9507 -31.9148 -31.9111 -31.8944 -31.8907 -31.8672
   -31.8517 -31.8451 -31.8249 -31.8225 -31.8112 -31.8077 -31.7762 -31.7730
   -31.7586 -31.7546 -31.7523 -31.7466 -31.7441 -31.7421 -31.7290 -31.7127
   -31.7127 -31.7115 -31.7019 -31.6951 -31.6789 -31.6713 -31.6489 -31.6435
   -31.5287 -31.5133 -31.0604 -31.0230 -30.9999 -30.9188 -30.8575 -30.7911
   -16.6483 -16.2098 -16.1238 -15.9594 -15.8360 -15.7353 -15.6919 -15.6791
   -15.6351 -15.5518 -15.5274 -15.5157 -15.5019 -15.4548 -15.4516 -15.4208
   -15.4082 -15.3387 -15.2796 -15.2659 -15.1925 -15.1833 -15.1526 -15.1218
   -15.1037 -15.0890 -15.0131 -14.9792 -14.9631 -14.6053 -13.2075 -13.1308
    -9.5086  -6.8463  -4.9151  -3.5580  -3.4359  -3.1635  -3.1239  -3.0866
    -3.0734  -3.0173  -2.9689  -2.9378  -2.9230  -2.9068  -2.8692  -2.8064
    -2.7539  -2.7347  -2.7179  -2.6800  -2.6720  -2.6200  -2.5953  -2.5441
    -2.5092  -2.4433  -2.4227  -2.3972  -2.3251  -2.3091  -2.2810  -2.2727
    -2.2617  -2.2184  -2.1878  -2.1639  -2.0206  -1.9281  -1.8940  -1.8827
    -1.8424  -1.7829  -1.6880  -1.5160  -1.4905  -1.4645  -1.4617  -1.3538
    -1.3334  -1.3098  -1.2890  -1.2208  -1.1560  -1.1297  -1.1117  -1.0835
    -1.0503  -1.0031  -0.9869  -0.9662  -0.9302  -0.8894  -0.8653  -0.7974
    -0.7911  -0.7039  -0.6721  -0.6123  -0.5271  -0.5184  -0.4938  -0.4592
    -0.4216  -0.3984  -0.2772  -0.2320  -0.2004  -0.1636  -0.0368   0.0025
     0.0322   0.0952   0.1744   0.1987   0.2672   0.3778   0.5008   0.5252
     0.5463   0.6106   0.6886   0.7728   0.7876   0.9290   1.5264   1.5809
     1.6925   1.8229   3.4180   3.5568   3.5795   3.6016   3.6545   3.7096
     3.7772   3.8022   3.8532   3.9262   4.0017

          k =-0.0760-0.0839 0.0000 ( 17948 PWs)   bands (ev):

   -55.7053 -55.7024 -55.6567 -55.6564 -55.6070 -55.5858 -55.5841 -55.5425
   -55.5307 -55.5268 -55.4888 -55.4882 -55.4626 -55.3065 -54.6888 -54.6885
   -32.0929 -32.0904 -31.9998 -31.9818 -31.9818 -31.9787 -31.9691 -31.9479
   -31.9478 -31.9318 -31.9252 -31.9182 -31.9137 -31.8743 -31.8660 -31.8629
   -31.8586 -31.8539 -31.8496 -31.8447 -31.8309 -31.8119 -31.8001 -31.7991
   -31.7808 -31.7770 -31.7764 -31.7761 -31.7637 -31.7597 -31.7434 -31.7414
   -31.7394 -31.7299 -31.7218 -31.7191 -31.6855 -31.6690 -31.6686 -31.6500
   -31.5646 -31.5271 -31.0114 -31.0112 -30.9279 -30.9277 -30.8883 -30.8882
   -16.6415 -16.0383 -15.9456 -15.9075 -15.7595 -15.7218 -15.6868 -15.6745
   -15.5520 -15.5259 -15.5003 -15.4791 -15.4438 -15.4276 -15.4206 -15.3732
   -15.3413 -15.3218 -15.3162 -15.3041 -15.2411 -15.2332 -15.2293 -15.2222
   -15.1728 -15.1692 -15.0783 -15.0753 -15.0631 -14.7752 -13.1925 -13.1924
    -9.5067  -6.8387  -4.9117  -3.2142  -3.1871  -3.1606  -3.1236  -2.9782
    -2.9103  -2.8970  -2.8743  -2.7974  -2.7558  -2.7345  -2.6938  -2.6831
    -2.6306  -2.6037  -2.5765  -2.5603  -2.5559  -2.5394  -2.5185  -2.4838
    -2.4556  -2.4526  -2.4421  -2.4020  -2.3747  -2.3609  -2.3268  -2.3174
    -2.3099  -2.2804  -2.2207  -2.1148  -2.0907  -2.0588  -1.9647  -1.9311
    -1.9262  -1.8461  -1.8158  -1.7576  -1.7546  -1.7435  -1.5971  -1.5148
    -1.4717  -1.4691  -1.4471  -1.3200  -1.3106  -1.2259  -1.2034  -1.1938
    -1.1052  -1.0806  -1.0429  -1.0175  -0.9349  -0.9097  -0.8437  -0.7555
    -0.7192  -0.7112  -0.6796  -0.6768  -0.6276  -0.6162  -0.5351  -0.4928
    -0.4566  -0.4464  -0.4054  -0.2207  -0.2037  -0.1608  -0.0322   0.0133
     0.1455   0.1632   0.2278   0.3044   0.3365   0.3908   0.4268   0.5729
     0.5828   0.6149   0.6595   0.6689   0.7287   0.7378   1.6730   1.6737
     1.7616   1.7619   3.3932   3.6197   3.6264   3.6654   3.6882   3.8408
     3.8915   3.9296   3.9551   3.9602   3.9761

     the Fermi energy is     3.4389 ev

!    total energy              =   -2920.25686777 Ry
     estimated scf accuracy    <       0.00000007 Ry
     smearing contrib. (-TS)   =      -0.04300525 Ry
     internal energy E=F+TS    =   -2920.21386252 Ry

     The total energy is F=E-TS. E is the sum of the following terms:
     one-electron contribution =  -24043.95386561 Ry
     hartree contribution      =   12108.11525323 Ry
     xc contribution           =    -480.85096527 Ry
     ewald contribution        =    9496.47421695 Ry
     electric field correction =       0.00149817 Ry

     convergence has been achieved in  92 iterations

     Forces acting on atoms (cartesian axes, Ry/au):

     atom    1 type  1   force =     0.00008518   -0.00016033    0.09317645
     atom    2 type  1   force =    -0.00020620   -0.00024893   -0.17847616
     atom    3 type  2   force =     0.00003727   -0.00036699   -0.02007967
     atom    4 type  2   force =    -0.00001994   -0.00199807    0.05918118
     atom    5 type  2   force =    -0.01040757   -0.00113349    0.00788543
     atom    6 type  2   force =     0.01196580   -0.00051636    0.00730995
     atom    7 type  1   force =    -0.00041733    0.00229732   -0.01386808
     atom    8 type  1   force =     0.00003912   -0.00144598   -0.00476988
     atom    9 type  2   force =     0.00000307   -0.00028800   -0.00034888
     atom   10 type  2   force =    -0.00082687    0.00065937    0.00150173
     atom   11 type  2   force =     0.00010474   -0.00004092    0.00023778
     atom   12 type  2   force =    -0.00007963    0.00008562    0.00032221
     atom   13 type  1   force =    -0.00056744    0.00062072   -0.00009592
     atom   14 type  1   force =     0.00025584    0.00021364    0.00010017
     atom   15 type  2   force =    -0.00017315    0.00053740    0.00037662
     atom   16 type  2   force =    -0.00016161   -0.00006891   -0.00012203
     atom   17 type  2   force =    -0.00011071   -0.00004680   -0.00002573
     atom   18 type  2   force =    -0.00019350   -0.00015116   -0.00047648
     atom   19 type  1   force =    -0.00008025    0.00006366   -0.00009683
     atom   20 type  1   force =    -0.00008587   -0.00007708   -0.00016640
     atom   21 type  2   force =     0.00001244   -0.00001428    0.10403624
     atom   22 type  2   force =    -0.00001720    0.00037428    0.00074799
     atom   23 type  2   force =    -0.07039499   -0.00010088   -0.02688623
     atom   24 type  2   force =     0.07021022    0.00033013   -0.02694580
     atom   25 type  1   force =    -0.00000790   -0.00012291    0.09256486
     atom   26 type  1   force =    -0.00017970   -0.00039046   -0.17851916
     atom   27 type  2   force =     0.00009528   -0.00026643   -0.01916795
     atom   28 type  2   force =     0.00002801   -0.00176458    0.05850261
     atom   29 type  2   force =    -0.01089743   -0.00132817    0.00841984
     atom   30 type  2   force =     0.01235016   -0.00098909    0.00776920
     atom   31 type  1   force =    -0.00022594    0.00597862   -0.01474290
     atom   32 type  1   force =     0.00005896    0.00099050   -0.00535177
     atom   33 type  2   force =    -0.00030587    0.00024143    0.00014458
     atom   34 type  2   force =    -0.00022416   -0.00291125    0.00008582
     atom   35 type  2   force =     0.00060697    0.00021943   -0.00005406
     atom   36 type  2   force =    -0.00065595    0.00017891   -0.00028184
     atom   37 type  1   force =    -0.00054743   -0.00047835   -0.00008963
     atom   38 type  1   force =     0.00015936   -0.00050027    0.00011696
     atom   39 type  2   force =     0.00003116   -0.00024155    0.00034572
     atom   40 type  2   force =    -0.00000778    0.00045453   -0.00058764
     atom   41 type  2   force =    -0.00002880    0.00047988   -0.00016940
     atom   42 type  2   force =     0.00008417    0.00055658   -0.00012985
     atom   43 type  1   force =    -0.00010327    0.00031967   -0.00068931
     atom   44 type  1   force =    -0.00051063   -0.00024264    0.00009808
     atom   45 type  2   force =     0.00000329   -0.00002477    0.10400519
     atom   46 type  2   force =    -0.07037233   -0.00005416   -0.02685279
     atom   47 type  2   force =     0.07020597    0.00037436   -0.02690033
     atom   48 type  3   force =    -0.00074576   -0.00010304    0.00012099
     atom   49 type  4   force =     0.00518594   -0.01146372   -0.00161583
     atom   50 type  5   force =     0.00061992   -0.00045144   -0.00047305
     atom   51 type  5   force =    -0.00458168    0.01203350    0.00081841
     atom   52 type  5   force =     0.00051607   -0.00016945    0.00020071
     atom   53 type  5   force =     0.00047796    0.00115091   -0.00008515

     Total force =     0.366886     Total SCF correction =     0.001305
  @ DRIVER MODE: Message from server: STATUS
  @ DRIVER MODE: Message from server: GETFORCE
  @ DRIVER MODE: Returning v,forces,stress,ensemble 

     Writing output data file ./calc.save/
  @ DRIVER MODE: Message from server: EXIT
  @ DRIVE MODE: Exiting  
 
     init_run     :     14.63s CPU     15.19s WALL (       1 calls)
     electrons    :   1327.27s CPU   1349.56s WALL (       1 calls)
     forces       :      6.95s CPU      6.99s WALL (       1 calls)

     Called by init_run:
     wfcinit      :     10.14s CPU     10.28s WALL (       1 calls)
     potinit      :      2.59s CPU      2.62s WALL (       1 calls)
     hinit0       :      1.09s CPU      1.44s WALL (       1 calls)

     Called by electrons:
     c_bands      :   1050.98s CPU   1063.68s WALL (      92 calls)
     sum_band     :    171.14s CPU    174.48s WALL (      92 calls)
     v_of_rho     :     56.20s CPU     58.16s WALL (      93 calls)
     newd         :      6.53s CPU      6.68s WALL (      93 calls)
     mix_rho      :     39.23s CPU     43.11s WALL (      92 calls)
     vdW_kernel   :      1.10s CPU      1.11s WALL (       1 calls)

     Called by c_bands:
     init_us_2    :      1.22s CPU      1.33s WALL (    1860 calls)
     cegterg      :   1044.17s CPU   1056.40s WALL (     920 calls)

     Called by *egterg:
     cdiaghg      :    411.32s CPU    414.16s WALL (    9026 calls)
     h_psi        :    473.07s CPU    480.99s WALL (    9036 calls)
     s_psi        :     13.22s CPU     13.33s WALL (    9036 calls)
     g_psi        :      0.31s CPU      0.31s WALL (    8106 calls)

     Called by h_psi:
     h_psi:calbec :     23.13s CPU     23.55s WALL (    9036 calls)
     vloc_psi     :    434.85s CPU    442.17s WALL (    9036 calls)
     add_vuspsi   :     14.43s CPU     14.60s WALL (    9036 calls)

     General routines
     calbec       :     37.80s CPU     38.30s WALL (    9996 calls)
     fft          :     51.04s CPU     52.88s WALL (    5859 calls)
     ffts         :      1.05s CPU      1.05s WALL (     185 calls)
     fftw         :    584.88s CPU    595.11s WALL ( 1155264 calls)
     interpolate  :      1.91s CPU      1.92s WALL (      93 calls)
     davcio       :      0.00s CPU      0.05s WALL (      10 calls)
 
     Parallel routines
 
     PWSCF        :  22m46.10s CPU  23m27.43s WALL

 
   This run was terminated on:  17:37:57  24Aug2021            

=------------------------------------------------------------------------------=
   JOB DONE.
=------------------------------------------------------------------------------=
