
     Program PWSCF v.6.7GPU starts on 16Sep2021 at  2:49:12 

     This program is part of the open-source Quantum ESPRESSO suite
     for quantum simulation of materials; please cite
         "P. Giannozzi et al., J. Phys.:Condens. Matter 21 395502 (2009);
         "P. Giannozzi et al., J. Phys.:Condens. Matter 29 465901 (2017);
         "P. Giannozzi et al., J. Chem. Phys. 152 154105 (2020);
          URL http://www.quantum-espresso.org", 
     in publications or presentations arising from this work. More details at
     http://www.quantum-espresso.org/quote

     Parallel version (MPI), running on    10 processors

     MPI processes distributed on     1 nodes
     R & G space division:  proc/nbgrp/npool/nimage =      10
     Reading input from /storage/home/hcoda1/3/ntian30/research/carbon/CxH_vib/H2O_calc/ads_slab/CHNHH2O_a/out_0034/pw.inp
Warning: card &CELL ignored
Warning: card   CELL_DYNAMICS='IPI', ignored
Warning: card / ignored

     Current dimensions of program PWSCF are:
     Max number of different atomic species (ntypx) = 10
     Max number of k-points (npk) =  40000
     Max angular momentum in pseudopotentials (lmaxx) =  3
     Presently no symmetry can be used with electric field

     Message from routine cell_base_init:
     DEPRECATED: use true lattice parameter, not A to a.u. conversion factor

     **************************************************************************
     Initializing libbeef V0.1.2 with the BEEF-vdW functional.
     Citation: Wellendorff et al., PRB 85, 235149 (2012).
     **************************************************************************


     IMPORTANT: XC functional enforced from input :
     Exchange-correlation= BEEF-VDW
                           (   1   4  43  14   2   0   0)
     Any further DFT definition will be discarded
     Please, verify this is what you really want


     Subspace diagonalization in iterative solution of the eigenvalue problem:
     one sub-group per band group will be used
     scalapack distributed-memory algorithm (size of sub-group:  3*  3 procs)

  @ DRIVER MODE: Connecting to 
 qe_1139763_2852628.sched-torque.pace.gatech.edugt36uf2s_scratch
  using UNIX socket
  @ DRIVER MODE: Message from server: STATUS
  @ DRIVER MODE: Message from server: INIT
  @ DRIVER MODE: Receiving replica           0          -1
  @ DRIVER MODE: Receiving encoded integer          25
  @ DRIVER MODE:  SCF:  T  FORCE:  T  STRESS:  F  VC:  F  ENSEMBLE:  F
  @ DRIVER MODE:  SCF:  T  FORCE:  T  STRESS:  F  VC:  F  ENSEMBLE:  F
 
     Parallelization info
     --------------------
     sticks:   dense  smooth     PW     G-vecs:    dense   smooth      PW
     Min         327     131     37                56683    14340    2191
     Max         328     133     38                56694    14346    2206
     Sum        3275    1317    379               566857   143421   21985
 
     Using Slab Decomposition
 


     bravais-lattice index     =            0
     lattice parameter (alat)  =       1.8897  a.u.
     unit-cell volume          =    6658.9804 (a.u.)^3
     number of atoms/cell      =           54
     number of atomic types    =            5
     number of electrons       =       397.00
     number of Kohn-Sham states=          208
     kinetic-energy cutoff     =      29.3995  Ry
     charge density cutoff     =     293.9946  Ry
     scf convergence threshold =      7.3E-08
     mixing beta               =       0.0500
     number of iterations used =            8  plain     mixing
     Exchange-correlation= BEEF-VDW
                           (   1   4  43  14   2   0   0)

     celldm(1)=   1.889726  celldm(2)=   0.000000  celldm(3)=   0.000000
     celldm(4)=   0.000000  celldm(5)=   0.000000  celldm(6)=   0.000000

     crystal axes: (cart. coord. in units of alat)
               a(1) = (   6.579727   0.000000   0.000000 )  
               a(2) = (  -0.000775   5.961596   0.000000 )  
               a(3) = (   0.000000   0.000000  25.155947 )  

     reciprocal axes: (cart. coord. in units 2 pi/alat)
               b(1) = (  0.151982  0.000020  0.000000 )  
               b(2) = (  0.000000  0.167740  0.000000 )  
               b(3) = (  0.000000  0.000000  0.039752 )  


     PseudoPot. # 1 for Ti read from file:
     /storage/coda1/p-amedford6/0/shared/rich_project_chbe-medford/medford-share/data/pseudos_module/espresso/nninc/pbe/van/Ti.UPF
     MD5 check sum: 8e4df49b7f0d34bbd5052bf3f5ea0213
     Pseudo is Ultrasoft, Zval = 12.0
     Generated by new atomic code, or converted to UPF format
     Using radial grid of  851 points,  6 beta functions with: 
                l(1) =   0
                l(2) =   0
                l(3) =   1
                l(4) =   1
                l(5) =   2
                l(6) =   2
     Q(r) pseudized with  8 coefficients,  rinner =    1.000   1.000   1.000
                                                       1.000   1.000

     PseudoPot. # 2 for O  read from file:
     /storage/coda1/p-amedford6/0/shared/rich_project_chbe-medford/medford-share/data/pseudos_module/espresso/nninc/pbe/van/O.UPF
     MD5 check sum: 78c19812648e8988a0fe644b0f25305e
     Pseudo is Ultrasoft, Zval =  6.0
     Generated by new atomic code, or converted to UPF format
     Using radial grid of  737 points,  4 beta functions with: 
                l(1) =   0
                l(2) =   0
                l(3) =   1
                l(4) =   1
     Q(r) pseudized with  8 coefficients,  rinner =    0.800   0.800   0.800


     PseudoPot. # 3 for N  read from file:
     /storage/coda1/p-amedford6/0/shared/rich_project_chbe-medford/medford-share/data/pseudos_module/espresso/nninc/pbe/van/N.UPF
     MD5 check sum: 90d10febe142ad51ac9d5be1deb811c4
     Pseudo is Ultrasoft, Zval =  5.0
     Generated by new atomic code, or converted to UPF format
     Using radial grid of  729 points,  4 beta functions with: 
                l(1) =   0
                l(2) =   0
                l(3) =   1
                l(4) =   1
     Q(r) pseudized with  8 coefficients,  rinner =    0.800   0.800   0.800


     PseudoPot. # 4 for C  read from file:
     /storage/coda1/p-amedford6/0/shared/rich_project_chbe-medford/medford-share/data/pseudos_module/espresso/nninc/pbe/van/C.UPF
     MD5 check sum: 1a69bf6b8db32088f5b2163dbdb77a27
     Pseudo is Ultrasoft, Zval =  4.0
     Generated by new atomic code, or converted to UPF format
     Using radial grid of  721 points,  4 beta functions with: 
                l(1) =   0
                l(2) =   0
                l(3) =   1
                l(4) =   1
     Q(r) pseudized with  8 coefficients,  rinner =    0.800   0.800   0.800


     PseudoPot. # 5 for H  read from file:
     /storage/coda1/p-amedford6/0/shared/rich_project_chbe-medford/medford-share/data/pseudos_module/espresso/nninc/pbe/van/H.UPF
     MD5 check sum: b5ee9d7bfd3a09ee7748110bda690ff7
     Pseudo is Ultrasoft, Zval =  1.0
     Generated by new atomic code, or converted to UPF format
     Using radial grid of  615 points,  1 beta functions with: 
                l(1) =   0
     Q(r) pseudized with  8 coefficients,  rinner =    0.800

     atomic species   valence    mass     pseudopotential
        Ti1           12.00    47.86700     Ti( 1.00)
        O1             6.00    15.99900     O ( 1.00)
        N1             5.00    14.00700     N ( 1.00)
        C1             4.00    12.01100     C ( 1.00)
        H1             1.00     1.00800     H ( 1.00)

     No symmetry found



   Cartesian axes

     site n.     atom                  positions (alat units)
         1           Ti1 tau(   1) = (   0.0004258   2.9801865   6.0000000  )
         2           Ti1 tau(   2) = (   3.2906075   1.4906267   6.0002472  )
         3           O1  tau(   3) = (   0.0006271   0.0005054   7.9858123  )
         4           O1  tau(   4) = (   3.2906025   0.0005020   7.3038282  )
         5           O1  tau(   5) = (   4.5942328   1.4918067   9.2879030  )
         6           O1  tau(   6) = (   1.9868534   1.4903216   9.2879459  )
         7           Ti1 tau(   7) = (   3.2907910   2.8959150   9.1758416  )
         8           Ti1 tau(   8) = (   0.0015273   1.4827037   9.2680791  )
         9           O1  tau(   9) = (   3.2914171   5.9475995  11.3455371  )
        10           O1  tau(  10) = (   0.0116148   5.9584955  10.6183126  )
        11           O1  tau(  11) = (   1.3057669   1.4807986  12.6390077  )
        12           O1  tau(  12) = (   5.3035249   1.4749620  12.6227664  )
        13           Ti1 tau(  13) = (   6.5294082   2.9362577  12.6231083  )
        14           Ti1 tau(  14) = (   3.2175537   1.4615748  12.5070279  )
        15           O1  tau(  15) = (   6.5585639   5.9474800  14.6380151  )
        16           O1  tau(  16) = (   3.3125803   5.9531145  13.9695519  )
        17           O1  tau(  17) = (   4.5393379   1.5011389  16.1071157  )
        18           O1  tau(  18) = (   2.0094023   1.5044898  16.0307267  )
        19           Ti1 tau(  19) = (   3.2760958   2.9523363  15.6877793  )
        20           Ti1 tau(  20) = (   0.0277933   1.3451898  16.0452527  )
        21           O1  tau(  21) = (   3.2904802   0.0005063   4.7018136  )
        22           O1  tau(  22) = (   0.0198929   5.9263875  17.1601691  )
        23           O1  tau(  23) = (   1.3043587   1.4918075   6.0039043  )
        24           O1  tau(  24) = (   5.2767064   1.4903225   6.0039473  )
        25           Ti1 tau(  25) = (   0.0000382   5.9609847   6.0000000  )
        26           Ti1 tau(  26) = (   3.2902200   4.4714249   6.0002472  )
        27           O1  tau(  27) = (   0.0002396   2.9813036   7.9858123  )
        28           O1  tau(  28) = (   3.2902150   2.9813002   7.3038282  )
        29           O1  tau(  29) = (   4.5938453   4.4726049   9.2879030  )
        30           O1  tau(  30) = (   1.9864658   4.4711199   9.2879459  )
        31           Ti1 tau(  31) = (   3.2891106   5.8743827   9.1763621  )
        32           Ti1 tau(  32) = (   0.0006254   4.4649316   9.2693709  )
        33           O1  tau(  33) = (   3.2862706   2.9662616  11.3468726  )
        34           O1  tau(  34) = (   0.0092240   2.9805883  10.6323155  )
        35           O1  tau(  35) = (   1.3102706   4.4726941  12.6361575  )
        36           O1  tau(  36) = (   5.3014905   4.4644878  12.6181669  )
        37           Ti1 tau(  37) = (   6.5311680   5.9227251  12.5202533  )
        38           Ti1 tau(  38) = (   3.2191334   4.4553394  12.5017427  )
        39           O1  tau(  39) = (   6.5614274   2.9920157  14.6796082  )
        40           O1  tau(  40) = (   3.3146075   2.9603188  13.8993185  )
        41           O1  tau(  41) = (   4.5484517   4.4144432  16.0509510  )
        42           O1  tau(  42) = (   2.0146171   4.4214036  15.9967612  )
        43           Ti1 tau(  43) = (   3.3303817   5.9274347  15.8100502  )
        44           Ti1 tau(  44) = (   0.0273359   4.4939047  15.8144843  )
        45           O1  tau(  45) = (   3.2900926   2.9813045   4.7018136  )
        46           O1  tau(  46) = (   1.3039711   4.4726057   6.0039043  )
        47           O1  tau(  47) = (   5.2763189   4.4711207   6.0039473  )
        48           N1  tau(  48) = (   6.5134970   2.9613368  17.6459670  )
        49           C1  tau(  49) = (   0.7931072   3.0267964  18.6255283  )
        50           H1  tau(  50) = (   1.8307262   2.9311331  18.2395185  )
        51           H1  tau(  51) = (   5.5494773   3.0666896  17.9713127  )
        52           O1  tau(  52) = (   3.1855344   5.8058271  18.1612476  )
        53           H1  tau(  53) = (   3.8461454   0.3122996  18.7034462  )
        54           H1  tau(  54) = (   2.3120581   0.0053998  18.5533318  )

     number of k points=    10  Fermi-Dirac smearing, width (Ry)=  0.0073
                       cart. coord. in units 2pi/alat
        k(    1) = (   0.0000000   0.0000000   0.0000000), wk =   0.1250000
        k(    2) = (   0.0000000   0.0419351   0.0000000), wk =   0.2500000
        k(    3) = (   0.0000000  -0.0838702   0.0000000), wk =   0.1250000
        k(    4) = (   0.0379955   0.0000049   0.0000000), wk =   0.2500000
        k(    5) = (   0.0379955   0.0419400   0.0000000), wk =   0.2500000
        k(    6) = (   0.0379955  -0.0838652   0.0000000), wk =   0.2500000
        k(    7) = (   0.0379955  -0.0419301   0.0000000), wk =   0.2500000
        k(    8) = (  -0.0759910  -0.0000099   0.0000000), wk =   0.1250000
        k(    9) = (  -0.0759910   0.0419252   0.0000000), wk =   0.2500000
        k(   10) = (  -0.0759910  -0.0838800   0.0000000), wk =   0.1250000

     Dense  grid:   566857 G-vectors     FFT dimensions: (  72,  64, 270)

     Smooth grid:   143421 G-vectors     FFT dimensions: (  45,  40, 180)

     Estimated max dynamical RAM per process >     366.33 MB

     Estimated total dynamical RAM >       3.58 GB
     Cannot read rho : file not found

     Initial potential from superposition of free atoms

     starting charge  380.99916, renormalised to  397.00000

     negative rho (up, down):  1.755E-02 0.000E+00


     %%%%%%%%%%%%%%%%%%%%%%%%%%%%%%%%%%%%%%%%%%%%%%%%%%%%%%%%%%%%%%%%%%%%%%%%
     %                                                                      %
     % You are using vdW-DF, which was implemented by the Thonhauser group. %
     % Please cite the following two papers that made this development      %
     % possible and the two reviews that describe the various versions:     %
     %                                                                      %
     %   T. Thonhauser et al., PRL 115, 136402 (2015).                      %
     %   T. Thonhauser et al., PRB 76, 125112 (2007).                       %
     %   K. Berland et al., Rep. Prog. Phys. 78, 066501 (2015).             %
     %   D.C. Langreth et al., J. Phys.: Condens. Matter 21, 084203 (2009). %
     %                                                                      %
     %                                                                      %
     % If you are calculating the stress with vdW-DF, please also cite:     %
     %                                                                      %
     %   R. Sabatini et al., J. Phys.: Condens. Matter 24, 424209 (2012).   %
     %                                                                      %
     %%%%%%%%%%%%%%%%%%%%%%%%%%%%%%%%%%%%%%%%%%%%%%%%%%%%%%%%%%%%%%%%%%%%%%%%


 
     Adding external electric field

     Computed dipole along edir(3) : 
        Dipole               -9.1667 Ry au,        -23.2993 Debye
        Dipole field         -0.0173 Ry au, 
 
        Potential amp.        1.6036 Ry
        Total length         46.3494 bohr
 
     Starting wfcs are  300 atomic wfcs
  @ DRIVER MODE: Message from server: STATUS
  @ DRIVER MODE: Message from server: POSDATA
  @ DRIVER MODE: Reading and sharing cell 
  @ DRIVER MODE: Reading and sharing positions 
  @ DRIVER MODE: Received positions 

     total cpu time spent up to now is       11.1 secs

     Self-consistent Calculation

     iteration #  1     ecut=    29.40 Ry     beta= 0.05
     Davidson diagonalization with overlap
     c_bands:  1 eigenvalues not converged
     c_bands:  1 eigenvalues not converged
     c_bands:  1 eigenvalues not converged
     c_bands:  1 eigenvalues not converged
     c_bands:  1 eigenvalues not converged
     c_bands:  1 eigenvalues not converged
     c_bands:  1 eigenvalues not converged
     c_bands:  1 eigenvalues not converged
     c_bands:  1 eigenvalues not converged
     ethr =  1.00E-05,  avg # of iterations = 19.8

     negative rho (up, down):  1.297E-02 0.000E+00
 
     Adding external electric field

     Computed dipole along edir(3) : 
        Dipole               42.7665 Ry au,        108.7017 Debye
        Dipole field          0.0807 Ry au, 
 
        Potential amp.       -7.4814 Ry
        Total length         46.3494 bohr
 

     total cpu time spent up to now is       50.9 secs

     total energy              =   -2547.28071338 Ry
     estimated scf accuracy    <    4504.90340375 Ry

     iteration #  2     ecut=    29.40 Ry     beta= 0.05
     Davidson diagonalization with overlap
     ethr =  1.00E-02,  avg # of iterations = 26.0

     negative rho (up, down):  3.753E-03 0.000E+00
 
     Adding external electric field

     Computed dipole along edir(3) : 
        Dipole               -1.7579 Ry au,         -4.4680 Debye
        Dipole field         -0.0033 Ry au, 
 
        Potential amp.        0.3075 Ry
        Total length         46.3494 bohr
 

     total cpu time spent up to now is      122.4 secs

     total energy              =   -2482.21140967 Ry
     estimated scf accuracy    <   64384.47704725 Ry

     iteration #  3     ecut=    29.40 Ry     beta= 0.05
     Davidson diagonalization with overlap
     ethr =  1.00E-02,  avg # of iterations = 15.1

     negative rho (up, down):  3.826E-03 0.000E+00
 
     Adding external electric field

     Computed dipole along edir(3) : 
        Dipole               -4.1414 Ry au,        -10.5264 Debye
        Dipole field         -0.0078 Ry au, 
 
        Potential amp.        0.7245 Ry
        Total length         46.3494 bohr
 

     total cpu time spent up to now is      168.4 secs

     total energy              =   -2935.89724268 Ry
     estimated scf accuracy    <    4220.78944102 Ry

     iteration #  4     ecut=    29.40 Ry     beta= 0.05
     Davidson diagonalization with overlap
     c_bands:  1 eigenvalues not converged
     c_bands:  2 eigenvalues not converged
     c_bands:  4 eigenvalues not converged
     c_bands:  2 eigenvalues not converged
     ethr =  1.00E-02,  avg # of iterations = 16.0

     negative rho (up, down):  3.874E-03 0.000E+00
 
     Adding external electric field

     Computed dipole along edir(3) : 
        Dipole               -5.3926 Ry au,        -13.7066 Debye
        Dipole field         -0.0102 Ry au, 
 
        Potential amp.        0.9434 Ry
        Total length         46.3494 bohr
 

     total cpu time spent up to now is      188.3 secs

     total energy              =   -2942.56235860 Ry
     estimated scf accuracy    <    1133.21958492 Ry

     iteration #  5     ecut=    29.40 Ry     beta= 0.05
     Davidson diagonalization with overlap
     ethr =  1.00E-02,  avg # of iterations =  5.7

     negative rho (up, down):  3.910E-03 0.000E+00
 
     Adding external electric field

     Computed dipole along edir(3) : 
        Dipole               -6.2574 Ry au,        -15.9047 Debye
        Dipole field         -0.0118 Ry au, 
 
        Potential amp.        1.0946 Ry
        Total length         46.3494 bohr
 

     total cpu time spent up to now is      200.3 secs

     total energy              =   -2939.34530582 Ry
     estimated scf accuracy    <     681.39774038 Ry

     iteration #  6     ecut=    29.40 Ry     beta= 0.05
     Davidson diagonalization with overlap
     ethr =  1.00E-02,  avg # of iterations =  6.9

     negative rho (up, down):  3.897E-03 0.000E+00
 
     Adding external electric field

     Computed dipole along edir(3) : 
        Dipole               -5.9221 Ry au,        -15.0526 Debye
        Dipole field         -0.0112 Ry au, 
 
        Potential amp.        1.0360 Ry
        Total length         46.3494 bohr
 

     total cpu time spent up to now is      214.7 secs

     total energy              =   -2949.26077073 Ry
     estimated scf accuracy    <     137.80949082 Ry

     iteration #  7     ecut=    29.40 Ry     beta= 0.05
     Davidson diagonalization with overlap
     ethr =  1.00E-02,  avg # of iterations =  4.7

     negative rho (up, down):  3.863E-03 0.000E+00
 
     Adding external electric field

     Computed dipole along edir(3) : 
        Dipole               -5.5077 Ry au,        -13.9993 Debye
        Dipole field         -0.0104 Ry au, 
 
        Potential amp.        0.9635 Ry
        Total length         46.3494 bohr
 

     total cpu time spent up to now is      226.4 secs

     total energy              =   -2953.83881109 Ry
     estimated scf accuracy    <      23.33213292 Ry

     iteration #  8     ecut=    29.40 Ry     beta= 0.05
     Davidson diagonalization with overlap
     ethr =  5.88E-03,  avg # of iterations =  3.8

     negative rho (up, down):  3.860E-03 0.000E+00
 
     Adding external electric field

     Computed dipole along edir(3) : 
        Dipole               -4.8671 Ry au,        -12.3708 Debye
        Dipole field         -0.0092 Ry au, 
 
        Potential amp.        0.8514 Ry
        Total length         46.3494 bohr
 

     total cpu time spent up to now is      237.6 secs

     total energy              =   -2955.45603586 Ry
     estimated scf accuracy    <      15.84744276 Ry

     iteration #  9     ecut=    29.40 Ry     beta= 0.05
     Davidson diagonalization with overlap
     ethr =  3.99E-03,  avg # of iterations =  1.0

     negative rho (up, down):  4.154E-03 0.000E+00
 
     Adding external electric field

     Computed dipole along edir(3) : 
        Dipole               -2.5151 Ry au,         -6.3927 Debye
        Dipole field         -0.0047 Ry au, 
 
        Potential amp.        0.4400 Ry
        Total length         46.3494 bohr
 

     total cpu time spent up to now is      247.4 secs

     total energy              =   -2955.33964809 Ry
     estimated scf accuracy    <      15.70097464 Ry

     iteration # 10     ecut=    29.40 Ry     beta= 0.05
     Davidson diagonalization with overlap
     c_bands:  1 eigenvalues not converged
     ethr =  3.95E-03,  avg # of iterations =  6.5

     negative rho (up, down):  4.671E-03 0.000E+00
 
     Adding external electric field

     Computed dipole along edir(3) : 
        Dipole                1.9673 Ry au,          5.0005 Debye
        Dipole field          0.0037 Ry au, 
 
        Potential amp.       -0.3442 Ry
        Total length         46.3494 bohr
 

     total cpu time spent up to now is      259.1 secs

     total energy              =   -2971.30011521 Ry
     estimated scf accuracy    <     268.57967621 Ry

     iteration # 11     ecut=    29.40 Ry     beta= 0.05
     Davidson diagonalization with overlap
     c_bands:  3 eigenvalues not converged
     ethr =  3.95E-03,  avg # of iterations = 18.4

     negative rho (up, down):  4.514E-03 0.000E+00
 
     Adding external electric field

     Computed dipole along edir(3) : 
        Dipole                0.1028 Ry au,          0.2613 Debye
        Dipole field          0.0002 Ry au, 
 
        Potential amp.       -0.0180 Ry
        Total length         46.3494 bohr
 

     total cpu time spent up to now is      280.6 secs

     total energy              =   -2955.43002639 Ry
     estimated scf accuracy    <    2929.53463592 Ry

     iteration # 12     ecut=    29.40 Ry     beta= 0.05
     Davidson diagonalization with overlap
     ethr =  3.95E-03,  avg # of iterations =  7.3

     negative rho (up, down):  4.725E-03 0.000E+00
 
     Adding external electric field

     Computed dipole along edir(3) : 
        Dipole               -1.0688 Ry au,         -2.7166 Debye
        Dipole field         -0.0020 Ry au, 
 
        Potential amp.        0.1870 Ry
        Total length         46.3494 bohr
 

     total cpu time spent up to now is      295.9 secs

     total energy              =   -2946.26209055 Ry
     estimated scf accuracy    <    1667.97816244 Ry

     iteration # 13     ecut=    29.40 Ry     beta= 0.05
     Davidson diagonalization with overlap
     c_bands:  3 eigenvalues not converged
     c_bands:  3 eigenvalues not converged
     c_bands:  4 eigenvalues not converged
     c_bands:  2 eigenvalues not converged
     ethr =  3.95E-03,  avg # of iterations = 15.4

     negative rho (up, down):  4.454E-03 0.000E+00
 
     Adding external electric field

     Computed dipole along edir(3) : 
        Dipole               -2.0205 Ry au,         -5.1356 Debye
        Dipole field         -0.0038 Ry au, 
 
        Potential amp.        0.3535 Ry
        Total length         46.3494 bohr
 

     total cpu time spent up to now is      313.9 secs

     total energy              =   -2948.58464287 Ry
     estimated scf accuracy    <     393.86937112 Ry

     iteration # 14     ecut=    29.40 Ry     beta= 0.05
     Davidson diagonalization with overlap
     c_bands:  1 eigenvalues not converged
     c_bands:  2 eigenvalues not converged
     c_bands:  1 eigenvalues not converged
     ethr =  3.95E-03,  avg # of iterations = 11.1

     negative rho (up, down):  4.474E-03 0.000E+00
 
     Adding external electric field

     Computed dipole along edir(3) : 
        Dipole               -2.2107 Ry au,         -5.6190 Debye
        Dipole field         -0.0042 Ry au, 
 
        Potential amp.        0.3867 Ry
        Total length         46.3494 bohr
 

     total cpu time spent up to now is      329.0 secs

     total energy              =   -2951.97879085 Ry
     estimated scf accuracy    <      39.11910747 Ry

     iteration # 15     ecut=    29.40 Ry     beta= 0.05
     Davidson diagonalization with overlap
     ethr =  3.95E-03,  avg # of iterations =  2.4

     negative rho (up, down):  4.722E-03 0.000E+00
 
     Adding external electric field

     Computed dipole along edir(3) : 
        Dipole               -2.2296 Ry au,         -5.6670 Debye
        Dipole field         -0.0042 Ry au, 
 
        Potential amp.        0.3900 Ry
        Total length         46.3494 bohr
 

     total cpu time spent up to now is      339.4 secs

     total energy              =   -2951.81303735 Ry
     estimated scf accuracy    <      32.84129676 Ry

     iteration # 16     ecut=    29.40 Ry     beta= 0.05
     Davidson diagonalization with overlap
     ethr =  3.95E-03,  avg # of iterations =  3.0

     negative rho (up, down):  5.392E-03 0.000E+00
 
     Adding external electric field

     Computed dipole along edir(3) : 
        Dipole               -3.2539 Ry au,         -8.2706 Debye
        Dipole field         -0.0061 Ry au, 
 
        Potential amp.        0.5692 Ry
        Total length         46.3494 bohr
 

     total cpu time spent up to now is      349.9 secs

     total energy              =   -2950.21957614 Ry
     estimated scf accuracy    <      22.17007923 Ry

     iteration # 17     ecut=    29.40 Ry     beta= 0.05
     Davidson diagonalization with overlap
     ethr =  3.95E-03,  avg # of iterations = 13.2

     negative rho (up, down):  5.344E-03 0.000E+00
 
     Adding external electric field

     Computed dipole along edir(3) : 
        Dipole               -2.4742 Ry au,         -6.2889 Debye
        Dipole field         -0.0047 Ry au, 
 
        Potential amp.        0.4328 Ry
        Total length         46.3494 bohr
 

     total cpu time spent up to now is      367.5 secs

     total energy              =   -2952.79297159 Ry
     estimated scf accuracy    <      32.08933186 Ry

     iteration # 18     ecut=    29.40 Ry     beta= 0.05
     Davidson diagonalization with overlap
     ethr =  3.95E-03,  avg # of iterations =  1.1

     negative rho (up, down):  5.375E-03 0.000E+00
 
     Adding external electric field

     Computed dipole along edir(3) : 
        Dipole               -2.3894 Ry au,         -6.0732 Debye
        Dipole field         -0.0045 Ry au, 
 
        Potential amp.        0.4180 Ry
        Total length         46.3494 bohr
 

     total cpu time spent up to now is      377.4 secs

     total energy              =   -2953.03849113 Ry
     estimated scf accuracy    <      14.59119969 Ry

     iteration # 19     ecut=    29.40 Ry     beta= 0.05
     Davidson diagonalization with overlap
     ethr =  3.68E-03,  avg # of iterations =  1.0

     negative rho (up, down):  5.113E-03 0.000E+00
 
     Adding external electric field

     Computed dipole along edir(3) : 
        Dipole               -3.4903 Ry au,         -8.8713 Debye
        Dipole field         -0.0066 Ry au, 
 
        Potential amp.        0.6106 Ry
        Total length         46.3494 bohr
 

     total cpu time spent up to now is      387.1 secs

     total energy              =   -2953.64856057 Ry
     estimated scf accuracy    <      14.49268617 Ry

     iteration # 20     ecut=    29.40 Ry     beta= 0.05
     Davidson diagonalization with overlap
     ethr =  3.65E-03,  avg # of iterations =  1.0

     negative rho (up, down):  4.828E-03 0.000E+00
 
     Adding external electric field

     Computed dipole along edir(3) : 
        Dipole               -4.1294 Ry au,        -10.4958 Debye
        Dipole field         -0.0078 Ry au, 
 
        Potential amp.        0.7224 Ry
        Total length         46.3494 bohr
 

     total cpu time spent up to now is      396.9 secs

     total energy              =   -2954.11431969 Ry
     estimated scf accuracy    <      17.34818319 Ry

     iteration # 21     ecut=    29.40 Ry     beta= 0.05
     Davidson diagonalization with overlap
     ethr =  3.65E-03,  avg # of iterations =  2.4

     negative rho (up, down):  4.595E-03 0.000E+00
 
     Adding external electric field

     Computed dipole along edir(3) : 
        Dipole               -2.4371 Ry au,         -6.1945 Debye
        Dipole field         -0.0046 Ry au, 
 
        Potential amp.        0.4263 Ry
        Total length         46.3494 bohr
 

     total cpu time spent up to now is      407.2 secs

     total energy              =   -2952.25564152 Ry
     estimated scf accuracy    <      47.57900193 Ry

     iteration # 22     ecut=    29.40 Ry     beta= 0.05
     Davidson diagonalization with overlap
     ethr =  3.65E-03,  avg # of iterations =  1.3

     negative rho (up, down):  4.068E-03 0.000E+00
 
     Adding external electric field

     Computed dipole along edir(3) : 
        Dipole               -1.5181 Ry au,         -3.8586 Debye
        Dipole field         -0.0029 Ry au, 
 
        Potential amp.        0.2656 Ry
        Total length         46.3494 bohr
 

     total cpu time spent up to now is      417.2 secs

     total energy              =   -2952.49422459 Ry
     estimated scf accuracy    <      13.93890040 Ry

     iteration # 23     ecut=    29.40 Ry     beta= 0.05
     Davidson diagonalization with overlap
     ethr =  3.51E-03,  avg # of iterations =  5.5

     negative rho (up, down):  4.195E-03 0.000E+00
 
     Adding external electric field

     Computed dipole along edir(3) : 
        Dipole               -2.3799 Ry au,         -6.0492 Debye
        Dipole field         -0.0045 Ry au, 
 
        Potential amp.        0.4163 Ry
        Total length         46.3494 bohr
 

     total cpu time spent up to now is      428.6 secs

     total energy              =   -2952.93701216 Ry
     estimated scf accuracy    <       3.67663942 Ry

     iteration # 24     ecut=    29.40 Ry     beta= 0.05
     Davidson diagonalization with overlap
     c_bands:  3 eigenvalues not converged
     c_bands:  1 eigenvalues not converged
     ethr =  9.26E-04,  avg # of iterations =  6.1

     negative rho (up, down):  4.323E-03 0.000E+00
 
     Adding external electric field

     Computed dipole along edir(3) : 
        Dipole               -2.0246 Ry au,         -5.1459 Debye
        Dipole field         -0.0038 Ry au, 
 
        Potential amp.        0.3542 Ry
        Total length         46.3494 bohr
 

     total cpu time spent up to now is      440.5 secs

     total energy              =   -2952.90154453 Ry
     estimated scf accuracy    <       7.64202184 Ry

     iteration # 25     ecut=    29.40 Ry     beta= 0.05
     Davidson diagonalization with overlap
     ethr =  9.26E-04,  avg # of iterations =  1.6

     negative rho (up, down):  5.296E-03 0.000E+00
 
     Adding external electric field

     Computed dipole along edir(3) : 
        Dipole               -0.3820 Ry au,         -0.9710 Debye
        Dipole field         -0.0007 Ry au, 
 
        Potential amp.        0.0668 Ry
        Total length         46.3494 bohr
 

     total cpu time spent up to now is      450.5 secs

     total energy              =   -2952.22835458 Ry
     estimated scf accuracy    <       6.46687015 Ry

     iteration # 26     ecut=    29.40 Ry     beta= 0.05
     Davidson diagonalization with overlap
     c_bands:  4 eigenvalues not converged
     c_bands:  4 eigenvalues not converged
     c_bands:  4 eigenvalues not converged
     c_bands:  3 eigenvalues not converged
     c_bands:  1 eigenvalues not converged
     ethr =  9.26E-04,  avg # of iterations = 17.0

     negative rho (up, down):  5.900E-03 0.000E+00
 
     Adding external electric field

     Computed dipole along edir(3) : 
        Dipole               -0.5557 Ry au,         -1.4125 Debye
        Dipole field         -0.0010 Ry au, 
 
        Potential amp.        0.0972 Ry
        Total length         46.3494 bohr
 

     total cpu time spent up to now is      467.3 secs

     total energy              =   -2952.62567743 Ry
     estimated scf accuracy    <       1.28854640 Ry

     iteration # 27     ecut=    29.40 Ry     beta= 0.05
     Davidson diagonalization with overlap
     c_bands:  2 eigenvalues not converged
     ethr =  3.25E-04,  avg # of iterations = 13.1

     negative rho (up, down):  5.506E-03 0.000E+00
 
     Adding external electric field

     Computed dipole along edir(3) : 
        Dipole               -1.0980 Ry au,         -2.7909 Debye
        Dipole field         -0.0021 Ry au, 
 
        Potential amp.        0.1921 Ry
        Total length         46.3494 bohr
 

     total cpu time spent up to now is      482.6 secs

     total energy              =   -2952.79100137 Ry
     estimated scf accuracy    <      11.37625477 Ry

     iteration # 28     ecut=    29.40 Ry     beta= 0.05
     Davidson diagonalization with overlap
     ethr =  3.25E-04,  avg # of iterations =  2.0

     negative rho (up, down):  5.952E-03 0.000E+00
 
     Adding external electric field

     Computed dipole along edir(3) : 
        Dipole               -0.3394 Ry au,         -0.8626 Debye
        Dipole field         -0.0006 Ry au, 
 
        Potential amp.        0.0594 Ry
        Total length         46.3494 bohr
 

     total cpu time spent up to now is      492.7 secs

     total energy              =   -2952.76386271 Ry
     estimated scf accuracy    <      11.36356333 Ry

     iteration # 29     ecut=    29.40 Ry     beta= 0.05
     Davidson diagonalization with overlap
     ethr =  3.25E-04,  avg # of iterations =  4.9

     negative rho (up, down):  5.739E-03 0.000E+00
 
     Adding external electric field

     Computed dipole along edir(3) : 
        Dipole               -0.2527 Ry au,         -0.6424 Debye
        Dipole field         -0.0005 Ry au, 
 
        Potential amp.        0.0442 Ry
        Total length         46.3494 bohr
 

     total cpu time spent up to now is      504.0 secs

     total energy              =   -2952.76426086 Ry
     estimated scf accuracy    <       7.34328846 Ry

     iteration # 30     ecut=    29.40 Ry     beta= 0.05
     Davidson diagonalization with overlap
     ethr =  3.25E-04,  avg # of iterations =  6.1

     negative rho (up, down):  5.502E-03 0.000E+00
 
     Adding external electric field

     Computed dipole along edir(3) : 
        Dipole               -0.1705 Ry au,         -0.4335 Debye
        Dipole field         -0.0003 Ry au, 
 
        Potential amp.        0.0298 Ry
        Total length         46.3494 bohr
 

     total cpu time spent up to now is      515.5 secs

     total energy              =   -2952.70385400 Ry
     estimated scf accuracy    <       4.99626003 Ry

     iteration # 31     ecut=    29.40 Ry     beta= 0.05
     Davidson diagonalization with overlap
     ethr =  3.25E-04,  avg # of iterations =  6.0

     negative rho (up, down):  5.111E-03 0.000E+00
 
     Adding external electric field

     Computed dipole along edir(3) : 
        Dipole               -0.6694 Ry au,         -1.7013 Debye
        Dipole field         -0.0013 Ry au, 
 
        Potential amp.        0.1171 Ry
        Total length         46.3494 bohr
 

     total cpu time spent up to now is      527.1 secs

     total energy              =   -2952.67825280 Ry
     estimated scf accuracy    <       1.59480593 Ry

     iteration # 32     ecut=    29.40 Ry     beta= 0.05
     Davidson diagonalization with overlap
     ethr =  3.25E-04,  avg # of iterations =  1.9

     negative rho (up, down):  4.851E-03 0.000E+00
 
     Adding external electric field

     Computed dipole along edir(3) : 
        Dipole               -0.6146 Ry au,         -1.5621 Debye
        Dipole field         -0.0012 Ry au, 
 
        Potential amp.        0.1075 Ry
        Total length         46.3494 bohr
 

     total cpu time spent up to now is      537.6 secs

     total energy              =   -2952.64831770 Ry
     estimated scf accuracy    <       1.05369709 Ry

     iteration # 33     ecut=    29.40 Ry     beta= 0.05
     Davidson diagonalization with overlap
     ethr =  2.65E-04,  avg # of iterations =  5.2

     negative rho (up, down):  4.913E-03 0.000E+00
 
     Adding external electric field

     Computed dipole along edir(3) : 
        Dipole               -0.7376 Ry au,         -1.8748 Debye
        Dipole field         -0.0014 Ry au, 
 
        Potential amp.        0.1290 Ry
        Total length         46.3494 bohr
 

     total cpu time spent up to now is      549.1 secs

     total energy              =   -2952.67961189 Ry
     estimated scf accuracy    <       0.55743510 Ry

     iteration # 34     ecut=    29.40 Ry     beta= 0.05
     Davidson diagonalization with overlap
     ethr =  1.40E-04,  avg # of iterations =  2.4

     negative rho (up, down):  4.928E-03 0.000E+00
 
     Adding external electric field

     Computed dipole along edir(3) : 
        Dipole               -0.5702 Ry au,         -1.4492 Debye
        Dipole field         -0.0011 Ry au, 
 
        Potential amp.        0.0997 Ry
        Total length         46.3494 bohr
 

     total cpu time spent up to now is      559.4 secs

     total energy              =   -2952.68743597 Ry
     estimated scf accuracy    <       0.53523686 Ry

     iteration # 35     ecut=    29.40 Ry     beta= 0.05
     Davidson diagonalization with overlap
     ethr =  1.35E-04,  avg # of iterations =  1.4

     negative rho (up, down):  4.770E-03 0.000E+00
 
     Adding external electric field

     Computed dipole along edir(3) : 
        Dipole               -0.1465 Ry au,         -0.3725 Debye
        Dipole field         -0.0003 Ry au, 
 
        Potential amp.        0.0256 Ry
        Total length         46.3494 bohr
 

     total cpu time spent up to now is      569.5 secs

     total energy              =   -2952.65261991 Ry
     estimated scf accuracy    <       0.52803866 Ry

     iteration # 36     ecut=    29.40 Ry     beta= 0.05
     Davidson diagonalization with overlap
     c_bands:  2 eigenvalues not converged
     c_bands:  5 eigenvalues not converged
     c_bands:  3 eigenvalues not converged
     c_bands:  2 eigenvalues not converged
     c_bands:  4 eigenvalues not converged
     c_bands:  2 eigenvalues not converged
     c_bands:  3 eigenvalues not converged
     c_bands:  2 eigenvalues not converged
     c_bands:  3 eigenvalues not converged
     ethr =  1.33E-04,  avg # of iterations = 19.7

     negative rho (up, down):  5.268E-03 0.000E+00
 
     Adding external electric field

     Computed dipole along edir(3) : 
        Dipole                0.1949 Ry au,          0.4954 Debye
        Dipole field          0.0004 Ry au, 
 
        Potential amp.       -0.0341 Ry
        Total length         46.3494 bohr
 

     total cpu time spent up to now is      587.6 secs

     total energy              =   -2952.62581412 Ry
     estimated scf accuracy    <       0.78380185 Ry

     iteration # 37     ecut=    29.40 Ry     beta= 0.05
     Davidson diagonalization with overlap
     ethr =  1.33E-04,  avg # of iterations = 10.4

     negative rho (up, down):  5.638E-03 0.000E+00
 
     Adding external electric field

     Computed dipole along edir(3) : 
        Dipole                0.6038 Ry au,          1.5347 Debye
        Dipole field          0.0011 Ry au, 
 
        Potential amp.       -0.1056 Ry
        Total length         46.3494 bohr
 

     total cpu time spent up to now is      600.4 secs

     total energy              =   -2952.62406204 Ry
     estimated scf accuracy    <       0.39938892 Ry

     iteration # 38     ecut=    29.40 Ry     beta= 0.05
     Davidson diagonalization with overlap
     c_bands:  2 eigenvalues not converged
     c_bands:  1 eigenvalues not converged
     c_bands:  2 eigenvalues not converged
     c_bands:  3 eigenvalues not converged
     ethr =  1.01E-04,  avg # of iterations = 17.2

     negative rho (up, down):  5.876E-03 0.000E+00
 
     Adding external electric field

     Computed dipole along edir(3) : 
        Dipole                0.6524 Ry au,          1.6582 Debye
        Dipole field          0.0012 Ry au, 
 
        Potential amp.       -0.1141 Ry
        Total length         46.3494 bohr
 

     total cpu time spent up to now is      617.2 secs

     total energy              =   -2952.64975841 Ry
     estimated scf accuracy    <       1.13110979 Ry

     iteration # 39     ecut=    29.40 Ry     beta= 0.05
     Davidson diagonalization with overlap
     ethr =  1.01E-04,  avg # of iterations =  3.1

     negative rho (up, down):  5.956E-03 0.000E+00
 
     Adding external electric field

     Computed dipole along edir(3) : 
        Dipole                0.4868 Ry au,          1.2374 Debye
        Dipole field          0.0009 Ry au, 
 
        Potential amp.       -0.0852 Ry
        Total length         46.3494 bohr
 

     total cpu time spent up to now is      628.2 secs

     total energy              =   -2952.63607829 Ry
     estimated scf accuracy    <       1.16260810 Ry

     iteration # 40     ecut=    29.40 Ry     beta= 0.05
     Davidson diagonalization with overlap
     ethr =  1.01E-04,  avg # of iterations =  1.0

     negative rho (up, down):  6.038E-03 0.000E+00
 
     Adding external electric field

     Computed dipole along edir(3) : 
        Dipole                0.2406 Ry au,          0.6114 Debye
        Dipole field          0.0005 Ry au, 
 
        Potential amp.       -0.0421 Ry
        Total length         46.3494 bohr
 

     total cpu time spent up to now is      637.9 secs

     total energy              =   -2952.61623201 Ry
     estimated scf accuracy    <       0.94621824 Ry

     iteration # 41     ecut=    29.40 Ry     beta= 0.05
     Davidson diagonalization with overlap
     ethr =  1.01E-04,  avg # of iterations = 10.3

     negative rho (up, down):  5.882E-03 0.000E+00
 
     Adding external electric field

     Computed dipole along edir(3) : 
        Dipole                0.2148 Ry au,          0.5459 Debye
        Dipole field          0.0004 Ry au, 
 
        Potential amp.       -0.0376 Ry
        Total length         46.3494 bohr
 

     total cpu time spent up to now is      651.2 secs

     total energy              =   -2952.61872305 Ry
     estimated scf accuracy    <       0.18888751 Ry

     iteration # 42     ecut=    29.40 Ry     beta= 0.05
     Davidson diagonalization with overlap
     c_bands:  1 eigenvalues not converged
     ethr =  4.76E-05,  avg # of iterations =  6.8

     negative rho (up, down):  6.094E-03 0.000E+00
 
     Adding external electric field

     Computed dipole along edir(3) : 
        Dipole                0.5322 Ry au,          1.3528 Debye
        Dipole field          0.0010 Ry au, 
 
        Potential amp.       -0.0931 Ry
        Total length         46.3494 bohr
 

     total cpu time spent up to now is      663.0 secs

     total energy              =   -2952.61750743 Ry
     estimated scf accuracy    <       0.34685512 Ry

     iteration # 43     ecut=    29.40 Ry     beta= 0.05
     Davidson diagonalization with overlap
     c_bands:  1 eigenvalues not converged
     c_bands:  2 eigenvalues not converged
     c_bands:  2 eigenvalues not converged
     c_bands:  1 eigenvalues not converged
     c_bands:  1 eigenvalues not converged
     ethr =  4.76E-05,  avg # of iterations = 17.4

     negative rho (up, down):  6.323E-03 0.000E+00
 
     Adding external electric field

     Computed dipole along edir(3) : 
        Dipole                0.2731 Ry au,          0.6942 Debye
        Dipole field          0.0005 Ry au, 
 
        Potential amp.       -0.0478 Ry
        Total length         46.3494 bohr
 

     total cpu time spent up to now is      681.0 secs

     total energy              =   -2952.60195039 Ry
     estimated scf accuracy    <       0.84192975 Ry

     iteration # 44     ecut=    29.40 Ry     beta= 0.05
     Davidson diagonalization with overlap
     c_bands:  1 eigenvalues not converged
     c_bands:  2 eigenvalues not converged
     c_bands:  1 eigenvalues not converged
     ethr =  4.76E-05,  avg # of iterations = 12.0

     negative rho (up, down):  7.120E-03 0.000E+00
 
     Adding external electric field

     Computed dipole along edir(3) : 
        Dipole                0.2417 Ry au,          0.6144 Debye
        Dipole field          0.0005 Ry au, 
 
        Potential amp.       -0.0423 Ry
        Total length         46.3494 bohr
 

     total cpu time spent up to now is      695.4 secs

     total energy              =   -2952.60727641 Ry
     estimated scf accuracy    <       0.22832893 Ry

     iteration # 45     ecut=    29.40 Ry     beta= 0.05
     Davidson diagonalization with overlap
     c_bands:  2 eigenvalues not converged
     c_bands:  3 eigenvalues not converged
     c_bands:  3 eigenvalues not converged
     c_bands:  1 eigenvalues not converged
     c_bands:  1 eigenvalues not converged
     c_bands:  3 eigenvalues not converged
     c_bands:  3 eigenvalues not converged
     c_bands:  2 eigenvalues not converged
     ethr =  4.76E-05,  avg # of iterations = 18.8

     negative rho (up, down):  6.683E-03 0.000E+00
 
     Adding external electric field

     Computed dipole along edir(3) : 
        Dipole                0.3756 Ry au,          0.9546 Debye
        Dipole field          0.0007 Ry au, 
 
        Potential amp.       -0.0657 Ry
        Total length         46.3494 bohr
 

     total cpu time spent up to now is      713.7 secs

     total energy              =   -2952.60236697 Ry
     estimated scf accuracy    <       0.07892985 Ry

     iteration # 46     ecut=    29.40 Ry     beta= 0.05
     Davidson diagonalization with overlap
     c_bands:  2 eigenvalues not converged
     c_bands:  3 eigenvalues not converged
     c_bands:  1 eigenvalues not converged
     c_bands:  1 eigenvalues not converged
     c_bands:  3 eigenvalues not converged
     ethr =  1.99E-05,  avg # of iterations = 18.3

     negative rho (up, down):  7.574E-03 0.000E+00
 
     Adding external electric field

     Computed dipole along edir(3) : 
        Dipole                0.3589 Ry au,          0.9122 Debye
        Dipole field          0.0007 Ry au, 
 
        Potential amp.       -0.0628 Ry
        Total length         46.3494 bohr
 

     total cpu time spent up to now is      733.0 secs

     total energy              =   -2952.62096979 Ry
     estimated scf accuracy    <       0.37461054 Ry

     iteration # 47     ecut=    29.40 Ry     beta= 0.05
     Davidson diagonalization with overlap
     ethr =  1.99E-05,  avg # of iterations =  4.6

     negative rho (up, down):  9.918E-03 0.000E+00
 
     Adding external electric field

     Computed dipole along edir(3) : 
        Dipole                0.3272 Ry au,          0.8316 Debye
        Dipole field          0.0006 Ry au, 
 
        Potential amp.       -0.0572 Ry
        Total length         46.3494 bohr
 

     total cpu time spent up to now is      744.2 secs

     total energy              =   -2952.60778739 Ry
     estimated scf accuracy    <       0.28962734 Ry

     iteration # 48     ecut=    29.40 Ry     beta= 0.05
     Davidson diagonalization with overlap
     c_bands:  1 eigenvalues not converged
     c_bands:  1 eigenvalues not converged
     c_bands:  2 eigenvalues not converged
     c_bands:  1 eigenvalues not converged
     ethr =  1.99E-05,  avg # of iterations = 14.7

     negative rho (up, down):  1.048E-02 0.000E+00
 
     Adding external electric field

     Computed dipole along edir(3) : 
        Dipole                0.2872 Ry au,          0.7300 Debye
        Dipole field          0.0005 Ry au, 
 
        Potential amp.       -0.0502 Ry
        Total length         46.3494 bohr
 

     total cpu time spent up to now is      759.5 secs

     total energy              =   -2952.61505329 Ry
     estimated scf accuracy    <       0.00905877 Ry

     iteration # 49     ecut=    29.40 Ry     beta= 0.05
     Davidson diagonalization with overlap
     c_bands:  2 eigenvalues not converged
     c_bands:  4 eigenvalues not converged
     c_bands:  2 eigenvalues not converged
     c_bands:  2 eigenvalues not converged
     c_bands:  4 eigenvalues not converged
     c_bands:  3 eigenvalues not converged
     c_bands:  4 eigenvalues not converged
     c_bands:  3 eigenvalues not converged
     c_bands:  1 eigenvalues not converged
     c_bands:  1 eigenvalues not converged
     ethr =  2.28E-06,  avg # of iterations = 20.0

     negative rho (up, down):  1.049E-02 0.000E+00
 
     Adding external electric field

     Computed dipole along edir(3) : 
        Dipole                0.3312 Ry au,          0.8419 Debye
        Dipole field          0.0006 Ry au, 
 
        Potential amp.       -0.0579 Ry
        Total length         46.3494 bohr
 

     total cpu time spent up to now is      780.9 secs

     total energy              =   -2952.61597396 Ry
     estimated scf accuracy    <       0.06607974 Ry

     iteration # 50     ecut=    29.40 Ry     beta= 0.05
     Davidson diagonalization with overlap
     c_bands:  1 eigenvalues not converged
     c_bands:  2 eigenvalues not converged
     ethr =  2.28E-06,  avg # of iterations = 13.5

     negative rho (up, down):  1.146E-02 0.000E+00
 
     Adding external electric field

     Computed dipole along edir(3) : 
        Dipole                0.3809 Ry au,          0.9682 Debye
        Dipole field          0.0007 Ry au, 
 
        Potential amp.       -0.0666 Ry
        Total length         46.3494 bohr
 

     total cpu time spent up to now is      794.5 secs

     total energy              =   -2952.61469426 Ry
     estimated scf accuracy    <       0.01974751 Ry

     iteration # 51     ecut=    29.40 Ry     beta= 0.05
     Davidson diagonalization with overlap
     c_bands:  1 eigenvalues not converged
     c_bands:  1 eigenvalues not converged
     c_bands:  3 eigenvalues not converged
     c_bands:  3 eigenvalues not converged
     ethr =  2.28E-06,  avg # of iterations = 17.7

     negative rho (up, down):  1.322E-02 0.000E+00
 
     Adding external electric field

     Computed dipole along edir(3) : 
        Dipole                0.3946 Ry au,          1.0029 Debye
        Dipole field          0.0007 Ry au, 
 
        Potential amp.       -0.0690 Ry
        Total length         46.3494 bohr
 

     total cpu time spent up to now is      811.2 secs

     total energy              =   -2952.61541674 Ry
     estimated scf accuracy    <       0.00425941 Ry

     iteration # 52     ecut=    29.40 Ry     beta= 0.05
     Davidson diagonalization with overlap
     c_bands:  1 eigenvalues not converged
     c_bands:  1 eigenvalues not converged
     c_bands:  1 eigenvalues not converged
     c_bands:  1 eigenvalues not converged
     ethr =  1.07E-06,  avg # of iterations = 15.6

     negative rho (up, down):  1.307E-02 0.000E+00
 
     Adding external electric field

     Computed dipole along edir(3) : 
        Dipole                0.3759 Ry au,          0.9554 Debye
        Dipole field          0.0007 Ry au, 
 
        Potential amp.       -0.0658 Ry
        Total length         46.3494 bohr
 

     total cpu time spent up to now is      829.6 secs

     total energy              =   -2952.61530197 Ry
     estimated scf accuracy    <       0.00372411 Ry

     iteration # 53     ecut=    29.40 Ry     beta= 0.05
     Davidson diagonalization with overlap
     c_bands:  1 eigenvalues not converged
     ethr =  9.38E-07,  avg # of iterations = 11.9

     negative rho (up, down):  1.438E-02 0.000E+00
 
     Adding external electric field

     Computed dipole along edir(3) : 
        Dipole                0.3644 Ry au,          0.9262 Debye
        Dipole field          0.0007 Ry au, 
 
        Potential amp.       -0.0637 Ry
        Total length         46.3494 bohr
 

     total cpu time spent up to now is      842.8 secs

     total energy              =   -2952.61535409 Ry
     estimated scf accuracy    <       0.00156294 Ry

     iteration # 54     ecut=    29.40 Ry     beta= 0.05
     Davidson diagonalization with overlap
     c_bands:  2 eigenvalues not converged
     c_bands:  3 eigenvalues not converged
     c_bands:  3 eigenvalues not converged
     c_bands:  3 eigenvalues not converged
     c_bands:  1 eigenvalues not converged
     ethr =  3.94E-07,  avg # of iterations = 18.2

     negative rho (up, down):  1.521E-02 0.000E+00
 
     Adding external electric field

     Computed dipole along edir(3) : 
        Dipole                0.4132 Ry au,          1.0502 Debye
        Dipole field          0.0008 Ry au, 
 
        Potential amp.       -0.0723 Ry
        Total length         46.3494 bohr
 

     total cpu time spent up to now is      869.1 secs

     total energy              =   -2952.61413078 Ry
     estimated scf accuracy    <       0.01168602 Ry

     iteration # 55     ecut=    29.40 Ry     beta= 0.05
     Davidson diagonalization with overlap
     c_bands:  1 eigenvalues not converged
     c_bands:  1 eigenvalues not converged
     c_bands:  5 eigenvalues not converged
     c_bands:  2 eigenvalues not converged
     c_bands:  2 eigenvalues not converged
     c_bands:  2 eigenvalues not converged
     ethr =  3.94E-07,  avg # of iterations = 18.2

     negative rho (up, down):  1.574E-02 0.000E+00
 
     Adding external electric field

     Computed dipole along edir(3) : 
        Dipole                0.4104 Ry au,          1.0430 Debye
        Dipole field          0.0008 Ry au, 
 
        Potential amp.       -0.0718 Ry
        Total length         46.3494 bohr
 

     total cpu time spent up to now is      896.3 secs

     total energy              =   -2952.61548117 Ry
     estimated scf accuracy    <       0.00216358 Ry

     iteration # 56     ecut=    29.40 Ry     beta= 0.05
     Davidson diagonalization with overlap
     ethr =  3.94E-07,  avg # of iterations =  6.6

     negative rho (up, down):  1.653E-02 0.000E+00
 
     Adding external electric field

     Computed dipole along edir(3) : 
        Dipole                0.4198 Ry au,          1.0670 Debye
        Dipole field          0.0008 Ry au, 
 
        Potential amp.       -0.0734 Ry
        Total length         46.3494 bohr
 

     total cpu time spent up to now is      908.2 secs

     total energy              =   -2952.61554168 Ry
     estimated scf accuracy    <       0.00046460 Ry

     iteration # 57     ecut=    29.40 Ry     beta= 0.05
     Davidson diagonalization with overlap
     c_bands:  1 eigenvalues not converged
     ethr =  1.17E-07,  avg # of iterations = 15.8

     negative rho (up, down):  1.668E-02 0.000E+00
 
     Adding external electric field

     Computed dipole along edir(3) : 
        Dipole                0.4289 Ry au,          1.0902 Debye
        Dipole field          0.0008 Ry au, 
 
        Potential amp.       -0.0750 Ry
        Total length         46.3494 bohr
 

     total cpu time spent up to now is      929.8 secs

     total energy              =   -2952.61560017 Ry
     estimated scf accuracy    <       0.00061779 Ry

     iteration # 58     ecut=    29.40 Ry     beta= 0.05
     Davidson diagonalization with overlap
     ethr =  1.17E-07,  avg # of iterations =  3.2

     negative rho (up, down):  1.669E-02 0.000E+00
 
     Adding external electric field

     Computed dipole along edir(3) : 
        Dipole                0.4254 Ry au,          1.0812 Debye
        Dipole field          0.0008 Ry au, 
 
        Potential amp.       -0.0744 Ry
        Total length         46.3494 bohr
 

     total cpu time spent up to now is      940.8 secs

     total energy              =   -2952.61559520 Ry
     estimated scf accuracy    <       0.00031586 Ry

     iteration # 59     ecut=    29.40 Ry     beta= 0.05
     Davidson diagonalization with overlap
     ethr =  7.96E-08,  avg # of iterations = 12.8

     negative rho (up, down):  1.650E-02 0.000E+00
 
     Adding external electric field

     Computed dipole along edir(3) : 
        Dipole                0.4226 Ry au,          1.0741 Debye
        Dipole field          0.0008 Ry au, 
 
        Potential amp.       -0.0739 Ry
        Total length         46.3494 bohr
 

     total cpu time spent up to now is      958.7 secs

     total energy              =   -2952.61564911 Ry
     estimated scf accuracy    <       0.00014041 Ry

     iteration # 60     ecut=    29.40 Ry     beta= 0.05
     Davidson diagonalization with overlap
     ethr =  3.54E-08,  avg # of iterations =  5.8

     negative rho (up, down):  1.619E-02 0.000E+00
 
     Adding external electric field

     Computed dipole along edir(3) : 
        Dipole                0.4151 Ry au,          1.0550 Debye
        Dipole field          0.0008 Ry au, 
 
        Potential amp.       -0.0726 Ry
        Total length         46.3494 bohr
 

     total cpu time spent up to now is      970.2 secs

     total energy              =   -2952.61563811 Ry
     estimated scf accuracy    <       0.00012527 Ry

     iteration # 61     ecut=    29.40 Ry     beta= 0.05
     Davidson diagonalization with overlap
     ethr =  3.16E-08,  avg # of iterations = 10.3

     negative rho (up, down):  1.622E-02 0.000E+00
 
     Adding external electric field

     Computed dipole along edir(3) : 
        Dipole                0.4154 Ry au,          1.0559 Debye
        Dipole field          0.0008 Ry au, 
 
        Potential amp.       -0.0727 Ry
        Total length         46.3494 bohr
 

     total cpu time spent up to now is      985.9 secs

     total energy              =   -2952.61564996 Ry
     estimated scf accuracy    <       0.00010493 Ry

     iteration # 62     ecut=    29.40 Ry     beta= 0.05
     Davidson diagonalization with overlap
     ethr =  2.64E-08,  avg # of iterations =  1.3

     negative rho (up, down):  1.636E-02 0.000E+00
 
     Adding external electric field

     Computed dipole along edir(3) : 
        Dipole                0.4186 Ry au,          1.0639 Debye
        Dipole field          0.0008 Ry au, 
 
        Potential amp.       -0.0732 Ry
        Total length         46.3494 bohr
 

     total cpu time spent up to now is      995.9 secs

     total energy              =   -2952.61564224 Ry
     estimated scf accuracy    <       0.00005906 Ry

     iteration # 63     ecut=    29.40 Ry     beta= 0.05
     Davidson diagonalization with overlap
     ethr =  1.49E-08,  avg # of iterations = 13.4

     negative rho (up, down):  1.625E-02 0.000E+00
 
     Adding external electric field

     Computed dipole along edir(3) : 
        Dipole                0.4137 Ry au,          1.0516 Debye
        Dipole field          0.0008 Ry au, 
 
        Potential amp.       -0.0724 Ry
        Total length         46.3494 bohr
 

     total cpu time spent up to now is     1015.6 secs

     total energy              =   -2952.61565525 Ry
     estimated scf accuracy    <       0.00006433 Ry

     iteration # 64     ecut=    29.40 Ry     beta= 0.05
     Davidson diagonalization with overlap
     ethr =  1.49E-08,  avg # of iterations =  6.6

     negative rho (up, down):  1.612E-02 0.000E+00
 
     Adding external electric field

     Computed dipole along edir(3) : 
        Dipole                0.4092 Ry au,          1.0400 Debye
        Dipole field          0.0008 Ry au, 
 
        Potential amp.       -0.0716 Ry
        Total length         46.3494 bohr
 

     total cpu time spent up to now is     1028.2 secs

     total energy              =   -2952.61566319 Ry
     estimated scf accuracy    <       0.00001794 Ry

     iteration # 65     ecut=    29.40 Ry     beta= 0.05
     Davidson diagonalization with overlap
     ethr =  4.52E-09,  avg # of iterations = 11.9

     negative rho (up, down):  1.620E-02 0.000E+00
 
     Adding external electric field

     Computed dipole along edir(3) : 
        Dipole                0.4116 Ry au,          1.0462 Debye
        Dipole field          0.0008 Ry au, 
 
        Potential amp.       -0.0720 Ry
        Total length         46.3494 bohr
 

     total cpu time spent up to now is     1046.3 secs

     total energy              =   -2952.61566733 Ry
     estimated scf accuracy    <       0.00001503 Ry

     iteration # 66     ecut=    29.40 Ry     beta= 0.05
     Davidson diagonalization with overlap
     ethr =  3.78E-09,  avg # of iterations =  8.6

     negative rho (up, down):  1.616E-02 0.000E+00
 
     Adding external electric field

     Computed dipole along edir(3) : 
        Dipole                0.4098 Ry au,          1.0416 Debye
        Dipole field          0.0008 Ry au, 
 
        Potential amp.       -0.0717 Ry
        Total length         46.3494 bohr
 

     total cpu time spent up to now is     1062.0 secs

     total energy              =   -2952.61567290 Ry
     estimated scf accuracy    <       0.00001029 Ry

     iteration # 67     ecut=    29.40 Ry     beta= 0.05
     Davidson diagonalization with overlap
     ethr =  2.59E-09,  avg # of iterations =  4.6

     negative rho (up, down):  1.605E-02 0.000E+00
 
     Adding external electric field

     Computed dipole along edir(3) : 
        Dipole                0.4058 Ry au,          1.0315 Debye
        Dipole field          0.0008 Ry au, 
 
        Potential amp.       -0.0710 Ry
        Total length         46.3494 bohr
 

     total cpu time spent up to now is     1073.6 secs

     total energy              =   -2952.61567440 Ry
     estimated scf accuracy    <       0.00000792 Ry

     iteration # 68     ecut=    29.40 Ry     beta= 0.05
     Davidson diagonalization with overlap
     ethr =  2.00E-09,  avg # of iterations =  8.6

     negative rho (up, down):  1.608E-02 0.000E+00
 
     Adding external electric field

     Computed dipole along edir(3) : 
        Dipole                0.4063 Ry au,          1.0327 Debye
        Dipole field          0.0008 Ry au, 
 
        Potential amp.       -0.0711 Ry
        Total length         46.3494 bohr
 

     total cpu time spent up to now is     1088.9 secs

     total energy              =   -2952.61567834 Ry
     estimated scf accuracy    <       0.00000308 Ry

     iteration # 69     ecut=    29.40 Ry     beta= 0.05
     Davidson diagonalization with overlap
     ethr =  7.75E-10,  avg # of iterations =  5.7

     negative rho (up, down):  1.609E-02 0.000E+00
 
     Adding external electric field

     Computed dipole along edir(3) : 
        Dipole                0.4069 Ry au,          1.0342 Debye
        Dipole field          0.0008 Ry au, 
 
        Potential amp.       -0.0712 Ry
        Total length         46.3494 bohr
 

     total cpu time spent up to now is     1100.9 secs

     total energy              =   -2952.61568105 Ry
     estimated scf accuracy    <       0.00000146 Ry

     iteration # 70     ecut=    29.40 Ry     beta= 0.05
     Davidson diagonalization with overlap
     ethr =  3.68E-10,  avg # of iterations = 11.4

     negative rho (up, down):  1.610E-02 0.000E+00
 
     Adding external electric field

     Computed dipole along edir(3) : 
        Dipole                0.4064 Ry au,          1.0329 Debye
        Dipole field          0.0008 Ry au, 
 
        Potential amp.       -0.0711 Ry
        Total length         46.3494 bohr
 

     total cpu time spent up to now is     1118.1 secs

     total energy              =   -2952.61568348 Ry
     estimated scf accuracy    <       0.00000270 Ry

     iteration # 71     ecut=    29.40 Ry     beta= 0.05
     Davidson diagonalization with overlap
     ethr =  3.68E-10,  avg # of iterations =  9.6

     negative rho (up, down):  1.609E-02 0.000E+00
 
     Adding external electric field

     Computed dipole along edir(3) : 
        Dipole                0.4057 Ry au,          1.0312 Debye
        Dipole field          0.0008 Ry au, 
 
        Potential amp.       -0.0710 Ry
        Total length         46.3494 bohr
 

     total cpu time spent up to now is     1131.5 secs

     total energy              =   -2952.61568546 Ry
     estimated scf accuracy    <       0.00000105 Ry

     iteration # 72     ecut=    29.40 Ry     beta= 0.05
     Davidson diagonalization with overlap
     ethr =  2.64E-10,  avg # of iterations =  7.3

     negative rho (up, down):  1.610E-02 0.000E+00
 
     Adding external electric field

     Computed dipole along edir(3) : 
        Dipole                0.4061 Ry au,          1.0321 Debye
        Dipole field          0.0008 Ry au, 
 
        Potential amp.       -0.0710 Ry
        Total length         46.3494 bohr
 

     total cpu time spent up to now is     1146.0 secs

     total energy              =   -2952.61568733 Ry
     estimated scf accuracy    <       0.00000049 Ry

     iteration # 73     ecut=    29.40 Ry     beta= 0.05
     Davidson diagonalization with overlap
     ethr =  1.22E-10,  avg # of iterations =  8.4

     negative rho (up, down):  1.611E-02 0.000E+00
 
     Adding external electric field

     Computed dipole along edir(3) : 
        Dipole                0.4062 Ry au,          1.0326 Debye
        Dipole field          0.0008 Ry au, 
 
        Potential amp.       -0.0711 Ry
        Total length         46.3494 bohr
 

     total cpu time spent up to now is     1158.7 secs

     total energy              =   -2952.61568894 Ry
     estimated scf accuracy    <       0.00000030 Ry

     iteration # 74     ecut=    29.40 Ry     beta= 0.05
     Davidson diagonalization with overlap
     ethr =  7.54E-11,  avg # of iterations = 10.9

     negative rho (up, down):  1.611E-02 0.000E+00
 
     Adding external electric field

     Computed dipole along edir(3) : 
        Dipole                0.4060 Ry au,          1.0319 Debye
        Dipole field          0.0008 Ry au, 
 
        Potential amp.       -0.0710 Ry
        Total length         46.3494 bohr
 

     total cpu time spent up to now is     1174.5 secs

     total energy              =   -2952.61569044 Ry
     estimated scf accuracy    <       0.00000013 Ry

     iteration # 75     ecut=    29.40 Ry     beta= 0.05
     Davidson diagonalization with overlap
     c_bands:  1 eigenvalues not converged
     ethr =  3.29E-11,  avg # of iterations = 12.5

     negative rho (up, down):  1.612E-02 0.000E+00
 
     Adding external electric field

     Computed dipole along edir(3) : 
        Dipole                0.4062 Ry au,          1.0325 Debye
        Dipole field          0.0008 Ry au, 
 
        Potential amp.       -0.0711 Ry
        Total length         46.3494 bohr
 

     total cpu time spent up to now is     1193.2 secs

     total energy              =   -2952.61569174 Ry
     estimated scf accuracy    <       0.00000012 Ry

     iteration # 76     ecut=    29.40 Ry     beta= 0.05
     Davidson diagonalization with overlap
     ethr =  3.10E-11,  avg # of iterations =  5.0

     negative rho (up, down):  1.616E-02 0.000E+00
 
     Adding external electric field

     Computed dipole along edir(3) : 
        Dipole                0.4067 Ry au,          1.0338 Debye
        Dipole field          0.0008 Ry au, 
 
        Potential amp.       -0.0711 Ry
        Total length         46.3494 bohr
 

     total cpu time spent up to now is     1204.8 secs

     End of self-consistent calculation

          k = 0.0000 0.0000 0.0000 ( 18029 PWs)   bands (ev):

   -56.0241 -55.9997 -55.9926 -55.9900 -55.9634 -55.8698 -55.8373 -55.8284
   -55.8249 -55.8116 -55.8031 -55.7781 -55.7484 -55.5789 -55.0095 -54.9755
   -32.5455 -32.5079 -32.4011 -32.3692 -32.3363 -32.3162 -32.3071 -32.3015
   -32.2675 -32.2367 -32.2250 -32.2184 -32.2089 -32.1964 -32.1787 -32.1765
   -32.1519 -32.1297 -32.1285 -32.1252 -32.0924 -32.0813 -32.0725 -32.0401
   -32.0294 -32.0278 -32.0240 -32.0198 -32.0168 -32.0114 -31.9968 -31.9859
   -31.9837 -31.9824 -31.9703 -31.9643 -31.9606 -31.9421 -31.9226 -31.8397
   -31.8227 -31.7359 -31.4169 -31.3278 -31.3054 -31.2337 -31.1471 -31.0360
   -19.2091 -16.7566 -16.5164 -16.3416 -16.2014 -16.1706 -15.9539 -15.8522
   -15.7813 -15.7271 -15.6579 -15.6064 -15.5723 -15.5630 -15.5462 -15.5229
   -15.5029 -15.4801 -15.4571 -15.4451 -15.4387 -15.3966 -15.3892 -15.3732
   -15.3546 -15.2484 -15.1845 -15.1603 -15.1149 -15.0918 -14.7384 -13.5116
   -13.3951  -7.8689  -7.0519  -4.1548  -4.0601  -3.9852  -3.9442  -3.9293
    -3.7732  -3.6950  -3.5459  -3.5184  -3.3080  -3.2756  -3.2206  -3.1954
    -3.1339  -3.0720  -2.9769  -2.9331  -2.8565  -2.8403  -2.8278  -2.8048
    -2.7848  -2.7682  -2.7279  -2.6642  -2.5941  -2.5602  -2.4469  -2.4211
    -2.4143  -2.3468  -2.3396  -2.3280  -2.3147  -2.2832  -2.2612  -2.2582
    -2.1870  -2.1547  -2.0843  -2.0324  -1.9714  -1.8532  -1.7024  -1.6398
    -1.5892  -1.5280  -1.5038  -1.4680  -1.4458  -1.4218  -1.3627  -1.3046
    -1.2399  -1.2280  -1.1573  -1.0651  -0.9934  -0.9547  -0.8850  -0.8237
    -0.8021  -0.7741  -0.7659  -0.7572  -0.7079  -0.5356  -0.4796  -0.4660
    -0.4262  -0.3434  -0.3128  -0.3031  -0.2540  -0.2459  -0.2059  -0.1171
    -0.0981  -0.0631  -0.0452  -0.0317   0.0013   0.0207   0.1758   0.1966
     0.2389   0.2604   0.3629   0.4692   0.5360   0.6235   0.7179   0.9369
     1.0129   1.0899   1.2039   1.5850   1.6310   2.7800   3.1041   3.1928
     3.2309   3.2369   3.2711   3.3417   3.5582   3.5892   3.6065   3.6626

          k = 0.0000 0.0419 0.0000 ( 17933 PWs)   bands (ev):

   -56.0190 -55.9949 -55.9947 -55.9914 -55.9685 -55.8658 -55.8331 -55.8314
   -55.8257 -55.8080 -55.8066 -55.7829 -55.7476 -55.5796 -55.0045 -54.9804
   -32.4888 -32.4539 -32.3525 -32.3148 -32.3116 -32.3057 -32.2943 -32.2509
   -32.2475 -32.2397 -32.2252 -32.2142 -32.2111 -32.1864 -32.1776 -32.1747
   -32.1708 -32.1626 -32.1609 -32.1117 -32.0952 -32.0828 -32.0691 -32.0488
   -32.0442 -32.0422 -32.0351 -32.0310 -32.0253 -32.0240 -32.0181 -32.0148
   -32.0032 -31.9837 -31.9803 -31.9800 -31.9682 -31.9660 -31.9602 -31.8389
   -31.8260 -31.7743 -31.3627 -31.3243 -31.3084 -31.2211 -31.1597 -31.0931
   -19.2088 -16.6216 -16.3963 -16.2299 -16.1066 -16.0708 -15.9113 -15.8735
   -15.7983 -15.7657 -15.7164 -15.6354 -15.5771 -15.5547 -15.5486 -15.5175
   -15.5136 -15.5038 -15.4963 -15.4827 -15.4259 -15.4232 -15.3947 -15.3658
   -15.3303 -15.2985 -15.2404 -15.2189 -15.1490 -15.1409 -14.8373 -13.5156
   -13.4345  -7.8676  -7.0556  -4.0127  -3.9062  -3.8543  -3.8125  -3.7582
    -3.6665  -3.5551  -3.4680  -3.3011  -3.2524  -3.1949  -3.1790  -3.0881
    -3.0774  -3.0370  -3.0113  -2.9831  -2.9461  -2.9316  -2.9191  -2.8827
    -2.8583  -2.7864  -2.7774  -2.7423  -2.7321  -2.6914  -2.6770  -2.5532
    -2.5281  -2.5255  -2.4499  -2.4408  -2.4022  -2.2887  -2.2770  -2.2141
    -2.1621  -2.0515  -1.9873  -1.9006  -1.8072  -1.7841  -1.7156  -1.7020
    -1.6123  -1.4742  -1.4250  -1.3572  -1.2811  -1.2447  -1.2288  -1.2019
    -1.1238  -1.1150  -0.9871  -0.9817  -0.9688  -0.9448  -0.9320  -0.9081
    -0.8518  -0.8261  -0.7870  -0.6591  -0.6471  -0.6041  -0.5658  -0.5362
    -0.4982  -0.4795  -0.3884  -0.3420  -0.3184  -0.2652  -0.2490  -0.2268
    -0.2138  -0.1906  -0.1643  -0.0904  -0.0714   0.0232   0.0804   0.1558
     0.1937   0.2049   0.2966   0.3061   0.3348   0.4590   0.6286   0.6303
     0.9649   1.2014   1.2844   1.5391   1.5428   2.7764   3.3009   3.3327
     3.3489   3.4086   3.4588   3.4956   3.5402   3.5772   3.6250   3.6552

          k = 0.0000-0.0839 0.0000 ( 17884 PWs)   bands (ev):

   -56.0077 -56.0061 -55.9912 -55.9834 -55.9790 -55.8605 -55.8376 -55.8266
   -55.8210 -55.8191 -55.7952 -55.7942 -55.7468 -55.5804 -54.9926 -54.9922
   -32.3588 -32.3428 -32.3221 -32.3211 -32.3022 -32.3009 -32.2766 -32.2716
   -32.2523 -32.2063 -32.1968 -32.1925 -32.1898 -32.1832 -32.1738 -32.1688
   -32.1455 -32.1363 -32.1331 -32.1297 -32.1281 -32.1267 -32.1159 -32.1133
   -32.0791 -32.0780 -32.0590 -32.0585 -32.0391 -32.0390 -32.0329 -32.0267
   -32.0224 -31.9984 -31.9920 -31.9777 -31.9729 -31.9719 -31.9597 -31.8387
   -31.8276 -31.8233 -31.3163 -31.3160 -31.2299 -31.2295 -31.1905 -31.1903
   -19.2085 -16.2972 -16.2695 -16.1137 -16.0909 -15.9679 -15.9564 -15.8596
   -15.8517 -15.8091 -15.7761 -15.7324 -15.6875 -15.5834 -15.5694 -15.5649
   -15.4974 -15.4473 -15.4248 -15.4130 -15.4105 -15.4003 -15.3795 -15.3723
   -15.3621 -15.3571 -15.2913 -15.2809 -15.2481 -15.1099 -15.0189 -13.4974
   -13.4970  -7.8662  -7.0594  -3.9364  -3.6827  -3.4983  -3.4443  -3.4266
    -3.4065  -3.3997  -3.3613  -3.3220  -3.3189  -3.3132  -3.2590  -3.1709
    -3.1372  -3.1291  -3.1136  -3.0962  -3.0826  -2.9964  -2.9895  -2.9750
    -2.9220  -2.8954  -2.8250  -2.7810  -2.7699  -2.7502  -2.6731  -2.6131
    -2.5995  -2.5504  -2.4839  -2.4107  -2.3586  -2.3113  -2.1517  -2.0959
    -1.9942  -1.9643  -1.8952  -1.8287  -1.7522  -1.7259  -1.6842  -1.5191
    -1.4936  -1.4578  -1.4428  -1.4178  -1.4102  -1.3900  -1.3517  -1.2949
    -1.2777  -1.2164  -1.1953  -1.0741  -0.9702  -0.9400  -0.8295  -0.7471
    -0.6747  -0.6460  -0.6421  -0.6333  -0.6263  -0.5901  -0.5225  -0.5034
    -0.4842  -0.4711  -0.4508  -0.4326  -0.4011  -0.3618  -0.3420  -0.3030
    -0.2836  -0.2429  -0.2211  -0.2140  -0.1819  -0.1408  -0.1027  -0.0449
     0.1035   0.2027   0.2082   0.2112   0.2353   0.5244   0.5483   0.6384
     0.7130   1.3441   1.3449   1.4755   1.4770   2.7704   3.4089   3.4637
     3.4991   3.5166   3.5383   3.5476   3.5906   3.6516   3.6953   3.7014

          k = 0.0380 0.0000 0.0000 ( 17913 PWs)   bands (ev):

   -56.0240 -55.9995 -55.9925 -55.9899 -55.9633 -55.8697 -55.8370 -55.8283
   -55.8248 -55.8117 -55.8030 -55.7780 -55.7484 -55.5788 -55.0094 -54.9754
   -32.5456 -32.5088 -32.4031 -32.3749 -32.3365 -32.3160 -32.3069 -32.3061
   -32.2674 -32.2361 -32.2174 -32.2085 -32.2047 -32.1959 -32.1785 -32.1735
   -32.1452 -32.1295 -32.1281 -32.1048 -32.0928 -32.0886 -32.0811 -32.0396
   -32.0281 -32.0224 -32.0197 -32.0181 -32.0167 -32.0113 -32.0048 -31.9968
   -31.9858 -31.9821 -31.9701 -31.9670 -31.9646 -31.9407 -31.9233 -31.8409
   -31.8225 -31.7358 -31.4164 -31.3311 -31.3034 -31.2335 -31.1470 -31.0357
   -19.2088 -16.6770 -16.4288 -16.2665 -16.1906 -16.0887 -15.9743 -15.8893
   -15.7857 -15.7474 -15.7286 -15.7220 -15.7194 -15.6577 -15.6545 -15.5856
   -15.5360 -15.4637 -15.3972 -15.3893 -15.3884 -15.3664 -15.2897 -15.2729
   -15.2628 -15.2567 -15.2225 -15.2171 -15.1982 -15.0975 -14.7380 -13.5084
   -13.3947  -7.8761  -7.0514  -4.0669  -3.8981  -3.8554  -3.7390  -3.7236
    -3.6571  -3.5915  -3.5126  -3.5041  -3.4664  -3.3075  -3.2945  -3.2730
    -3.1381  -3.1086  -3.0851  -3.0102  -2.9184  -2.8130  -2.7718  -2.7384
    -2.6745  -2.6652  -2.6286  -2.6104  -2.5938  -2.5334  -2.5010  -2.4433
    -2.3784  -2.3746  -2.3022  -2.2980  -2.2696  -2.2444  -2.2065  -2.0933
    -2.0625  -2.0129  -1.9571  -1.9310  -1.8743  -1.8257  -1.8094  -1.6985
    -1.6389  -1.5832  -1.5594  -1.5024  -1.4621  -1.4511  -1.3934  -1.3430
    -1.3047  -1.2916  -1.2629  -1.2142  -1.1379  -1.0675  -0.9332  -0.8524
    -0.8128  -0.7831  -0.7428  -0.7244  -0.6889  -0.5516  -0.5202  -0.4625
    -0.4352  -0.4111  -0.3775  -0.3580  -0.3000  -0.2563  -0.2386  -0.2134
    -0.1965  -0.1633  -0.1542  -0.1068  -0.0815   0.0271   0.0442   0.1378
     0.1743   0.2382   0.3294   0.3450   0.3743   0.6020   0.6577   0.9375
     0.9581   1.0248   1.1732   1.4733   1.5482   2.7973   3.1339   3.1639
     3.4068   3.4554   3.4584   3.4929   3.5275   3.5573   3.5631   3.6270

          k = 0.0380 0.0419 0.0000 ( 17878 PWs)   bands (ev):

   -56.0189 -55.9948 -55.9946 -55.9913 -55.9685 -55.8657 -55.8330 -55.8312
   -55.8257 -55.8080 -55.8067 -55.7829 -55.7476 -55.5796 -55.0044 -54.9804
   -32.4890 -32.4548 -32.3545 -32.3215 -32.3114 -32.3059 -32.2942 -32.2541
   -32.2495 -32.2396 -32.2250 -32.2090 -32.1992 -32.1865 -32.1772 -32.1740
   -32.1704 -32.1601 -32.1512 -32.0948 -32.0943 -32.0853 -32.0814 -32.0512
   -32.0405 -32.0348 -32.0328 -32.0277 -32.0249 -32.0225 -32.0181 -32.0148
   -32.0056 -32.0007 -31.9836 -31.9750 -31.9711 -31.9681 -31.9656 -31.8409
   -31.8259 -31.7741 -31.3624 -31.3269 -31.3074 -31.2209 -31.1598 -31.0930
   -19.2086 -16.5489 -16.3159 -16.1657 -16.0926 -15.9871 -15.9237 -15.8780
   -15.8043 -15.7940 -15.7451 -15.6988 -15.6853 -15.6398 -15.6269 -15.5352
   -15.5315 -15.5022 -15.4637 -15.4253 -15.4177 -15.3870 -15.3552 -15.3527
   -15.3131 -15.2836 -15.2709 -15.2633 -15.2446 -15.1253 -14.8376 -13.5134
   -13.4348  -7.8736  -7.0545  -3.9737  -3.7931  -3.7402  -3.5916  -3.5653
    -3.4838  -3.4440  -3.4065  -3.3211  -3.2761  -3.2154  -3.1552  -3.1250
    -3.0420  -3.0122  -2.9665  -2.9525  -2.9405  -2.9041  -2.8665  -2.8476
    -2.8009  -2.7706  -2.7552  -2.7275  -2.6952  -2.6742  -2.6337  -2.5931
    -2.5281  -2.5058  -2.4417  -2.3778  -2.3480  -2.2319  -2.1842  -2.1335
    -2.1161  -2.0152  -2.0025  -1.9828  -1.8327  -1.7574  -1.7213  -1.6438
    -1.5756  -1.5004  -1.4625  -1.4315  -1.3658  -1.3334  -1.3132  -1.2780
    -1.2450  -1.1597  -1.1493  -1.1282  -1.0427  -0.9822  -0.9647  -0.9340
    -0.8827  -0.8572  -0.8181  -0.7500  -0.7410  -0.7202  -0.6575  -0.6403
    -0.5991  -0.5760  -0.4973  -0.4830  -0.4386  -0.4115  -0.3646  -0.3183
    -0.2805  -0.2405  -0.1874  -0.1295  -0.0466   0.0077   0.1080   0.1593
     0.1997   0.2633   0.2965   0.3507   0.3874   0.4106   0.5531   0.6210
     0.9020   1.2123   1.2887   1.4616   1.5236   2.7959   3.2867   3.3438
     3.3795   3.4601   3.5331   3.5591   3.5772   3.6180   3.6518   3.6857

          k = 0.0380-0.0839 0.0000 ( 17916 PWs)   bands (ev):

   -56.0077 -56.0061 -55.9912 -55.9835 -55.9790 -55.8606 -55.8376 -55.8266
   -55.8209 -55.8190 -55.7953 -55.7943 -55.7468 -55.5804 -54.9926 -54.9923
   -32.3591 -32.3431 -32.3229 -32.3219 -32.3022 -32.3009 -32.2783 -32.2718
   -32.2524 -32.2122 -32.2033 -32.1985 -32.1961 -32.1745 -32.1598 -32.1496
   -32.1444 -32.1362 -32.1342 -32.1296 -32.1286 -32.1270 -32.1254 -32.1230
   -32.0670 -32.0597 -32.0562 -32.0555 -32.0410 -32.0389 -32.0309 -32.0266
   -32.0224 -31.9985 -31.9921 -31.9849 -31.9838 -31.9777 -31.9652 -31.8412
   -31.8276 -31.8229 -31.3173 -31.3170 -31.2298 -31.2294 -31.1905 -31.1903
   -19.2083 -16.2590 -16.2109 -16.0570 -16.0314 -15.9554 -15.9076 -15.8444
   -15.8275 -15.7692 -15.7495 -15.7307 -15.7216 -15.5999 -15.5825 -15.5513
   -15.5370 -15.5017 -15.4689 -15.4524 -15.4437 -15.4391 -15.4151 -15.3915
   -15.3850 -15.3725 -15.3396 -15.3299 -15.2236 -15.1044 -15.0142 -13.4972
   -13.4968  -7.8723  -7.0564  -3.9230  -3.6572  -3.4915  -3.3343  -3.2945
    -3.2357  -3.2276  -3.2162  -3.1887  -3.1713  -3.1325  -3.1151  -3.0967
    -3.0857  -3.0362  -3.0302  -3.0070  -2.9827  -2.9379  -2.9169  -2.8885
    -2.8599  -2.8461  -2.8249  -2.7930  -2.7457  -2.7319  -2.6859  -2.6471
    -2.6213  -2.5240  -2.4897  -2.3995  -2.2457  -2.1530  -2.1452  -2.0336
    -2.0070  -1.9382  -1.9292  -1.8852  -1.8752  -1.8125  -1.7807  -1.7453
    -1.7243  -1.6704  -1.6463  -1.5571  -1.5385  -1.4913  -1.4005  -1.3671
    -1.2565  -1.1911  -1.1622  -1.1005  -1.0838  -0.9948  -0.9409  -0.9153
    -0.8531  -0.8139  -0.7935  -0.7823  -0.7733  -0.7418  -0.7265  -0.6718
    -0.6289  -0.6155  -0.5945  -0.5781  -0.5519  -0.4724  -0.4272  -0.3944
    -0.2585  -0.2170  -0.1331  -0.1017  -0.0326   0.0392   0.0728   0.0911
     0.1266   0.1427   0.2326   0.2929   0.3382   0.4859   0.5116   0.6215
     0.7109   1.3574   1.3583   1.4650   1.4662   2.7925   3.3775   3.3927
     3.4918   3.5140   3.5225   3.5429   3.6447   3.6927   3.7262   3.7346

          k = 0.0380-0.0419 0.0000 ( 17876 PWs)   bands (ev):

   -56.0189 -55.9948 -55.9946 -55.9913 -55.9685 -55.8657 -55.8330 -55.8312
   -55.8257 -55.8080 -55.8067 -55.7829 -55.7476 -55.5796 -55.0044 -54.9804
   -32.4890 -32.4548 -32.3545 -32.3214 -32.3114 -32.3059 -32.2942 -32.2541
   -32.2495 -32.2396 -32.2250 -32.2089 -32.1995 -32.1865 -32.1772 -32.1741
   -32.1702 -32.1601 -32.1515 -32.0948 -32.0943 -32.0847 -32.0812 -32.0502
   -32.0411 -32.0349 -32.0329 -32.0278 -32.0250 -32.0233 -32.0181 -32.0148
   -32.0054 -32.0009 -31.9833 -31.9750 -31.9711 -31.9680 -31.9660 -31.8405
   -31.8260 -31.7741 -31.3623 -31.3269 -31.3074 -31.2209 -31.1597 -31.0930
   -19.2086 -16.5487 -16.3159 -16.1664 -16.0924 -15.9867 -15.9236 -15.8790
   -15.8039 -15.7946 -15.7482 -15.6907 -15.6857 -15.6400 -15.6281 -15.5366
   -15.5312 -15.5025 -15.4676 -15.4246 -15.4167 -15.3865 -15.3544 -15.3526
   -15.3142 -15.2832 -15.2713 -15.2620 -15.2446 -15.1254 -14.8376 -13.5134
   -13.4348  -7.8746  -7.0531  -3.9673  -3.7796  -3.7626  -3.6017  -3.5617
    -3.4831  -3.4461  -3.4083  -3.3224  -3.2739  -3.2122  -3.1525  -3.1259
    -3.0430  -3.0152  -2.9658  -2.9576  -2.9380  -2.9009  -2.8580  -2.8459
    -2.7883  -2.7728  -2.7548  -2.7261  -2.6923  -2.6719  -2.6476  -2.5906
    -2.5291  -2.5060  -2.4408  -2.3786  -2.3325  -2.2246  -2.1742  -2.1453
    -2.1067  -2.0253  -2.0129  -1.9758  -1.8430  -1.7484  -1.7291  -1.6484
    -1.5985  -1.5168  -1.4572  -1.4386  -1.3623  -1.3257  -1.3112  -1.2848
    -1.2472  -1.1557  -1.1498  -1.1030  -1.0387  -0.9883  -0.9684  -0.9339
    -0.8887  -0.8523  -0.8191  -0.7959  -0.7441  -0.7085  -0.6583  -0.6425
    -0.5786  -0.5505  -0.5095  -0.4786  -0.4327  -0.4013  -0.3716  -0.3218
    -0.2870  -0.2445  -0.1907  -0.1261  -0.0395   0.0233   0.1077   0.1662
     0.1917   0.2652   0.2989   0.3565   0.3763   0.4085   0.5536   0.6193
     0.9017   1.2123   1.2885   1.4613   1.5242   2.7960   3.2836   3.3423
     3.3853   3.4691   3.5084   3.5427   3.5803   3.6227   3.6579   3.6797

          k =-0.0760-0.0000 0.0000 ( 17886 PWs)   bands (ev):

   -56.0239 -55.9995 -55.9924 -55.9899 -55.9633 -55.8697 -55.8367 -55.8283
   -55.8248 -55.8118 -55.8030 -55.7780 -55.7483 -55.5788 -55.0094 -54.9754
   -32.5458 -32.5097 -32.4052 -32.3802 -32.3366 -32.3158 -32.3106 -32.3066
   -32.2675 -32.2359 -32.2168 -32.2004 -32.1971 -32.1823 -32.1784 -32.1706
   -32.1395 -32.1294 -32.1280 -32.1139 -32.0919 -32.0815 -32.0564 -32.0546
   -32.0384 -32.0285 -32.0199 -32.0169 -32.0162 -32.0111 -32.0091 -31.9976
   -31.9858 -31.9822 -31.9769 -31.9700 -31.9656 -31.9394 -31.9245 -31.8421
   -31.8224 -31.7358 -31.4160 -31.3344 -31.3021 -31.2334 -31.1469 -31.0358
   -19.2086 -16.5601 -16.3678 -16.1726 -16.1447 -16.0297 -15.9240 -15.9120
   -15.8564 -15.8053 -15.8025 -15.7901 -15.7591 -15.7396 -15.7130 -15.6460
   -15.5726 -15.4713 -15.3956 -15.3880 -15.3709 -15.3429 -15.3218 -15.3029
   -15.2777 -15.2633 -15.2024 -15.1833 -15.1288 -15.0965 -14.7379 -13.5054
   -13.3944  -7.8832  -7.0511  -4.0479  -3.8365  -3.8056  -3.6196  -3.5961
    -3.4991  -3.4462  -3.4241  -3.4053  -3.3463  -3.3111  -3.2898  -3.2753
    -3.2600  -3.0734  -3.0428  -2.9172  -2.8403  -2.7553  -2.6844  -2.6624
    -2.6261  -2.6092  -2.5501  -2.5357  -2.5246  -2.5177  -2.4618  -2.4132
    -2.3753  -2.3532  -2.3428  -2.2999  -2.2690  -2.2569  -2.2155  -2.1970
    -2.1342  -2.1028  -2.0287  -1.8701  -1.7791  -1.7452  -1.7211  -1.6554
    -1.6388  -1.6304  -1.6121  -1.5968  -1.5401  -1.4917  -1.4370  -1.4124
    -1.3286  -1.3035  -1.2985  -1.2652  -1.2086  -1.1906  -1.1651  -1.1135
    -0.8168  -0.7703  -0.7146  -0.7120  -0.6706  -0.6642  -0.6575  -0.5590
    -0.5205  -0.4673  -0.4425  -0.4010  -0.3941  -0.3664  -0.2955  -0.2818
    -0.2370  -0.1982  -0.1952  -0.1286  -0.0601  -0.0191   0.0348   0.0892
     0.1882   0.2134   0.2716   0.4394   0.4582   0.5729   0.6608   0.6790
     0.9505   1.0460   1.1487   1.3438   1.4926   2.8147   3.1388   3.1415
     3.2660   3.3725   3.4339   3.5088   3.5430   3.5584   3.5671   3.6084

          k =-0.0760 0.0419 0.0000 ( 17914 PWs)   bands (ev):

   -56.0189 -55.9949 -55.9946 -55.9913 -55.9685 -55.8658 -55.8330 -55.8311
   -55.8257 -55.8079 -55.8069 -55.7830 -55.7476 -55.5796 -55.0044 -54.9804
   -32.4893 -32.4558 -32.3567 -32.3279 -32.3114 -32.3061 -32.2942 -32.2588
   -32.2502 -32.2396 -32.2249 -32.2057 -32.1868 -32.1819 -32.1769 -32.1728
   -32.1706 -32.1579 -32.1421 -32.1029 -32.0947 -32.0824 -32.0584 -32.0526
   -32.0442 -32.0395 -32.0341 -32.0310 -32.0244 -32.0198 -32.0180 -32.0146
   -32.0143 -32.0007 -31.9834 -31.9786 -31.9746 -31.9738 -31.9686 -31.8426
   -31.8260 -31.7741 -31.3621 -31.3298 -31.3067 -31.2209 -31.1598 -31.0930
   -19.2084 -16.4443 -16.2560 -16.0790 -16.0563 -15.9461 -15.8713 -15.8497
   -15.8376 -15.7895 -15.7824 -15.7632 -15.7598 -15.6878 -15.6796 -15.6354
   -15.5835 -15.5108 -15.4326 -15.4279 -15.4100 -15.3924 -15.3847 -15.3584
   -15.3212 -15.3164 -15.2897 -15.2400 -15.2193 -15.1218 -14.8382 -13.5113
   -13.4351  -7.8808  -7.0522  -3.9602  -3.7484  -3.7008  -3.5400  -3.3416
    -3.3103  -3.2803  -3.2231  -3.1678  -3.1393  -3.1002  -3.0837  -3.0747
    -3.0447  -3.0064  -2.9787  -2.9574  -2.9370  -2.8856  -2.8201  -2.8039
    -2.7525  -2.7240  -2.7076  -2.6793  -2.6433  -2.6165  -2.5932  -2.5515
    -2.5238  -2.5046  -2.4484  -2.3401  -2.2551  -2.1998  -2.1503  -2.1365
    -2.1007  -2.0299  -1.9863  -1.8969  -1.8661  -1.8137  -1.6927  -1.6670
    -1.6035  -1.5538  -1.5164  -1.4955  -1.4697  -1.4398  -1.3664  -1.3300
    -1.3111  -1.3058  -1.2655  -1.2493  -1.2130  -1.1983  -1.1159  -1.0837
    -1.0419  -1.0121  -0.9681  -0.9073  -0.8421  -0.7982  -0.7550  -0.7183
    -0.6822  -0.6566  -0.6377  -0.5731  -0.5465  -0.4841  -0.3908  -0.3508
    -0.3324  -0.2031  -0.1746  -0.1262  -0.0957   0.1414   0.1818   0.2215
     0.2632   0.3048   0.3345   0.4230   0.4377   0.4809   0.5397   0.5659
     0.7395   1.2270   1.2916   1.3848   1.5129   2.8156   3.2751   3.3218
     3.3405   3.4008   3.4332   3.4681   3.5328   3.6024   3.6572   3.7361

          k =-0.0760-0.0839 0.0000 ( 17948 PWs)   bands (ev):

   -56.0077 -56.0062 -55.9912 -55.9835 -55.9790 -55.8606 -55.8377 -55.8266
   -55.8208 -55.8189 -55.7955 -55.7944 -55.7468 -55.5804 -54.9926 -54.9923
   -32.3593 -32.3435 -32.3237 -32.3227 -32.3022 -32.3010 -32.2800 -32.2720
   -32.2526 -32.2198 -32.2048 -32.2004 -32.1959 -32.1745 -32.1468 -32.1418
   -32.1371 -32.1349 -32.1332 -32.1317 -32.1308 -32.1279 -32.1272 -32.1256
   -32.0787 -32.0595 -32.0507 -32.0391 -32.0272 -32.0248 -32.0236 -32.0217
   -32.0212 -32.0105 -32.0087 -31.9985 -31.9921 -31.9778 -31.9722 -31.8436
   -31.8277 -31.8228 -31.3182 -31.3179 -31.2298 -31.2294 -31.1905 -31.1903
   -19.2082 -16.2156 -16.0959 -16.0413 -15.9483 -15.9228 -15.9084 -15.8344
   -15.7820 -15.7287 -15.7192 -15.6951 -15.6809 -15.6733 -15.6146 -15.5862
   -15.5619 -15.5509 -15.5074 -15.4946 -15.4867 -15.4729 -15.4709 -15.4647
   -15.4210 -15.3897 -15.3527 -15.3487 -15.2094 -15.1007 -15.0104 -13.4970
   -13.4966  -7.8783  -7.0533  -3.9135  -3.6482  -3.4936  -3.3166  -3.2659
    -3.1670  -3.1549  -3.1239  -3.1036  -2.9945  -2.9349  -2.9221  -2.9004
    -2.8596  -2.8499  -2.8432  -2.8382  -2.8038  -2.8022  -2.7655  -2.7470
    -2.7149  -2.7016  -2.6958  -2.6890  -2.6651  -2.6456  -2.6060  -2.5910
    -2.5749  -2.5448  -2.5073  -2.3742  -2.3048  -2.2272  -2.2202  -2.1797
    -2.1670  -2.1476  -2.1042  -2.0865  -2.0591  -1.9781  -1.9026  -1.7483
    -1.7302  -1.7064  -1.6759  -1.6148  -1.5225  -1.4976  -1.4696  -1.4234
    -1.4060  -1.3482  -1.3272  -1.2967  -1.2412  -1.1787  -1.1411  -1.1135
    -1.0688  -1.0036  -0.9834  -0.9615  -0.9488  -0.8875  -0.7794  -0.7727
    -0.7670  -0.7173  -0.7020  -0.6724  -0.6518  -0.5596  -0.4802  -0.4202
    -0.3234  -0.1592  -0.0790   0.0185   0.0557   0.1004   0.1452   0.1868
     0.2838   0.2858   0.3583   0.3886   0.4062   0.4883   0.4993   0.5223
     0.6829   1.3755   1.3767   1.4505   1.4511   2.8148   3.3615   3.4079
     3.4420   3.4887   3.5915   3.6116   3.6402   3.6420   3.7204   3.7688

     the Fermi energy is     3.1073 ev

!    total energy              =   -2952.61570348 Ry
     estimated scf accuracy    <       0.00000005 Ry
     smearing contrib. (-TS)   =      -0.02583957 Ry
     internal energy E=F+TS    =   -2952.58986391 Ry

     The total energy is F=E-TS. E is the sum of the following terms:
     one-electron contribution =  -24509.44817028 Ry
     hartree contribution      =   12341.91227843 Ry
     xc contribution           =    -487.95845985 Ry
     ewald contribution        =    9702.90417562 Ry
     electric field correction =       0.00031217 Ry

     convergence has been achieved in  76 iterations

     Forces acting on atoms (cartesian axes, Ry/au):

     atom    1 type  1   force =    -0.00003384   -0.00030006    0.09593139
     atom    2 type  1   force =     0.00005545   -0.00049217   -0.17612012
     atom    3 type  2   force =     0.00010451   -0.00009809   -0.02431499
     atom    4 type  2   force =     0.00000841   -0.00163474    0.05391305
     atom    5 type  2   force =    -0.01178522   -0.00141467    0.00394196
     atom    6 type  2   force =     0.01321322   -0.00102352    0.00318383
     atom    7 type  1   force =     0.00034568    0.00068524   -0.00764779
     atom    8 type  1   force =     0.00026739    0.01496150    0.02334055
     atom    9 type  2   force =    -0.00004992    0.00018763    0.00011411
     atom   10 type  2   force =    -0.00219306    0.00049809   -0.01743309
     atom   11 type  2   force =     0.00046631   -0.00026910   -0.00021332
     atom   12 type  2   force =    -0.00083364   -0.00017747    0.00000448
     atom   13 type  1   force =     0.00046157    0.00044457    0.00005211
     atom   14 type  1   force =    -0.00018992    0.00003396    0.00088671
     atom   15 type  2   force =    -0.00013388   -0.00002593   -0.00075345
     atom   16 type  2   force =     0.00000605    0.00052015   -0.00027307
     atom   17 type  2   force =    -0.00049513    0.00028373    0.00011876
     atom   18 type  2   force =     0.00026414    0.00020258   -0.00024144
     atom   19 type  1   force =     0.00070818    0.00062121   -0.00044653
     atom   20 type  1   force =    -0.00052204    0.00033302   -0.00003445
     atom   21 type  2   force =     0.00006419   -0.00000186    0.10332868
     atom   22 type  2   force =    -0.00026599   -0.00017820    0.00058526
     atom   23 type  2   force =    -0.07136150   -0.00010679   -0.02762904
     atom   24 type  2   force =     0.07128165    0.00034164   -0.02769914
     atom   25 type  1   force =     0.00024127   -0.00029661    0.09576379
     atom   26 type  1   force =     0.00011441   -0.00029152   -0.17604807
     atom   27 type  2   force =     0.00014044   -0.00029003   -0.02321185
     atom   28 type  2   force =     0.00000096   -0.00132442    0.05367095
     atom   29 type  2   force =    -0.01213129    0.00039918    0.00378640
     atom   30 type  2   force =     0.01351813    0.00101374    0.00303037
     atom   31 type  1   force =     0.00024614    0.00375328   -0.01143748
     atom   32 type  1   force =     0.00044567   -0.01662456    0.02315515
     atom   33 type  2   force =     0.00017787    0.00009851   -0.00032831
     atom   34 type  2   force =    -0.00191289   -0.00010412   -0.02071059
     atom   35 type  2   force =     0.00045821    0.00006000    0.00007592
     atom   36 type  2   force =    -0.00087962   -0.00000683    0.00033050
     atom   37 type  1   force =     0.00080840    0.00005271   -0.00028773
     atom   38 type  1   force =     0.00000343    0.00013655    0.00039071
     atom   39 type  2   force =    -0.00025271    0.00043656   -0.00055318
     atom   40 type  2   force =    -0.00039383   -0.00007839   -0.00019672
     atom   41 type  2   force =    -0.00060426    0.00030549    0.00020535
     atom   42 type  2   force =     0.00007787    0.00021856    0.00015221
     atom   43 type  1   force =     0.00034516   -0.00015458    0.00039359
     atom   44 type  1   force =    -0.00009954   -0.00028240    0.00044110
     atom   45 type  2   force =     0.00006732   -0.00000297    0.10330194
     atom   46 type  2   force =    -0.07134428   -0.00004846   -0.02760938
     atom   47 type  2   force =     0.07126581    0.00038178   -0.02768263
     atom   48 type  3   force =     0.00129024    0.00100487    0.00040150
     atom   49 type  4   force =    -0.00028506   -0.00021990   -0.00054657
     atom   50 type  5   force =    -0.00000162   -0.00059467    0.00018784
     atom   51 type  5   force =     0.00018979   -0.00054960    0.00011158
     atom   52 type  2   force =     0.00616048    0.00430473    0.00662052
     atom   53 type  5   force =    -0.00676819   -0.00475110   -0.00538083
     atom   54 type  5   force =    -0.00026094    0.00006343   -0.00062053

     Total force =     0.368093     Total SCF correction =     0.000603
  @ DRIVER MODE: Message from server: STATUS
  @ DRIVER MODE: Message from server: GETFORCE
  @ DRIVER MODE: Returning v,forces,stress,ensemble 

     Writing output data file ./calc.save/
  @ DRIVER MODE: Message from server: EXIT
  @ DRIVE MODE: Exiting  
 
     init_run     :     10.68s CPU     10.89s WALL (       1 calls)
     electrons    :   1176.90s CPU   1193.64s WALL (       1 calls)
     forces       :      2.32s CPU      2.41s WALL (       1 calls)

     Called by init_run:
     wfcinit      :      4.72s CPU      4.78s WALL (       1 calls)
     potinit      :      5.31s CPU      5.37s WALL (       1 calls)
     hinit0       :      0.29s CPU      0.30s WALL (       1 calls)

     Called by electrons:
     c_bands      :   1000.50s CPU   1007.36s WALL (      76 calls)
     sum_band     :    119.73s CPU    123.75s WALL (      76 calls)
     v_of_rho     :     42.39s CPU     44.40s WALL (      77 calls)
     newd         :     17.27s CPU     21.15s WALL (      77 calls)
     mix_rho      :      1.55s CPU      1.58s WALL (      76 calls)
     vdW_kernel   :      4.54s CPU      4.56s WALL (       1 calls)

     Called by c_bands:
     init_us_2    :      6.97s CPU      7.00s WALL (    1540 calls)
     cegterg      :    980.08s CPU    986.61s WALL (     771 calls)

     Called by *egterg:
     cdiaghg      :    168.42s CPU    169.11s WALL (    7831 calls)
     h_psi        :    521.49s CPU    526.02s WALL (    7841 calls)
     s_psi        :     68.86s CPU     69.08s WALL (    7841 calls)
     g_psi        :      1.84s CPU      1.86s WALL (    7060 calls)

     Called by h_psi:
     h_psi:calbec :     64.21s CPU     64.50s WALL (    7841 calls)
     vloc_psi     :    384.76s CPU    388.47s WALL (    7841 calls)
     add_vuspsi   :     69.17s CPU     69.50s WALL (    7841 calls)

     General routines
     calbec       :     85.02s CPU     85.38s WALL (    8641 calls)
     fft          :     22.01s CPU     22.16s WALL (    4851 calls)
     ffts         :      0.14s CPU      0.14s WALL (     153 calls)
     fftw         :    432.73s CPU    436.96s WALL ( 1019690 calls)
     interpolate  :      0.44s CPU      0.45s WALL (      77 calls)
     davcio       :      0.00s CPU      0.16s WALL (      10 calls)
 
     Parallel routines
 
     PWSCF        :  19m50.17s CPU  20m 7.57s WALL

 
   This run was terminated on:   3: 9:19  16Sep2021            

=------------------------------------------------------------------------------=
   JOB DONE.
=------------------------------------------------------------------------------=
