
     Program PWSCF v.6.7GPU starts on 16Sep2021 at  8:32:53 

     This program is part of the open-source Quantum ESPRESSO suite
     for quantum simulation of materials; please cite
         "P. Giannozzi et al., J. Phys.:Condens. Matter 21 395502 (2009);
         "P. Giannozzi et al., J. Phys.:Condens. Matter 29 465901 (2017);
         "P. Giannozzi et al., J. Chem. Phys. 152 154105 (2020);
          URL http://www.quantum-espresso.org", 
     in publications or presentations arising from this work. More details at
     http://www.quantum-espresso.org/quote

     Parallel version (MPI), running on    10 processors

     MPI processes distributed on     1 nodes
     R & G space division:  proc/nbgrp/npool/nimage =      10
     Reading input from /storage/home/hcoda1/3/ntian30/research/carbon/CxH_vib/H2O_calc/ads_slab/CH3NHNH2H2O_a/out_0048/pw.inp
Warning: card &CELL ignored
Warning: card   CELL_DYNAMICS='IPI', ignored
Warning: card / ignored

     Current dimensions of program PWSCF are:
     Max number of different atomic species (ntypx) = 10
     Max number of k-points (npk) =  40000
     Max angular momentum in pseudopotentials (lmaxx) =  3
     Presently no symmetry can be used with electric field

     Message from routine cell_base_init:
     DEPRECATED: use true lattice parameter, not A to a.u. conversion factor

     **************************************************************************
     Initializing libbeef V0.1.2 with the BEEF-vdW functional.
     Citation: Wellendorff et al., PRB 85, 235149 (2012).
     **************************************************************************


     IMPORTANT: XC functional enforced from input :
     Exchange-correlation= BEEF-VDW
                           (   1   4  43  14   2   0   0)
     Any further DFT definition will be discarded
     Please, verify this is what you really want


     Subspace diagonalization in iterative solution of the eigenvalue problem:
     one sub-group per band group will be used
     scalapack distributed-memory algorithm (size of sub-group:  3*  3 procs)

  @ DRIVER MODE: Connecting to 
 qe_1139763_2852619.sched-torque.pace.gatech.eduzy3kyjdt_scratch
  using UNIX socket
  @ DRIVER MODE: Message from server: STATUS
  @ DRIVER MODE: Message from server: INIT
  @ DRIVER MODE: Receiving replica           0          -1
  @ DRIVER MODE: Receiving encoded integer          25
  @ DRIVER MODE:  SCF:  T  FORCE:  T  STRESS:  F  VC:  F  ENSEMBLE:  F
  @ DRIVER MODE:  SCF:  T  FORCE:  T  STRESS:  F  VC:  F  ENSEMBLE:  F
 
     Parallelization info
     --------------------
     sticks:   dense  smooth     PW     G-vecs:    dense   smooth      PW
     Min         327     131     37                56683    14340    2191
     Max         328     133     38                56694    14346    2206
     Sum        3275    1317    379               566857   143421   21985
 
     Using Slab Decomposition
 


     bravais-lattice index     =            0
     lattice parameter (alat)  =       1.8897  a.u.
     unit-cell volume          =    6658.9804 (a.u.)^3
     number of atoms/cell      =           59
     number of atomic types    =            5
     number of electrons       =       406.00
     number of Kohn-Sham states=          213
     kinetic-energy cutoff     =      29.3995  Ry
     charge density cutoff     =     293.9946  Ry
     scf convergence threshold =      7.3E-08
     mixing beta               =       0.0500
     number of iterations used =            8  plain     mixing
     Exchange-correlation= BEEF-VDW
                           (   1   4  43  14   2   0   0)

     celldm(1)=   1.889726  celldm(2)=   0.000000  celldm(3)=   0.000000
     celldm(4)=   0.000000  celldm(5)=   0.000000  celldm(6)=   0.000000

     crystal axes: (cart. coord. in units of alat)
               a(1) = (   6.579727   0.000000   0.000000 )  
               a(2) = (  -0.000775   5.961596   0.000000 )  
               a(3) = (   0.000000   0.000000  25.155947 )  

     reciprocal axes: (cart. coord. in units 2 pi/alat)
               b(1) = (  0.151982  0.000020  0.000000 )  
               b(2) = (  0.000000  0.167740  0.000000 )  
               b(3) = (  0.000000  0.000000  0.039752 )  


     PseudoPot. # 1 for Ti read from file:
     /storage/coda1/p-amedford6/0/shared/rich_project_chbe-medford/medford-share/data/pseudos_module/espresso/nninc/pbe/van/Ti.UPF
     MD5 check sum: 8e4df49b7f0d34bbd5052bf3f5ea0213
     Pseudo is Ultrasoft, Zval = 12.0
     Generated by new atomic code, or converted to UPF format
     Using radial grid of  851 points,  6 beta functions with: 
                l(1) =   0
                l(2) =   0
                l(3) =   1
                l(4) =   1
                l(5) =   2
                l(6) =   2
     Q(r) pseudized with  8 coefficients,  rinner =    1.000   1.000   1.000
                                                       1.000   1.000

     PseudoPot. # 2 for O  read from file:
     /storage/coda1/p-amedford6/0/shared/rich_project_chbe-medford/medford-share/data/pseudos_module/espresso/nninc/pbe/van/O.UPF
     MD5 check sum: 78c19812648e8988a0fe644b0f25305e
     Pseudo is Ultrasoft, Zval =  6.0
     Generated by new atomic code, or converted to UPF format
     Using radial grid of  737 points,  4 beta functions with: 
                l(1) =   0
                l(2) =   0
                l(3) =   1
                l(4) =   1
     Q(r) pseudized with  8 coefficients,  rinner =    0.800   0.800   0.800


     PseudoPot. # 3 for N  read from file:
     /storage/coda1/p-amedford6/0/shared/rich_project_chbe-medford/medford-share/data/pseudos_module/espresso/nninc/pbe/van/N.UPF
     MD5 check sum: 90d10febe142ad51ac9d5be1deb811c4
     Pseudo is Ultrasoft, Zval =  5.0
     Generated by new atomic code, or converted to UPF format
     Using radial grid of  729 points,  4 beta functions with: 
                l(1) =   0
                l(2) =   0
                l(3) =   1
                l(4) =   1
     Q(r) pseudized with  8 coefficients,  rinner =    0.800   0.800   0.800


     PseudoPot. # 4 for C  read from file:
     /storage/coda1/p-amedford6/0/shared/rich_project_chbe-medford/medford-share/data/pseudos_module/espresso/nninc/pbe/van/C.UPF
     MD5 check sum: 1a69bf6b8db32088f5b2163dbdb77a27
     Pseudo is Ultrasoft, Zval =  4.0
     Generated by new atomic code, or converted to UPF format
     Using radial grid of  721 points,  4 beta functions with: 
                l(1) =   0
                l(2) =   0
                l(3) =   1
                l(4) =   1
     Q(r) pseudized with  8 coefficients,  rinner =    0.800   0.800   0.800


     PseudoPot. # 5 for H  read from file:
     /storage/coda1/p-amedford6/0/shared/rich_project_chbe-medford/medford-share/data/pseudos_module/espresso/nninc/pbe/van/H.UPF
     MD5 check sum: b5ee9d7bfd3a09ee7748110bda690ff7
     Pseudo is Ultrasoft, Zval =  1.0
     Generated by new atomic code, or converted to UPF format
     Using radial grid of  615 points,  1 beta functions with: 
                l(1) =   0
     Q(r) pseudized with  8 coefficients,  rinner =    0.800

     atomic species   valence    mass     pseudopotential
        Ti1           12.00    47.86700     Ti( 1.00)
        O1             6.00    15.99900     O ( 1.00)
        N1             5.00    14.00700     N ( 1.00)
        C1             4.00    12.01100     C ( 1.00)
        H1             1.00     1.00800     H ( 1.00)

     No symmetry found



   Cartesian axes

     site n.     atom                  positions (alat units)
         1           Ti1 tau(   1) = (   0.0004258   2.9801865   6.0000000  )
         2           Ti1 tau(   2) = (   3.2906075   1.4906267   6.0002472  )
         3           O1  tau(   3) = (   0.0006271   0.0005054   7.9858123  )
         4           O1  tau(   4) = (   3.2906025   0.0005020   7.3038282  )
         5           O1  tau(   5) = (   4.5942328   1.4918067   9.2879030  )
         6           O1  tau(   6) = (   1.9868534   1.4903216   9.2879459  )
         7           Ti1 tau(   7) = (   3.2907910   2.8959150   9.1758416  )
         8           Ti1 tau(   8) = (   0.0015273   1.4827037   9.2680791  )
         9           O1  tau(   9) = (   3.2683845   0.0132936  11.3796717  )
        10           O1  tau(  10) = (   0.0116148   5.9584955  10.6183126  )
        11           O1  tau(  11) = (   1.2681313   1.5011218  12.7194972  )
        12           O1  tau(  12) = (   5.2787963   1.4993765  12.6897032  )
        13           Ti1 tau(  13) = (   6.5560253   2.9823375  12.4990790  )
        14           Ti1 tau(  14) = (   3.2673924   1.4925278  12.5394213  )
        15           O1  tau(  15) = (   6.5345332   5.8735037  14.6996474  )
        16           O1  tau(  16) = (   3.2898196   5.9462848  13.9939205  )
        17           O1  tau(  17) = (   4.4957945   1.5291507  16.1605787  )
        18           O1  tau(  18) = (   1.9883785   1.5110281  16.0762771  )
        19           Ti1 tau(  19) = (   3.2526948   3.0056396  15.7740191  )
        20           Ti1 tau(  20) = (   0.0000763   1.3299063  15.8143521  )
        21           O1  tau(  21) = (   3.2904802   0.0005063   4.7018136  )
        22           O1  tau(  22) = (   6.5205728   0.2065101  17.2442985  )
        23           O1  tau(  23) = (   1.3043587   1.4918075   6.0039043  )
        24           O1  tau(  24) = (   5.2767064   1.4903225   6.0039473  )
        25           Ti1 tau(  25) = (   0.0000382   5.9609847   6.0000000  )
        26           Ti1 tau(  26) = (   3.2902200   4.4714249   6.0002472  )
        27           O1  tau(  27) = (   0.0002396   2.9813036   7.9858123  )
        28           O1  tau(  28) = (   3.2902150   2.9813002   7.3038282  )
        29           O1  tau(  29) = (   4.5938453   4.4726049   9.2879030  )
        30           O1  tau(  30) = (   1.9864658   4.4711199   9.2879459  )
        31           Ti1 tau(  31) = (   3.2891106   5.8743827   9.1763621  )
        32           Ti1 tau(  32) = (   0.0006254   4.4649316   9.2693709  )
        33           O1  tau(  33) = (   3.2688559   2.9716192  11.3757022  )
        34           O1  tau(  34) = (   0.0092240   2.9805883  10.6323155  )
        35           O1  tau(  35) = (   1.2711362   4.4646907  12.6658965  )
        36           O1  tau(  36) = (   5.2748280   4.4660984  12.6332574  )
        37           Ti1 tau(  37) = (   6.5627654   5.9477838  12.5072267  )
        38           Ti1 tau(  38) = (   3.2667511   4.4702655  12.5260729  )
        39           O1  tau(  39) = (   6.5087961   3.0586107  15.0099536  )
        40           O1  tau(  40) = (   3.2849776   3.0149387  13.9815115  )
        41           O1  tau(  41) = (   4.4906635   4.4862850  16.2792570  )
        42           O1  tau(  42) = (   1.9756856   4.4939852  16.2100911  )
        43           Ti1 tau(  43) = (   3.2747729   0.0241646  15.7895078  )
        44           Ti1 tau(  44) = (   6.5697470   4.5456975  16.1185117  )
        45           O1  tau(  45) = (   3.2900926   2.9813045   4.7018136  )
        46           O1  tau(  46) = (   1.3039711   4.4726057   6.0039043  )
        47           O1  tau(  47) = (   5.2763189   4.4711207   6.0039473  )
        48           N1  tau(  48) = (   0.9980056   3.0961469  19.0053282  )
        49           N1  tau(  49) = (   6.4063515   3.4839273  18.2229180  )
        50           C1  tau(  50) = (   1.6570833   4.2684698  19.5811903  )
        51           H1  tau(  51) = (   0.9936588   4.8902639  20.1979557  )
        52           H1  tau(  52) = (   2.4789334   3.9063689  20.1993048  )
        53           H1  tau(  53) = (   2.0598354   4.8861676  18.7819781  )
        54           H1  tau(  54) = (   0.6510520   2.5058952  19.7602174  )
        55           H1  tau(  55) = (   5.8507131   4.1735594  18.7514995  )
        56           H1  tau(  56) = (   5.8147758   2.6545292  18.1916272  )
        57           O1  tau(  57) = (   5.1718451   0.7889162  19.5681371  )
        58           H1  tau(  58) = (   5.5516362   0.5215711  18.6954158  )
        59           H1  tau(  59) = (   4.2099197   0.7512590  19.4668632  )

     number of k points=    10  Fermi-Dirac smearing, width (Ry)=  0.0073
                       cart. coord. in units 2pi/alat
        k(    1) = (   0.0000000   0.0000000   0.0000000), wk =   0.1250000
        k(    2) = (   0.0000000   0.0419351   0.0000000), wk =   0.2500000
        k(    3) = (   0.0000000  -0.0838702   0.0000000), wk =   0.1250000
        k(    4) = (   0.0379955   0.0000049   0.0000000), wk =   0.2500000
        k(    5) = (   0.0379955   0.0419400   0.0000000), wk =   0.2500000
        k(    6) = (   0.0379955  -0.0838652   0.0000000), wk =   0.2500000
        k(    7) = (   0.0379955  -0.0419301   0.0000000), wk =   0.2500000
        k(    8) = (  -0.0759910  -0.0000099   0.0000000), wk =   0.1250000
        k(    9) = (  -0.0759910   0.0419252   0.0000000), wk =   0.2500000
        k(   10) = (  -0.0759910  -0.0838800   0.0000000), wk =   0.1250000

     Dense  grid:   566857 G-vectors     FFT dimensions: (  72,  64, 270)

     Smooth grid:   143421 G-vectors     FFT dimensions: (  45,  40, 180)

     Estimated max dynamical RAM per process >     368.16 MB

     Estimated total dynamical RAM >       3.60 GB
     Cannot read rho : file not found

     Initial potential from superposition of free atoms

     starting charge  389.99912, renormalised to  406.00000

     negative rho (up, down):  1.389E-02 0.000E+00


     %%%%%%%%%%%%%%%%%%%%%%%%%%%%%%%%%%%%%%%%%%%%%%%%%%%%%%%%%%%%%%%%%%%%%%%%
     %                                                                      %
     % You are using vdW-DF, which was implemented by the Thonhauser group. %
     % Please cite the following two papers that made this development      %
     % possible and the two reviews that describe the various versions:     %
     %                                                                      %
     %   T. Thonhauser et al., PRL 115, 136402 (2015).                      %
     %   T. Thonhauser et al., PRB 76, 125112 (2007).                       %
     %   K. Berland et al., Rep. Prog. Phys. 78, 066501 (2015).             %
     %   D.C. Langreth et al., J. Phys.: Condens. Matter 21, 084203 (2009). %
     %                                                                      %
     %                                                                      %
     % If you are calculating the stress with vdW-DF, please also cite:     %
     %                                                                      %
     %   R. Sabatini et al., J. Phys.: Condens. Matter 24, 424209 (2012).   %
     %                                                                      %
     %%%%%%%%%%%%%%%%%%%%%%%%%%%%%%%%%%%%%%%%%%%%%%%%%%%%%%%%%%%%%%%%%%%%%%%%


 
     Adding external electric field

     Computed dipole along edir(3) : 
        Dipole              -16.7184 Ry au,        -42.4940 Debye
        Dipole field         -0.0315 Ry au, 
 
        Potential amp.        2.9246 Ry
        Total length         46.3494 bohr
 
     Starting wfcs are  308 atomic wfcs
  @ DRIVER MODE: Message from server: STATUS
  @ DRIVER MODE: Message from server: POSDATA
  @ DRIVER MODE: Reading and sharing cell 
  @ DRIVER MODE: Reading and sharing positions 
  @ DRIVER MODE: Received positions 

     total cpu time spent up to now is       11.6 secs

     Self-consistent Calculation

     iteration #  1     ecut=    29.40 Ry     beta= 0.05
     Davidson diagonalization with overlap
     c_bands:  2 eigenvalues not converged
     c_bands:  3 eigenvalues not converged
     c_bands:  2 eigenvalues not converged
     c_bands:  4 eigenvalues not converged
     c_bands:  1 eigenvalues not converged
     c_bands:  4 eigenvalues not converged
     c_bands:  3 eigenvalues not converged
     c_bands:  5 eigenvalues not converged
     c_bands:  3 eigenvalues not converged
     ethr =  1.00E-05,  avg # of iterations = 24.9

     negative rho (up, down):  7.397E-03 0.000E+00
 
     Adding external electric field

     Computed dipole along edir(3) : 
        Dipole               63.5341 Ry au,        161.4876 Debye
        Dipole field          0.1199 Ry au, 
 
        Potential amp.      -11.1143 Ry
        Total length         46.3494 bohr
 

     total cpu time spent up to now is       60.4 secs

     total energy              =   -2136.66363492 Ry
     estimated scf accuracy    <    9692.93833200 Ry

     iteration #  2     ecut=    29.40 Ry     beta= 0.05
     Davidson diagonalization with overlap
     ethr =  1.00E-02,  avg # of iterations = 32.6

     negative rho (up, down):  2.209E-04 0.000E+00
 
     Adding external electric field

     Computed dipole along edir(3) : 
        Dipole                0.5475 Ry au,          1.3916 Debye
        Dipole field          0.0010 Ry au, 
 
        Potential amp.       -0.0958 Ry
        Total length         46.3494 bohr
 

     total cpu time spent up to now is      160.7 secs

     total energy              =   -2438.05881899 Ry
     estimated scf accuracy    <   80221.46232003 Ry

     iteration #  3     ecut=    29.40 Ry     beta= 0.05
     Davidson diagonalization with overlap
     ethr =  1.00E-02,  avg # of iterations = 16.4

     negative rho (up, down):  2.580E-04 0.000E+00
 
     Adding external electric field

     Computed dipole along edir(3) : 
        Dipole               -3.0405 Ry au,         -7.7282 Debye
        Dipole field         -0.0057 Ry au, 
 
        Potential amp.        0.5319 Ry
        Total length         46.3494 bohr
 

     total cpu time spent up to now is      211.3 secs

     total energy              =   -2970.66120524 Ry
     estimated scf accuracy    <    8215.57880232 Ry

     iteration #  4     ecut=    29.40 Ry     beta= 0.05
     Davidson diagonalization with overlap
     ethr =  1.00E-02,  avg # of iterations = 10.6

     negative rho (up, down):  2.742E-04 0.000E+00
 
     Adding external electric field

     Computed dipole along edir(3) : 
        Dipole               -4.8952 Ry au,        -12.4423 Debye
        Dipole field         -0.0092 Ry au, 
 
        Potential amp.        0.8563 Ry
        Total length         46.3494 bohr
 

     total cpu time spent up to now is      234.6 secs

     total energy              =   -2970.01781284 Ry
     estimated scf accuracy    <    2779.88976913 Ry

     iteration #  5     ecut=    29.40 Ry     beta= 0.05
     Davidson diagonalization with overlap
     c_bands:  1 eigenvalues not converged
     c_bands:  3 eigenvalues not converged
     c_bands:  3 eigenvalues not converged
     c_bands:  1 eigenvalues not converged
     c_bands:  4 eigenvalues not converged
     ethr =  1.00E-02,  avg # of iterations = 15.6

     negative rho (up, down):  2.941E-04 0.000E+00
 
     Adding external electric field

     Computed dipole along edir(3) : 
        Dipole               -5.7295 Ry au,        -14.5630 Debye
        Dipole field         -0.0108 Ry au, 
 
        Potential amp.        1.0023 Ry
        Total length         46.3494 bohr
 

     total cpu time spent up to now is      253.8 secs

     total energy              =   -2972.79449833 Ry
     estimated scf accuracy    <     881.61466154 Ry

     iteration #  6     ecut=    29.40 Ry     beta= 0.05
     Davidson diagonalization with overlap
     ethr =  1.00E-02,  avg # of iterations =  7.0

     negative rho (up, down):  2.973E-04 0.000E+00
 
     Adding external electric field

     Computed dipole along edir(3) : 
        Dipole               -5.8188 Ry au,        -14.7899 Debye
        Dipole field         -0.0110 Ry au, 
 
        Potential amp.        1.0179 Ry
        Total length         46.3494 bohr
 

     total cpu time spent up to now is      268.6 secs

     total energy              =   -2976.13718768 Ry
     estimated scf accuracy    <     357.04644550 Ry

     iteration #  7     ecut=    29.40 Ry     beta= 0.05
     Davidson diagonalization with overlap
     ethr =  1.00E-02,  avg # of iterations =  2.0

     negative rho (up, down):  3.163E-04 0.000E+00
 
     Adding external electric field

     Computed dipole along edir(3) : 
        Dipole               -6.0120 Ry au,        -15.2810 Debye
        Dipole field         -0.0113 Ry au, 
 
        Potential amp.        1.0517 Ry
        Total length         46.3494 bohr
 

     total cpu time spent up to now is      279.2 secs

     total energy              =   -2973.53137851 Ry
     estimated scf accuracy    <     357.65949116 Ry

     iteration #  8     ecut=    29.40 Ry     beta= 0.05
     Davidson diagonalization with overlap
     c_bands:  1 eigenvalues not converged
     ethr =  1.00E-02,  avg # of iterations =  4.1

     negative rho (up, down):  3.579E-04 0.000E+00
 
     Adding external electric field

     Computed dipole along edir(3) : 
        Dipole               -6.2482 Ry au,        -15.8813 Debye
        Dipole field         -0.0118 Ry au, 
 
        Potential amp.        1.0930 Ry
        Total length         46.3494 bohr
 

     total cpu time spent up to now is      290.8 secs

     total energy              =   -2970.21920745 Ry
     estimated scf accuracy    <     291.59696872 Ry

     iteration #  9     ecut=    29.40 Ry     beta= 0.05
     Davidson diagonalization with overlap
     ethr =  1.00E-02,  avg # of iterations =  8.5

     negative rho (up, down):  3.407E-04 0.000E+00
 
     Adding external electric field

     Computed dipole along edir(3) : 
        Dipole               -5.5700 Ry au,        -14.1574 Debye
        Dipole field         -0.0105 Ry au, 
 
        Potential amp.        0.9744 Ry
        Total length         46.3494 bohr
 

     total cpu time spent up to now is      307.4 secs

     total energy              =   -2980.80105753 Ry
     estimated scf accuracy    <      17.51948196 Ry

     iteration # 10     ecut=    29.40 Ry     beta= 0.05
     Davidson diagonalization with overlap
     ethr =  4.32E-03,  avg # of iterations =  2.2

     negative rho (up, down):  4.240E-04 0.000E+00
 
     Adding external electric field

     Computed dipole along edir(3) : 
        Dipole               -9.2388 Ry au,        -23.4826 Debye
        Dipole field         -0.0174 Ry au, 
 
        Potential amp.        1.6162 Ry
        Total length         46.3494 bohr
 

     total cpu time spent up to now is      318.5 secs

     total energy              =   -2983.51252357 Ry
     estimated scf accuracy    <      15.63782594 Ry

     iteration # 11     ecut=    29.40 Ry     beta= 0.05
     Davidson diagonalization with overlap
     ethr =  3.85E-03,  avg # of iterations = 14.8

     negative rho (up, down):  4.393E-04 0.000E+00
 
     Adding external electric field

     Computed dipole along edir(3) : 
        Dipole               -7.9864 Ry au,        -20.2994 Debye
        Dipole field         -0.0151 Ry au, 
 
        Potential amp.        1.3971 Ry
        Total length         46.3494 bohr
 

     total cpu time spent up to now is      348.4 secs

     total energy              =   -2997.59749652 Ry
     estimated scf accuracy    <    2288.82710741 Ry

     iteration # 12     ecut=    29.40 Ry     beta= 0.05
     Davidson diagonalization with overlap
     ethr =  3.85E-03,  avg # of iterations =  3.9

     negative rho (up, down):  4.232E-04 0.000E+00
 
     Adding external electric field

     Computed dipole along edir(3) : 
        Dipole               -8.8600 Ry au,        -22.5199 Debye
        Dipole field         -0.0167 Ry au, 
 
        Potential amp.        1.5499 Ry
        Total length         46.3494 bohr
 

     total cpu time spent up to now is      360.1 secs

     total energy              =   -3012.73979484 Ry
     estimated scf accuracy    <    1317.59132121 Ry

     iteration # 13     ecut=    29.40 Ry     beta= 0.05
     Davidson diagonalization with overlap
     ethr =  3.85E-03,  avg # of iterations =  2.5

     negative rho (up, down):  1.058E-03 0.000E+00
 
     Adding external electric field

     Computed dipole along edir(3) : 
        Dipole               -6.2263 Ry au,        -15.8256 Debye
        Dipole field         -0.0117 Ry au, 
 
        Potential amp.        1.0892 Ry
        Total length         46.3494 bohr
 

     total cpu time spent up to now is      371.4 secs

     total energy              =   -2963.93036653 Ry
     estimated scf accuracy    <    1987.97526560 Ry

     iteration # 14     ecut=    29.40 Ry     beta= 0.05
     Davidson diagonalization with overlap
     ethr =  3.85E-03,  avg # of iterations = 13.5

     negative rho (up, down):  4.573E-04 0.000E+00
 
     Adding external electric field

     Computed dipole along edir(3) : 
        Dipole               -5.7277 Ry au,        -14.5585 Debye
        Dipole field         -0.0108 Ry au, 
 
        Potential amp.        1.0020 Ry
        Total length         46.3494 bohr
 

     total cpu time spent up to now is      391.8 secs

     total energy              =   -2978.53870247 Ry
     estimated scf accuracy    <     120.03850763 Ry

     iteration # 15     ecut=    29.40 Ry     beta= 0.05
     Davidson diagonalization with overlap
     ethr =  3.85E-03,  avg # of iterations =  6.1

     negative rho (up, down):  4.371E-04 0.000E+00
 
     Adding external electric field

     Computed dipole along edir(3) : 
        Dipole               -6.8229 Ry au,        -17.3421 Debye
        Dipole field         -0.0129 Ry au, 
 
        Potential amp.        1.1936 Ry
        Total length         46.3494 bohr
 

     total cpu time spent up to now is      404.1 secs

     total energy              =   -2981.24693211 Ry
     estimated scf accuracy    <      40.67316271 Ry

     iteration # 16     ecut=    29.40 Ry     beta= 0.05
     Davidson diagonalization with overlap
     ethr =  3.85E-03,  avg # of iterations =  1.9

     negative rho (up, down):  1.968E-02 0.000E+00
 
     Adding external electric field

     Computed dipole along edir(3) : 
        Dipole               -5.8020 Ry au,        -14.7473 Debye
        Dipole field         -0.0109 Ry au, 
 
        Potential amp.        1.0150 Ry
        Total length         46.3494 bohr
 

     total cpu time spent up to now is      415.0 secs

     total energy              =   -2975.34390931 Ry
     estimated scf accuracy    <     120.18764328 Ry

     iteration # 17     ecut=    29.40 Ry     beta= 0.05
     Davidson diagonalization with overlap
     ethr =  3.85E-03,  avg # of iterations =  8.9

     negative rho (up, down):  3.068E-03 0.000E+00
 
     Adding external electric field

     Computed dipole along edir(3) : 
        Dipole               -4.7637 Ry au,        -12.1080 Debye
        Dipole field         -0.0090 Ry au, 
 
        Potential amp.        0.8333 Ry
        Total length         46.3494 bohr
 

     total cpu time spent up to now is      429.1 secs

     total energy              =   -2978.52786649 Ry
     estimated scf accuracy    <      34.12458750 Ry

     iteration # 18     ecut=    29.40 Ry     beta= 0.05
     Davidson diagonalization with overlap
     ethr =  3.85E-03,  avg # of iterations =  2.9

     negative rho (up, down):  3.106E-02 0.000E+00
 
     Adding external electric field

     Computed dipole along edir(3) : 
        Dipole               -3.4954 Ry au,         -8.8844 Debye
        Dipole field         -0.0066 Ry au, 
 
        Potential amp.        0.6115 Ry
        Total length         46.3494 bohr
 

     total cpu time spent up to now is      440.0 secs

     total energy              =   -2977.68575728 Ry
     estimated scf accuracy    <      10.17352592 Ry

     iteration # 19     ecut=    29.40 Ry     beta= 0.05
     Davidson diagonalization with overlap
     c_bands:  3 eigenvalues not converged
     c_bands:  2 eigenvalues not converged
     ethr =  2.51E-03,  avg # of iterations = 18.1

     negative rho (up, down):  2.523E-02 0.000E+00
 
     Adding external electric field

     Computed dipole along edir(3) : 
        Dipole               -4.0940 Ry au,        -10.4059 Debye
        Dipole field         -0.0077 Ry au, 
 
        Potential amp.        0.7162 Ry
        Total length         46.3494 bohr
 

     total cpu time spent up to now is      460.5 secs

     total energy              =   -2978.26766399 Ry
     estimated scf accuracy    <       8.89204045 Ry

     iteration # 20     ecut=    29.40 Ry     beta= 0.05
     Davidson diagonalization with overlap
     ethr =  2.19E-03,  avg # of iterations =  1.2

     negative rho (up, down):  6.206E-02 0.000E+00
 
     Adding external electric field

     Computed dipole along edir(3) : 
        Dipole               -4.4820 Ry au,        -11.3920 Debye
        Dipole field         -0.0085 Ry au, 
 
        Potential amp.        0.7841 Ry
        Total length         46.3494 bohr
 

     total cpu time spent up to now is      470.8 secs

     total energy              =   -2977.69311105 Ry
     estimated scf accuracy    <       5.17306121 Ry

     iteration # 21     ecut=    29.40 Ry     beta= 0.05
     Davidson diagonalization with overlap
     c_bands:  1 eigenvalues not converged
     c_bands:  1 eigenvalues not converged
     ethr =  1.27E-03,  avg # of iterations = 13.8

     negative rho (up, down):  6.601E-02 0.000E+00
 
     Adding external electric field

     Computed dipole along edir(3) : 
        Dipole               -2.7042 Ry au,         -6.8733 Debye
        Dipole field         -0.0051 Ry au, 
 
        Potential amp.        0.4731 Ry
        Total length         46.3494 bohr
 

     total cpu time spent up to now is      487.7 secs

     total energy              =   -2976.87750291 Ry
     estimated scf accuracy    <      28.83105222 Ry

     iteration # 22     ecut=    29.40 Ry     beta= 0.05
     Davidson diagonalization with overlap
     c_bands:  1 eigenvalues not converged
     ethr =  1.27E-03,  avg # of iterations =  7.3

     negative rho (up, down):  7.711E-02 0.000E+00
 
     Adding external electric field

     Computed dipole along edir(3) : 
        Dipole               -2.2190 Ry au,         -5.6400 Debye
        Dipole field         -0.0042 Ry au, 
 
        Potential amp.        0.3882 Ry
        Total length         46.3494 bohr
 

     total cpu time spent up to now is      501.8 secs

     total energy              =   -2977.68425558 Ry
     estimated scf accuracy    <       1.61845906 Ry

     iteration # 23     ecut=    29.40 Ry     beta= 0.05
     Davidson diagonalization with overlap
     c_bands:  5 eigenvalues not converged
     c_bands:  3 eigenvalues not converged
     ethr =  3.99E-04,  avg # of iterations = 14.5

     negative rho (up, down):  8.021E-02 0.000E+00
 
     Adding external electric field

     Computed dipole along edir(3) : 
        Dipole               -2.1887 Ry au,         -5.5630 Debye
        Dipole field         -0.0041 Ry au, 
 
        Potential amp.        0.3829 Ry
        Total length         46.3494 bohr
 

     total cpu time spent up to now is      520.2 secs

     total energy              =   -2977.98077537 Ry
     estimated scf accuracy    <       2.15493812 Ry

     iteration # 24     ecut=    29.40 Ry     beta= 0.05
     Davidson diagonalization with overlap
     ethr =  3.99E-04,  avg # of iterations =  2.6

     negative rho (up, down):  8.524E-02 0.000E+00
 
     Adding external electric field

     Computed dipole along edir(3) : 
        Dipole               -1.9910 Ry au,         -5.0606 Debye
        Dipole field         -0.0038 Ry au, 
 
        Potential amp.        0.3483 Ry
        Total length         46.3494 bohr
 

     total cpu time spent up to now is      531.1 secs

     total energy              =   -2977.96824134 Ry
     estimated scf accuracy    <       2.54778103 Ry

     iteration # 25     ecut=    29.40 Ry     beta= 0.05
     Davidson diagonalization with overlap
     ethr =  3.99E-04,  avg # of iterations =  1.0

     negative rho (up, down):  5.869E-02 0.000E+00
 
     Adding external electric field

     Computed dipole along edir(3) : 
        Dipole               -2.1231 Ry au,         -5.3964 Debye
        Dipole field         -0.0040 Ry au, 
 
        Potential amp.        0.3714 Ry
        Total length         46.3494 bohr
 

     total cpu time spent up to now is      541.2 secs

     total energy              =   -2977.61420307 Ry
     estimated scf accuracy    <       1.97073706 Ry

     iteration # 26     ecut=    29.40 Ry     beta= 0.05
     Davidson diagonalization with overlap
     c_bands:  3 eigenvalues not converged
     c_bands:  2 eigenvalues not converged
     c_bands:  1 eigenvalues not converged
     c_bands:  1 eigenvalues not converged
     c_bands:  1 eigenvalues not converged
     c_bands:  4 eigenvalues not converged
     ethr =  3.99E-04,  avg # of iterations = 17.9

     negative rho (up, down):  5.615E-02 0.000E+00
 
     Adding external electric field

     Computed dipole along edir(3) : 
        Dipole               -2.0984 Ry au,         -5.3335 Debye
        Dipole field         -0.0040 Ry au, 
 
        Potential amp.        0.3671 Ry
        Total length         46.3494 bohr
 

     total cpu time spent up to now is      560.1 secs

     total energy              =   -2977.96269586 Ry
     estimated scf accuracy    <       3.73409566 Ry

     iteration # 27     ecut=    29.40 Ry     beta= 0.05
     Davidson diagonalization with overlap
     ethr =  3.99E-04,  avg # of iterations =  1.9

     negative rho (up, down):  5.020E-02 0.000E+00
 
     Adding external electric field

     Computed dipole along edir(3) : 
        Dipole               -1.8908 Ry au,         -4.8060 Debye
        Dipole field         -0.0036 Ry au, 
 
        Potential amp.        0.3308 Ry
        Total length         46.3494 bohr
 

     total cpu time spent up to now is      570.8 secs

     total energy              =   -2977.90370559 Ry
     estimated scf accuracy    <       3.59847517 Ry

     iteration # 28     ecut=    29.40 Ry     beta= 0.05
     Davidson diagonalization with overlap
     ethr =  3.99E-04,  avg # of iterations =  1.0

     negative rho (up, down):  3.787E-02 0.000E+00
 
     Adding external electric field

     Computed dipole along edir(3) : 
        Dipole               -1.1520 Ry au,         -2.9280 Debye
        Dipole field         -0.0022 Ry au, 
 
        Potential amp.        0.2015 Ry
        Total length         46.3494 bohr
 

     total cpu time spent up to now is      580.9 secs

     total energy              =   -2977.67090609 Ry
     estimated scf accuracy    <       3.08572658 Ry

     iteration # 29     ecut=    29.40 Ry     beta= 0.05
     Davidson diagonalization with overlap
     ethr =  3.99E-04,  avg # of iterations =  1.9

     negative rho (up, down):  3.573E-02 0.000E+00
 
     Adding external electric field

     Computed dipole along edir(3) : 
        Dipole               -0.8143 Ry au,         -2.0696 Debye
        Dipole field         -0.0015 Ry au, 
 
        Potential amp.        0.1424 Ry
        Total length         46.3494 bohr
 

     total cpu time spent up to now is      591.9 secs

     total energy              =   -2977.62503083 Ry
     estimated scf accuracy    <       1.58334914 Ry

     iteration # 30     ecut=    29.40 Ry     beta= 0.05
     Davidson diagonalization with overlap
     c_bands:  3 eigenvalues not converged
     c_bands:  5 eigenvalues not converged
     ethr =  3.90E-04,  avg # of iterations = 27.6

     negative rho (up, down):  4.127E-02 0.000E+00
 
     Adding external electric field

     Computed dipole along edir(3) : 
        Dipole               -0.9682 Ry au,         -2.4610 Debye
        Dipole field         -0.0018 Ry au, 
 
        Potential amp.        0.1694 Ry
        Total length         46.3494 bohr
 

     total cpu time spent up to now is      619.3 secs

     total energy              =   -2977.72099858 Ry
     estimated scf accuracy    <       2.67468968 Ry

     iteration # 31     ecut=    29.40 Ry     beta= 0.05
     Davidson diagonalization with overlap
     ethr =  3.90E-04,  avg # of iterations =  1.2

     negative rho (up, down):  4.336E-02 0.000E+00
 
     Adding external electric field

     Computed dipole along edir(3) : 
        Dipole               -1.0214 Ry au,         -2.5961 Debye
        Dipole field         -0.0019 Ry au, 
 
        Potential amp.        0.1787 Ry
        Total length         46.3494 bohr
 

     total cpu time spent up to now is      629.6 secs

     total energy              =   -2977.71819097 Ry
     estimated scf accuracy    <       1.07213457 Ry

     iteration # 32     ecut=    29.40 Ry     beta= 0.05
     Davidson diagonalization with overlap
     ethr =  2.64E-04,  avg # of iterations =  3.4

     negative rho (up, down):  4.139E-02 0.000E+00
 
     Adding external electric field

     Computed dipole along edir(3) : 
        Dipole               -1.1540 Ry au,         -2.9333 Debye
        Dipole field         -0.0022 Ry au, 
 
        Potential amp.        0.2019 Ry
        Total length         46.3494 bohr
 

     total cpu time spent up to now is      640.9 secs

     total energy              =   -2977.65065913 Ry
     estimated scf accuracy    <       0.33316118 Ry

     iteration # 33     ecut=    29.40 Ry     beta= 0.05
     Davidson diagonalization with overlap
     c_bands:  4 eigenvalues not converged
     c_bands:  4 eigenvalues not converged
     c_bands:  2 eigenvalues not converged
     c_bands:  1 eigenvalues not converged
     c_bands:  5 eigenvalues not converged
     c_bands:  2 eigenvalues not converged
     c_bands:  4 eigenvalues not converged
     c_bands:  5 eigenvalues not converged
     ethr =  8.21E-05,  avg # of iterations = 26.0

     negative rho (up, down):  3.183E-02 0.000E+00
 
     Adding external electric field

     Computed dipole along edir(3) : 
        Dipole               -0.2074 Ry au,         -0.5272 Debye
        Dipole field         -0.0004 Ry au, 
 
        Potential amp.        0.0363 Ry
        Total length         46.3494 bohr
 

     total cpu time spent up to now is      669.4 secs

     total energy              =   -2977.68764057 Ry
     estimated scf accuracy    <       2.52402947 Ry

     iteration # 34     ecut=    29.40 Ry     beta= 0.05
     Davidson diagonalization with overlap
     c_bands:  1 eigenvalues not converged
     c_bands:  1 eigenvalues not converged
     c_bands:  3 eigenvalues not converged
     c_bands:  1 eigenvalues not converged
     c_bands:  1 eigenvalues not converged
     c_bands:  1 eigenvalues not converged
     ethr =  8.21E-05,  avg # of iterations = 17.3

     negative rho (up, down):  2.385E-02 0.000E+00
 
     Adding external electric field

     Computed dipole along edir(3) : 
        Dipole                0.0666 Ry au,          0.1694 Debye
        Dipole field          0.0001 Ry au, 
 
        Potential amp.       -0.0117 Ry
        Total length         46.3494 bohr
 

     total cpu time spent up to now is      688.2 secs

     total energy              =   -2977.68699699 Ry
     estimated scf accuracy    <       0.63410393 Ry

     iteration # 35     ecut=    29.40 Ry     beta= 0.05
     Davidson diagonalization with overlap
     ethr =  8.21E-05,  avg # of iterations =  6.2

     negative rho (up, down):  2.005E-02 0.000E+00
 
     Adding external electric field

     Computed dipole along edir(3) : 
        Dipole                0.0909 Ry au,          0.2309 Debye
        Dipole field          0.0002 Ry au, 
 
        Potential amp.       -0.0159 Ry
        Total length         46.3494 bohr
 

     total cpu time spent up to now is      700.3 secs

     total energy              =   -2977.68657973 Ry
     estimated scf accuracy    <       0.37906082 Ry

     iteration # 36     ecut=    29.40 Ry     beta= 0.05
     Davidson diagonalization with overlap
     ethr =  8.21E-05,  avg # of iterations =  6.3

     negative rho (up, down):  2.022E-02 0.000E+00
 
     Adding external electric field

     Computed dipole along edir(3) : 
        Dipole                0.0283 Ry au,          0.0720 Debye
        Dipole field          0.0001 Ry au, 
 
        Potential amp.       -0.0050 Ry
        Total length         46.3494 bohr
 

     total cpu time spent up to now is      712.7 secs

     total energy              =   -2977.72945872 Ry
     estimated scf accuracy    <       0.76712224 Ry

     iteration # 37     ecut=    29.40 Ry     beta= 0.05
     Davidson diagonalization with overlap
     ethr =  8.21E-05,  avg # of iterations =  6.6

     negative rho (up, down):  2.049E-02 0.000E+00
 
     Adding external electric field

     Computed dipole along edir(3) : 
        Dipole                0.0889 Ry au,          0.2259 Debye
        Dipole field          0.0002 Ry au, 
 
        Potential amp.       -0.0155 Ry
        Total length         46.3494 bohr
 

     total cpu time spent up to now is      725.0 secs

     total energy              =   -2977.75135467 Ry
     estimated scf accuracy    <       1.20484607 Ry

     iteration # 38     ecut=    29.40 Ry     beta= 0.05
     Davidson diagonalization with overlap
     ethr =  8.21E-05,  avg # of iterations =  1.7

     negative rho (up, down):  1.594E-02 0.000E+00
 
     Adding external electric field

     Computed dipole along edir(3) : 
        Dipole                0.3986 Ry au,          1.0132 Debye
        Dipole field          0.0008 Ry au, 
 
        Potential amp.       -0.0697 Ry
        Total length         46.3494 bohr
 

     total cpu time spent up to now is      735.5 secs

     total energy              =   -2977.71886109 Ry
     estimated scf accuracy    <       1.29815850 Ry

     iteration # 39     ecut=    29.40 Ry     beta= 0.05
     Davidson diagonalization with overlap
     ethr =  8.21E-05,  avg # of iterations =  2.6

     negative rho (up, down):  1.652E-02 0.000E+00
 
     Adding external electric field

     Computed dipole along edir(3) : 
        Dipole                0.3269 Ry au,          0.8308 Debye
        Dipole field          0.0006 Ry au, 
 
        Potential amp.       -0.0572 Ry
        Total length         46.3494 bohr
 

     total cpu time spent up to now is      746.4 secs

     total energy              =   -2977.73031344 Ry
     estimated scf accuracy    <       0.71716701 Ry

     iteration # 40     ecut=    29.40 Ry     beta= 0.05
     Davidson diagonalization with overlap
     ethr =  8.21E-05,  avg # of iterations =  1.1

     negative rho (up, down):  2.426E-02 0.000E+00
 
     Adding external electric field

     Computed dipole along edir(3) : 
        Dipole               -0.1176 Ry au,         -0.2989 Debye
        Dipole field         -0.0002 Ry au, 
 
        Potential amp.        0.0206 Ry
        Total length         46.3494 bohr
 

     total cpu time spent up to now is      756.6 secs

     total energy              =   -2977.74859299 Ry
     estimated scf accuracy    <       0.89764354 Ry

     iteration # 41     ecut=    29.40 Ry     beta= 0.05
     Davidson diagonalization with overlap
     ethr =  8.21E-05,  avg # of iterations =  2.2

     negative rho (up, down):  2.352E-02 0.000E+00
 
     Adding external electric field

     Computed dipole along edir(3) : 
        Dipole               -0.0083 Ry au,         -0.0212 Debye
        Dipole field         -0.0000 Ry au, 
 
        Potential amp.        0.0015 Ry
        Total length         46.3494 bohr
 

     total cpu time spent up to now is      767.4 secs

     total energy              =   -2977.62786647 Ry
     estimated scf accuracy    <       1.40946657 Ry

     iteration # 42     ecut=    29.40 Ry     beta= 0.05
     Davidson diagonalization with overlap
     c_bands:  3 eigenvalues not converged
     c_bands:  5 eigenvalues not converged
     c_bands:  4 eigenvalues not converged
     c_bands:  3 eigenvalues not converged
     c_bands:  2 eigenvalues not converged
     c_bands:  5 eigenvalues not converged
     c_bands:  4 eigenvalues not converged
     c_bands:  1 eigenvalues not converged
     ethr =  8.21E-05,  avg # of iterations = 20.4

     negative rho (up, down):  1.510E-02 0.000E+00
 
     Adding external electric field

     Computed dipole along edir(3) : 
        Dipole                0.4753 Ry au,          1.2080 Debye
        Dipole field          0.0009 Ry au, 
 
        Potential amp.       -0.0831 Ry
        Total length         46.3494 bohr
 

     total cpu time spent up to now is      789.4 secs

     total energy              =   -2977.54799126 Ry
     estimated scf accuracy    <       1.75069512 Ry

     iteration # 43     ecut=    29.40 Ry     beta= 0.05
     Davidson diagonalization with overlap
     c_bands:  1 eigenvalues not converged
     c_bands:  1 eigenvalues not converged
     c_bands:  4 eigenvalues not converged
     c_bands:  3 eigenvalues not converged
     c_bands:  2 eigenvalues not converged
     c_bands:  3 eigenvalues not converged
     c_bands:  3 eigenvalues not converged
     c_bands:  4 eigenvalues not converged
     c_bands:  1 eigenvalues not converged
     ethr =  8.21E-05,  avg # of iterations = 18.5

     negative rho (up, down):  1.479E-02 0.000E+00
 
     Adding external electric field

     Computed dipole along edir(3) : 
        Dipole                0.5683 Ry au,          1.4444 Debye
        Dipole field          0.0011 Ry au, 
 
        Potential amp.       -0.0994 Ry
        Total length         46.3494 bohr
 

     total cpu time spent up to now is      808.3 secs

     total energy              =   -2977.71207028 Ry
     estimated scf accuracy    <       0.57286910 Ry

     iteration # 44     ecut=    29.40 Ry     beta= 0.05
     Davidson diagonalization with overlap
     c_bands:  1 eigenvalues not converged
     ethr =  8.21E-05,  avg # of iterations =  9.1

     negative rho (up, down):  1.380E-02 0.000E+00
 
     Adding external electric field

     Computed dipole along edir(3) : 
        Dipole                0.6618 Ry au,          1.6821 Debye
        Dipole field          0.0012 Ry au, 
 
        Potential amp.       -0.1158 Ry
        Total length         46.3494 bohr
 

     total cpu time spent up to now is      821.1 secs

     total energy              =   -2977.70148747 Ry
     estimated scf accuracy    <       0.48099799 Ry

     iteration # 45     ecut=    29.40 Ry     beta= 0.05
     Davidson diagonalization with overlap
     ethr =  8.21E-05,  avg # of iterations =  1.5

     negative rho (up, down):  1.103E-02 0.000E+00
 
     Adding external electric field

     Computed dipole along edir(3) : 
        Dipole                1.1054 Ry au,          2.8097 Debye
        Dipole field          0.0021 Ry au, 
 
        Potential amp.       -0.1934 Ry
        Total length         46.3494 bohr
 

     total cpu time spent up to now is      831.7 secs

     total energy              =   -2977.65201246 Ry
     estimated scf accuracy    <       0.47273938 Ry

     iteration # 46     ecut=    29.40 Ry     beta= 0.05
     Davidson diagonalization with overlap
     c_bands:  5 eigenvalues not converged
     c_bands:  5 eigenvalues not converged
     c_bands:  2 eigenvalues not converged
     c_bands:  5 eigenvalues not converged
     c_bands:  3 eigenvalues not converged
     c_bands:  1 eigenvalues not converged
     c_bands:  1 eigenvalues not converged
     c_bands:  4 eigenvalues not converged
     c_bands:  1 eigenvalues not converged
     c_bands:  3 eigenvalues not converged
     ethr =  8.21E-05,  avg # of iterations = 20.0

     negative rho (up, down):  1.253E-02 0.000E+00
 
     Adding external electric field

     Computed dipole along edir(3) : 
        Dipole                0.9881 Ry au,          2.5116 Debye
        Dipole field          0.0019 Ry au, 
 
        Potential amp.       -0.1729 Ry
        Total length         46.3494 bohr
 

     total cpu time spent up to now is      851.5 secs

     total energy              =   -2977.66318129 Ry
     estimated scf accuracy    <       1.32227141 Ry

     iteration # 47     ecut=    29.40 Ry     beta= 0.05
     Davidson diagonalization with overlap
     c_bands:  1 eigenvalues not converged
     ethr =  8.21E-05,  avg # of iterations =  6.8

     negative rho (up, down):  1.269E-02 0.000E+00
 
     Adding external electric field

     Computed dipole along edir(3) : 
        Dipole                0.9142 Ry au,          2.3236 Debye
        Dipole field          0.0017 Ry au, 
 
        Potential amp.       -0.1599 Ry
        Total length         46.3494 bohr
 

     total cpu time spent up to now is      863.8 secs

     total energy              =   -2977.68226708 Ry
     estimated scf accuracy    <       0.01358712 Ry

     iteration # 48     ecut=    29.40 Ry     beta= 0.05
     Davidson diagonalization with overlap
     c_bands:  3 eigenvalues not converged
     c_bands:  5 eigenvalues not converged
     c_bands:  4 eigenvalues not converged
     c_bands:  1 eigenvalues not converged
     c_bands:  4 eigenvalues not converged
     c_bands:  3 eigenvalues not converged
     c_bands:  4 eigenvalues not converged
     c_bands:  4 eigenvalues not converged
     c_bands:  4 eigenvalues not converged
     c_bands:  3 eigenvalues not converged
     ethr =  3.35E-06,  avg # of iterations = 22.0

     negative rho (up, down):  1.271E-02 0.000E+00
 
     Adding external electric field

     Computed dipole along edir(3) : 
        Dipole                0.9172 Ry au,          2.3313 Debye
        Dipole field          0.0017 Ry au, 
 
        Potential amp.       -0.1604 Ry
        Total length         46.3494 bohr
 

     total cpu time spent up to now is      888.2 secs

     total energy              =   -2977.68702266 Ry
     estimated scf accuracy    <       0.11242768 Ry

     iteration # 49     ecut=    29.40 Ry     beta= 0.05
     Davidson diagonalization with overlap
     c_bands:  2 eigenvalues not converged
     c_bands:  1 eigenvalues not converged
     c_bands:  3 eigenvalues not converged
     c_bands:  1 eigenvalues not converged
     c_bands:  2 eigenvalues not converged
     c_bands:  1 eigenvalues not converged
     ethr =  3.35E-06,  avg # of iterations = 14.7

     negative rho (up, down):  1.252E-02 0.000E+00
 
     Adding external electric field

     Computed dipole along edir(3) : 
        Dipole                1.0349 Ry au,          2.6303 Debye
        Dipole field          0.0020 Ry au, 
 
        Potential amp.       -0.1810 Ry
        Total length         46.3494 bohr
 

     total cpu time spent up to now is      903.4 secs

     total energy              =   -2977.67868950 Ry
     estimated scf accuracy    <       0.12782170 Ry

     iteration # 50     ecut=    29.40 Ry     beta= 0.05
     Davidson diagonalization with overlap
     c_bands:  1 eigenvalues not converged
     c_bands:  3 eigenvalues not converged
     c_bands:  2 eigenvalues not converged
     c_bands:  4 eigenvalues not converged
     c_bands:  1 eigenvalues not converged
     c_bands:  2 eigenvalues not converged
     ethr =  3.35E-06,  avg # of iterations = 19.8

     negative rho (up, down):  1.278E-02 0.000E+00
 
     Adding external electric field

     Computed dipole along edir(3) : 
        Dipole                1.0607 Ry au,          2.6961 Debye
        Dipole field          0.0020 Ry au, 
 
        Potential amp.       -0.1856 Ry
        Total length         46.3494 bohr
 

     total cpu time spent up to now is      924.4 secs

     total energy              =   -2977.68445985 Ry
     estimated scf accuracy    <       0.04140323 Ry

     iteration # 51     ecut=    29.40 Ry     beta= 0.05
     Davidson diagonalization with overlap
     ethr =  3.35E-06,  avg # of iterations =  4.9

     negative rho (up, down):  1.310E-02 0.000E+00
 
     Adding external electric field

     Computed dipole along edir(3) : 
        Dipole                1.0543 Ry au,          2.6798 Debye
        Dipole field          0.0020 Ry au, 
 
        Potential amp.       -0.1844 Ry
        Total length         46.3494 bohr
 

     total cpu time spent up to now is      935.9 secs

     total energy              =   -2977.68375056 Ry
     estimated scf accuracy    <       0.05905558 Ry

     iteration # 52     ecut=    29.40 Ry     beta= 0.05
     Davidson diagonalization with overlap
     ethr =  3.35E-06,  avg # of iterations =  2.8

     negative rho (up, down):  1.403E-02 0.000E+00
 
     Adding external electric field

     Computed dipole along edir(3) : 
        Dipole                0.9615 Ry au,          2.4438 Debye
        Dipole field          0.0018 Ry au, 
 
        Potential amp.       -0.1682 Ry
        Total length         46.3494 bohr
 

     total cpu time spent up to now is      947.0 secs

     total energy              =   -2977.68142713 Ry
     estimated scf accuracy    <       0.01578595 Ry

     iteration # 53     ecut=    29.40 Ry     beta= 0.05
     Davidson diagonalization with overlap
     c_bands:  1 eigenvalues not converged
     c_bands:  3 eigenvalues not converged
     c_bands:  2 eigenvalues not converged
     c_bands:  3 eigenvalues not converged
     c_bands:  2 eigenvalues not converged
     c_bands:  1 eigenvalues not converged
     c_bands:  3 eigenvalues not converged
     c_bands:  1 eigenvalues not converged
     c_bands:  1 eigenvalues not converged
     ethr =  3.35E-06,  avg # of iterations = 19.7

     negative rho (up, down):  1.372E-02 0.000E+00
 
     Adding external electric field

     Computed dipole along edir(3) : 
        Dipole                1.0023 Ry au,          2.5475 Debye
        Dipole field          0.0019 Ry au, 
 
        Potential amp.       -0.1753 Ry
        Total length         46.3494 bohr
 

     total cpu time spent up to now is      967.0 secs

     total energy              =   -2977.68276505 Ry
     estimated scf accuracy    <       0.11653642 Ry

     iteration # 54     ecut=    29.40 Ry     beta= 0.05
     Davidson diagonalization with overlap
     c_bands:  1 eigenvalues not converged
     c_bands:  1 eigenvalues not converged
     ethr =  3.35E-06,  avg # of iterations = 18.4

     negative rho (up, down):  1.338E-02 0.000E+00
 
     Adding external electric field

     Computed dipole along edir(3) : 
        Dipole                1.0141 Ry au,          2.5775 Debye
        Dipole field          0.0019 Ry au, 
 
        Potential amp.       -0.1774 Ry
        Total length         46.3494 bohr
 

     total cpu time spent up to now is      984.7 secs

     total energy              =   -2977.68320872 Ry
     estimated scf accuracy    <       0.01517974 Ry

     iteration # 55     ecut=    29.40 Ry     beta= 0.05
     Davidson diagonalization with overlap
     c_bands:  4 eigenvalues not converged
     c_bands:  1 eigenvalues not converged
     ethr =  3.35E-06,  avg # of iterations = 11.4

     negative rho (up, down):  1.334E-02 0.000E+00
 
     Adding external electric field

     Computed dipole along edir(3) : 
        Dipole                0.9983 Ry au,          2.5373 Debye
        Dipole field          0.0019 Ry au, 
 
        Potential amp.       -0.1746 Ry
        Total length         46.3494 bohr
 

     total cpu time spent up to now is      998.5 secs

     total energy              =   -2977.68355673 Ry
     estimated scf accuracy    <       0.00070467 Ry

     iteration # 56     ecut=    29.40 Ry     beta= 0.05
     Davidson diagonalization with overlap
     c_bands:  1 eigenvalues not converged
     c_bands:  2 eigenvalues not converged
     c_bands:  1 eigenvalues not converged
     c_bands:  1 eigenvalues not converged
     ethr =  1.74E-07,  avg # of iterations = 18.8

     negative rho (up, down):  1.393E-02 0.000E+00
 
     Adding external electric field

     Computed dipole along edir(3) : 
        Dipole                1.0186 Ry au,          2.5891 Debye
        Dipole field          0.0019 Ry au, 
 
        Potential amp.       -0.1782 Ry
        Total length         46.3494 bohr
 

     total cpu time spent up to now is     1018.8 secs

     total energy              =   -2977.68366785 Ry
     estimated scf accuracy    <       0.00138411 Ry

     iteration # 57     ecut=    29.40 Ry     beta= 0.05
     Davidson diagonalization with overlap
     c_bands:  1 eigenvalues not converged
     c_bands:  1 eigenvalues not converged
     ethr =  1.74E-07,  avg # of iterations = 14.3

     negative rho (up, down):  1.472E-02 0.000E+00
 
     Adding external electric field

     Computed dipole along edir(3) : 
        Dipole                1.0274 Ry au,          2.6113 Debye
        Dipole field          0.0019 Ry au, 
 
        Potential amp.       -0.1797 Ry
        Total length         46.3494 bohr
 

     total cpu time spent up to now is     1034.0 secs

     total energy              =   -2977.68370016 Ry
     estimated scf accuracy    <       0.00147424 Ry

     iteration # 58     ecut=    29.40 Ry     beta= 0.05
     Davidson diagonalization with overlap
     ethr =  1.74E-07,  avg # of iterations = 14.9

     negative rho (up, down):  1.489E-02 0.000E+00
 
     Adding external electric field

     Computed dipole along edir(3) : 
        Dipole                1.0309 Ry au,          2.6204 Debye
        Dipole field          0.0019 Ry au, 
 
        Potential amp.       -0.1803 Ry
        Total length         46.3494 bohr
 

     total cpu time spent up to now is     1049.3 secs

     total energy              =   -2977.68376918 Ry
     estimated scf accuracy    <       0.00062141 Ry

     iteration # 59     ecut=    29.40 Ry     beta= 0.05
     Davidson diagonalization with overlap
     ethr =  1.53E-07,  avg # of iterations =  2.0

     negative rho (up, down):  1.474E-02 0.000E+00
 
     Adding external electric field

     Computed dipole along edir(3) : 
        Dipole                1.0292 Ry au,          2.6160 Debye
        Dipole field          0.0019 Ry au, 
 
        Potential amp.       -0.1800 Ry
        Total length         46.3494 bohr
 

     total cpu time spent up to now is     1060.4 secs

     total energy              =   -2977.68373121 Ry
     estimated scf accuracy    <       0.00045450 Ry

     iteration # 60     ecut=    29.40 Ry     beta= 0.05
     Davidson diagonalization with overlap
     c_bands:  2 eigenvalues not converged
     ethr =  1.12E-07,  avg # of iterations = 14.6

     negative rho (up, down):  1.458E-02 0.000E+00
 
     Adding external electric field

     Computed dipole along edir(3) : 
        Dipole                1.0255 Ry au,          2.6066 Debye
        Dipole field          0.0019 Ry au, 
 
        Potential amp.       -0.1794 Ry
        Total length         46.3494 bohr
 

     total cpu time spent up to now is     1075.6 secs

     total energy              =   -2977.68376996 Ry
     estimated scf accuracy    <       0.00051010 Ry

     iteration # 61     ecut=    29.40 Ry     beta= 0.05
     Davidson diagonalization with overlap
     ethr =  1.12E-07,  avg # of iterations =  2.0

     negative rho (up, down):  1.439E-02 0.000E+00
 
     Adding external electric field

     Computed dipole along edir(3) : 
        Dipole                1.0220 Ry au,          2.5977 Debye
        Dipole field          0.0019 Ry au, 
 
        Potential amp.       -0.1788 Ry
        Total length         46.3494 bohr
 

     total cpu time spent up to now is     1086.7 secs

     total energy              =   -2977.68375781 Ry
     estimated scf accuracy    <       0.00047867 Ry

     iteration # 62     ecut=    29.40 Ry     beta= 0.05
     Davidson diagonalization with overlap
     ethr =  1.12E-07,  avg # of iterations =  1.8

     negative rho (up, down):  1.443E-02 0.000E+00
 
     Adding external electric field

     Computed dipole along edir(3) : 
        Dipole                1.0231 Ry au,          2.6003 Debye
        Dipole field          0.0019 Ry au, 
 
        Potential amp.       -0.1790 Ry
        Total length         46.3494 bohr
 

     total cpu time spent up to now is     1097.6 secs

     total energy              =   -2977.68377054 Ry
     estimated scf accuracy    <       0.00002532 Ry

     iteration # 63     ecut=    29.40 Ry     beta= 0.05
     Davidson diagonalization with overlap
     c_bands:  1 eigenvalues not converged
     c_bands:  2 eigenvalues not converged
     c_bands:  1 eigenvalues not converged
     c_bands:  1 eigenvalues not converged
     ethr =  6.24E-09,  avg # of iterations = 18.5

     negative rho (up, down):  1.447E-02 0.000E+00
 
     Adding external electric field

     Computed dipole along edir(3) : 
        Dipole                1.0247 Ry au,          2.6046 Debye
        Dipole field          0.0019 Ry au, 
 
        Potential amp.       -0.1793 Ry
        Total length         46.3494 bohr
 

     total cpu time spent up to now is     1116.4 secs

     total energy              =   -2977.68377635 Ry
     estimated scf accuracy    <       0.00001369 Ry

     iteration # 64     ecut=    29.40 Ry     beta= 0.05
     Davidson diagonalization with overlap
     ethr =  3.37E-09,  avg # of iterations =  9.5

     negative rho (up, down):  1.454E-02 0.000E+00
 
     Adding external electric field

     Computed dipole along edir(3) : 
        Dipole                1.0259 Ry au,          2.6076 Debye
        Dipole field          0.0019 Ry au, 
 
        Potential amp.       -0.1795 Ry
        Total length         46.3494 bohr
 

     total cpu time spent up to now is     1129.6 secs

     total energy              =   -2977.68378093 Ry
     estimated scf accuracy    <       0.00001374 Ry

     iteration # 65     ecut=    29.40 Ry     beta= 0.05
     Davidson diagonalization with overlap
     c_bands:  1 eigenvalues not converged
     ethr =  3.37E-09,  avg # of iterations = 11.6

     negative rho (up, down):  1.454E-02 0.000E+00
 
     Adding external electric field

     Computed dipole along edir(3) : 
        Dipole                1.0254 Ry au,          2.6062 Debye
        Dipole field          0.0019 Ry au, 
 
        Potential amp.       -0.1794 Ry
        Total length         46.3494 bohr
 

     total cpu time spent up to now is     1143.7 secs

     total energy              =   -2977.68378531 Ry
     estimated scf accuracy    <       0.00001747 Ry

     iteration # 66     ecut=    29.40 Ry     beta= 0.05
     Davidson diagonalization with overlap
     ethr =  3.37E-09,  avg # of iterations = 11.3

     negative rho (up, down):  1.455E-02 0.000E+00
 
     Adding external electric field

     Computed dipole along edir(3) : 
        Dipole                1.0256 Ry au,          2.6069 Debye
        Dipole field          0.0019 Ry au, 
 
        Potential amp.       -0.1794 Ry
        Total length         46.3494 bohr
 

     total cpu time spent up to now is     1157.8 secs

     total energy              =   -2977.68378748 Ry
     estimated scf accuracy    <       0.00002751 Ry

     iteration # 67     ecut=    29.40 Ry     beta= 0.05
     Davidson diagonalization with overlap
     ethr =  3.37E-09,  avg # of iterations =  2.0

     negative rho (up, down):  1.455E-02 0.000E+00
 
     Adding external electric field

     Computed dipole along edir(3) : 
        Dipole                1.0255 Ry au,          2.6065 Debye
        Dipole field          0.0019 Ry au, 
 
        Potential amp.       -0.1794 Ry
        Total length         46.3494 bohr
 

     total cpu time spent up to now is     1168.8 secs

     total energy              =   -2977.68378821 Ry
     estimated scf accuracy    <       0.00002160 Ry

     iteration # 68     ecut=    29.40 Ry     beta= 0.05
     Davidson diagonalization with overlap
     c_bands:  1 eigenvalues not converged
     ethr =  3.37E-09,  avg # of iterations = 13.6

     negative rho (up, down):  1.451E-02 0.000E+00
 
     Adding external electric field

     Computed dipole along edir(3) : 
        Dipole                1.0240 Ry au,          2.6028 Debye
        Dipole field          0.0019 Ry au, 
 
        Potential amp.       -0.1791 Ry
        Total length         46.3494 bohr
 

     total cpu time spent up to now is     1184.5 secs

     total energy              =   -2977.68379081 Ry
     estimated scf accuracy    <       0.00000955 Ry

     iteration # 69     ecut=    29.40 Ry     beta= 0.05
     Davidson diagonalization with overlap
     ethr =  2.35E-09,  avg # of iterations =  9.8

     negative rho (up, down):  1.450E-02 0.000E+00
 
     Adding external electric field

     Computed dipole along edir(3) : 
        Dipole                1.0226 Ry au,          2.5992 Debye
        Dipole field          0.0019 Ry au, 
 
        Potential amp.       -0.1789 Ry
        Total length         46.3494 bohr
 

     total cpu time spent up to now is     1197.8 secs

     total energy              =   -2977.68379259 Ry
     estimated scf accuracy    <       0.00000577 Ry

     iteration # 70     ecut=    29.40 Ry     beta= 0.05
     Davidson diagonalization with overlap
     c_bands:  1 eigenvalues not converged
     ethr =  1.42E-09,  avg # of iterations = 16.1

     negative rho (up, down):  1.449E-02 0.000E+00
 
     Adding external electric field

     Computed dipole along edir(3) : 
        Dipole                1.0228 Ry au,          2.5998 Debye
        Dipole field          0.0019 Ry au, 
 
        Potential amp.       -0.1789 Ry
        Total length         46.3494 bohr
 

     total cpu time spent up to now is     1219.0 secs

     total energy              =   -2977.68379532 Ry
     estimated scf accuracy    <       0.00000772 Ry

     iteration # 71     ecut=    29.40 Ry     beta= 0.05
     Davidson diagonalization with overlap
     ethr =  1.42E-09,  avg # of iterations =  3.7

     negative rho (up, down):  1.444E-02 0.000E+00
 
     Adding external electric field

     Computed dipole along edir(3) : 
        Dipole                1.0238 Ry au,          2.6022 Debye
        Dipole field          0.0019 Ry au, 
 
        Potential amp.       -0.1791 Ry
        Total length         46.3494 bohr
 

     total cpu time spent up to now is     1230.5 secs

     total energy              =   -2977.68379650 Ry
     estimated scf accuracy    <       0.00000427 Ry

     iteration # 72     ecut=    29.40 Ry     beta= 0.05
     Davidson diagonalization with overlap
     ethr =  1.05E-09,  avg # of iterations = 16.7

     negative rho (up, down):  1.444E-02 0.000E+00
 
     Adding external electric field

     Computed dipole along edir(3) : 
        Dipole                1.0233 Ry au,          2.6010 Debye
        Dipole field          0.0019 Ry au, 
 
        Potential amp.       -0.1790 Ry
        Total length         46.3494 bohr
 

     total cpu time spent up to now is     1251.7 secs

     total energy              =   -2977.68379893 Ry
     estimated scf accuracy    <       0.00000624 Ry

     iteration # 73     ecut=    29.40 Ry     beta= 0.05
     Davidson diagonalization with overlap
     ethr =  1.05E-09,  avg # of iterations =  2.6

     negative rho (up, down):  1.443E-02 0.000E+00
 
     Adding external electric field

     Computed dipole along edir(3) : 
        Dipole                1.0218 Ry au,          2.5972 Debye
        Dipole field          0.0019 Ry au, 
 
        Potential amp.       -0.1788 Ry
        Total length         46.3494 bohr
 

     total cpu time spent up to now is     1263.0 secs

     total energy              =   -2977.68379923 Ry
     estimated scf accuracy    <       0.00000428 Ry

     iteration # 74     ecut=    29.40 Ry     beta= 0.05
     Davidson diagonalization with overlap
     c_bands:  1 eigenvalues not converged
     ethr =  1.05E-09,  avg # of iterations = 12.8

     negative rho (up, down):  1.440E-02 0.000E+00
 
     Adding external electric field

     Computed dipole along edir(3) : 
        Dipole                1.0222 Ry au,          2.5981 Debye
        Dipole field          0.0019 Ry au, 
 
        Potential amp.       -0.1788 Ry
        Total length         46.3494 bohr
 

     total cpu time spent up to now is     1280.3 secs

     total energy              =   -2977.68380119 Ry
     estimated scf accuracy    <       0.00000196 Ry

     iteration # 75     ecut=    29.40 Ry     beta= 0.05
     Davidson diagonalization with overlap
     ethr =  4.83E-10,  avg # of iterations =  7.3

     negative rho (up, down):  1.438E-02 0.000E+00
 
     Adding external electric field

     Computed dipole along edir(3) : 
        Dipole                1.0217 Ry au,          2.5970 Debye
        Dipole field          0.0019 Ry au, 
 
        Potential amp.       -0.1787 Ry
        Total length         46.3494 bohr
 

     total cpu time spent up to now is     1293.7 secs

     total energy              =   -2977.68380262 Ry
     estimated scf accuracy    <       0.00000056 Ry

     iteration # 76     ecut=    29.40 Ry     beta= 0.05
     Davidson diagonalization with overlap
     c_bands:  1 eigenvalues not converged
     ethr =  1.37E-10,  avg # of iterations = 14.2

     negative rho (up, down):  1.435E-02 0.000E+00
 
     Adding external electric field

     Computed dipole along edir(3) : 
        Dipole                1.0209 Ry au,          2.5949 Debye
        Dipole field          0.0019 Ry au, 
 
        Potential amp.       -0.1786 Ry
        Total length         46.3494 bohr
 

     total cpu time spent up to now is     1313.2 secs

     total energy              =   -2977.68380367 Ry
     estimated scf accuracy    <       0.00000096 Ry

     iteration # 77     ecut=    29.40 Ry     beta= 0.05
     Davidson diagonalization with overlap
     ethr =  1.37E-10,  avg # of iterations =  6.8

     negative rho (up, down):  1.434E-02 0.000E+00
 
     Adding external electric field

     Computed dipole along edir(3) : 
        Dipole                1.0206 Ry au,          2.5941 Debye
        Dipole field          0.0019 Ry au, 
 
        Potential amp.       -0.1785 Ry
        Total length         46.3494 bohr
 

     total cpu time spent up to now is     1326.3 secs

     total energy              =   -2977.68380463 Ry
     estimated scf accuracy    <       0.00000018 Ry

     iteration # 78     ecut=    29.40 Ry     beta= 0.05
     Davidson diagonalization with overlap
     c_bands:  2 eigenvalues not converged
     ethr =  4.56E-11,  avg # of iterations = 15.5

     negative rho (up, down):  1.435E-02 0.000E+00
 
     Adding external electric field

     Computed dipole along edir(3) : 
        Dipole                1.0207 Ry au,          2.5943 Debye
        Dipole field          0.0019 Ry au, 
 
        Potential amp.       -0.1786 Ry
        Total length         46.3494 bohr
 

     total cpu time spent up to now is     1347.4 secs

     total energy              =   -2977.68380553 Ry
     estimated scf accuracy    <       0.00000023 Ry

     iteration # 79     ecut=    29.40 Ry     beta= 0.05
     Davidson diagonalization with overlap
     ethr =  4.56E-11,  avg # of iterations =  3.6

     negative rho (up, down):  1.435E-02 0.000E+00
 
     Adding external electric field

     Computed dipole along edir(3) : 
        Dipole                1.0210 Ry au,          2.5952 Debye
        Dipole field          0.0019 Ry au, 
 
        Potential amp.       -0.1786 Ry
        Total length         46.3494 bohr
 

     total cpu time spent up to now is     1358.8 secs

     total energy              =   -2977.68380625 Ry
     estimated scf accuracy    <       0.00000015 Ry

     iteration # 80     ecut=    29.40 Ry     beta= 0.05
     Davidson diagonalization with overlap
     c_bands:  3 eigenvalues not converged
     c_bands:  1 eigenvalues not converged
     ethr =  3.75E-11,  avg # of iterations = 18.1

     negative rho (up, down):  1.434E-02 0.000E+00
 
     Adding external electric field

     Computed dipole along edir(3) : 
        Dipole                1.0207 Ry au,          2.5943 Debye
        Dipole field          0.0019 Ry au, 
 
        Potential amp.       -0.1786 Ry
        Total length         46.3494 bohr
 

     total cpu time spent up to now is     1381.5 secs

     total energy              =   -2977.68380696 Ry
     estimated scf accuracy    <       0.00000040 Ry

     iteration # 81     ecut=    29.40 Ry     beta= 0.05
     Davidson diagonalization with overlap
     ethr =  3.75E-11,  avg # of iterations = 10.5

     negative rho (up, down):  1.439E-02 0.000E+00
 
     Adding external electric field

     Computed dipole along edir(3) : 
        Dipole                1.0210 Ry au,          2.5951 Debye
        Dipole field          0.0019 Ry au, 
 
        Potential amp.       -0.1786 Ry
        Total length         46.3494 bohr
 

     total cpu time spent up to now is     1396.6 secs

     End of self-consistent calculation

          k = 0.0000 0.0000 0.0000 ( 18029 PWs)   bands (ev):

   -55.3590 -55.3217 -55.3094 -55.2924 -55.2753 -55.2400 -55.2381 -55.2035
   -55.1821 -55.1808 -55.1477 -55.1418 -55.1081 -55.0171 -54.3417 -54.3077
   -31.9254 -31.8080 -31.8024 -31.7271 -31.6753 -31.6713 -31.6712 -31.6482
   -31.5983 -31.5942 -31.5711 -31.5687 -31.5545 -31.5384 -31.5295 -31.5260
   -31.5135 -31.5065 -31.4960 -31.4783 -31.4636 -31.4620 -31.4345 -31.4237
   -31.4168 -31.4127 -31.3920 -31.3847 -31.3686 -31.3665 -31.3620 -31.3532
   -31.3410 -31.3402 -31.3312 -31.3287 -31.2957 -31.2925 -31.2701 -31.2529
   -31.2294 -31.2272 -30.7513 -30.6567 -30.6346 -30.5676 -30.4808 -30.3699
   -18.0046 -17.6323 -16.1927 -15.9319 -15.7865 -15.6581 -15.5604 -15.4323
   -15.4130 -15.2910 -15.2207 -15.1169 -15.0658 -15.0476 -15.0116 -15.0015
   -14.9780 -14.9076 -14.9014 -14.8876 -14.8635 -14.8547 -14.8086 -14.8008
   -14.7596 -14.7351 -14.7107 -14.6122 -14.5220 -14.4471 -14.3395 -13.1411
   -12.8442 -12.7267  -9.4026  -6.3148  -5.8751  -5.7228  -4.2534  -3.5312
    -3.3825  -3.3137  -3.2774  -3.2520  -3.1186  -2.9613  -2.9226  -2.8063
    -2.7883  -2.6895  -2.6439  -2.5726  -2.5560  -2.5409  -2.3948  -2.3724
    -2.3470  -2.2803  -2.2533  -2.1868  -2.1646  -2.1544  -2.1444  -2.1212
    -2.0933  -2.0509  -1.9913  -1.9328  -1.8395  -1.8150  -1.7636  -1.7344
    -1.7130  -1.6961  -1.6503  -1.6392  -1.6000  -1.5855  -1.5661  -1.5511
    -1.3884  -1.3659  -1.2638  -1.2022  -1.1030  -0.9993  -0.9636  -0.9491
    -0.8520  -0.8336  -0.7809  -0.7402  -0.7371  -0.7027  -0.5907  -0.5281
    -0.4758  -0.4122  -0.3892  -0.3494  -0.2815  -0.1979  -0.1424  -0.1284
    -0.1128  -0.0968   0.0139   0.0264   0.0781   0.1529   0.1625   0.1686
     0.2423   0.2988   0.3690   0.3943   0.4117   0.5168   0.5323   0.5646
     0.5705   0.6003   0.6212   0.6462   0.7063   0.7366   0.8197   0.9415
     1.1336   1.2225   1.2500   1.3604   1.5729   1.5855   1.6812   1.8643
     2.2575   2.3059   3.7381   3.8091   3.8840   3.8880   3.9106   3.9744
     4.2112   4.2284   4.2430   4.2468   4.2707

          k = 0.0000 0.0419 0.0000 ( 17933 PWs)   bands (ev):

   -55.3540 -55.3266 -55.3044 -55.2917 -55.2802 -55.2354 -55.2353 -55.2081
   -55.1833 -55.1770 -55.1527 -55.1367 -55.1129 -55.0175 -54.3367 -54.3126
   -31.8683 -31.7697 -31.7483 -31.6724 -31.6596 -31.6236 -31.6182 -31.6050
   -31.6035 -31.5933 -31.5900 -31.5575 -31.5508 -31.5504 -31.5340 -31.5303
   -31.5232 -31.5058 -31.5026 -31.4804 -31.4671 -31.4637 -31.4481 -31.4334
   -31.4109 -31.4084 -31.4016 -31.3971 -31.3882 -31.3847 -31.3804 -31.3756
   -31.3615 -31.3516 -31.3479 -31.3320 -31.3278 -31.3237 -31.3077 -31.2800
   -31.2635 -31.2274 -30.6970 -30.6532 -30.6376 -30.5549 -30.4934 -30.4271
   -17.9989 -17.6369 -16.0620 -15.8143 -15.6831 -15.5873 -15.4545 -15.4048
   -15.3729 -15.2714 -15.2215 -15.1769 -15.1141 -15.0586 -15.0400 -15.0092
   -14.9746 -14.9419 -14.9378 -14.8780 -14.8606 -14.8460 -14.8443 -14.8183
   -14.7951 -14.7515 -14.7312 -14.6678 -14.5770 -14.5069 -14.4544 -13.1421
   -12.8478 -12.7659  -9.4083  -6.3285  -5.9058  -5.6566  -4.2465  -3.3407
    -3.2149  -3.1588  -3.1182  -3.0757  -2.9753  -2.9220  -2.7777  -2.7167
    -2.6930  -2.6427  -2.6026  -2.5430  -2.5052  -2.4629  -2.4398  -2.4092
    -2.3800  -2.3455  -2.3345  -2.3175  -2.2742  -2.2574  -2.1607  -2.1484
    -2.1331  -2.0928  -2.0772  -2.0035  -1.9697  -1.9261  -1.9073  -1.8798
    -1.8562  -1.8095  -1.7846  -1.6645  -1.6572  -1.5185  -1.4781  -1.3434
    -1.3084  -1.2790  -1.1826  -1.1241  -1.0894  -1.0383  -0.9406  -0.8196
    -0.7500  -0.7098  -0.6965  -0.6853  -0.5951  -0.5664  -0.5380  -0.5283
    -0.3869  -0.3671  -0.3597  -0.2919  -0.2844  -0.2182  -0.2028  -0.1841
    -0.1749  -0.1493  -0.0697   0.0165   0.0343   0.0361   0.1277   0.1369
     0.1873   0.2385   0.2800   0.3580   0.3751   0.3870   0.4085   0.4454
     0.4691   0.5669   0.5850   0.6218   0.6681   0.7395   0.8144   0.9347
     0.9435   0.9837   1.0998   1.2884   1.3684   1.4476   1.8644   1.9397
     2.2125   2.2161   3.9312   3.9407   3.9739   4.0292   4.1077   4.1124
     4.1533   4.1659   4.2196   4.2393   4.3093

          k = 0.0000-0.0839 0.0000 ( 17884 PWs)   bands (ev):

   -55.3453 -55.3352 -55.2925 -55.2920 -55.2911 -55.2325 -55.2278 -55.2155
   -55.1862 -55.1662 -55.1634 -55.1251 -55.1245 -55.0181 -54.3248 -54.3244
   -31.7329 -31.7249 -31.7232 -31.6385 -31.6187 -31.6160 -31.6157 -31.5835
   -31.5834 -31.5575 -31.5491 -31.5462 -31.5332 -31.5319 -31.5297 -31.5259
   -31.5164 -31.5032 -31.5017 -31.4910 -31.4871 -31.4830 -31.4620 -31.4357
   -31.4324 -31.4320 -31.4281 -31.4250 -31.4146 -31.4145 -31.4140 -31.4003
   -31.3989 -31.3966 -31.3874 -31.3702 -31.3245 -31.3219 -31.3062 -31.3058
   -31.3002 -31.2262 -30.6453 -30.6450 -30.5640 -30.5638 -30.5242 -30.5241
   -17.9931 -17.6417 -15.7896 -15.6965 -15.5545 -15.5082 -15.4583 -15.3721
   -15.3659 -15.2643 -15.2312 -15.2207 -15.1779 -15.1484 -15.1164 -14.9890
   -14.9698 -14.9550 -14.9537 -14.9053 -14.8404 -14.8193 -14.8063 -14.7872
   -14.7688 -14.7671 -14.7192 -14.7031 -14.6619 -14.6531 -14.6487 -13.1431
   -12.8286 -12.8286  -9.4141  -6.3422  -5.9254  -5.6020  -4.2398  -2.9654
    -2.9185  -2.8864  -2.8500  -2.8045  -2.7951  -2.7805  -2.7734  -2.7226
    -2.7131  -2.6706  -2.6332  -2.6312  -2.5745  -2.5637  -2.5157  -2.5105
    -2.4849  -2.4454  -2.3987  -2.3671  -2.3338  -2.2503  -2.2381  -2.2225
    -2.1894  -2.1808  -2.1489  -2.0820  -2.0019  -1.9944  -1.9194  -1.9114
    -1.7843  -1.7628  -1.7316  -1.7136  -1.5397  -1.4606  -1.4048  -1.3120
    -1.2783  -1.1791  -1.1365  -1.1234  -0.9926  -0.8827  -0.8703  -0.8625
    -0.8269  -0.8180  -0.7856  -0.7506  -0.7369  -0.6601  -0.6038  -0.5717
    -0.5280  -0.4512  -0.4133  -0.2102  -0.2009  -0.1488  -0.1082  -0.0873
    -0.0697  -0.0088   0.0147   0.0276   0.0348   0.0836   0.1237   0.1590
     0.1640   0.1955   0.2333   0.2528   0.2689   0.2830   0.3216   0.3604
     0.3958   0.4278   0.4284   0.4547   0.4624   0.7724   0.8299   0.8487
     0.8538   0.9924   1.0149   1.1922   1.2025   1.3814   2.0063   2.0067
     2.1480   2.1483   3.9937   3.9981   4.0499   4.0627   4.1233   4.1715
     4.2202   4.2233   4.3114   4.3244   4.3357

          k = 0.0380 0.0000 0.0000 ( 17913 PWs)   bands (ev):

   -55.3589 -55.3216 -55.3093 -55.2922 -55.2752 -55.2400 -55.2381 -55.2034
   -55.1818 -55.1807 -55.1476 -55.1418 -55.1080 -55.0170 -54.3416 -54.3076
   -31.9255 -31.8081 -31.8033 -31.7324 -31.6790 -31.6754 -31.6711 -31.6485
   -31.5981 -31.5941 -31.5710 -31.5544 -31.5517 -31.5382 -31.5259 -31.5143
   -31.5131 -31.5063 -31.4896 -31.4635 -31.4606 -31.4571 -31.4419 -31.4342
   -31.4234 -31.4124 -31.3919 -31.3846 -31.3680 -31.3663 -31.3546 -31.3527
   -31.3502 -31.3408 -31.3400 -31.3311 -31.2944 -31.2921 -31.2700 -31.2533
   -31.2315 -31.2275 -30.7508 -30.6602 -30.6326 -30.5674 -30.4807 -30.3697
   -18.0040 -17.6323 -16.1130 -15.8454 -15.7696 -15.6324 -15.4632 -15.4433
   -15.4171 -15.3080 -15.2293 -15.1678 -15.1468 -15.1299 -15.0675 -15.0584
   -15.0282 -14.9996 -14.9582 -14.8804 -14.8626 -14.8041 -14.7650 -14.7472
   -14.7339 -14.6866 -14.6201 -14.5970 -14.5802 -14.5332 -14.3382 -13.1431
[...]
   -31.8685 -31.7698 -31.7492 -31.6787 -31.6596 -31.6278 -31.6224 -31.6053
   -31.6037 -31.5931 -31.5901 -31.5511 -31.5510 -31.5434 -31.5338 -31.5304
   -31.5099 -31.5024 -31.4962 -31.4805 -31.4673 -31.4475 -31.4443 -31.4378
   -31.4273 -31.4081 -31.4012 -31.3949 -31.3884 -31.3801 -31.3782 -31.3723
   -31.3621 -31.3609 -31.3476 -31.3364 -31.3315 -31.3301 -31.3075 -31.2801
   -31.2633 -31.2303 -30.6967 -30.6560 -30.6366 -30.5548 -30.4934 -30.4270
   -17.9984 -17.6368 -15.9888 -15.7346 -15.6880 -15.5388 -15.4074 -15.3818
   -15.3499 -15.2845 -15.2371 -15.1760 -15.1451 -15.1148 -15.0747 -15.0405
   -15.0222 -15.0063 -14.9439 -14.9228 -14.8941 -14.8384 -14.8163 -14.7824
   -14.7749 -14.7389 -14.6863 -14.6524 -14.6446 -14.5871 -14.4532 -13.1442
   -12.8454 -12.7662  -9.4038  -6.3362  -5.8969  -5.6644  -4.2408  -3.2347
    -3.1004  -2.9855  -2.9669  -2.8999  -2.8529  -2.7930  -2.7690  -2.7483
    -2.7010  -2.6618  -2.6176  -2.5560  -2.4929  -2.4483  -2.4153  -2.3926
    -2.3622  -2.3190  -2.2818  -2.2383  -2.2095  -2.1779  -2.1635  -2.1374
    -2.0999  -2.0679  -2.0563  -1.9964  -1.9655  -1.9481  -1.8749  -1.8588
    -1.8101  -1.7615  -1.7446  -1.6502  -1.5777  -1.4585  -1.4148  -1.3678
    -1.3538  -1.2171  -1.1724  -1.1507  -1.0894  -0.9679  -0.9250  -0.8626
    -0.8431  -0.7980  -0.7630  -0.7132  -0.6901  -0.6559  -0.6199  -0.5470
    -0.5058  -0.4811  -0.4472  -0.3388  -0.3169  -0.3048  -0.2698  -0.2009
    -0.1661  -0.1380  -0.1024  -0.0774  -0.0559  -0.0238   0.0096   0.0224
     0.0518   0.1106   0.1848   0.2019   0.2435   0.2873   0.3540   0.3730
     0.4381   0.5105   0.5767   0.6126   0.6991   0.7378   0.7862   0.8542
     0.9065   1.0458   1.0594   1.2322   1.3610   1.4059   1.8752   1.9431
     2.1346   2.1979   3.9248   3.9366   3.9670   4.0756   4.0986   4.1437
     4.1713   4.2521   4.2771   4.3130   4.3330

          k = 0.0380-0.0839 0.0000 ( 17916 PWs)   bands (ev):

   -55.3453 -55.3352 -55.2925 -55.2920 -55.2911 -55.2325 -55.2279 -55.2156
   -55.1862 -55.1662 -55.1633 -55.1252 -55.1246 -55.0181 -54.3248 -54.3245
   -31.7332 -31.7252 -31.7234 -31.6387 -31.6189 -31.6168 -31.6165 -31.5836
   -31.5834 -31.5648 -31.5577 -31.5506 -31.5485 -31.5304 -31.5178 -31.5078
   -31.5059 -31.4981 -31.4977 -31.4938 -31.4911 -31.4887 -31.4567 -31.4375
   -31.4343 -31.4310 -31.4159 -31.4137 -31.4132 -31.4096 -31.4073 -31.4048
   -31.3988 -31.3965 -31.3959 -31.3725 -31.3362 -31.3336 -31.3062 -31.3058
   -31.2999 -31.2296 -30.6464 -30.6461 -30.5639 -30.5637 -30.5242 -30.5241
   -17.9930 -17.6413 -15.7439 -15.6485 -15.5357 -15.4611 -15.4506 -15.3319
   -15.3099 -15.2569 -15.2246 -15.2152 -15.1710 -15.1102 -15.0743 -14.9924
   -14.9881 -14.9825 -14.9640 -14.9462 -14.9251 -14.8706 -14.8409 -14.7995
   -14.7918 -14.7774 -14.7379 -14.7239 -14.7031 -14.7021 -14.6457 -13.1452
   -12.8284 -12.8284  -9.4109  -6.3401  -5.9126  -5.6226  -4.2356  -2.9438
    -2.8618  -2.8417  -2.8328  -2.7105  -2.6617  -2.6186  -2.6143  -2.5722
    -2.5569  -2.5422  -2.5199  -2.4925  -2.4744  -2.4443  -2.4369  -2.4190
    -2.4098  -2.3834  -2.3415  -2.3215  -2.2867  -2.2677  -2.2472  -2.1958
    -2.1682  -2.1148  -2.0926  -2.0781  -2.0300  -2.0062  -1.9510  -1.9096
    -1.8304  -1.7409  -1.6243  -1.5635  -1.5561  -1.4370  -1.3966  -1.3242
    -1.2996  -1.2853  -1.2264  -1.2071  -1.1287  -1.1010  -1.0483  -1.0403
    -1.0183  -0.9267  -0.8523  -0.7997  -0.7338  -0.7083  -0.6796  -0.6514
    -0.6010  -0.4452  -0.4092  -0.3857  -0.3291  -0.2946  -0.2179  -0.1952
    -0.1668  -0.1582  -0.1275  -0.1130  -0.0625  -0.0078  -0.0022   0.0223
     0.0586   0.1073   0.1122   0.1484   0.1671   0.2808   0.3575   0.3719
     0.3876   0.4993   0.5294   0.6964   0.6992   0.7216   0.7654   0.8553
     0.8763   0.9518   0.9570   1.1837   1.1924   1.3734   2.0197   2.0202
     2.1386   2.1393   3.9053   4.0022   4.0262   4.0529   4.1356   4.1716
     4.1966   4.2260   4.3219   4.3420   4.3870

          k = 0.0380-0.0419 0.0000 ( 17876 PWs)   bands (ev):

   -55.3538 -55.3266 -55.3043 -55.2916 -55.2802 -55.2354 -55.2353 -55.2081
   -55.1833 -55.1768 -55.1526 -55.1368 -55.1129 -55.0175 -54.3366 -54.3126
   -31.8684 -31.7698 -31.7492 -31.6787 -31.6596 -31.6280 -31.6224 -31.6053
   -31.6037 -31.5931 -31.5901 -31.5511 -31.5510 -31.5433 -31.5338 -31.5304
   -31.5094 -31.5024 -31.4962 -31.4805 -31.4673 -31.4475 -31.4443 -31.4381
   -31.4272 -31.4081 -31.4013 -31.3949 -31.3884 -31.3801 -31.3782 -31.3723
   -31.3625 -31.3610 -31.3473 -31.3362 -31.3316 -31.3301 -31.3075 -31.2801
   -31.2633 -31.2301 -30.6967 -30.6560 -30.6366 -30.5548 -30.4934 -30.4270
   -17.9987 -17.6365 -15.9888 -15.7343 -15.6876 -15.5387 -15.4083 -15.3814
   -15.3496 -15.2843 -15.2370 -15.1766 -15.1457 -15.1166 -15.0759 -15.0398
   -15.0227 -15.0067 -14.9408 -14.9225 -14.8941 -14.8383 -14.8162 -14.7824
   -14.7751 -14.7388 -14.6856 -14.6522 -14.6450 -14.5874 -14.4534 -13.1442
   -12.8454 -12.7662  -9.4051  -6.3245  -5.8901  -5.6817  -4.2411  -3.2345
    -3.1012  -2.9857  -2.9672  -2.8758  -2.8536  -2.7992  -2.7818  -2.7309
    -2.6987  -2.6572  -2.6293  -2.5563  -2.4972  -2.4494  -2.4056  -2.3986
    -2.3601  -2.3124  -2.2775  -2.2487  -2.2090  -2.1933  -2.1704  -2.1424
    -2.1095  -2.0652  -2.0560  -2.0057  -1.9614  -1.9437  -1.8705  -1.8394
    -1.7983  -1.7732  -1.7412  -1.6479  -1.5813  -1.4762  -1.4279  -1.3666
    -1.3476  -1.2169  -1.1657  -1.1456  -1.0866  -0.9815  -0.9344  -0.8498
    -0.8293  -0.7884  -0.7619  -0.7161  -0.7002  -0.6709  -0.6259  -0.5467
    -0.5143  -0.4687  -0.4412  -0.3387  -0.3230  -0.3061  -0.2707  -0.1986
    -0.1716  -0.1396  -0.0963  -0.0702  -0.0543  -0.0217   0.0110   0.0205
     0.0541   0.1073   0.1904   0.2047   0.2455   0.2844   0.3528   0.3700
     0.4416   0.5069   0.5829   0.6025   0.6954   0.7338   0.7854   0.8591
     0.9069   1.0463   1.0591   1.2323   1.3673   1.4064   1.8753   1.9431
     2.1344   2.1985   3.9274   3.9352   3.9664   4.0760   4.1010   4.1443
     4.1683   4.2496   4.2897   4.3099   4.3400

          k =-0.0760-0.0000 0.0000 ( 17886 PWs)   bands (ev):

   -55.3588 -55.3216 -55.3093 -55.2921 -55.2752 -55.2400 -55.2380 -55.2034
   -55.1816 -55.1807 -55.1476 -55.1419 -55.1080 -55.0169 -54.3416 -54.3076
   -31.9256 -31.8083 -31.8042 -31.7374 -31.6826 -31.6793 -31.6709 -31.6488
   -31.5980 -31.5941 -31.5712 -31.5544 -31.5389 -31.5260 -31.5258 -31.5130
   -31.5058 -31.4925 -31.4841 -31.4635 -31.4601 -31.4567 -31.4561 -31.4245
   -31.4234 -31.4127 -31.3919 -31.3846 -31.3843 -31.3679 -31.3666 -31.3528
   -31.3459 -31.3410 -31.3402 -31.3349 -31.2935 -31.2920 -31.2700 -31.2539
   -31.2340 -31.2277 -30.7504 -30.6636 -30.6312 -30.5673 -30.4805 -30.3698
   -18.0035 -17.6323 -15.9775 -15.8627 -15.6902 -15.5747 -15.4281 -15.4158
   -15.4028 -15.2757 -15.2662 -15.2236 -15.2028 -15.1760 -15.1416 -15.1115
   -15.0765 -15.0667 -14.9821 -14.8626 -14.8258 -14.7957 -14.7821 -14.7717
   -14.7698 -14.6944 -14.6529 -14.6048 -14.5296 -14.4918 -14.3373 -13.1452
   -12.8378 -12.7261  -9.3937  -6.3273  -5.8504  -5.7485  -4.2403  -3.3752
    -3.2358  -3.0071  -2.9672  -2.9311  -2.9157  -2.8677  -2.8595  -2.8503
    -2.7861  -2.7436  -2.6782  -2.6432  -2.6056  -2.5897  -2.4286  -2.3016
    -2.2976  -2.2079  -2.1672  -2.1292  -2.0856  -2.0089  -1.9667  -1.9478
    -1.9188  -1.9028  -1.8462  -1.8398  -1.8329  -1.7865  -1.7269  -1.7128
    -1.6965  -1.6780  -1.6631  -1.6513  -1.5818  -1.5625  -1.5306  -1.4335
    -1.3151  -1.1913  -1.1713  -1.0709  -1.0568  -1.0084  -1.0013  -0.9757
    -0.9677  -0.9241  -0.8935  -0.8714  -0.7994  -0.7742  -0.7109  -0.6834
    -0.6553  -0.6331  -0.5608  -0.3675  -0.2980  -0.2884  -0.2640  -0.2321
    -0.1479  -0.1162  -0.0816  -0.0587  -0.0216   0.0350   0.0576   0.0811
     0.1330   0.1388   0.1997   0.2183   0.2933   0.3224   0.3795   0.4251
     0.4362   0.4721   0.4801   0.4946   0.5623   0.6039   0.7602   0.8641
     0.8689   1.1185   1.1603   1.3290   1.3551   1.5954   1.7145   1.8082
     2.0146   2.1681   3.7537   3.8010   3.8835   4.0087   4.0824   4.1235
     4.1798   4.2020   4.2275   4.2487   4.3244

          k =-0.0760 0.0419 0.0000 ( 17914 PWs)   bands (ev):

   -55.3538 -55.3266 -55.3043 -55.2916 -55.2802 -55.2354 -55.2354 -55.2081
   -55.1833 -55.1767 -55.1526 -55.1369 -55.1130 -55.0175 -54.3366 -54.3126
   -31.8688 -31.7700 -31.7502 -31.6847 -31.6598 -31.6321 -31.6268 -31.6058
   -31.6038 -31.5931 -31.5902 -31.5512 -31.5509 -31.5348 -31.5305 -31.5251
   -31.5021 -31.4921 -31.4870 -31.4808 -31.4673 -31.4480 -31.4471 -31.4435
   -31.4126 -31.4088 -31.4014 -31.3942 -31.3914 -31.3884 -31.3811 -31.3799
   -31.3624 -31.3498 -31.3479 -31.3475 -31.3383 -31.3319 -31.3080 -31.2801
   -31.2632 -31.2332 -30.6964 -30.6590 -30.6359 -30.5548 -30.4934 -30.4270
   -17.9983 -17.6365 -15.8608 -15.7735 -15.6063 -15.4824 -15.3882 -15.3367
   -15.3216 -15.2786 -15.2350 -15.1753 -15.1641 -15.1537 -15.1316 -15.0918
   -15.0616 -15.0526 -14.9797 -14.9218 -14.9167 -14.8353 -14.8261 -14.8015
   -14.7892 -14.7521 -14.7421 -14.6491 -14.6172 -14.5990 -14.4528 -13.1463
   -12.8433 -12.7665  -9.4007  -6.3322  -5.8803  -5.6908  -4.2357  -3.2090
    -3.0807  -2.9428  -2.7993  -2.7793  -2.7226  -2.6949  -2.6676  -2.6290
    -2.5845  -2.5741  -2.5606  -2.5101  -2.4686  -2.3908  -2.3709  -2.3498
    -2.3234  -2.3071  -2.2547  -2.2237  -2.1807  -2.1593  -2.0821  -2.0766
    -2.0425  -2.0349  -1.9606  -1.9474  -1.9205  -1.9065  -1.8771  -1.8311
    -1.8121  -1.7809  -1.5969  -1.5765  -1.5346  -1.5173  -1.4384  -1.4151
    -1.3353  -1.1646  -1.1303  -1.1125  -1.1007  -1.0037  -0.9913  -0.9535
    -0.9316  -0.8618  -0.8008  -0.7739  -0.7617  -0.7263  -0.6997  -0.6554
    -0.6338  -0.6097  -0.5662  -0.5480  -0.5197  -0.4570  -0.4272  -0.3594
    -0.3445  -0.2532  -0.1715  -0.1595  -0.1406  -0.1228  -0.0920  -0.0648
    -0.0364   0.0841   0.0957   0.1769   0.1925   0.2569   0.3621   0.3898
     0.4585   0.5151   0.5304   0.5915   0.6982   0.7956   0.8550   0.9066
     0.9572   1.0489   1.1365   1.1499   1.2908   1.3600   1.8906   1.9452
     2.0567   2.1871   3.9131   3.9367   3.9605   3.9790   4.0540   4.0941
     4.1411   4.2017   4.2751   4.3264   4.3694

          k =-0.0760-0.0839 0.0000 ( 17948 PWs)   bands (ev):

   -55.3453 -55.3352 -55.2925 -55.2921 -55.2911 -55.2326 -55.2279 -55.2156
   -55.1863 -55.1661 -55.1633 -55.1253 -55.1247 -55.0181 -54.3248 -54.3245
   -31.7335 -31.7255 -31.7237 -31.6389 -31.6193 -31.6176 -31.6173 -31.5837
   -31.5835 -31.5727 -31.5585 -31.5573 -31.5505 -31.5306 -31.5189 -31.5056
   -31.4990 -31.4958 -31.4943 -31.4929 -31.4861 -31.4788 -31.4464 -31.4387
   -31.4357 -31.4354 -31.4216 -31.4168 -31.4122 -31.4117 -31.4067 -31.3989
   -31.3965 -31.3792 -31.3761 -31.3739 -31.3591 -31.3559 -31.3062 -31.3058
   -31.2995 -31.2331 -30.6474 -30.6471 -30.5638 -30.5636 -30.5243 -30.5241
   -17.9930 -17.6409 -15.6736 -15.5882 -15.5673 -15.4122 -15.3605 -15.3341
   -15.3231 -15.2078 -15.1653 -15.1462 -15.1315 -15.1095 -15.0714 -15.0618
   -15.0547 -14.9919 -14.9716 -14.9627 -14.9368 -14.8828 -14.8753 -14.8672
   -14.8595 -14.8095 -14.8056 -14.7665 -14.7150 -14.7115 -14.6353 -13.1473
   -12.8282 -12.8282  -9.4077  -6.3376  -5.8986  -5.6445  -4.2312  -2.9342
    -2.8463  -2.8357  -2.8291  -2.6993  -2.6255  -2.5502  -2.5280  -2.5065
    -2.4209  -2.4086  -2.3778  -2.3527  -2.3231  -2.2840  -2.2464  -2.2398
    -2.2037  -2.1952  -2.1793  -2.1626  -2.1412  -2.1256  -2.0918  -2.0811
    -2.0675  -2.0236  -1.9976  -1.9837  -1.9623  -1.9421  -1.9344  -1.9156
    -1.8414  -1.7509  -1.7262  -1.6411  -1.5723  -1.5697  -1.5638  -1.5019
    -1.4584  -1.4201  -1.3949  -1.3780  -1.2387  -1.1674  -1.1231  -1.1089
    -1.0942  -0.9635  -0.9571  -0.8810  -0.8586  -0.8522  -0.7592  -0.7143
    -0.6756  -0.6687  -0.5821  -0.5699  -0.4939  -0.3956  -0.3735  -0.3598
    -0.3146  -0.3128  -0.2754  -0.2624  -0.1661  -0.1306  -0.1095  -0.0966
    -0.0802  -0.0385   0.1126   0.1616   0.1681   0.3013   0.3329   0.4716
     0.5012   0.5655   0.6453   0.6942   0.7465   0.7793   0.8663   0.9406
     0.9438   1.0071   1.0227   1.0888   1.1010   1.3658   2.0374   2.0379
     2.1257   2.1261   3.8861   4.0011   4.0047   4.0340   4.1560   4.1794
     4.2558   4.2834   4.3226   4.3260   4.3845

     the Fermi energy is     3.8021 ev

!    total energy              =   -2977.68381312 Ry
     estimated scf accuracy    <       0.00000007 Ry
     smearing contrib. (-TS)   =      -0.03717752 Ry
     internal energy E=F+TS    =   -2977.64663560 Ry

     The total energy is F=E-TS. E is the sum of the following terms:
     one-electron contribution =  -22681.40633560 Ry
     hartree contribution      =   11438.08286205 Ry
     xc contribution           =    -496.61139542 Ry
     ewald contribution        =    8762.28626613 Ry
     electric field correction =       0.00196725 Ry

     convergence has been achieved in  81 iterations

     Forces acting on atoms (cartesian axes, Ry/au):

     atom    1 type  1   force =     0.00024239   -0.00037969    0.09321516
     atom    2 type  1   force =     0.00002090   -0.00038809   -0.17817180
     atom    3 type  2   force =     0.00004946   -0.00041680   -0.02001891
     atom    4 type  2   force =     0.00001215   -0.00190319    0.05911992
     atom    5 type  2   force =    -0.01035142   -0.00059518    0.00861435
     atom    6 type  2   force =     0.01130158    0.00009526    0.00628579
     atom    7 type  1   force =    -0.00096314    0.00197712   -0.01428035
     atom    8 type  1   force =     0.00097423   -0.00256258   -0.00599319
     atom    9 type  2   force =     0.00016763   -0.00001454    0.00009639
     atom   10 type  2   force =    -0.00230879    0.00309287    0.00262869
     atom   11 type  2   force =     0.00042252   -0.00043377   -0.00056148
     atom   12 type  2   force =     0.00003411   -0.00041314   -0.00056808
     atom   13 type  1   force =     0.00032920   -0.00026980   -0.00021016
     atom   14 type  1   force =     0.00005476   -0.00008773   -0.00006752
     atom   15 type  2   force =     0.00000449    0.00055565   -0.00003465
     atom   16 type  2   force =     0.00030636    0.00027672   -0.00013925
     atom   17 type  2   force =     0.00040153    0.00024919    0.00037749
     atom   18 type  2   force =    -0.00052427    0.00021074   -0.00009277
     atom   19 type  1   force =    -0.00008826    0.00010828    0.00033838
     atom   20 type  1   force =    -0.00010123   -0.00023743    0.00058277
     atom   21 type  2   force =     0.00012067   -0.00011174    0.10401803
     atom   22 type  2   force =     0.00018325   -0.00013382    0.00045070
     atom   23 type  2   force =    -0.07027378   -0.00019449   -0.02686777
     atom   24 type  2   force =     0.07025862    0.00025172   -0.02686918
     atom   25 type  1   force =     0.00016977   -0.00030078    0.09240973
     atom   26 type  1   force =     0.00005619   -0.00054544   -0.17849946
     atom   27 type  2   force =     0.00008233   -0.00021216   -0.01908151
     atom   28 type  2   force =     0.00006025   -0.00173232    0.05853589
     atom   29 type  2   force =    -0.01101847   -0.00114277    0.00945172
     atom   30 type  2   force =     0.01187804   -0.00069933    0.00723357
     atom   31 type  1   force =    -0.00087677    0.00646064   -0.01493954
     atom   32 type  1   force =     0.00101921    0.00220714   -0.00639093
     atom   33 type  2   force =     0.00025895    0.00009374    0.00002673
     atom   34 type  2   force =    -0.00214519   -0.00243634   -0.00030113
     atom   35 type  2   force =     0.00028299    0.00012763   -0.00000496
     atom   36 type  2   force =     0.00025389    0.00003848    0.00051016
     atom   37 type  1   force =    -0.00010425    0.00002051   -0.00006803
     atom   38 type  1   force =     0.00015973   -0.00007082    0.00000354
     atom   39 type  2   force =    -0.00010223   -0.00020570    0.00044660
     atom   40 type  2   force =    -0.00014273    0.00008320    0.00004240
     atom   41 type  2   force =    -0.00048720    0.00015444    0.00018294
     atom   42 type  2   force =     0.00022917   -0.00010297   -0.00014425
     atom   43 type  1   force =     0.00042495    0.00026550   -0.00002926
     atom   44 type  1   force =    -0.00019027    0.00003729    0.00023560
     atom   45 type  2   force =     0.00012720   -0.00010922    0.10395287
     atom   46 type  2   force =    -0.07024599   -0.00013198   -0.02680961
     atom   47 type  2   force =     0.07023780    0.00027725   -0.02687221
     atom   48 type  3   force =     0.00036448   -0.00071375   -0.00060370
     atom   49 type  3   force =    -0.00302205    0.00548842    0.00457605
     atom   50 type  4   force =    -0.00028016   -0.00027119   -0.00043568
     atom   51 type  5   force =    -0.00077155    0.00037659    0.00041661
     atom   52 type  5   force =     0.00041404   -0.00002779    0.00038203
     atom   53 type  5   force =    -0.00003261    0.00021166   -0.00044764
     atom   54 type  5   force =     0.00015958   -0.00019978   -0.00007451
     atom   55 type  5   force =     0.00324139   -0.00429627   -0.00538969
     atom   56 type  5   force =    -0.00045925   -0.00089546    0.00067346
     atom   57 type  2   force =    -0.00102629   -0.00064667    0.00084505
     atom   58 type  5   force =     0.00009869   -0.00029845   -0.00022732
     atom   59 type  5   force =     0.00111344    0.00052115   -0.00145809

     Total force =     0.366427     Total SCF correction =     0.000724
  @ DRIVER MODE: Message from server: STATUS
  @ DRIVER MODE: Message from server: GETFORCE
  @ DRIVER MODE: Returning v,forces,stress,ensemble 

     Writing output data file ./calc.save/
  @ DRIVER MODE: Message from server: EXIT
  @ DRIVE MODE: Exiting  
 
     init_run     :     11.16s CPU     11.38s WALL (       1 calls)
     electrons    :   1365.71s CPU   1384.99s WALL (       1 calls)
     forces       :      2.52s CPU      2.60s WALL (       1 calls)

     Called by init_run:
     wfcinit      :      4.95s CPU      5.02s WALL (       1 calls)
     potinit      :      5.43s CPU      5.49s WALL (       1 calls)
     hinit0       :      0.41s CPU      0.42s WALL (       1 calls)

     Called by electrons:
     c_bands      :   1168.67s CPU   1176.86s WALL (      81 calls)
     sum_band     :    133.08s CPU    137.62s WALL (      81 calls)
     v_of_rho     :     46.91s CPU     49.13s WALL (      82 calls)
     newd         :     19.56s CPU     23.86s WALL (      82 calls)
     mix_rho      :      1.76s CPU      1.79s WALL (      81 calls)
     vdW_kernel   :      4.58s CPU      4.59s WALL (       1 calls)

     Called by c_bands:
     init_us_2    :      9.21s CPU      9.25s WALL (    1640 calls)
     cegterg      :   1145.05s CPU   1152.87s WALL (     844 calls)

     Called by *egterg:
     cdiaghg      :    192.18s CPU    193.02s WALL (    9085 calls)
     h_psi        :    595.60s CPU    601.00s WALL (    9098 calls)
     s_psi        :     83.74s CPU     83.99s WALL (    9098 calls)
     g_psi        :      2.33s CPU      2.35s WALL (    8244 calls)

     Called by h_psi:
     h_psi:calbec :     78.90s CPU     79.28s WALL (    9098 calls)
     vloc_psi     :    427.72s CPU    431.99s WALL (    9098 calls)
     add_vuspsi   :     84.34s CPU     84.82s WALL (    9098 calls)

     General routines
     calbec       :    102.54s CPU    102.99s WALL (    9948 calls)
     fft          :     24.95s CPU     25.12s WALL (    5166 calls)
     ffts         :      0.16s CPU      0.16s WALL (     163 calls)
     fftw         :    477.71s CPU    482.49s WALL ( 1148828 calls)
     interpolate  :      0.51s CPU      0.52s WALL (      82 calls)
     davcio       :      0.00s CPU      0.10s WALL (      10 calls)
 
     Parallel routines
 
     PWSCF        :  22m59.66s CPU  23m20.58s WALL

 
   This run was terminated on:   8:56:14  16Sep2021            

=------------------------------------------------------------------------------=
   JOB DONE.
=------------------------------------------------------------------------------=
