
     Program PWSCF v.6.7GPU starts on 16Sep2021 at  3:33: 4 

     This program is part of the open-source Quantum ESPRESSO suite
     for quantum simulation of materials; please cite
         "P. Giannozzi et al., J. Phys.:Condens. Matter 21 395502 (2009);
         "P. Giannozzi et al., J. Phys.:Condens. Matter 29 465901 (2017);
         "P. Giannozzi et al., J. Chem. Phys. 152 154105 (2020);
          URL http://www.quantum-espresso.org", 
     in publications or presentations arising from this work. More details at
     http://www.quantum-espresso.org/quote

     Parallel version (MPI), running on    10 processors

     MPI processes distributed on     1 nodes
     R & G space division:  proc/nbgrp/npool/nimage =      10
     Reading input from /storage/home/hcoda1/3/ntian30/research/carbon/CxH_vib/H2O_calc/ads_slab/CHNHH2O_a/out_0036/pw.inp
Warning: card &CELL ignored
Warning: card   CELL_DYNAMICS='IPI', ignored
Warning: card / ignored

     Current dimensions of program PWSCF are:
     Max number of different atomic species (ntypx) = 10
     Max number of k-points (npk) =  40000
     Max angular momentum in pseudopotentials (lmaxx) =  3
     Presently no symmetry can be used with electric field

     Message from routine cell_base_init:
     DEPRECATED: use true lattice parameter, not A to a.u. conversion factor

     **************************************************************************
     Initializing libbeef V0.1.2 with the BEEF-vdW functional.
     Citation: Wellendorff et al., PRB 85, 235149 (2012).
     **************************************************************************


     IMPORTANT: XC functional enforced from input :
     Exchange-correlation= BEEF-VDW
                           (   1   4  43  14   2   0   0)
     Any further DFT definition will be discarded
     Please, verify this is what you really want


     Subspace diagonalization in iterative solution of the eigenvalue problem:
     one sub-group per band group will be used
     scalapack distributed-memory algorithm (size of sub-group:  3*  3 procs)

  @ DRIVER MODE: Connecting to 
 qe_1139763_2852628.sched-torque.pace.gatech.edurbn7_44k_scratch
  using UNIX socket
  @ DRIVER MODE: Message from server: STATUS
  @ DRIVER MODE: Message from server: INIT
  @ DRIVER MODE: Receiving replica           0          -1
  @ DRIVER MODE: Receiving encoded integer          25
  @ DRIVER MODE:  SCF:  T  FORCE:  T  STRESS:  F  VC:  F  ENSEMBLE:  F
  @ DRIVER MODE:  SCF:  T  FORCE:  T  STRESS:  F  VC:  F  ENSEMBLE:  F
 
     Parallelization info
     --------------------
     sticks:   dense  smooth     PW     G-vecs:    dense   smooth      PW
     Min         327     131     37                56683    14340    2191
     Max         328     133     38                56694    14346    2206
     Sum        3275    1317    379               566857   143421   21985
 
     Using Slab Decomposition
 


     bravais-lattice index     =            0
     lattice parameter (alat)  =       1.8897  a.u.
     unit-cell volume          =    6658.9804 (a.u.)^3
     number of atoms/cell      =           54
     number of atomic types    =            5
     number of electrons       =       397.00
     number of Kohn-Sham states=          208
     kinetic-energy cutoff     =      29.3995  Ry
     charge density cutoff     =     293.9946  Ry
     scf convergence threshold =      7.3E-08
     mixing beta               =       0.0500
     number of iterations used =            8  plain     mixing
     Exchange-correlation= BEEF-VDW
                           (   1   4  43  14   2   0   0)

     celldm(1)=   1.889726  celldm(2)=   0.000000  celldm(3)=   0.000000
     celldm(4)=   0.000000  celldm(5)=   0.000000  celldm(6)=   0.000000

     crystal axes: (cart. coord. in units of alat)
               a(1) = (   6.579727   0.000000   0.000000 )  
               a(2) = (  -0.000775   5.961596   0.000000 )  
               a(3) = (   0.000000   0.000000  25.155947 )  

     reciprocal axes: (cart. coord. in units 2 pi/alat)
               b(1) = (  0.151982  0.000020  0.000000 )  
               b(2) = (  0.000000  0.167740  0.000000 )  
               b(3) = (  0.000000  0.000000  0.039752 )  


     PseudoPot. # 1 for Ti read from file:
     /storage/coda1/p-amedford6/0/shared/rich_project_chbe-medford/medford-share/data/pseudos_module/espresso/nninc/pbe/van/Ti.UPF
     MD5 check sum: 8e4df49b7f0d34bbd5052bf3f5ea0213
     Pseudo is Ultrasoft, Zval = 12.0
     Generated by new atomic code, or converted to UPF format
     Using radial grid of  851 points,  6 beta functions with: 
                l(1) =   0
                l(2) =   0
                l(3) =   1
                l(4) =   1
                l(5) =   2
                l(6) =   2
     Q(r) pseudized with  8 coefficients,  rinner =    1.000   1.000   1.000
                                                       1.000   1.000

     PseudoPot. # 2 for O  read from file:
     /storage/coda1/p-amedford6/0/shared/rich_project_chbe-medford/medford-share/data/pseudos_module/espresso/nninc/pbe/van/O.UPF
     MD5 check sum: 78c19812648e8988a0fe644b0f25305e
     Pseudo is Ultrasoft, Zval =  6.0
     Generated by new atomic code, or converted to UPF format
     Using radial grid of  737 points,  4 beta functions with: 
                l(1) =   0
                l(2) =   0
                l(3) =   1
                l(4) =   1
     Q(r) pseudized with  8 coefficients,  rinner =    0.800   0.800   0.800


     PseudoPot. # 3 for N  read from file:
     /storage/coda1/p-amedford6/0/shared/rich_project_chbe-medford/medford-share/data/pseudos_module/espresso/nninc/pbe/van/N.UPF
     MD5 check sum: 90d10febe142ad51ac9d5be1deb811c4
     Pseudo is Ultrasoft, Zval =  5.0
     Generated by new atomic code, or converted to UPF format
     Using radial grid of  729 points,  4 beta functions with: 
                l(1) =   0
                l(2) =   0
                l(3) =   1
                l(4) =   1
     Q(r) pseudized with  8 coefficients,  rinner =    0.800   0.800   0.800


     PseudoPot. # 4 for C  read from file:
     /storage/coda1/p-amedford6/0/shared/rich_project_chbe-medford/medford-share/data/pseudos_module/espresso/nninc/pbe/van/C.UPF
     MD5 check sum: 1a69bf6b8db32088f5b2163dbdb77a27
     Pseudo is Ultrasoft, Zval =  4.0
     Generated by new atomic code, or converted to UPF format
     Using radial grid of  721 points,  4 beta functions with: 
                l(1) =   0
                l(2) =   0
                l(3) =   1
                l(4) =   1
     Q(r) pseudized with  8 coefficients,  rinner =    0.800   0.800   0.800


     PseudoPot. # 5 for H  read from file:
     /storage/coda1/p-amedford6/0/shared/rich_project_chbe-medford/medford-share/data/pseudos_module/espresso/nninc/pbe/van/H.UPF
     MD5 check sum: b5ee9d7bfd3a09ee7748110bda690ff7
     Pseudo is Ultrasoft, Zval =  1.0
     Generated by new atomic code, or converted to UPF format
     Using radial grid of  615 points,  1 beta functions with: 
                l(1) =   0
     Q(r) pseudized with  8 coefficients,  rinner =    0.800

     atomic species   valence    mass     pseudopotential
        Ti1           12.00    47.86700     Ti( 1.00)
        O1             6.00    15.99900     O ( 1.00)
        N1             5.00    14.00700     N ( 1.00)
        C1             4.00    12.01100     C ( 1.00)
        H1             1.00     1.00800     H ( 1.00)

     No symmetry found



   Cartesian axes

     site n.     atom                  positions (alat units)
         1           Ti1 tau(   1) = (   0.0004258   2.9801865   6.0000000  )
         2           Ti1 tau(   2) = (   3.2906075   1.4906267   6.0002472  )
         3           O1  tau(   3) = (   0.0006271   0.0005054   7.9858123  )
         4           O1  tau(   4) = (   3.2906025   0.0005020   7.3038282  )
         5           O1  tau(   5) = (   4.5942328   1.4918067   9.2879030  )
         6           O1  tau(   6) = (   1.9868534   1.4903216   9.2879459  )
         7           Ti1 tau(   7) = (   3.2907910   2.8959150   9.1758416  )
         8           Ti1 tau(   8) = (   0.0015273   1.4827037   9.2680791  )
         9           O1  tau(   9) = (   3.2914171   5.9475995  11.3455371  )
        10           O1  tau(  10) = (   0.0116148   5.9584955  10.6183126  )
        11           O1  tau(  11) = (   1.3057669   1.4807986  12.6390077  )
        12           O1  tau(  12) = (   5.3035249   1.4749620  12.6227664  )
        13           Ti1 tau(  13) = (   6.5294082   2.9362577  12.6231083  )
        14           Ti1 tau(  14) = (   3.2175537   1.4615748  12.5070279  )
        15           O1  tau(  15) = (   6.5585639   5.9474800  14.6380151  )
        16           O1  tau(  16) = (   3.3125803   5.9531145  13.9695519  )
        17           O1  tau(  17) = (   4.5393379   1.5011389  16.1071157  )
        18           O1  tau(  18) = (   2.0094023   1.5044898  16.0307267  )
        19           Ti1 tau(  19) = (   3.2760958   2.9523363  15.6877793  )
        20           Ti1 tau(  20) = (   0.0277933   1.3451898  16.0452527  )
        21           O1  tau(  21) = (   3.2904802   0.0005063   4.7018136  )
        22           O1  tau(  22) = (   0.0198929   5.9263875  17.1601691  )
        23           O1  tau(  23) = (   1.3043587   1.4918075   6.0039043  )
        24           O1  tau(  24) = (   5.2767064   1.4903225   6.0039473  )
        25           Ti1 tau(  25) = (   0.0000382   5.9609847   6.0000000  )
        26           Ti1 tau(  26) = (   3.2902200   4.4714249   6.0002472  )
        27           O1  tau(  27) = (   0.0002396   2.9813036   7.9858123  )
        28           O1  tau(  28) = (   3.2902150   2.9813002   7.3038282  )
        29           O1  tau(  29) = (   4.5938453   4.4726049   9.2879030  )
        30           O1  tau(  30) = (   1.9864658   4.4711199   9.2879459  )
        31           Ti1 tau(  31) = (   3.2891106   5.8743827   9.1763621  )
        32           Ti1 tau(  32) = (   0.0006254   4.4649316   9.2693709  )
        33           O1  tau(  33) = (   3.2862706   2.9662616  11.3468726  )
        34           O1  tau(  34) = (   0.0092240   2.9805883  10.6323155  )
        35           O1  tau(  35) = (   1.3102706   4.4726941  12.6361575  )
        36           O1  tau(  36) = (   5.3014905   4.4644878  12.6181669  )
        37           Ti1 tau(  37) = (   6.5311680   5.9227251  12.5202533  )
        38           Ti1 tau(  38) = (   3.2191334   4.4553394  12.5017427  )
        39           O1  tau(  39) = (   6.5614274   2.9920157  14.6796082  )
        40           O1  tau(  40) = (   3.3146075   2.9603188  13.8993185  )
        41           O1  tau(  41) = (   4.5484517   4.4144432  16.0509510  )
        42           O1  tau(  42) = (   2.0146171   4.4214036  15.9967612  )
        43           Ti1 tau(  43) = (   3.3303817   5.9274347  15.8100502  )
        44           Ti1 tau(  44) = (   0.0273359   4.4939047  15.8144843  )
        45           O1  tau(  45) = (   3.2900926   2.9813045   4.7018136  )
        46           O1  tau(  46) = (   1.3039711   4.4726057   6.0039043  )
        47           O1  tau(  47) = (   5.2763189   4.4711207   6.0039473  )
        48           N1  tau(  48) = (   6.5134970   2.9613368  17.6459670  )
        49           C1  tau(  49) = (   0.7931072   3.0267964  18.6255283  )
        50           H1  tau(  50) = (   1.8307262   2.9311331  18.2395185  )
        51           H1  tau(  51) = (   5.5494773   3.0666896  17.9713127  )
        52           O1  tau(  52) = (   3.1855344   5.8058271  18.1612476  )
        53           H1  tau(  53) = (   3.8461454   0.3022996  18.7134462  )
        54           H1  tau(  54) = (   2.3120581   0.0053998  18.5533318  )

     number of k points=    10  Fermi-Dirac smearing, width (Ry)=  0.0073
                       cart. coord. in units 2pi/alat
        k(    1) = (   0.0000000   0.0000000   0.0000000), wk =   0.1250000
        k(    2) = (   0.0000000   0.0419351   0.0000000), wk =   0.2500000
        k(    3) = (   0.0000000  -0.0838702   0.0000000), wk =   0.1250000
        k(    4) = (   0.0379955   0.0000049   0.0000000), wk =   0.2500000
        k(    5) = (   0.0379955   0.0419400   0.0000000), wk =   0.2500000
        k(    6) = (   0.0379955  -0.0838652   0.0000000), wk =   0.2500000
        k(    7) = (   0.0379955  -0.0419301   0.0000000), wk =   0.2500000
        k(    8) = (  -0.0759910  -0.0000099   0.0000000), wk =   0.1250000
        k(    9) = (  -0.0759910   0.0419252   0.0000000), wk =   0.2500000
        k(   10) = (  -0.0759910  -0.0838800   0.0000000), wk =   0.1250000

     Dense  grid:   566857 G-vectors     FFT dimensions: (  72,  64, 270)

     Smooth grid:   143421 G-vectors     FFT dimensions: (  45,  40, 180)

     Estimated max dynamical RAM per process >     366.33 MB

     Estimated total dynamical RAM >       3.58 GB
     Cannot read rho : file not found

     Initial potential from superposition of free atoms

     starting charge  380.99916, renormalised to  397.00000

     negative rho (up, down):  1.754E-02 0.000E+00


     %%%%%%%%%%%%%%%%%%%%%%%%%%%%%%%%%%%%%%%%%%%%%%%%%%%%%%%%%%%%%%%%%%%%%%%%
     %                                                                      %
     % You are using vdW-DF, which was implemented by the Thonhauser group. %
     % Please cite the following two papers that made this development      %
     % possible and the two reviews that describe the various versions:     %
     %                                                                      %
     %   T. Thonhauser et al., PRL 115, 136402 (2015).                      %
     %   T. Thonhauser et al., PRB 76, 125112 (2007).                       %
     %   K. Berland et al., Rep. Prog. Phys. 78, 066501 (2015).             %
     %   D.C. Langreth et al., J. Phys.: Condens. Matter 21, 084203 (2009). %
     %                                                                      %
     %                                                                      %
     % If you are calculating the stress with vdW-DF, please also cite:     %
     %                                                                      %
     %   R. Sabatini et al., J. Phys.: Condens. Matter 24, 424209 (2012).   %
     %                                                                      %
     %%%%%%%%%%%%%%%%%%%%%%%%%%%%%%%%%%%%%%%%%%%%%%%%%%%%%%%%%%%%%%%%%%%%%%%%


 
     Adding external electric field

     Computed dipole along edir(3) : 
        Dipole               -9.1674 Ry au,        -23.3013 Debye
        Dipole field         -0.0173 Ry au, 
 
        Potential amp.        1.6037 Ry
        Total length         46.3494 bohr
 
     Starting wfcs are  300 atomic wfcs
  @ DRIVER MODE: Message from server: STATUS
  @ DRIVER MODE: Message from server: POSDATA
  @ DRIVER MODE: Reading and sharing cell 
  @ DRIVER MODE: Reading and sharing positions 
  @ DRIVER MODE: Received positions 

     total cpu time spent up to now is       11.2 secs

     Self-consistent Calculation

     iteration #  1     ecut=    29.40 Ry     beta= 0.05
     Davidson diagonalization with overlap
     c_bands:  1 eigenvalues not converged
     c_bands:  1 eigenvalues not converged
     c_bands:  1 eigenvalues not converged
     c_bands:  1 eigenvalues not converged
     c_bands:  1 eigenvalues not converged
     c_bands:  1 eigenvalues not converged
     c_bands:  1 eigenvalues not converged
     c_bands:  1 eigenvalues not converged
     c_bands:  1 eigenvalues not converged
     ethr =  1.00E-05,  avg # of iterations = 19.8

     negative rho (up, down):  1.297E-02 0.000E+00
 
     Adding external electric field

     Computed dipole along edir(3) : 
        Dipole               42.7659 Ry au,        108.7001 Debye
        Dipole field          0.0807 Ry au, 
 
        Potential amp.       -7.4812 Ry
        Total length         46.3494 bohr
 

     total cpu time spent up to now is       51.0 secs

     total energy              =   -2547.28746868 Ry
     estimated scf accuracy    <    4504.87513311 Ry

     iteration #  2     ecut=    29.40 Ry     beta= 0.05
     Davidson diagonalization with overlap
     ethr =  1.00E-02,  avg # of iterations = 24.7

     negative rho (up, down):  3.748E-03 0.000E+00
 
     Adding external electric field

     Computed dipole along edir(3) : 
        Dipole               -1.7617 Ry au,         -4.4777 Debye
        Dipole field         -0.0033 Ry au, 
 
        Potential amp.        0.3082 Ry
        Total length         46.3494 bohr
 

     total cpu time spent up to now is      122.2 secs

     total energy              =   -2482.10181294 Ry
     estimated scf accuracy    <   64400.85927417 Ry

     iteration #  3     ecut=    29.40 Ry     beta= 0.05
     Davidson diagonalization with overlap
     ethr =  1.00E-02,  avg # of iterations = 14.7

     negative rho (up, down):  3.820E-03 0.000E+00
 
     Adding external electric field

     Computed dipole along edir(3) : 
        Dipole               -4.1455 Ry au,        -10.5368 Debye
        Dipole field         -0.0078 Ry au, 
 
        Potential amp.        0.7252 Ry
        Total length         46.3494 bohr
 

     total cpu time spent up to now is      167.8 secs

     total energy              =   -2935.92488947 Ry
     estimated scf accuracy    <    4216.41581981 Ry

     iteration #  4     ecut=    29.40 Ry     beta= 0.05
     Davidson diagonalization with overlap
     c_bands:  2 eigenvalues not converged
     c_bands:  4 eigenvalues not converged
     ethr =  1.00E-02,  avg # of iterations = 17.2

     negative rho (up, down):  3.869E-03 0.000E+00
 
     Adding external electric field

     Computed dipole along edir(3) : 
        Dipole               -5.3888 Ry au,        -13.6969 Debye
        Dipole field         -0.0102 Ry au, 
 
        Potential amp.        0.9427 Ry
        Total length         46.3494 bohr
 

     total cpu time spent up to now is      188.8 secs

     total energy              =   -2942.70491374 Ry
     estimated scf accuracy    <    1119.14114459 Ry

     iteration #  5     ecut=    29.40 Ry     beta= 0.05
     Davidson diagonalization with overlap
     ethr =  1.00E-02,  avg # of iterations =  6.3

     negative rho (up, down):  3.909E-03 0.000E+00
 
     Adding external electric field

     Computed dipole along edir(3) : 
        Dipole               -6.2542 Ry au,        -15.8967 Debye
        Dipole field         -0.0118 Ry au, 
 
        Potential amp.        1.0941 Ry
        Total length         46.3494 bohr
 

     total cpu time spent up to now is      200.9 secs

     total energy              =   -2940.48174302 Ry
     estimated scf accuracy    <     593.55464519 Ry

     iteration #  6     ecut=    29.40 Ry     beta= 0.05
     Davidson diagonalization with overlap
     ethr =  1.00E-02,  avg # of iterations = 10.6

     negative rho (up, down):  3.875E-03 0.000E+00
 
     Adding external electric field

     Computed dipole along edir(3) : 
        Dipole               -5.2635 Ry au,        -13.3786 Debye
        Dipole field         -0.0099 Ry au, 
 
        Potential amp.        0.9208 Ry
        Total length         46.3494 bohr
 

     total cpu time spent up to now is      217.9 secs

     total energy              =   -2955.56769102 Ry
     estimated scf accuracy    <      19.30793445 Ry

     iteration #  7     ecut=    29.40 Ry     beta= 0.05
     Davidson diagonalization with overlap
     ethr =  4.86E-03,  avg # of iterations =  1.3

     negative rho (up, down):  3.927E-03 0.000E+00
 
     Adding external electric field

     Computed dipole along edir(3) : 
        Dipole               -3.8492 Ry au,         -9.7837 Debye
        Dipole field         -0.0073 Ry au, 
 
        Potential amp.        0.6734 Ry
        Total length         46.3494 bohr
 

     total cpu time spent up to now is      227.9 secs

     total energy              =   -2955.08415737 Ry
     estimated scf accuracy    <      18.26793937 Ry

     iteration #  8     ecut=    29.40 Ry     beta= 0.05
     Davidson diagonalization with overlap
     ethr =  4.60E-03,  avg # of iterations =  2.0

     negative rho (up, down):  3.922E-03 0.000E+00
 
     Adding external electric field

     Computed dipole along edir(3) : 
        Dipole               -3.5424 Ry au,         -9.0038 Debye
        Dipole field         -0.0067 Ry au, 
 
        Potential amp.        0.6197 Ry
        Total length         46.3494 bohr
 

     total cpu time spent up to now is      238.4 secs

     total energy              =   -2955.23412456 Ry
     estimated scf accuracy    <      16.50191363 Ry

     iteration #  9     ecut=    29.40 Ry     beta= 0.05
     Davidson diagonalization with overlap
     ethr =  4.16E-03,  avg # of iterations =  1.6

     negative rho (up, down):  4.655E-03 0.000E+00
 
     Adding external electric field

     Computed dipole along edir(3) : 
        Dipole                6.8238 Ry au,         17.3443 Debye
        Dipole field          0.0129 Ry au, 
 
        Potential amp.       -1.1937 Ry
        Total length         46.3494 bohr
 

     total cpu time spent up to now is      248.5 secs

     total energy              =   -2955.75237730 Ry
     estimated scf accuracy    <      16.04879584 Ry

     iteration # 10     ecut=    29.40 Ry     beta= 0.05
     Davidson diagonalization with overlap
     ethr =  4.04E-03,  avg # of iterations = 14.3

     negative rho (up, down):  5.230E-03 0.000E+00
 
     Adding external electric field

     Computed dipole along edir(3) : 
        Dipole                9.4979 Ry au,         24.1412 Debye
        Dipole field          0.0179 Ry au, 
 
        Potential amp.       -1.6615 Ry
        Total length         46.3494 bohr
 

     total cpu time spent up to now is      271.3 secs

     total energy              =   -3059.69565703 Ry
     estimated scf accuracy    <    5251.24811240 Ry

     iteration # 11     ecut=    29.40 Ry     beta= 0.05
     Davidson diagonalization with overlap
     ethr =  4.04E-03,  avg # of iterations =  2.1

     negative rho (up, down):  5.291E-03 0.000E+00
 
     Adding external electric field

     Computed dipole along edir(3) : 
        Dipole                7.5725 Ry au,         19.2473 Debye
        Dipole field          0.0143 Ry au, 
 
        Potential amp.       -1.3247 Ry
        Total length         46.3494 bohr
 

     total cpu time spent up to now is      281.6 secs

     total energy              =   -3019.42065610 Ry
     estimated scf accuracy    <    5592.76177680 Ry

     iteration # 12     ecut=    29.40 Ry     beta= 0.05
     Davidson diagonalization with overlap
     ethr =  4.04E-03,  avg # of iterations =  1.3

     negative rho (up, down):  5.307E-03 0.000E+00
 
     Adding external electric field

     Computed dipole along edir(3) : 
        Dipole                6.8937 Ry au,         17.5220 Debye
        Dipole field          0.0130 Ry au, 
 
        Potential amp.       -1.2059 Ry
        Total length         46.3494 bohr
 

     total cpu time spent up to now is      291.6 secs

     total energy              =   -3012.36162475 Ry
     estimated scf accuracy    <    4388.87195086 Ry

     iteration # 13     ecut=    29.40 Ry     beta= 0.05
     Davidson diagonalization with overlap
     ethr =  4.04E-03,  avg # of iterations =  1.0

     negative rho (up, down):  5.205E-03 0.000E+00
 
     Adding external electric field

     Computed dipole along edir(3) : 
        Dipole                3.9833 Ry au,         10.1247 Debye
        Dipole field          0.0075 Ry au, 
 
        Potential amp.       -0.6968 Ry
        Total length         46.3494 bohr
 

     total cpu time spent up to now is      301.4 secs

     total energy              =   -2976.60104866 Ry
     estimated scf accuracy    <    4360.77197157 Ry

     iteration # 14     ecut=    29.40 Ry     beta= 0.05
     Davidson diagonalization with overlap
     ethr =  4.04E-03,  avg # of iterations =  9.0

     negative rho (up, down):  5.155E-03 0.000E+00
 
     Adding external electric field

     Computed dipole along edir(3) : 
        Dipole                2.4967 Ry au,          6.3459 Debye
        Dipole field          0.0047 Ry au, 
 
        Potential amp.       -0.4368 Ry
        Total length         46.3494 bohr
 

     total cpu time spent up to now is      319.4 secs

     total energy              =   -2967.75626857 Ry
     estimated scf accuracy    <    2739.39117969 Ry

     iteration # 15     ecut=    29.40 Ry     beta= 0.05
     Davidson diagonalization with overlap
     ethr =  4.04E-03,  avg # of iterations = 11.6

     negative rho (up, down):  5.377E-03 0.000E+00
 
     Adding external electric field

     Computed dipole along edir(3) : 
        Dipole                3.7669 Ry au,          9.5744 Debye
        Dipole field          0.0071 Ry au, 
 
        Potential amp.       -0.6590 Ry
        Total length         46.3494 bohr
 

     total cpu time spent up to now is      333.8 secs

     total energy              =   -2979.24505165 Ry
     estimated scf accuracy    <    2043.00543212 Ry

     iteration # 16     ecut=    29.40 Ry     beta= 0.05
     Davidson diagonalization with overlap
     ethr =  4.04E-03,  avg # of iterations =  1.4

     negative rho (up, down):  5.245E-03 0.000E+00
 
     Adding external electric field

     Computed dipole along edir(3) : 
        Dipole                1.0237 Ry au,          2.6020 Debye
        Dipole field          0.0019 Ry au, 
 
        Potential amp.       -0.1791 Ry
        Total length         46.3494 bohr
 

     total cpu time spent up to now is      343.9 secs

     total energy              =   -2954.56432576 Ry
     estimated scf accuracy    <    2363.45064990 Ry

     iteration # 17     ecut=    29.40 Ry     beta= 0.05
     Davidson diagonalization with overlap
     ethr =  4.04E-03,  avg # of iterations =  7.2

     negative rho (up, down):  5.305E-03 0.000E+00
 
     Adding external electric field

     Computed dipole along edir(3) : 
        Dipole                0.7054 Ry au,          1.7930 Debye
        Dipole field          0.0013 Ry au, 
 
        Potential amp.       -0.1234 Ry
        Total length         46.3494 bohr
 

     total cpu time spent up to now is      357.7 secs

     total energy              =   -2955.47498871 Ry
     estimated scf accuracy    <    1495.60391503 Ry

     iteration # 18     ecut=    29.40 Ry     beta= 0.05
     Davidson diagonalization with overlap
     ethr =  4.04E-03,  avg # of iterations =  1.3

     negative rho (up, down):  4.757E-03 0.000E+00
 
     Adding external electric field

     Computed dipole along edir(3) : 
        Dipole              -11.6513 Ry au,        -29.6146 Debye
        Dipole field         -0.0220 Ry au, 
 
        Potential amp.        2.0382 Ry
        Total length         46.3494 bohr
 

     total cpu time spent up to now is      367.7 secs

     total energy              =   -2886.39931043 Ry
     estimated scf accuracy    <    1455.05990480 Ry

     iteration # 19     ecut=    29.40 Ry     beta= 0.05
     Davidson diagonalization with overlap
     ethr =  4.04E-03,  avg # of iterations = 16.7

     negative rho (up, down):  2.058E-04 0.000E+00
 
     Adding external electric field

     Computed dipole along edir(3) : 
        Dipole               -5.7449 Ry au,        -14.6020 Debye
        Dipole field         -0.0108 Ry au, 
 
        Potential amp.        1.0050 Ry
        Total length         46.3494 bohr
 

     total cpu time spent up to now is      409.8 secs

     total energy              =   -2950.49508479 Ry
     estimated scf accuracy    <    7396.70642531 Ry

     iteration # 20     ecut=    29.40 Ry     beta= 0.05
     Davidson diagonalization with overlap
     ethr =  4.04E-03,  avg # of iterations = 13.1

     negative rho (up, down):  6.307E-04 0.000E+00
 
     Adding external electric field

     Computed dipole along edir(3) : 
        Dipole               -5.5670 Ry au,        -14.1498 Debye
        Dipole field         -0.0105 Ry au, 
 
        Potential amp.        0.9739 Ry
        Total length         46.3494 bohr
 

     total cpu time spent up to now is      428.6 secs

     total energy              =   -2966.28546301 Ry
     estimated scf accuracy    <    2077.96910979 Ry

     iteration # 21     ecut=    29.40 Ry     beta= 0.05
     Davidson diagonalization with overlap
     ethr =  4.04E-03,  avg # of iterations =  1.2

     negative rho (up, down):  1.622E-04 0.000E+00
 
     Adding external electric field

     Computed dipole along edir(3) : 
        Dipole               -8.0476 Ry au,        -20.4550 Debye
        Dipole field         -0.0152 Ry au, 
 
        Potential amp.        1.4078 Ry
        Total length         46.3494 bohr
 

     total cpu time spent up to now is      438.5 secs

     total energy              =   -2986.69186930 Ry
     estimated scf accuracy    <    2149.25479519 Ry

     iteration # 22     ecut=    29.40 Ry     beta= 0.05
     Davidson diagonalization with overlap
     ethr =  4.04E-03,  avg # of iterations = 10.2

     negative rho (up, down):  7.097E-02 0.000E+00
 
     Adding external electric field

     Computed dipole along edir(3) : 
        Dipole               -6.5629 Ry au,        -16.6812 Debye
        Dipole field         -0.0124 Ry au, 
 
        Potential amp.        1.1481 Ry
        Total length         46.3494 bohr
 

     total cpu time spent up to now is      454.5 secs

     total energy              =   -2973.75360050 Ry
     estimated scf accuracy    <    4134.59738137 Ry

     iteration # 23     ecut=    29.40 Ry     beta= 0.05
     Davidson diagonalization with overlap
     ethr =  4.04E-03,  avg # of iterations =  4.5

     negative rho (up, down):  2.062E-01 0.000E+00
 
     Adding external electric field

     Computed dipole along edir(3) : 
        Dipole               -5.7405 Ry au,        -14.5908 Debye
        Dipole field         -0.0108 Ry au, 
 
        Potential amp.        1.0042 Ry
        Total length         46.3494 bohr
 

     total cpu time spent up to now is      466.1 secs

     total energy              =   -2962.47414686 Ry
     estimated scf accuracy    <    3707.28148333 Ry

     iteration # 24     ecut=    29.40 Ry     beta= 0.05
     Davidson diagonalization with overlap
     ethr =  4.04E-03,  avg # of iterations = 10.3

     negative rho (up, down):  3.626E-02 0.000E+00
 
     Adding external electric field

     Computed dipole along edir(3) : 
        Dipole               -3.6674 Ry au,         -9.3217 Debye
        Dipole field         -0.0069 Ry au, 
 
        Potential amp.        0.6416 Ry
        Total length         46.3494 bohr
 

     total cpu time spent up to now is      481.2 secs

     total energy              =   -2944.47310982 Ry
     estimated scf accuracy    <    2020.68667120 Ry

     iteration # 25     ecut=    29.40 Ry     beta= 0.05
     Davidson diagonalization with overlap
     ethr =  4.04E-03,  avg # of iterations = 15.0

     negative rho (up, down):  1.712E-02 0.000E+00
 
     Adding external electric field

     Computed dipole along edir(3) : 
        Dipole               -3.6958 Ry au,         -9.3938 Debye
        Dipole field         -0.0070 Ry au, 
 
        Potential amp.        0.6465 Ry
        Total length         46.3494 bohr
 

     total cpu time spent up to now is      500.2 secs

     total energy              =   -2953.96461164 Ry
     estimated scf accuracy    <     121.06154349 Ry

     iteration # 26     ecut=    29.40 Ry     beta= 0.05
     Davidson diagonalization with overlap
     ethr =  4.04E-03,  avg # of iterations =  1.4

     negative rho (up, down):  7.951E-03 0.000E+00
 
     Adding external electric field

     Computed dipole along edir(3) : 
        Dipole               -3.0847 Ry au,         -7.8406 Debye
        Dipole field         -0.0058 Ry au, 
 
        Potential amp.        0.5396 Ry
        Total length         46.3494 bohr
 

     total cpu time spent up to now is      510.2 secs

     total energy              =   -2951.92896221 Ry
     estimated scf accuracy    <     255.68639749 Ry

     iteration # 27     ecut=    29.40 Ry     beta= 0.05
     Davidson diagonalization with overlap
     ethr =  4.04E-03,  avg # of iterations =  1.8

     negative rho (up, down):  3.239E-02 0.000E+00
 
     Adding external electric field

     Computed dipole along edir(3) : 
        Dipole               -2.3574 Ry au,         -5.9920 Debye
        Dipole field         -0.0044 Ry au, 
 
        Potential amp.        0.4124 Ry
        Total length         46.3494 bohr
 

     total cpu time spent up to now is      520.5 secs

     total energy              =   -2950.10647799 Ry
     estimated scf accuracy    <      85.58216001 Ry

     iteration # 28     ecut=    29.40 Ry     beta= 0.05
     Davidson diagonalization with overlap
     ethr =  4.04E-03,  avg # of iterations = 10.2

     negative rho (up, down):  3.418E-02 0.000E+00
 
     Adding external electric field

     Computed dipole along edir(3) : 
        Dipole               -2.0299 Ry au,         -5.1595 Debye
        Dipole field         -0.0038 Ry au, 
 
        Potential amp.        0.3551 Ry
        Total length         46.3494 bohr
 

     total cpu time spent up to now is      534.1 secs

     total energy              =   -2951.47787239 Ry
     estimated scf accuracy    <      14.45474560 Ry

     iteration # 29     ecut=    29.40 Ry     beta= 0.05
     Davidson diagonalization with overlap
     c_bands:  1 eigenvalues not converged
     ethr =  3.64E-03,  avg # of iterations =  9.4

     negative rho (up, down):  5.995E-02 0.000E+00
 
     Adding external electric field

     Computed dipole along edir(3) : 
        Dipole               -1.8712 Ry au,         -4.7560 Debye
        Dipole field         -0.0035 Ry au, 
 
        Potential amp.        0.3273 Ry
        Total length         46.3494 bohr
 

     total cpu time spent up to now is      547.0 secs

     total energy              =   -2952.68729324 Ry
     estimated scf accuracy    <       1.76024912 Ry

     iteration # 30     ecut=    29.40 Ry     beta= 0.05
     Davidson diagonalization with overlap
     c_bands:  5 eigenvalues not converged
     c_bands:  3 eigenvalues not converged
     c_bands:  3 eigenvalues not converged
     c_bands:  1 eigenvalues not converged
     c_bands:  3 eigenvalues not converged
     ethr =  4.43E-04,  avg # of iterations = 22.5

     negative rho (up, down):  8.309E-02 0.000E+00
 
     Adding external electric field

     Computed dipole along edir(3) : 
        Dipole               -1.7613 Ry au,         -4.4769 Debye
        Dipole field         -0.0033 Ry au, 
 
        Potential amp.        0.3081 Ry
        Total length         46.3494 bohr
 

     total cpu time spent up to now is      567.9 secs

     total energy              =   -2952.77062620 Ry
     estimated scf accuracy    <       1.66678128 Ry

     iteration # 31     ecut=    29.40 Ry     beta= 0.05
     Davidson diagonalization with overlap
     c_bands:  1 eigenvalues not converged
     ethr =  4.20E-04,  avg # of iterations =  6.8

     negative rho (up, down):  1.371E-01 0.000E+00
 
     Adding external electric field

     Computed dipole along edir(3) : 
        Dipole               -1.5670 Ry au,         -3.9828 Debye
        Dipole field         -0.0030 Ry au, 
 
        Potential amp.        0.2741 Ry
        Total length         46.3494 bohr
 

     total cpu time spent up to now is      579.6 secs

     total energy              =   -2952.74936474 Ry
     estimated scf accuracy    <       1.29448277 Ry

     iteration # 32     ecut=    29.40 Ry     beta= 0.05
     Davidson diagonalization with overlap
     c_bands:  3 eigenvalues not converged
     c_bands:  1 eigenvalues not converged
     c_bands:  1 eigenvalues not converged
     c_bands:  2 eigenvalues not converged
     c_bands:  2 eigenvalues not converged
     ethr =  3.26E-04,  avg # of iterations = 18.8

     negative rho (up, down):  1.340E-01 0.000E+00
 
     Adding external electric field

     Computed dipole along edir(3) : 
        Dipole               -1.5472 Ry au,         -3.9327 Debye
        Dipole field         -0.0029 Ry au, 
 
        Potential amp.        0.2707 Ry
        Total length         46.3494 bohr
 

     total cpu time spent up to now is      597.4 secs

     total energy              =   -2952.78118585 Ry
     estimated scf accuracy    <       2.01014206 Ry

     iteration # 33     ecut=    29.40 Ry     beta= 0.05
     Davidson diagonalization with overlap
     ethr =  3.26E-04,  avg # of iterations =  1.1

     negative rho (up, down):  1.122E-01 0.000E+00
 
     Adding external electric field

     Computed dipole along edir(3) : 
        Dipole               -1.3614 Ry au,         -3.4603 Debye
        Dipole field         -0.0026 Ry au, 
 
        Potential amp.        0.2382 Ry
        Total length         46.3494 bohr
 

     total cpu time spent up to now is      607.2 secs

     total energy              =   -2952.57231093 Ry
     estimated scf accuracy    <       1.71355751 Ry

     iteration # 34     ecut=    29.40 Ry     beta= 0.05
     Davidson diagonalization with overlap
     c_bands:  4 eigenvalues not converged
     c_bands:  3 eigenvalues not converged
     c_bands:  1 eigenvalues not converged
     ethr =  3.26E-04,  avg # of iterations = 19.0

     negative rho (up, down):  9.814E-02 0.000E+00
 
     Adding external electric field

     Computed dipole along edir(3) : 
        Dipole               -1.5324 Ry au,         -3.8951 Debye
        Dipole field         -0.0029 Ry au, 
 
        Potential amp.        0.2681 Ry
        Total length         46.3494 bohr
 

     total cpu time spent up to now is      628.6 secs

     total energy              =   -2952.54980796 Ry
     estimated scf accuracy    <      69.14445189 Ry

     iteration # 35     ecut=    29.40 Ry     beta= 0.05
     Davidson diagonalization with overlap
     ethr =  3.26E-04,  avg # of iterations =  1.8

     negative rho (up, down):  1.210E-01 0.000E+00
 
     Adding external electric field

     Computed dipole along edir(3) : 
        Dipole               -1.3681 Ry au,         -3.4774 Debye
        Dipole field         -0.0026 Ry au, 
 
        Potential amp.        0.2393 Ry
        Total length         46.3494 bohr
 

     total cpu time spent up to now is      639.1 secs

     total energy              =   -2952.55798651 Ry
     estimated scf accuracy    <       3.62036774 Ry

     iteration # 36     ecut=    29.40 Ry     beta= 0.05
     Davidson diagonalization with overlap
     ethr =  3.26E-04,  avg # of iterations = 12.3

     negative rho (up, down):  1.228E-01 0.000E+00
 
     Adding external electric field

     Computed dipole along edir(3) : 
        Dipole               -1.3115 Ry au,         -3.3334 Debye
        Dipole field         -0.0025 Ry au, 
 
        Potential amp.        0.2294 Ry
        Total length         46.3494 bohr
 

     total cpu time spent up to now is      652.8 secs

     total energy              =   -2952.66381772 Ry
     estimated scf accuracy    <       0.71053438 Ry

     iteration # 37     ecut=    29.40 Ry     beta= 0.05
     Davidson diagonalization with overlap
     ethr =  1.79E-04,  avg # of iterations =  3.5

     negative rho (up, down):  1.103E-01 0.000E+00
 
     Adding external electric field

     Computed dipole along edir(3) : 
        Dipole               -0.8773 Ry au,         -2.2298 Debye
        Dipole field         -0.0017 Ry au, 
 
        Potential amp.        0.1535 Ry
        Total length         46.3494 bohr
 

     total cpu time spent up to now is      663.8 secs

     total energy              =   -2952.56517697 Ry
     estimated scf accuracy    <       0.63166890 Ry

     iteration # 38     ecut=    29.40 Ry     beta= 0.05
     Davidson diagonalization with overlap
     c_bands:  5 eigenvalues not converged
     c_bands:  1 eigenvalues not converged
     c_bands:  4 eigenvalues not converged
     c_bands:  1 eigenvalues not converged
     c_bands:  1 eigenvalues not converged
     c_bands:  2 eigenvalues not converged
     c_bands:  3 eigenvalues not converged
     c_bands:  2 eigenvalues not converged
     c_bands:  1 eigenvalues not converged
     ethr =  1.59E-04,  avg # of iterations = 19.5

     negative rho (up, down):  1.043E-01 0.000E+00
 
     Adding external electric field

     Computed dipole along edir(3) : 
        Dipole               -0.8152 Ry au,         -2.0720 Debye
        Dipole field         -0.0015 Ry au, 
 
        Potential amp.        0.1426 Ry
        Total length         46.3494 bohr
 

     total cpu time spent up to now is      682.8 secs

     total energy              =   -2952.60614607 Ry
     estimated scf accuracy    <       0.22020826 Ry

     iteration # 39     ecut=    29.40 Ry     beta= 0.05
     Davidson diagonalization with overlap
     c_bands:  1 eigenvalues not converged
     c_bands:  1 eigenvalues not converged
     c_bands:  2 eigenvalues not converged
     ethr =  5.55E-05,  avg # of iterations = 16.2

     negative rho (up, down):  1.100E-01 0.000E+00
 
     Adding external electric field

     Computed dipole along edir(3) : 
        Dipole               -0.8165 Ry au,         -2.0753 Debye
        Dipole field         -0.0015 Ry au, 
 
        Potential amp.        0.1428 Ry
        Total length         46.3494 bohr
 

     total cpu time spent up to now is      701.8 secs

     total energy              =   -2952.64271239 Ry
     estimated scf accuracy    <       1.77537274 Ry

     iteration # 40     ecut=    29.40 Ry     beta= 0.05
     Davidson diagonalization with overlap
     ethr =  5.55E-05,  avg # of iterations =  1.5

     negative rho (up, down):  1.102E-01 0.000E+00
 
     Adding external electric field

     Computed dipole along edir(3) : 
        Dipole               -0.7638 Ry au,         -1.9414 Debye
        Dipole field         -0.0014 Ry au, 
 
        Potential amp.        0.1336 Ry
        Total length         46.3494 bohr
 

     total cpu time spent up to now is      712.0 secs

     total energy              =   -2952.66007600 Ry
     estimated scf accuracy    <       0.96457070 Ry

     iteration # 41     ecut=    29.40 Ry     beta= 0.05
     Davidson diagonalization with overlap
     ethr =  5.55E-05,  avg # of iterations =  3.0

     negative rho (up, down):  1.123E-01 0.000E+00
 
     Adding external electric field

     Computed dipole along edir(3) : 
        Dipole               -0.7761 Ry au,         -1.9725 Debye
        Dipole field         -0.0015 Ry au, 
 
        Potential amp.        0.1358 Ry
        Total length         46.3494 bohr
 

     total cpu time spent up to now is      722.9 secs

     total energy              =   -2952.66826403 Ry
     estimated scf accuracy    <       2.32775461 Ry

     iteration # 42     ecut=    29.40 Ry     beta= 0.05
     Davidson diagonalization with overlap
     c_bands:  3 eigenvalues not converged
     ethr =  5.55E-05,  avg # of iterations = 12.0

     negative rho (up, down):  1.184E-01 0.000E+00
 
     Adding external electric field

     Computed dipole along edir(3) : 
        Dipole               -0.7278 Ry au,         -1.8499 Debye
        Dipole field         -0.0014 Ry au, 
 
        Potential amp.        0.1273 Ry
        Total length         46.3494 bohr
 

     total cpu time spent up to now is      736.8 secs

     total energy              =   -2952.66801652 Ry
     estimated scf accuracy    <       2.12302372 Ry

     iteration # 43     ecut=    29.40 Ry     beta= 0.05
     Davidson diagonalization with overlap
     c_bands:  1 eigenvalues not converged
     c_bands:  1 eigenvalues not converged
     c_bands:  2 eigenvalues not converged
     ethr =  5.55E-05,  avg # of iterations = 14.1

     negative rho (up, down):  1.197E-01 0.000E+00
 
     Adding external electric field

     Computed dipole along edir(3) : 
        Dipole               -0.5074 Ry au,         -1.2896 Debye
        Dipole field         -0.0010 Ry au, 
 
        Potential amp.        0.0888 Ry
        Total length         46.3494 bohr
 

     total cpu time spent up to now is      751.1 secs

     total energy              =   -2952.62277255 Ry
     estimated scf accuracy    <       1.27631698 Ry

     iteration # 44     ecut=    29.40 Ry     beta= 0.05
     Davidson diagonalization with overlap
     c_bands:  2 eigenvalues not converged
     ethr =  5.55E-05,  avg # of iterations = 10.0

     negative rho (up, down):  9.240E-02 0.000E+00
 
     Adding external electric field

     Computed dipole along edir(3) : 
        Dipole               -0.3429 Ry au,         -0.8715 Debye
        Dipole field         -0.0006 Ry au, 
 
        Potential amp.        0.0600 Ry
        Total length         46.3494 bohr
 

     total cpu time spent up to now is      764.2 secs

     total energy              =   -2952.59050715 Ry
     estimated scf accuracy    <       0.31952471 Ry

     iteration # 45     ecut=    29.40 Ry     beta= 0.05
     Davidson diagonalization with overlap
     c_bands:  3 eigenvalues not converged
     c_bands:  1 eigenvalues not converged
     c_bands:  2 eigenvalues not converged
     c_bands:  2 eigenvalues not converged
     c_bands:  1 eigenvalues not converged
     c_bands:  2 eigenvalues not converged
     c_bands:  2 eigenvalues not converged
     c_bands:  2 eigenvalues not converged
     ethr =  5.55E-05,  avg # of iterations = 19.3

     negative rho (up, down):  9.229E-02 0.000E+00
 
     Adding external electric field

     Computed dipole along edir(3) : 
        Dipole               -0.4542 Ry au,         -1.1545 Debye
        Dipole field         -0.0009 Ry au, 
 
        Potential amp.        0.0795 Ry
        Total length         46.3494 bohr
 

     total cpu time spent up to now is      785.6 secs

     total energy              =   -2952.65769362 Ry
     estimated scf accuracy    <       1.12237385 Ry

     iteration # 46     ecut=    29.40 Ry     beta= 0.05
     Davidson diagonalization with overlap
     ethr =  5.55E-05,  avg # of iterations =  2.0

     negative rho (up, down):  9.057E-02 0.000E+00
 
     Adding external electric field

     Computed dipole along edir(3) : 
        Dipole               -0.7265 Ry au,         -1.8465 Debye
        Dipole field         -0.0014 Ry au, 
 
        Potential amp.        0.1271 Ry
        Total length         46.3494 bohr
 

     total cpu time spent up to now is      795.8 secs

     total energy              =   -2952.60919108 Ry
     estimated scf accuracy    <       0.94067714 Ry

     iteration # 47     ecut=    29.40 Ry     beta= 0.05
     Davidson diagonalization with overlap
     ethr =  5.55E-05,  avg # of iterations =  6.4

     negative rho (up, down):  8.769E-02 0.000E+00
 
     Adding external electric field

     Computed dipole along edir(3) : 
        Dipole               -0.5461 Ry au,         -1.3880 Debye
        Dipole field         -0.0010 Ry au, 
 
        Potential amp.        0.0955 Ry
        Total length         46.3494 bohr
 

     total cpu time spent up to now is      808.0 secs

     total energy              =   -2952.60897928 Ry
     estimated scf accuracy    <       0.35497658 Ry

     iteration # 48     ecut=    29.40 Ry     beta= 0.05
     Davidson diagonalization with overlap
     ethr =  5.55E-05,  avg # of iterations =  4.6

     negative rho (up, down):  8.983E-02 0.000E+00
 
     Adding external electric field

     Computed dipole along edir(3) : 
        Dipole               -0.4368 Ry au,         -1.1103 Debye
        Dipole field         -0.0008 Ry au, 
 
        Potential amp.        0.0764 Ry
        Total length         46.3494 bohr
 

     total cpu time spent up to now is      819.2 secs

     total energy              =   -2952.61099593 Ry
     estimated scf accuracy    <       0.24555328 Ry

     iteration # 49     ecut=    29.40 Ry     beta= 0.05
     Davidson diagonalization with overlap
     c_bands:  1 eigenvalues not converged
     ethr =  5.55E-05,  avg # of iterations = 11.9

     negative rho (up, down):  6.922E-02 0.000E+00
 
     Adding external electric field

     Computed dipole along edir(3) : 
        Dipole               -0.3292 Ry au,         -0.8367 Debye
        Dipole field         -0.0006 Ry au, 
 
        Potential amp.        0.0576 Ry
        Total length         46.3494 bohr
 

     total cpu time spent up to now is      832.6 secs

     total energy              =   -2952.61093025 Ry
     estimated scf accuracy    <       0.06321107 Ry

     iteration # 50     ecut=    29.40 Ry     beta= 0.05
     Davidson diagonalization with overlap
     c_bands:  3 eigenvalues not converged
     c_bands:  3 eigenvalues not converged
     c_bands:  3 eigenvalues not converged
     c_bands:  4 eigenvalues not converged
     c_bands:  1 eigenvalues not converged
     ethr =  1.59E-05,  avg # of iterations = 19.5

     negative rho (up, down):  7.090E-02 0.000E+00
 
     Adding external electric field

     Computed dipole along edir(3) : 
        Dipole               -0.2983 Ry au,         -0.7582 Debye
        Dipole field         -0.0006 Ry au, 
 
        Potential amp.        0.0522 Ry
        Total length         46.3494 bohr
 

     total cpu time spent up to now is      854.6 secs

     total energy              =   -2952.62715155 Ry
     estimated scf accuracy    <       0.11302820 Ry

     iteration # 51     ecut=    29.40 Ry     beta= 0.05
     Davidson diagonalization with overlap
     c_bands:  1 eigenvalues not converged
     c_bands:  2 eigenvalues not converged
     ethr =  1.59E-05,  avg # of iterations =  9.6

     negative rho (up, down):  7.195E-02 0.000E+00
 
     Adding external electric field

     Computed dipole along edir(3) : 
        Dipole               -0.3612 Ry au,         -0.9180 Debye
        Dipole field         -0.0007 Ry au, 
 
        Potential amp.        0.0632 Ry
        Total length         46.3494 bohr
 

     total cpu time spent up to now is      867.1 secs

     total energy              =   -2952.61502237 Ry
     estimated scf accuracy    <       0.09932466 Ry

     iteration # 52     ecut=    29.40 Ry     beta= 0.05
     Davidson diagonalization with overlap
     c_bands:  1 eigenvalues not converged
     ethr =  1.59E-05,  avg # of iterations = 12.6

     negative rho (up, down):  6.493E-02 0.000E+00
 
     Adding external electric field

     Computed dipole along edir(3) : 
        Dipole               -0.2624 Ry au,         -0.6670 Debye
        Dipole field         -0.0005 Ry au, 
 
        Potential amp.        0.0459 Ry
        Total length         46.3494 bohr
 

     total cpu time spent up to now is      881.2 secs

     total energy              =   -2952.61084048 Ry
     estimated scf accuracy    <       0.05162851 Ry

     iteration # 53     ecut=    29.40 Ry     beta= 0.05
     Davidson diagonalization with overlap
     c_bands:  2 eigenvalues not converged
     c_bands:  2 eigenvalues not converged
     c_bands:  1 eigenvalues not converged
     c_bands:  3 eigenvalues not converged
     ethr =  1.30E-05,  avg # of iterations = 17.6

     negative rho (up, down):  5.619E-02 0.000E+00
 
     Adding external electric field

     Computed dipole along edir(3) : 
        Dipole               -0.2407 Ry au,         -0.6117 Debye
        Dipole field         -0.0005 Ry au, 
 
        Potential amp.        0.0421 Ry
        Total length         46.3494 bohr
 

     total cpu time spent up to now is      901.9 secs

     total energy              =   -2952.61749403 Ry
     estimated scf accuracy    <       0.07413823 Ry

     iteration # 54     ecut=    29.40 Ry     beta= 0.05
     Davidson diagonalization with overlap
     c_bands:  1 eigenvalues not converged
     c_bands:  3 eigenvalues not converged
     c_bands:  2 eigenvalues not converged
     ethr =  1.30E-05,  avg # of iterations =  8.4

     negative rho (up, down):  3.432E-02 0.000E+00
 
     Adding external electric field

     Computed dipole along edir(3) : 
        Dipole               -0.0957 Ry au,         -0.2432 Debye
        Dipole field         -0.0002 Ry au, 
 
        Potential amp.        0.0167 Ry
        Total length         46.3494 bohr
 

     total cpu time spent up to now is      914.0 secs

     total energy              =   -2952.60670101 Ry
     estimated scf accuracy    <       0.06347646 Ry

     iteration # 55     ecut=    29.40 Ry     beta= 0.05
     Davidson diagonalization with overlap
     c_bands:  3 eigenvalues not converged
     c_bands:  1 eigenvalues not converged
     c_bands:  1 eigenvalues not converged
     ethr =  1.30E-05,  avg # of iterations = 17.0

     negative rho (up, down):  4.805E-02 0.000E+00
 
     Adding external electric field

     Computed dipole along edir(3) : 
        Dipole                0.0235 Ry au,          0.0597 Debye
        Dipole field          0.0000 Ry au, 
 
        Potential amp.       -0.0041 Ry
        Total length         46.3494 bohr
 

     total cpu time spent up to now is      934.2 secs

     total energy              =   -2952.61470219 Ry
     estimated scf accuracy    <       0.08568271 Ry

     iteration # 56     ecut=    29.40 Ry     beta= 0.05
     Davidson diagonalization with overlap
     c_bands:  2 eigenvalues not converged
     c_bands:  1 eigenvalues not converged
     c_bands:  1 eigenvalues not converged
     ethr =  1.30E-05,  avg # of iterations = 16.8

     negative rho (up, down):  3.199E-02 0.000E+00
 
     Adding external electric field

     Computed dipole along edir(3) : 
        Dipole                0.2050 Ry au,          0.5211 Debye
        Dipole field          0.0004 Ry au, 
 
        Potential amp.       -0.0359 Ry
        Total length         46.3494 bohr
 

     total cpu time spent up to now is      951.5 secs

     total energy              =   -2952.61696174 Ry
     estimated scf accuracy    <       0.04698495 Ry

     iteration # 57     ecut=    29.40 Ry     beta= 0.05
     Davidson diagonalization with overlap
     ethr =  1.18E-05,  avg # of iterations =  2.0

     negative rho (up, down):  3.076E-02 0.000E+00
 
     Adding external electric field

     Computed dipole along edir(3) : 
        Dipole                0.1855 Ry au,          0.4716 Debye
        Dipole field          0.0004 Ry au, 
 
        Potential amp.       -0.0325 Ry
        Total length         46.3494 bohr
 

     total cpu time spent up to now is      962.1 secs

     total energy              =   -2952.61568712 Ry
     estimated scf accuracy    <       0.03356112 Ry

     iteration # 58     ecut=    29.40 Ry     beta= 0.05
     Davidson diagonalization with overlap
     ethr =  8.45E-06,  avg # of iterations =  9.6

     negative rho (up, down):  2.148E-02 0.000E+00
 
     Adding external electric field

     Computed dipole along edir(3) : 
        Dipole                0.2804 Ry au,          0.7128 Debye
        Dipole field          0.0005 Ry au, 
 
        Potential amp.       -0.0491 Ry
        Total length         46.3494 bohr
 

     total cpu time spent up to now is      974.9 secs

     total energy              =   -2952.61244681 Ry
     estimated scf accuracy    <       0.01788202 Ry

     iteration # 59     ecut=    29.40 Ry     beta= 0.05
     Davidson diagonalization with overlap
     c_bands:  1 eigenvalues not converged
     c_bands:  1 eigenvalues not converged
     c_bands:  2 eigenvalues not converged
     c_bands:  2 eigenvalues not converged
     ethr =  4.50E-06,  avg # of iterations = 17.2

     negative rho (up, down):  2.616E-02 0.000E+00
 
     Adding external electric field

     Computed dipole along edir(3) : 
        Dipole                0.3277 Ry au,          0.8330 Debye
        Dipole field          0.0006 Ry au, 
 
        Potential amp.       -0.0573 Ry
        Total length         46.3494 bohr
 

     total cpu time spent up to now is      994.9 secs

     total energy              =   -2952.61481739 Ry
     estimated scf accuracy    <       0.00454402 Ry

     iteration # 60     ecut=    29.40 Ry     beta= 0.05
     Davidson diagonalization with overlap
     c_bands:  1 eigenvalues not converged
     c_bands:  2 eigenvalues not converged
     c_bands:  1 eigenvalues not converged
     c_bands:  1 eigenvalues not converged
     ethr =  1.14E-06,  avg # of iterations = 17.0

     negative rho (up, down):  2.393E-02 0.000E+00
 
     Adding external electric field

     Computed dipole along edir(3) : 
        Dipole                0.3150 Ry au,          0.8006 Debye
        Dipole field          0.0006 Ry au, 
 
        Potential amp.       -0.0551 Ry
        Total length         46.3494 bohr
 

     total cpu time spent up to now is     1015.2 secs

     total energy              =   -2952.61543241 Ry
     estimated scf accuracy    <       0.00528713 Ry

     iteration # 61     ecut=    29.40 Ry     beta= 0.05
     Davidson diagonalization with overlap
     c_bands:  1 eigenvalues not converged
     ethr =  1.14E-06,  avg # of iterations =  5.7

     negative rho (up, down):  1.956E-02 0.000E+00
 
     Adding external electric field

     Computed dipole along edir(3) : 
        Dipole                0.2998 Ry au,          0.7619 Debye
        Dipole field          0.0006 Ry au, 
 
        Potential amp.       -0.0524 Ry
        Total length         46.3494 bohr
 

     total cpu time spent up to now is     1026.7 secs

     total energy              =   -2952.61492409 Ry
     estimated scf accuracy    <       0.00207945 Ry

     iteration # 62     ecut=    29.40 Ry     beta= 0.05
     Davidson diagonalization with overlap
     c_bands:  1 eigenvalues not converged
     c_bands:  2 eigenvalues not converged
     c_bands:  3 eigenvalues not converged
     c_bands:  1 eigenvalues not converged
     c_bands:  1 eigenvalues not converged
     c_bands:  1 eigenvalues not converged
     ethr =  5.24E-07,  avg # of iterations = 18.7

     negative rho (up, down):  1.768E-02 0.000E+00
 
     Adding external electric field

     Computed dipole along edir(3) : 
        Dipole                0.3635 Ry au,          0.9239 Debye
        Dipole field          0.0007 Ry au, 
 
        Potential amp.       -0.0636 Ry
        Total length         46.3494 bohr
 

     total cpu time spent up to now is     1047.7 secs

     total energy              =   -2952.61553389 Ry
     estimated scf accuracy    <       0.00449453 Ry

     iteration # 63     ecut=    29.40 Ry     beta= 0.05
     Davidson diagonalization with overlap
     ethr =  5.24E-07,  avg # of iterations =  9.9

     negative rho (up, down):  1.750E-02 0.000E+00
 
     Adding external electric field

     Computed dipole along edir(3) : 
        Dipole                0.3997 Ry au,          1.0159 Debye
        Dipole field          0.0008 Ry au, 
 
        Potential amp.       -0.0699 Ry
        Total length         46.3494 bohr
 

     total cpu time spent up to now is     1060.6 secs

     total energy              =   -2952.61555359 Ry
     estimated scf accuracy    <       0.00195721 Ry

     iteration # 64     ecut=    29.40 Ry     beta= 0.05
     Davidson diagonalization with overlap
     ethr =  4.93E-07,  avg # of iterations =  7.9

     negative rho (up, down):  1.824E-02 0.000E+00
 
     Adding external electric field

     Computed dipole along edir(3) : 
        Dipole                0.4191 Ry au,          1.0652 Debye
        Dipole field          0.0008 Ry au, 
 
        Potential amp.       -0.0733 Ry
        Total length         46.3494 bohr
 

     total cpu time spent up to now is     1073.0 secs

     total energy              =   -2952.61545832 Ry
     estimated scf accuracy    <       0.00095300 Ry

     iteration # 65     ecut=    29.40 Ry     beta= 0.05
     Davidson diagonalization with overlap
     c_bands:  1 eigenvalues not converged
     ethr =  2.40E-07,  avg # of iterations = 14.3

     negative rho (up, down):  1.740E-02 0.000E+00
 
     Adding external electric field

     Computed dipole along edir(3) : 
        Dipole                0.4277 Ry au,          1.0872 Debye
        Dipole field          0.0008 Ry au, 
 
        Potential amp.       -0.0748 Ry
        Total length         46.3494 bohr
 

     total cpu time spent up to now is     1089.6 secs

     total energy              =   -2952.61561925 Ry
     estimated scf accuracy    <       0.00043061 Ry

     iteration # 66     ecut=    29.40 Ry     beta= 0.05
     Davidson diagonalization with overlap
     ethr =  1.08E-07,  avg # of iterations =  4.2

     negative rho (up, down):  1.603E-02 0.000E+00
 
     Adding external electric field

     Computed dipole along edir(3) : 
        Dipole                0.4077 Ry au,          1.0362 Debye
        Dipole field          0.0008 Ry au, 
 
        Potential amp.       -0.0713 Ry
        Total length         46.3494 bohr
 

     total cpu time spent up to now is     1100.8 secs

     total energy              =   -2952.61555236 Ry
     estimated scf accuracy    <       0.00021456 Ry

     iteration # 67     ecut=    29.40 Ry     beta= 0.05
     Davidson diagonalization with overlap
     c_bands:  3 eigenvalues not converged
     c_bands:  2 eigenvalues not converged
     ethr =  5.40E-08,  avg # of iterations = 14.9

     negative rho (up, down):  1.622E-02 0.000E+00
 
     Adding external electric field

     Computed dipole along edir(3) : 
        Dipole                0.4068 Ry au,          1.0340 Debye
        Dipole field          0.0008 Ry au, 
 
        Potential amp.       -0.0712 Ry
        Total length         46.3494 bohr
 

     total cpu time spent up to now is     1120.2 secs

     total energy              =   -2952.61564234 Ry
     estimated scf accuracy    <       0.00051407 Ry

     iteration # 68     ecut=    29.40 Ry     beta= 0.05
     Davidson diagonalization with overlap
     ethr =  5.40E-08,  avg # of iterations =  4.7

     negative rho (up, down):  1.692E-02 0.000E+00
 
     Adding external electric field

     Computed dipole along edir(3) : 
        Dipole                0.4161 Ry au,          1.0576 Debye
        Dipole field          0.0008 Ry au, 
 
        Potential amp.       -0.0728 Ry
        Total length         46.3494 bohr
 

     total cpu time spent up to now is     1131.5 secs

     total energy              =   -2952.61555999 Ry
     estimated scf accuracy    <       0.00033737 Ry

     iteration # 69     ecut=    29.40 Ry     beta= 0.05
     Davidson diagonalization with overlap
     ethr =  5.40E-08,  avg # of iterations = 10.8

     negative rho (up, down):  1.653E-02 0.000E+00
 
     Adding external electric field

     Computed dipole along edir(3) : 
        Dipole                0.4122 Ry au,          1.0477 Debye
        Dipole field          0.0008 Ry au, 
 
        Potential amp.       -0.0721 Ry
        Total length         46.3494 bohr
 

     total cpu time spent up to now is     1148.3 secs

     total energy              =   -2952.61562348 Ry
     estimated scf accuracy    <       0.00011694 Ry

     iteration # 70     ecut=    29.40 Ry     beta= 0.05
     Davidson diagonalization with overlap
     ethr =  2.95E-08,  avg # of iterations =  6.9

     negative rho (up, down):  1.635E-02 0.000E+00
 
     Adding external electric field

     Computed dipole along edir(3) : 
        Dipole                0.4047 Ry au,          1.0288 Debye
        Dipole field          0.0008 Ry au, 
 
        Potential amp.       -0.0708 Ry
        Total length         46.3494 bohr
 

     total cpu time spent up to now is     1160.6 secs

     total energy              =   -2952.61563395 Ry
     estimated scf accuracy    <       0.00002058 Ry

     iteration # 71     ecut=    29.40 Ry     beta= 0.05
     Davidson diagonalization with overlap
     ethr =  5.18E-09,  avg # of iterations = 13.3

     negative rho (up, down):  1.626E-02 0.000E+00
 
     Adding external electric field

     Computed dipole along edir(3) : 
        Dipole                0.4058 Ry au,          1.0314 Debye
        Dipole field          0.0008 Ry au, 
 
        Potential amp.       -0.0710 Ry
        Total length         46.3494 bohr
 

     total cpu time spent up to now is     1179.3 secs

     total energy              =   -2952.61564325 Ry
     estimated scf accuracy    <       0.00003048 Ry

     iteration # 72     ecut=    29.40 Ry     beta= 0.05
     Davidson diagonalization with overlap
     ethr =  5.18E-09,  avg # of iterations =  2.3

     negative rho (up, down):  1.629E-02 0.000E+00
 
     Adding external electric field

     Computed dipole along edir(3) : 
        Dipole                0.4129 Ry au,          1.0494 Debye
        Dipole field          0.0008 Ry au, 
 
        Potential amp.       -0.0722 Ry
        Total length         46.3494 bohr
 

     total cpu time spent up to now is     1190.1 secs

     total energy              =   -2952.61564489 Ry
     estimated scf accuracy    <       0.00001858 Ry

     iteration # 73     ecut=    29.40 Ry     beta= 0.05
     Davidson diagonalization with overlap
     ethr =  4.68E-09,  avg # of iterations =  8.6

     negative rho (up, down):  1.630E-02 0.000E+00
 
     Adding external electric field

     Computed dipole along edir(3) : 
        Dipole                0.4116 Ry au,          1.0463 Debye
        Dipole field          0.0008 Ry au, 
 
        Potential amp.       -0.0720 Ry
        Total length         46.3494 bohr
 

     total cpu time spent up to now is     1207.5 secs

     total energy              =   -2952.61565528 Ry
     estimated scf accuracy    <       0.00003223 Ry

     iteration # 74     ecut=    29.40 Ry     beta= 0.05
     Davidson diagonalization with overlap
     ethr =  4.68E-09,  avg # of iterations =  1.4

     negative rho (up, down):  1.618E-02 0.000E+00
 
     Adding external electric field

     Computed dipole along edir(3) : 
        Dipole                0.4111 Ry au,          1.0450 Debye
        Dipole field          0.0008 Ry au, 
 
        Potential amp.       -0.0719 Ry
        Total length         46.3494 bohr
 

     total cpu time spent up to now is     1217.6 secs

     total energy              =   -2952.61565496 Ry
     estimated scf accuracy    <       0.00002780 Ry

     iteration # 75     ecut=    29.40 Ry     beta= 0.05
     Davidson diagonalization with overlap
     ethr =  4.68E-09,  avg # of iterations =  6.8

     negative rho (up, down):  1.608E-02 0.000E+00
 
     Adding external electric field

     Computed dipole along edir(3) : 
        Dipole                0.4125 Ry au,          1.0484 Debye
        Dipole field          0.0008 Ry au, 
 
        Potential amp.       -0.0722 Ry
        Total length         46.3494 bohr
 

     total cpu time spent up to now is     1230.3 secs

     total energy              =   -2952.61565923 Ry
     estimated scf accuracy    <       0.00000603 Ry

     iteration # 76     ecut=    29.40 Ry     beta= 0.05
     Davidson diagonalization with overlap
     ethr =  1.52E-09,  avg # of iterations =  8.7

     negative rho (up, down):  1.607E-02 0.000E+00
 
     Adding external electric field

     Computed dipole along edir(3) : 
        Dipole                0.4115 Ry au,          1.0458 Debye
        Dipole field          0.0008 Ry au, 
 
        Potential amp.       -0.0720 Ry
        Total length         46.3494 bohr
 

     total cpu time spent up to now is     1243.5 secs

     total energy              =   -2952.61566170 Ry
     estimated scf accuracy    <       0.00000202 Ry

     iteration # 77     ecut=    29.40 Ry     beta= 0.05
     Davidson diagonalization with overlap
     ethr =  5.09E-10,  avg # of iterations =  8.8

     negative rho (up, down):  1.608E-02 0.000E+00
 
     Adding external electric field

     Computed dipole along edir(3) : 
        Dipole                0.4115 Ry au,          1.0460 Debye
        Dipole field          0.0008 Ry au, 
 
        Potential amp.       -0.0720 Ry
        Total length         46.3494 bohr
 

     total cpu time spent up to now is     1260.7 secs

     total energy              =   -2952.61566443 Ry
     estimated scf accuracy    <       0.00000177 Ry

     iteration # 78     ecut=    29.40 Ry     beta= 0.05
     Davidson diagonalization with overlap
     ethr =  4.46E-10,  avg # of iterations =  1.0

     negative rho (up, down):  1.608E-02 0.000E+00
 
     Adding external electric field

     Computed dipole along edir(3) : 
        Dipole                0.4114 Ry au,          1.0455 Debye
        Dipole field          0.0008 Ry au, 
 
        Potential amp.       -0.0720 Ry
        Total length         46.3494 bohr
 

     total cpu time spent up to now is     1270.5 secs

     total energy              =   -2952.61566650 Ry
     estimated scf accuracy    <       0.00000159 Ry

     iteration # 79     ecut=    29.40 Ry     beta= 0.05
     Davidson diagonalization with overlap
     ethr =  4.01E-10,  avg # of iterations =  1.1

     negative rho (up, down):  1.610E-02 0.000E+00
 
     Adding external electric field

     Computed dipole along edir(3) : 
        Dipole                0.4118 Ry au,          1.0467 Debye
        Dipole field          0.0008 Ry au, 
 
        Potential amp.       -0.0720 Ry
        Total length         46.3494 bohr
 

     total cpu time spent up to now is     1280.3 secs

     total energy              =   -2952.61566803 Ry
     estimated scf accuracy    <       0.00000195 Ry

     iteration # 80     ecut=    29.40 Ry     beta= 0.05
     Davidson diagonalization with overlap
     ethr =  4.01E-10,  avg # of iterations = 11.9

     negative rho (up, down):  1.609E-02 0.000E+00
 
     Adding external electric field

     Computed dipole along edir(3) : 
        Dipole                0.4117 Ry au,          1.0465 Debye
        Dipole field          0.0008 Ry au, 
 
        Potential amp.       -0.0720 Ry
        Total length         46.3494 bohr
 

     total cpu time spent up to now is     1295.1 secs

     total energy              =   -2952.61566972 Ry
     estimated scf accuracy    <       0.00000089 Ry

     iteration # 81     ecut=    29.40 Ry     beta= 0.05
     Davidson diagonalization with overlap
     ethr =  2.25E-10,  avg # of iterations = 10.0

     negative rho (up, down):  1.611E-02 0.000E+00
 
     Adding external electric field

     Computed dipole along edir(3) : 
        Dipole                0.4114 Ry au,          1.0456 Debye
        Dipole field          0.0008 Ry au, 
 
        Potential amp.       -0.0720 Ry
        Total length         46.3494 bohr
 

     total cpu time spent up to now is     1310.4 secs

     total energy              =   -2952.61567122 Ry
     estimated scf accuracy    <       0.00000041 Ry

     iteration # 82     ecut=    29.40 Ry     beta= 0.05
     Davidson diagonalization with overlap
     ethr =  1.03E-10,  avg # of iterations =  8.3

     negative rho (up, down):  1.612E-02 0.000E+00
 
     Adding external electric field

     Computed dipole along edir(3) : 
        Dipole                0.4113 Ry au,          1.0455 Debye
        Dipole field          0.0008 Ry au, 
 
        Potential amp.       -0.0720 Ry
        Total length         46.3494 bohr
 

     total cpu time spent up to now is     1322.7 secs

     total energy              =   -2952.61567253 Ry
     estimated scf accuracy    <       0.00000028 Ry

     iteration # 83     ecut=    29.40 Ry     beta= 0.05
     Davidson diagonalization with overlap
     ethr =  7.01E-11,  avg # of iterations = 11.5

     negative rho (up, down):  1.612E-02 0.000E+00
 
     Adding external electric field

     Computed dipole along edir(3) : 
        Dipole                0.4109 Ry au,          1.0444 Debye
        Dipole field          0.0008 Ry au, 
 
        Potential amp.       -0.0719 Ry
        Total length         46.3494 bohr
 

     total cpu time spent up to now is     1338.7 secs

     total energy              =   -2952.61567375 Ry
     estimated scf accuracy    <       0.00000015 Ry

     iteration # 84     ecut=    29.40 Ry     beta= 0.05
     Davidson diagonalization with overlap
     ethr =  3.73E-11,  avg # of iterations =  6.5

     negative rho (up, down):  1.611E-02 0.000E+00
 
     Adding external electric field

     Computed dipole along edir(3) : 
        Dipole                0.4107 Ry au,          1.0440 Debye
        Dipole field          0.0008 Ry au, 
 
        Potential amp.       -0.0718 Ry
        Total length         46.3494 bohr
 

     total cpu time spent up to now is     1351.0 secs

     total energy              =   -2952.61567488 Ry
     estimated scf accuracy    <       0.00000011 Ry

     iteration # 85     ecut=    29.40 Ry     beta= 0.05
     Davidson diagonalization with overlap
     ethr =  2.76E-11,  avg # of iterations =  4.4

     negative rho (up, down):  1.615E-02 0.000E+00
 
     Adding external electric field

     Computed dipole along edir(3) : 
        Dipole                0.4102 Ry au,          1.0426 Debye
        Dipole field          0.0008 Ry au, 
 
        Potential amp.       -0.0718 Ry
        Total length         46.3494 bohr
 

     total cpu time spent up to now is     1362.4 secs

     End of self-consistent calculation

          k = 0.0000 0.0000 0.0000 ( 18029 PWs)   bands (ev):

   -56.0222 -55.9977 -55.9911 -55.9881 -55.9615 -55.8680 -55.8356 -55.8266
   -55.8229 -55.8098 -55.8014 -55.7763 -55.7466 -55.5770 -55.0077 -54.9736
   -32.5436 -32.5060 -32.3993 -32.3674 -32.3345 -32.3143 -32.3053 -32.2999
   -32.2656 -32.2351 -32.2231 -32.2167 -32.2071 -32.1943 -32.1767 -32.1746
   -32.1500 -32.1278 -32.1266 -32.1235 -32.0907 -32.0794 -32.0706 -32.0384
   -32.0277 -32.0261 -32.0221 -32.0179 -32.0150 -32.0097 -31.9949 -31.9841
   -31.9820 -31.9805 -31.9686 -31.9626 -31.9588 -31.9404 -31.9209 -31.8377
   -31.8208 -31.7340 -31.4151 -31.3259 -31.3035 -31.2317 -31.1452 -31.0342
   -19.2044 -16.7547 -16.5145 -16.3394 -16.1995 -16.1687 -15.9520 -15.8504
   -15.7795 -15.7251 -15.6560 -15.6042 -15.5704 -15.5612 -15.5444 -15.5203
   -15.5009 -15.4782 -15.4552 -15.4432 -15.4368 -15.3944 -15.3874 -15.3713
   -15.3527 -15.2459 -15.1827 -15.1584 -15.1131 -15.0899 -14.7363 -13.5101
   -13.3935  -7.8665  -7.0386  -4.1544  -4.0582  -3.9835  -3.9451  -3.9283
    -3.7755  -3.6931  -3.5437  -3.5173  -3.3062  -3.2734  -3.2187  -3.1936
    -3.1320  -3.0702  -2.9750  -2.9311  -2.8547  -2.8385  -2.8259  -2.8032
    -2.7826  -2.7664  -2.7261  -2.6624  -2.5922  -2.5579  -2.4449  -2.4192
    -2.4123  -2.3450  -2.3378  -2.3258  -2.3123  -2.2813  -2.2594  -2.2564
    -2.1851  -2.1528  -2.0823  -2.0305  -1.9695  -1.8511  -1.6992  -1.6379
    -1.5870  -1.5256  -1.5019  -1.4661  -1.4435  -1.4199  -1.3581  -1.3027
    -1.2380  -1.2262  -1.1555  -1.0633  -0.9917  -0.9538  -0.8834  -0.8217
    -0.8002  -0.7722  -0.7638  -0.7552  -0.7063  -0.5336  -0.4776  -0.4639
    -0.4239  -0.3414  -0.3101  -0.3012  -0.2521  -0.2439  -0.2039  -0.1152
    -0.0962  -0.0612  -0.0433  -0.0297   0.0032   0.0226   0.1777   0.1984
     0.2407   0.2623   0.3651   0.4713   0.5379   0.6253   0.7199   0.9385
     1.0145   1.0918   1.2055   1.5866   1.6327   2.7816   3.1060   3.1946
     3.2327   3.2388   3.2730   3.3435   3.5601   3.5910   3.6083   3.6642

          k = 0.0000 0.0419 0.0000 ( 17933 PWs)   bands (ev):

   -56.0171 -55.9930 -55.9929 -55.9898 -55.9666 -55.8640 -55.8314 -55.8297
   -55.8237 -55.8063 -55.8049 -55.7812 -55.7458 -55.5777 -55.0026 -54.9785
   -32.4869 -32.4520 -32.3507 -32.3129 -32.3096 -32.3038 -32.2926 -32.2492
   -32.2457 -32.2381 -32.2232 -32.2123 -32.2093 -32.1845 -32.1757 -32.1728
   -32.1688 -32.1608 -32.1590 -32.1100 -32.0934 -32.0810 -32.0672 -32.0468
   -32.0425 -32.0404 -32.0333 -32.0290 -32.0235 -32.0222 -32.0163 -32.0131
   -32.0015 -31.9819 -31.9785 -31.9783 -31.9665 -31.9643 -31.9584 -31.8369
   -31.8241 -31.7723 -31.3609 -31.3224 -31.3065 -31.2191 -31.1577 -31.0913
   -19.2041 -16.6197 -16.3943 -16.2277 -16.1046 -16.0689 -15.9094 -15.8716
   -15.7965 -15.7638 -15.7144 -15.6332 -15.5752 -15.5528 -15.5463 -15.5156
   -15.5118 -15.5020 -15.4945 -15.4808 -15.4237 -15.4214 -15.3928 -15.3640
   -15.3283 -15.2960 -15.2385 -15.2171 -15.1471 -15.1390 -14.8352 -13.5141
   -13.4330  -7.8652  -7.0422  -4.0159  -3.9042  -3.8554  -3.8109  -3.7563
    -3.6657  -3.5532  -3.4661  -3.2996  -3.2507  -3.1931  -3.1772  -3.0863
    -3.0756  -3.0351  -3.0094  -2.9813  -2.9442  -2.9297  -2.9172  -2.8809
    -2.8565  -2.7846  -2.7756  -2.7405  -2.7298  -2.6896  -2.6752  -2.5514
    -2.5262  -2.5237  -2.4481  -2.4386  -2.4001  -2.2868  -2.2751  -2.2122
    -2.1601  -2.0496  -1.9846  -1.8987  -1.8048  -1.7821  -1.7135  -1.6999
    -1.6099  -1.4719  -1.4230  -1.3546  -1.2793  -1.2428  -1.2265  -1.1995
    -1.1218  -1.1130  -0.9852  -0.9798  -0.9667  -0.9427  -0.9300  -0.9061
    -0.8500  -0.8242  -0.7852  -0.6572  -0.6450  -0.6022  -0.5639  -0.5345
    -0.4961  -0.4779  -0.3860  -0.3400  -0.3165  -0.2632  -0.2471  -0.2248
    -0.2119  -0.1887  -0.1625  -0.0884  -0.0694   0.0251   0.0823   0.1577
     0.1955   0.2068   0.2984   0.3079   0.3367   0.4610   0.6306   0.6321
     0.9668   1.2030   1.2861   1.5407   1.5445   2.7780   3.3028   3.3347
     3.3508   3.4104   3.4607   3.4974   3.5420   3.5791   3.6269   3.6578

          k = 0.0000-0.0839 0.0000 ( 17884 PWs)   bands (ev):

   -56.0058 -56.0042 -55.9897 -55.9815 -55.9770 -55.8587 -55.8358 -55.8245
   -55.8193 -55.8174 -55.7935 -55.7925 -55.7449 -55.5784 -54.9906 -54.9904
   -32.3569 -32.3408 -32.3202 -32.3192 -32.3002 -32.2989 -32.2750 -32.2700
   -32.2503 -32.2047 -32.1950 -32.1906 -32.1879 -32.1813 -32.1718 -32.1669
   -32.1438 -32.1345 -32.1314 -32.1279 -32.1263 -32.1247 -32.1142 -32.1116
   -32.0773 -32.0763 -32.0572 -32.0566 -32.0372 -32.0371 -32.0311 -32.0250
   -32.0207 -31.9966 -31.9903 -31.9759 -31.9712 -31.9702 -31.9578 -31.8367
   -31.8257 -31.8213 -31.3143 -31.3141 -31.2280 -31.2278 -31.1885 -31.1884
   -19.2038 -16.2952 -16.2676 -16.1118 -16.0889 -15.9660 -15.9541 -15.8576
   -15.8496 -15.8072 -15.7742 -15.7305 -15.6856 -15.5816 -15.5676 -15.5630
   -15.4956 -15.4454 -15.4226 -15.4111 -15.4081 -15.3985 -15.3771 -15.3705
   -15.3602 -15.3552 -15.2895 -15.2791 -15.2462 -15.1079 -15.0167 -13.4958
   -13.4955  -7.8639  -7.0460  -3.9439  -3.6805  -3.4964  -3.4424  -3.4247
    -3.4046  -3.3979  -3.3593  -3.3200  -3.3170  -3.3110  -3.2575  -3.1701
    -3.1352  -3.1272  -3.1120  -3.0943  -3.0808  -2.9945  -2.9877  -2.9731
    -2.9202  -2.8932  -2.8232  -2.7791  -2.7680  -2.7481  -2.6710  -2.6113
    -2.5976  -2.5484  -2.4817  -2.4087  -2.3567  -2.3104  -2.1498  -2.0940
    -1.9922  -1.9623  -1.8932  -1.8268  -1.7503  -1.7240  -1.6823  -1.5166
    -1.4910  -1.4558  -1.4404  -1.4155  -1.4084  -1.3882  -1.3494  -1.2905
    -1.2757  -1.2137  -1.1932  -1.0720  -0.9688  -0.9383  -0.8275  -0.7453
    -0.6728  -0.6442  -0.6402  -0.6313  -0.6245  -0.5880  -0.5206  -0.5019
    -0.4825  -0.4691  -0.4490  -0.4305  -0.3992  -0.3598  -0.3394  -0.3008
    -0.2818  -0.2410  -0.2192  -0.2119  -0.1800  -0.1390  -0.1009  -0.0431
     0.1055   0.2046   0.2100   0.2130   0.2372   0.5266   0.5502   0.6403
     0.7148   1.3458   1.3465   1.4771   1.4786   2.7721   3.4107   3.4656
     3.5009   3.5186   3.5401   3.5494   3.5925   3.6534   3.6970   3.7030

          k = 0.0380 0.0000 0.0000 ( 17913 PWs)   bands (ev):

   -56.0221 -55.9976 -55.9909 -55.9880 -55.9614 -55.8679 -55.8353 -55.8265
   -55.8228 -55.8100 -55.8013 -55.7762 -55.7465 -55.5769 -55.0076 -54.9735
   -32.5437 -32.5069 -32.4013 -32.3730 -32.3347 -32.3141 -32.3051 -32.3045
   -32.2656 -32.2346 -32.2157 -32.2065 -32.2029 -32.1939 -32.1766 -32.1717
   -32.1433 -32.1275 -32.1262 -32.1031 -32.0910 -32.0868 -32.0793 -32.0379
   -32.0264 -32.0207 -32.0179 -32.0161 -32.0148 -32.0096 -32.0031 -31.9948
[...]
    -0.8111  -0.7808  -0.7410  -0.7224  -0.6869  -0.5493  -0.5181  -0.4600
    -0.4333  -0.4090  -0.3756  -0.3561  -0.2982  -0.2543  -0.2367  -0.2116
    -0.1946  -0.1614  -0.1524  -0.1048  -0.0794   0.0290   0.0461   0.1397
     0.1762   0.2403   0.3315   0.3469   0.3763   0.6040   0.6595   0.9392
     0.9599   1.0264   1.1749   1.4749   1.5499   2.7988   3.1357   3.1658
     3.4088   3.4573   3.4602   3.4947   3.5293   3.5592   3.5649   3.6289

          k = 0.0380 0.0419 0.0000 ( 17878 PWs)   bands (ev):

   -56.0170 -55.9929 -55.9927 -55.9897 -55.9665 -55.8639 -55.8312 -55.8295
   -55.8236 -55.8063 -55.8050 -55.7812 -55.7457 -55.5776 -55.0025 -54.9785
   -32.4870 -32.4528 -32.3527 -32.3196 -32.3094 -32.3040 -32.2924 -32.2524
   -32.2478 -32.2380 -32.2230 -32.2073 -32.1973 -32.1846 -32.1752 -32.1722
   -32.1685 -32.1582 -32.1492 -32.0930 -32.0926 -32.0835 -32.0796 -32.0492
   -32.0387 -32.0331 -32.0312 -32.0259 -32.0230 -32.0205 -32.0163 -32.0131
   -32.0039 -31.9990 -31.9818 -31.9733 -31.9694 -31.9664 -31.9638 -31.8388
   -31.8240 -31.7721 -31.3606 -31.3250 -31.3055 -31.2189 -31.1578 -31.0912
   -19.2038 -16.5470 -16.3140 -16.1635 -16.0906 -15.9853 -15.9218 -15.8761
   -15.8024 -15.7922 -15.7431 -15.6965 -15.6835 -15.6379 -15.6251 -15.5332
   -15.5297 -15.5002 -15.4613 -15.4233 -15.4158 -15.3849 -15.3532 -15.3508
   -15.3112 -15.2817 -15.2691 -15.2612 -15.2427 -15.1234 -14.8355 -13.5118
   -13.4333  -7.8712  -7.0411  -3.9790  -3.7916  -3.7403  -3.5901  -3.5636
    -3.4820  -3.4421  -3.4043  -3.3194  -3.2743  -3.2136  -3.1534  -3.1231
    -3.0401  -3.0104  -2.9645  -2.9506  -2.9386  -2.9022  -2.8646  -2.8457
    -2.7990  -2.7686  -2.7534  -2.7257  -2.6933  -2.6723  -2.6320  -2.5912
    -2.5262  -2.5039  -2.4392  -2.3759  -2.3460  -2.2298  -2.1822  -2.1315
    -2.1141  -2.0133  -2.0005  -1.9803  -1.8305  -1.7552  -1.7195  -1.6420
    -1.5735  -1.4983  -1.4602  -1.4295  -1.3639  -1.3314  -1.3111  -1.2764
    -1.2430  -1.1576  -1.1463  -1.1258  -1.0407  -0.9803  -0.9628  -0.9321
    -0.8808  -0.8552  -0.8164  -0.7481  -0.7390  -0.7184  -0.6555  -0.6385
    -0.5967  -0.5739  -0.4954  -0.4809  -0.4366  -0.4096  -0.3626  -0.3164
    -0.2786  -0.2386  -0.1854  -0.1276  -0.0447   0.0096   0.1098   0.1614
     0.2016   0.2652   0.2984   0.3527   0.3894   0.4124   0.5549   0.6228
     0.9039   1.2139   1.2903   1.4632   1.5253   2.7975   3.2886   3.3456
     3.3815   3.4620   3.5349   3.5610   3.5791   3.6199   3.6537   3.6875

          k = 0.0380-0.0839 0.0000 ( 17916 PWs)   bands (ev):

   -56.0058 -56.0042 -55.9897 -55.9815 -55.9770 -55.8587 -55.8358 -55.8245
   -55.8192 -55.8173 -55.7936 -55.7926 -55.7450 -55.5784 -54.9907 -54.9904
   -32.3571 -32.3411 -32.3210 -32.3199 -32.3003 -32.2990 -32.2767 -32.2703
   -32.2504 -32.2103 -32.2017 -32.1966 -32.1942 -32.1724 -32.1579 -32.1477
   -32.1426 -32.1344 -32.1324 -32.1277 -32.1268 -32.1252 -32.1237 -32.1213
   -32.0652 -32.0579 -32.0545 -32.0538 -32.0392 -32.0371 -32.0289 -32.0249
   -32.0207 -31.9967 -31.9904 -31.9832 -31.9821 -31.9759 -31.9634 -31.8392
   -31.8257 -31.8210 -31.3153 -31.3151 -31.2279 -31.2277 -31.1885 -31.1884
   -19.2036 -16.2570 -16.2091 -16.0551 -16.0295 -15.9535 -15.9054 -15.8423
   -15.8254 -15.7673 -15.7476 -15.7289 -15.7197 -15.5981 -15.5806 -15.5493
   -15.5349 -15.4997 -15.4665 -15.4505 -15.4419 -15.4372 -15.4133 -15.3892
   -15.3831 -15.3707 -15.3378 -15.3281 -15.2217 -15.1025 -15.0120 -13.4956
   -13.4953  -7.8699  -7.0430  -3.9308  -3.6554  -3.4895  -3.3324  -3.2927
    -3.2338  -3.2258  -3.2144  -3.1869  -3.1694  -3.1307  -3.1133  -3.0950
    -3.0839  -3.0344  -3.0283  -3.0051  -2.9809  -2.9360  -2.9150  -2.8866
    -2.8581  -2.8442  -2.8231  -2.7909  -2.7438  -2.7300  -2.6841  -2.6451
    -2.6193  -2.5215  -2.4879  -2.3985  -2.2437  -2.1511  -2.1433  -2.0317
    -2.0051  -1.9362  -1.9272  -1.8832  -1.8733  -1.8105  -1.7788  -1.7430
    -1.7225  -1.6686  -1.6444  -1.5552  -1.5360  -1.4888  -1.3969  -1.3634
    -1.2544  -1.1892  -1.1601  -1.0986  -1.0818  -0.9938  -0.9394  -0.9131
    -0.8512  -0.8122  -0.7914  -0.7805  -0.7714  -0.7400  -0.7247  -0.6695
    -0.6270  -0.6136  -0.5925  -0.5762  -0.5496  -0.4705  -0.4252  -0.3924
    -0.2563  -0.2151  -0.1308  -0.0997  -0.0308   0.0412   0.0746   0.0929
     0.1284   0.1446   0.2346   0.2948   0.3401   0.4880   0.5135   0.6234
     0.7128   1.3590   1.3599   1.4667   1.4678   2.7941   3.3794   3.3946
     3.4937   3.5159   3.5244   3.5448   3.6466   3.6945   3.7282   3.7370

          k = 0.0380-0.0419 0.0000 ( 17876 PWs)   bands (ev):

   -56.0170 -55.9929 -55.9927 -55.9897 -55.9665 -55.8639 -55.8312 -55.8295
   -55.8236 -55.8063 -55.8050 -55.7812 -55.7457 -55.5776 -55.0025 -54.9785
   -32.4870 -32.4528 -32.3528 -32.3196 -32.3094 -32.3040 -32.2924 -32.2524
   -32.2478 -32.2380 -32.2230 -32.2072 -32.1975 -32.1846 -32.1751 -32.1722
   -32.1683 -32.1582 -32.1496 -32.0930 -32.0926 -32.0829 -32.0794 -32.0483
   -32.0393 -32.0331 -32.0312 -32.0260 -32.0231 -32.0213 -32.0164 -32.0131
   -32.0036 -31.9992 -31.9815 -31.9734 -31.9694 -31.9663 -31.9641 -31.8385
   -31.8240 -31.7722 -31.3606 -31.3250 -31.3055 -31.2189 -31.1578 -31.0912
   -19.2038 -16.5468 -16.3140 -16.1642 -16.0905 -15.9848 -15.9217 -15.8771
   -15.8020 -15.7928 -15.7461 -15.6886 -15.6839 -15.6381 -15.6262 -15.5347
   -15.5293 -15.5005 -15.4652 -15.4226 -15.4149 -15.3846 -15.3524 -15.3507
   -15.3124 -15.2813 -15.2695 -15.2599 -15.2427 -15.1235 -14.8354 -13.5118
   -13.4333  -7.8722  -7.0398  -3.9729  -3.7782  -3.7624  -3.5998  -3.5599
    -3.4812  -3.4441  -3.4064  -3.3206  -3.2723  -3.2102  -3.1508  -3.1240
    -3.0411  -3.0133  -2.9639  -2.9557  -2.9362  -2.8990  -2.8561  -2.8440
    -2.7864  -2.7710  -2.7529  -2.7245  -2.6904  -2.6701  -2.6457  -2.5887
    -2.5273  -2.5042  -2.4388  -2.3767  -2.3305  -2.2228  -2.1723  -2.1432
    -2.1046  -2.0229  -2.0110  -1.9735  -1.8405  -1.7463  -1.7272  -1.6464
    -1.5961  -1.5143  -1.4552  -1.4366  -1.3603  -1.3237  -1.3091  -1.2831
    -1.2450  -1.1538  -1.1479  -1.1007  -1.0367  -0.9863  -0.9664  -0.9319
    -0.8869  -0.8503  -0.8172  -0.7940  -0.7423  -0.7065  -0.6565  -0.6406
    -0.5758  -0.5486  -0.5075  -0.4767  -0.4307  -0.3992  -0.3697  -0.3199
    -0.2851  -0.2426  -0.1883  -0.1242  -0.0375   0.0252   0.1095   0.1681
     0.1937   0.2671   0.3009   0.3583   0.3784   0.4103   0.5555   0.6212
     0.9036   1.2139   1.2902   1.4630   1.5259   2.7976   3.2855   3.3441
     3.3873   3.4709   3.5102   3.5446   3.5822   3.6246   3.6598   3.6816

          k =-0.0760-0.0000 0.0000 ( 17886 PWs)   bands (ev):

   -56.0220 -55.9975 -55.9909 -55.9880 -55.9614 -55.8679 -55.8350 -55.8264
   -55.8227 -55.8101 -55.8013 -55.7763 -55.7465 -55.5769 -55.0075 -54.9735
   -32.5439 -32.5078 -32.4034 -32.3784 -32.3349 -32.3139 -32.3089 -32.3048
   -32.2656 -32.2344 -32.2150 -32.1986 -32.1950 -32.1804 -32.1765 -32.1687
   -32.1375 -32.1275 -32.1261 -32.1121 -32.0901 -32.0796 -32.0547 -32.0529
   -32.0366 -32.0267 -32.0181 -32.0151 -32.0145 -32.0094 -32.0070 -31.9957
   -31.9840 -31.9804 -31.9750 -31.9683 -31.9638 -31.9377 -31.9228 -31.8401
   -31.8205 -31.7339 -31.4142 -31.3325 -31.3002 -31.2314 -31.1450 -31.0340
   -19.2039 -16.5582 -16.3660 -16.1708 -16.1426 -16.0276 -15.9221 -15.9102
   -15.8544 -15.8034 -15.8007 -15.7878 -15.7573 -15.7377 -15.7111 -15.6441
   -15.5705 -15.4695 -15.3934 -15.3861 -15.3690 -15.3411 -15.3192 -15.3010
   -15.2759 -15.2611 -15.2005 -15.1815 -15.1270 -15.0946 -14.7358 -13.5038
   -13.3929  -7.8808  -7.0377  -4.0500  -3.8408  -3.8037  -3.6175  -3.5942
    -3.4973  -3.4444  -3.4224  -3.4035  -3.3441  -3.3092  -3.2879  -3.2734
    -3.2582  -3.0712  -3.0412  -2.9153  -2.8385  -2.7534  -2.6824  -2.6606
    -2.6242  -2.6074  -2.5482  -2.5338  -2.5227  -2.5156  -2.4599  -2.4112
    -2.3734  -2.3513  -2.3408  -2.2980  -2.2672  -2.2551  -2.2135  -2.1951
    -2.1313  -2.1008  -2.0267  -1.8683  -1.7772  -1.7432  -1.7190  -1.6535
    -1.6368  -1.6286  -1.6103  -1.5947  -1.5375  -1.4899  -1.4331  -1.4106
    -1.3266  -1.3015  -1.2977  -1.2636  -1.2064  -1.1889  -1.1633  -1.1116
    -0.8149  -0.7683  -0.7126  -0.7091  -0.6688  -0.6623  -0.6553  -0.5570
    -0.5187  -0.4653  -0.4400  -0.3990  -0.3923  -0.3646  -0.2937  -0.2799
    -0.2351  -0.1964  -0.1933  -0.1264  -0.0582  -0.0167   0.0367   0.0911
     0.1901   0.2153   0.2737   0.4413   0.4600   0.5748   0.6625   0.6808
     0.9521   1.0476   1.1504   1.3455   1.4942   2.8162   3.1406   3.1433
     3.2679   3.3743   3.4359   3.5107   3.5449   3.5604   3.5690   3.6102

          k =-0.0760 0.0419 0.0000 ( 17914 PWs)   bands (ev):

   -56.0170 -55.9930 -55.9927 -55.9897 -55.9665 -55.8640 -55.8312 -55.8294
   -55.8236 -55.8062 -55.8052 -55.7812 -55.7458 -55.5777 -55.0025 -54.9785
   -32.4874 -32.4539 -32.3550 -32.3260 -32.3094 -32.3043 -32.2925 -32.2571
   -32.2484 -32.2380 -32.2229 -32.2040 -32.1848 -32.1800 -32.1749 -32.1710
   -32.1687 -32.1561 -32.1401 -32.1010 -32.0929 -32.0806 -32.0567 -32.0507
   -32.0425 -32.0377 -32.0324 -32.0292 -32.0226 -32.0181 -32.0162 -32.0129
   -32.0123 -31.9990 -31.9816 -31.9768 -31.9729 -31.9720 -31.9669 -31.8406
   -31.8240 -31.7722 -31.3603 -31.3279 -31.3048 -31.2189 -31.1578 -31.0912
   -19.2036 -16.4423 -16.2542 -16.0771 -16.0542 -15.9439 -15.8694 -15.8479
   -15.8357 -15.7876 -15.7805 -15.7614 -15.7575 -15.6859 -15.6777 -15.6336
   -15.5814 -15.5089 -15.4306 -15.4256 -15.4081 -15.3905 -15.3826 -15.3565
   -15.3193 -15.3146 -15.2878 -15.2379 -15.2175 -15.1199 -14.8361 -13.5097
   -13.4336  -7.8783  -7.0388  -3.9660  -3.7485  -3.6994  -3.5382  -3.3397
    -3.3083  -3.2785  -3.2212  -3.1659  -3.1372  -3.0984  -3.0819  -3.0728
    -3.0428  -3.0044  -2.9769  -2.9555  -2.9352  -2.8837  -2.8182  -2.8021
    -2.7505  -2.7221  -2.7057  -2.6775  -2.6411  -2.6146  -2.5913  -2.5496
    -2.5220  -2.5028  -2.4464  -2.3379  -2.2523  -2.1978  -2.1484  -2.1347
    -2.0987  -2.0280  -1.9846  -1.8949  -1.8641  -1.8118  -1.6903  -1.6646
    -1.6016  -1.5521  -1.5143  -1.4932  -1.4675  -1.4379  -1.3643  -1.3278
    -1.3091  -1.3038  -1.2635  -1.2474  -1.2107  -1.1962  -1.1141  -1.0819
    -1.0401  -1.0100  -0.9663  -0.9053  -0.8401  -0.7963  -0.7529  -0.7165
    -0.6803  -0.6546  -0.6355  -0.5707  -0.5447  -0.4821  -0.3889  -0.3489
    -0.3305  -0.2014  -0.1727  -0.1243  -0.0935   0.1436   0.1842   0.2233
     0.2652   0.3068   0.3364   0.4248   0.4396   0.4827   0.5416   0.5677
     0.7413   1.2286   1.2932   1.3864   1.5145   2.8172   3.2770   3.3236
     3.3423   3.4026   3.4352   3.4700   3.5347   3.6043   3.6591   3.7381

          k =-0.0760-0.0839 0.0000 ( 17948 PWs)   bands (ev):

   -56.0058 -56.0042 -55.9897 -55.9815 -55.9770 -55.8588 -55.8359 -55.8245
   -55.8191 -55.8172 -55.7938 -55.7927 -55.7450 -55.5785 -54.9907 -54.9905
   -32.3574 -32.3415 -32.3218 -32.3207 -32.3003 -32.2990 -32.2783 -32.2705
   -32.2506 -32.2179 -32.2029 -32.1988 -32.1941 -32.1725 -32.1450 -32.1399
   -32.1350 -32.1332 -32.1315 -32.1298 -32.1291 -32.1260 -32.1253 -32.1237
   -32.0768 -32.0578 -32.0489 -32.0373 -32.0254 -32.0231 -32.0218 -32.0200
   -32.0192 -32.0087 -32.0069 -31.9967 -31.9904 -31.9760 -31.9704 -31.8415
   -31.8258 -31.8208 -31.3163 -31.3161 -31.2279 -31.2277 -31.1885 -31.1884
   -19.2034 -16.2135 -16.0941 -16.0394 -15.9465 -15.9209 -15.9065 -15.8325
   -15.7800 -15.7268 -15.7172 -15.6930 -15.6789 -15.6710 -15.6125 -15.5841
   -15.5600 -15.5490 -15.5054 -15.4928 -15.4848 -15.4711 -15.4690 -15.4629
   -15.4192 -15.3874 -15.3509 -15.3469 -15.2075 -15.0987 -15.0082 -13.4954
   -13.4951  -7.8759  -7.0400  -3.9215  -3.6466  -3.4916  -3.3147  -3.2645
    -3.1652  -3.1530  -3.1220  -3.1018  -2.9926  -2.9330  -2.9203  -2.8985
    -2.8578  -2.8480  -2.8413  -2.8363  -2.8018  -2.8003  -2.7636  -2.7448
    -2.7131  -2.6998  -2.6937  -2.6872  -2.6632  -2.6437  -2.6040  -2.5891
    -2.5730  -2.5426  -2.5060  -2.3719  -2.3029  -2.2253  -2.2179  -2.1778
    -2.1652  -2.1455  -2.1023  -2.0846  -2.0572  -1.9762  -1.9005  -1.7463
    -1.7280  -1.7045  -1.6724  -1.6129  -1.5205  -1.4945  -1.4675  -1.4214
    -1.4039  -1.3461  -1.3250  -1.2945  -1.2387  -1.1768  -1.1395  -1.1117
    -1.0669  -1.0020  -0.9815  -0.9605  -0.9469  -0.8854  -0.7777  -0.7709
    -0.7652  -0.7154  -0.7001  -0.6704  -0.6489  -0.5577  -0.4781  -0.4181
    -0.3214  -0.1573  -0.0771   0.0206   0.0576   0.1023   0.1470   0.1890
     0.2856   0.2876   0.3607   0.3906   0.4080   0.4901   0.5011   0.5242
     0.6847   1.3771   1.3783   1.4522   1.4527   2.8164   3.3635   3.4097
     3.4439   3.4906   3.5933   3.6134   3.6421   3.6440   3.7224   3.7715

     the Fermi energy is     3.1091 ev

!    total energy              =   -2952.61568472 Ry
     estimated scf accuracy    <       0.00000007 Ry
     smearing contrib. (-TS)   =      -0.02583045 Ry
     internal energy E=F+TS    =   -2952.58985427 Ry

     The total energy is F=E-TS. E is the sum of the following terms:
     one-electron contribution =  -24508.99475162 Ry
     hartree contribution      =   12341.70836321 Ry
     xc contribution           =    -487.95760671 Ry
     ewald contribution        =    9702.65382332 Ry
     electric field correction =       0.00031753 Ry

     convergence has been achieved in  85 iterations

     Forces acting on atoms (cartesian axes, Ry/au):

     atom    1 type  1   force =    -0.00003430   -0.00029990    0.09590904
     atom    2 type  1   force =     0.00005819   -0.00049012   -0.17610978
     atom    3 type  2   force =     0.00010307   -0.00009699   -0.02431919
     atom    4 type  2   force =     0.00000968   -0.00163220    0.05391804
     atom    5 type  2   force =    -0.01177893   -0.00141657    0.00394048
     atom    6 type  2   force =     0.01320650   -0.00102592    0.00318232
     atom    7 type  1   force =     0.00034602    0.00068666   -0.00764903
     atom    8 type  1   force =     0.00026474    0.01496107    0.02333972
     atom    9 type  2   force =    -0.00005176    0.00018831    0.00013734
     atom   10 type  2   force =    -0.00219083    0.00049926   -0.01741204
     atom   11 type  2   force =     0.00047350   -0.00027064   -0.00020756
     atom   12 type  2   force =    -0.00084028   -0.00018105    0.00000887
     atom   13 type  1   force =     0.00046187    0.00044438    0.00006051
     atom   14 type  1   force =    -0.00018665    0.00005075    0.00088441
     atom   15 type  2   force =    -0.00013092   -0.00003567   -0.00075309
     atom   16 type  2   force =     0.00000983    0.00051213   -0.00021443
     atom   17 type  2   force =    -0.00049259    0.00032176   -0.00005165
     atom   18 type  2   force =     0.00026007    0.00015063   -0.00023775
     atom   19 type  1   force =     0.00077436    0.00051736   -0.00039052
     atom   20 type  1   force =    -0.00060012    0.00033013   -0.00000914
     atom   21 type  2   force =     0.00006632   -0.00000398    0.10332538
     atom   22 type  2   force =    -0.00024368   -0.00021060    0.00059920
     atom   23 type  2   force =    -0.07135695   -0.00010689   -0.02763509
     atom   24 type  2   force =     0.07127764    0.00034111   -0.02770580
     atom   25 type  1   force =     0.00024196   -0.00029108    0.09573377
     atom   26 type  1   force =     0.00011514   -0.00029176   -0.17603918
     atom   27 type  2   force =     0.00014025   -0.00029047   -0.02321609
     atom   28 type  2   force =     0.00000204   -0.00132586    0.05367507
     atom   29 type  2   force =    -0.01212545    0.00039642    0.00378625
     atom   30 type  2   force =     0.01351191    0.00101097    0.00303057
     atom   31 type  1   force =     0.00024625    0.00375344   -0.01144426
     atom   32 type  1   force =     0.00044378   -0.01661905    0.02315345
     atom   33 type  2   force =     0.00017536    0.00009705   -0.00030706
     atom   34 type  2   force =    -0.00191391   -0.00010418   -0.02068978
     atom   35 type  2   force =     0.00046187    0.00006453    0.00008066
     atom   36 type  2   force =    -0.00088527   -0.00000151    0.00033789
     atom   37 type  1   force =     0.00080394    0.00004999   -0.00028096
     atom   38 type  1   force =     0.00000593    0.00012314    0.00039499
     atom   39 type  2   force =    -0.00024824    0.00044472   -0.00056097
     atom   40 type  2   force =    -0.00039770   -0.00007492   -0.00021143
     atom   41 type  2   force =    -0.00061453    0.00031186    0.00020623
     atom   42 type  2   force =     0.00007602    0.00026574    0.00016317
     atom   43 type  1   force =     0.00053742    0.00001958    0.00038574
     atom   44 type  1   force =    -0.00009724   -0.00026990    0.00043543
     atom   45 type  2   force =     0.00006911   -0.00000116    0.10328704
     atom   46 type  2   force =    -0.07134597   -0.00004722   -0.02761798
     atom   47 type  2   force =     0.07126709    0.00038280   -0.02769013
     atom   48 type  3   force =     0.00127642    0.00103109    0.00039357
     atom   49 type  4   force =    -0.00023771   -0.00021590   -0.00050666
     atom   50 type  5   force =    -0.00003094   -0.00060463    0.00018532
     atom   51 type  5   force =     0.00017830   -0.00059733    0.00009283
     atom   52 type  2   force =     0.00689734    0.00511672    0.00839236
     atom   53 type  5   force =    -0.00742648   -0.00537080   -0.00694656
     atom   54 type  5   force =    -0.00053145   -0.00019529   -0.00083351

     Total force =     0.368173     Total SCF correction =     0.000543
  @ DRIVER MODE: Message from server: STATUS
  @ DRIVER MODE: Message from server: GETFORCE
  @ DRIVER MODE: Returning v,forces,stress,ensemble 

     Writing output data file ./calc.save/
  @ DRIVER MODE: Message from server: EXIT
  @ DRIVE MODE: Exiting  
 
     init_run     :     10.74s CPU     10.96s WALL (       1 calls)
     electrons    :   1332.07s CPU   1351.22s WALL (       1 calls)
     forces       :      2.29s CPU      2.38s WALL (       1 calls)

     Called by init_run:
     wfcinit      :      4.72s CPU      4.79s WALL (       1 calls)
     potinit      :      5.37s CPU      5.44s WALL (       1 calls)
     hinit0       :      0.29s CPU      0.31s WALL (       1 calls)

     Called by electrons:
     c_bands      :   1135.06s CPU   1142.89s WALL (      85 calls)
     sum_band     :    133.71s CPU    138.20s WALL (      85 calls)
     v_of_rho     :     46.79s CPU     49.10s WALL (      86 calls)
     newd         :     19.22s CPU     23.61s WALL (      86 calls)
     mix_rho      :      1.75s CPU      1.82s WALL (      85 calls)
     vdW_kernel   :      4.54s CPU      4.55s WALL (       1 calls)

     Called by c_bands:
     init_us_2    :      7.78s CPU      7.82s WALL (    1720 calls)
     cegterg      :   1112.09s CPU   1119.58s WALL (     866 calls)

     Called by *egterg:
     cdiaghg      :    187.75s CPU    188.58s WALL (    8840 calls)
     h_psi        :    590.46s CPU    595.63s WALL (    8850 calls)
     s_psi        :     78.37s CPU     78.61s WALL (    8850 calls)
     g_psi        :      2.12s CPU      2.14s WALL (    7974 calls)

     Called by h_psi:
     h_psi:calbec :     72.76s CPU     73.11s WALL (    8850 calls)
     vloc_psi     :    435.18s CPU    439.39s WALL (    8850 calls)
     add_vuspsi   :     78.77s CPU     79.14s WALL (    8850 calls)

     General routines
     calbec       :     95.84s CPU     96.26s WALL (    9740 calls)
     fft          :     24.81s CPU     24.99s WALL (    5418 calls)
     ffts         :      0.15s CPU      0.16s WALL (     171 calls)
     fftw         :    488.01s CPU    492.72s WALL ( 1156116 calls)
     interpolate  :      0.49s CPU      0.50s WALL (      86 calls)
     davcio       :      0.00s CPU      0.25s WALL (      10 calls)
 
     Parallel routines
 
     PWSCF        :  22m25.41s CPU  22m45.33s WALL

 
   This run was terminated on:   3:55:49  16Sep2021            

=------------------------------------------------------------------------------=
   JOB DONE.
=------------------------------------------------------------------------------=
