
     Program PWSCF v.6.7GPU starts on 23Sep2021 at 16:33:35 

     This program is part of the open-source Quantum ESPRESSO suite
     for quantum simulation of materials; please cite
         "P. Giannozzi et al., J. Phys.:Condens. Matter 21 395502 (2009);
         "P. Giannozzi et al., J. Phys.:Condens. Matter 29 465901 (2017);
         "P. Giannozzi et al., J. Chem. Phys. 152 154105 (2020);
          URL http://www.quantum-espresso.org", 
     in publications or presentations arising from this work. More details at
     http://www.quantum-espresso.org/quote

     Parallel version (MPI), running on     8 processors

     MPI processes distributed on     1 nodes
     R & G space division:  proc/nbgrp/npool/nimage =       8
     Reading input from /storage/home/hcoda1/3/ntian30/research/carbon/CxH_vib/H2O_calc/ads_slab/CH3ON2HO_a/out_0012/pw.inp
Warning: card &CELL ignored
Warning: card   CELL_DYNAMICS='IPI', ignored
Warning: card / ignored

     Current dimensions of program PWSCF are:
     Max number of different atomic species (ntypx) = 10
     Max number of k-points (npk) =  40000
     Max angular momentum in pseudopotentials (lmaxx) =  3
     Presently no symmetry can be used with electric field

     Message from routine cell_base_init:
     DEPRECATED: use true lattice parameter, not A to a.u. conversion factor

     **************************************************************************
     Initializing libbeef V0.1.2 with the BEEF-vdW functional.
     Citation: Wellendorff et al., PRB 85, 235149 (2012).
     **************************************************************************


     IMPORTANT: XC functional enforced from input :
     Exchange-correlation= BEEF-VDW
                           (   1   4  43  14   2   0   0)
     Any further DFT definition will be discarded
     Please, verify this is what you really want


     Subspace diagonalization in iterative solution of the eigenvalue problem:
     one sub-group per band group will be used
     scalapack distributed-memory algorithm (size of sub-group:  2*  2 procs)

  @ DRIVER MODE: Connecting to 
 qe_1139763_2947306.sched-torque.pace.gatech.eduek30fpwg_scratch
  using UNIX socket
  @ DRIVER MODE: Message from server: STATUS
  @ DRIVER MODE: Message from server: INIT
  @ DRIVER MODE: Receiving replica           0          -1
  @ DRIVER MODE: Receiving encoded integer          25
  @ DRIVER MODE:  SCF:  T  FORCE:  T  STRESS:  F  VC:  F  ENSEMBLE:  F
  @ DRIVER MODE:  SCF:  T  FORCE:  T  STRESS:  F  VC:  F  ENSEMBLE:  F
 
     Parallelization info
     --------------------
     sticks:   dense  smooth     PW     G-vecs:    dense   smooth      PW
     Min         409     164     47                70857    17926    2743
     Max         411     165     48                70858    17931    2751
     Sum        3275    1317    379               566857   143421   21985
 
     Using Slab Decomposition
 


     bravais-lattice index     =            0
     lattice parameter (alat)  =       1.8897  a.u.
     unit-cell volume          =    6658.9804 (a.u.)^3
     number of atoms/cell      =           56
     number of atomic types    =            5
     number of electrons       =       408.00
     number of Kohn-Sham states=          214
     kinetic-energy cutoff     =      29.3995  Ry
     charge density cutoff     =     293.9946  Ry
     scf convergence threshold =      7.3E-08
     mixing beta               =       0.0500
     number of iterations used =            8  plain     mixing
     Exchange-correlation= BEEF-VDW
                           (   1   4  43  14   2   0   0)

     celldm(1)=   1.889726  celldm(2)=   0.000000  celldm(3)=   0.000000
     celldm(4)=   0.000000  celldm(5)=   0.000000  celldm(6)=   0.000000

     crystal axes: (cart. coord. in units of alat)
               a(1) = (   6.579727   0.000000   0.000000 )  
               a(2) = (  -0.000775   5.961596   0.000000 )  
               a(3) = (   0.000000   0.000000  25.155947 )  

     reciprocal axes: (cart. coord. in units 2 pi/alat)
               b(1) = (  0.151982  0.000020  0.000000 )  
               b(2) = (  0.000000  0.167740  0.000000 )  
               b(3) = (  0.000000  0.000000  0.039752 )  


     PseudoPot. # 1 for Ti read from file:
     /storage/coda1/p-amedford6/0/shared/rich_project_chbe-medford/medford-share/data/pseudos_module/espresso/nninc/pbe/van/Ti.UPF
     MD5 check sum: 8e4df49b7f0d34bbd5052bf3f5ea0213
     Pseudo is Ultrasoft, Zval = 12.0
     Generated by new atomic code, or converted to UPF format
     Using radial grid of  851 points,  6 beta functions with: 
                l(1) =   0
                l(2) =   0
                l(3) =   1
                l(4) =   1
                l(5) =   2
                l(6) =   2
     Q(r) pseudized with  8 coefficients,  rinner =    1.000   1.000   1.000
                                                       1.000   1.000

     PseudoPot. # 2 for O  read from file:
     /storage/coda1/p-amedford6/0/shared/rich_project_chbe-medford/medford-share/data/pseudos_module/espresso/nninc/pbe/van/O.UPF
     MD5 check sum: 78c19812648e8988a0fe644b0f25305e
     Pseudo is Ultrasoft, Zval =  6.0
     Generated by new atomic code, or converted to UPF format
     Using radial grid of  737 points,  4 beta functions with: 
                l(1) =   0
                l(2) =   0
                l(3) =   1
                l(4) =   1
     Q(r) pseudized with  8 coefficients,  rinner =    0.800   0.800   0.800


     PseudoPot. # 3 for C  read from file:
     /storage/coda1/p-amedford6/0/shared/rich_project_chbe-medford/medford-share/data/pseudos_module/espresso/nninc/pbe/van/C.UPF
     MD5 check sum: 1a69bf6b8db32088f5b2163dbdb77a27
     Pseudo is Ultrasoft, Zval =  4.0
     Generated by new atomic code, or converted to UPF format
     Using radial grid of  721 points,  4 beta functions with: 
                l(1) =   0
                l(2) =   0
                l(3) =   1
                l(4) =   1
     Q(r) pseudized with  8 coefficients,  rinner =    0.800   0.800   0.800


     PseudoPot. # 4 for H  read from file:
     /storage/coda1/p-amedford6/0/shared/rich_project_chbe-medford/medford-share/data/pseudos_module/espresso/nninc/pbe/van/H.UPF
     MD5 check sum: b5ee9d7bfd3a09ee7748110bda690ff7
     Pseudo is Ultrasoft, Zval =  1.0
     Generated by new atomic code, or converted to UPF format
     Using radial grid of  615 points,  1 beta functions with: 
                l(1) =   0
     Q(r) pseudized with  8 coefficients,  rinner =    0.800

     PseudoPot. # 5 for N  read from file:
     /storage/coda1/p-amedford6/0/shared/rich_project_chbe-medford/medford-share/data/pseudos_module/espresso/nninc/pbe/van/N.UPF
     MD5 check sum: 90d10febe142ad51ac9d5be1deb811c4
     Pseudo is Ultrasoft, Zval =  5.0
     Generated by new atomic code, or converted to UPF format
     Using radial grid of  729 points,  4 beta functions with: 
                l(1) =   0
                l(2) =   0
                l(3) =   1
                l(4) =   1
     Q(r) pseudized with  8 coefficients,  rinner =    0.800   0.800   0.800


     atomic species   valence    mass     pseudopotential
        Ti1           12.00    47.86700     Ti( 1.00)
        O1             6.00    15.99900     O ( 1.00)
        C1             4.00    12.01100     C ( 1.00)
        H1             1.00     1.00800     H ( 1.00)
        N1             5.00    14.00700     N ( 1.00)

     No symmetry found



   Cartesian axes

     site n.     atom                  positions (alat units)
         1           Ti1 tau(   1) = (   0.0004258   2.9801865   6.0000000  )
         2           Ti1 tau(   2) = (   3.2906075   1.4906267   6.0002472  )
         3           O1  tau(   3) = (   0.0006271   0.0005054   7.9858123  )
         4           O1  tau(   4) = (   3.2906025   0.0005020   7.3038282  )
         5           O1  tau(   5) = (   4.5942328   1.4918067   9.2879030  )
         6           O1  tau(   6) = (   1.9868534   1.4903216   9.2879459  )
         7           Ti1 tau(   7) = (   3.3138730   3.1023225   9.2183157  )
         8           Ti1 tau(   8) = (   0.0392070   1.5780841   9.3433077  )
         9           O1  tau(   9) = (   3.2868017   0.0212601  11.3135411  )
        10           O1  tau(  10) = (   0.0022550   0.0140515  10.5858881  )
        11           O1  tau(  11) = (   1.2767464   1.5002397  12.6205121  )
        12           O1  tau(  12) = (   5.2993684   1.4943797  12.6172415  )
        13           Ti1 tau(  13) = (   0.0200588   3.0780815  12.7918821  )
        14           Ti1 tau(  14) = (   3.2574684   1.5637424  12.4212484  )
        15           O1  tau(  15) = (   6.5768379   0.0158506  14.6682411  )
        16           O1  tau(  16) = (   3.2886937   5.9311801  13.9109749  )
        17           O1  tau(  17) = (   4.5620935   1.5260772  16.0398494  )
        18           O1  tau(  18) = (   2.0292830   1.5431627  16.0187044  )
        19           Ti1 tau(  19) = (   3.3027642   2.9567202  15.6520962  )
        20           Ti1 tau(  20) = (   0.0552782   1.4362356  15.9688716  )
        21           O1  tau(  21) = (   3.2904802   0.0005063   4.7018136  )
        22           O1  tau(  22) = (   0.0488089   0.0211857  17.1900833  )
        23           O1  tau(  23) = (   1.3043587   1.4918075   6.0039043  )
        24           O1  tau(  24) = (   5.2767064   1.4903225   6.0039473  )
        25           Ti1 tau(  25) = (   0.0000382   5.9609847   6.0000000  )
        26           Ti1 tau(  26) = (   3.2902200   4.4714249   6.0002472  )
        27           O1  tau(  27) = (   0.0002396   2.9813036   7.9858123  )
        28           O1  tau(  28) = (   3.2902150   2.9813002   7.3038282  )
        29           O1  tau(  29) = (   4.5938453   4.4726049   9.2879030  )
        30           O1  tau(  30) = (   1.9864658   4.4711199   9.2879459  )
        31           Ti1 tau(  31) = (   3.3219941   0.1169887   9.1790125  )
        32           Ti1 tau(  32) = (   0.0373256   4.5280481   9.3594506  )
        33           O1  tau(  33) = (   3.2887547   2.9594671  11.2851190  )
        34           O1  tau(  34) = (   0.0046902   2.9985155  10.5475055  )
        35           O1  tau(  35) = (   1.2817606   4.4707209  12.6310527  )
        36           O1  tau(  36) = (   5.3098963   4.4869072  12.6241852  )
        37           Ti1 tau(  37) = (   6.5328698   0.0937101  12.6083326  )
        38           Ti1 tau(  38) = (   3.2790761   4.6595539  12.6693962  )
        39           O1  tau(  39) = (   0.0062896   2.9920245  14.6683812  )
        40           O1  tau(  40) = (   3.3079832   2.9813091  13.8732900  )
        41           O1  tau(  41) = (   4.5514670   4.4448635  16.0695425  )
        42           O1  tau(  42) = (   2.0242163   4.4286948  16.0089506  )
        43           Ti1 tau(  43) = (   3.3772342   5.9382356  16.2476532  )
        44           Ti1 tau(  44) = (   0.0845355   4.5653432  16.0322982  )
        45           O1  tau(  45) = (   3.2900926   2.9813045   4.7018136  )
        46           O1  tau(  46) = (   1.3039711   4.4726057   6.0039043  )
        47           O1  tau(  47) = (   5.2763189   4.4711207   6.0039473  )
        48           C1  tau(  48) = (   6.0101766   2.9784267  18.6088694  )
        49           O1  tau(  49) = (   6.5649008   2.9952511  17.3028482  )
        50           H1  tau(  50) = (   4.9185495   2.9407445  18.5675634  )
        51           H1  tau(  51) = (   6.3703738   2.0936667  19.1370987  )
        52           H1  tau(  52) = (   6.3118891   3.8824302  19.1399426  )
        53           N1  tau(  53) = (   6.0262039   3.1690275  22.5535725  )
        54           N1  tau(  54) = (   5.1417247   3.1052473  21.8962875  )
        55           O1  tau(  55) = (   3.2068502   5.9581871  18.0710493  )
        56           H1  tau(  56) = (   2.3500504   0.2277792  18.4614507  )

     number of k points=    10  Fermi-Dirac smearing, width (Ry)=  0.0073
                       cart. coord. in units 2pi/alat
        k(    1) = (   0.0000000   0.0000000   0.0000000), wk =   0.1250000
        k(    2) = (   0.0000000   0.0419351   0.0000000), wk =   0.2500000
        k(    3) = (   0.0000000  -0.0838702   0.0000000), wk =   0.1250000
        k(    4) = (   0.0379955   0.0000049   0.0000000), wk =   0.2500000
        k(    5) = (   0.0379955   0.0419400   0.0000000), wk =   0.2500000
        k(    6) = (   0.0379955  -0.0838652   0.0000000), wk =   0.2500000
        k(    7) = (   0.0379955  -0.0419301   0.0000000), wk =   0.2500000
        k(    8) = (  -0.0759910  -0.0000099   0.0000000), wk =   0.1250000
        k(    9) = (  -0.0759910   0.0419252   0.0000000), wk =   0.2500000
        k(   10) = (  -0.0759910  -0.0838800   0.0000000), wk =   0.1250000

     Dense  grid:   566857 G-vectors     FFT dimensions: (  72,  64, 270)

     Smooth grid:   143421 G-vectors     FFT dimensions: (  45,  40, 180)

     Estimated max dynamical RAM per process >     462.28 MB

     Estimated total dynamical RAM >       3.61 GB
     Cannot read rho : file not found

     Initial potential from superposition of free atoms

     starting charge  391.99915, renormalised to  408.00000

     negative rho (up, down):  9.974E-03 0.000E+00


     %%%%%%%%%%%%%%%%%%%%%%%%%%%%%%%%%%%%%%%%%%%%%%%%%%%%%%%%%%%%%%%%%%%%%%%%
     %                                                                      %
     % You are using vdW-DF, which was implemented by the Thonhauser group. %
     % Please cite the following two papers that made this development      %
     % possible and the two reviews that describe the various versions:     %
     %                                                                      %
     %   T. Thonhauser et al., PRL 115, 136402 (2015).                      %
     %   T. Thonhauser et al., PRB 76, 125112 (2007).                       %
     %   K. Berland et al., Rep. Prog. Phys. 78, 066501 (2015).             %
     %   D.C. Langreth et al., J. Phys.: Condens. Matter 21, 084203 (2009). %
     %                                                                      %
     %                                                                      %
     % If you are calculating the stress with vdW-DF, please also cite:     %
     %                                                                      %
     %   R. Sabatini et al., J. Phys.: Condens. Matter 24, 424209 (2012).   %
     %                                                                      %
     %%%%%%%%%%%%%%%%%%%%%%%%%%%%%%%%%%%%%%%%%%%%%%%%%%%%%%%%%%%%%%%%%%%%%%%%


 
     Adding external electric field

     Computed dipole along edir(3) : 
        Dipole              -16.8198 Ry au,        -42.7517 Debye
        Dipole field         -0.0317 Ry au, 
 
        Potential amp.        2.9424 Ry
        Total length         46.3494 bohr
 
     Starting wfcs are  308 atomic wfcs
  @ DRIVER MODE: Message from server: STATUS
  @ DRIVER MODE: Message from server: POSDATA
  @ DRIVER MODE: Reading and sharing cell 
  @ DRIVER MODE: Reading and sharing positions 
  @ DRIVER MODE: Received positions 

     total cpu time spent up to now is       14.3 secs

     Self-consistent Calculation

     iteration #  1     ecut=    29.40 Ry     beta= 0.05
     Davidson diagonalization with overlap
     c_bands:  4 eigenvalues not converged
     c_bands:  1 eigenvalues not converged
     c_bands:  5 eigenvalues not converged
     c_bands:  1 eigenvalues not converged
     c_bands:  2 eigenvalues not converged
     c_bands:  2 eigenvalues not converged
     c_bands:  1 eigenvalues not converged
     ethr =  1.00E-05,  avg # of iterations = 29.2

     negative rho (up, down):  7.015E-03 0.000E+00
 
     Adding external electric field

     Computed dipole along edir(3) : 
        Dipole               60.2634 Ry au,        153.1743 Debye
        Dipole field          0.1137 Ry au, 
 
        Potential amp.      -10.5422 Ry
        Total length         46.3494 bohr
 

     total cpu time spent up to now is       79.5 secs

     total energy              =   -2248.45556938 Ry
     estimated scf accuracy    <    8689.49115928 Ry

     iteration #  2     ecut=    29.40 Ry     beta= 0.05
     Davidson diagonalization with overlap
     ethr =  1.00E-02,  avg # of iterations = 33.4

     negative rho (up, down):  1.864E-04 0.000E+00
 
     Adding external electric field

     Computed dipole along edir(3) : 
        Dipole               -2.1328 Ry au,         -5.4210 Debye
        Dipole field         -0.0040 Ry au, 
 
        Potential amp.        0.3731 Ry
        Total length         46.3494 bohr
 

     total cpu time spent up to now is      199.5 secs

     total energy              =   -2416.48419192 Ry
     estimated scf accuracy    <   84424.40704262 Ry

     iteration #  3     ecut=    29.40 Ry     beta= 0.05
     Davidson diagonalization with overlap
     ethr =  1.00E-02,  avg # of iterations = 15.7

     negative rho (up, down):  2.296E-04 0.000E+00
 
     Adding external electric field

     Computed dipole along edir(3) : 
        Dipole               -5.1400 Ry au,        -13.0647 Debye
        Dipole field         -0.0097 Ry au, 
 
        Potential amp.        0.8992 Ry
        Total length         46.3494 bohr
 

     total cpu time spent up to now is      261.8 secs

     total energy              =   -2991.47350384 Ry
     estimated scf accuracy    <    8664.88267853 Ry

     iteration #  4     ecut=    29.40 Ry     beta= 0.05
     Davidson diagonalization with overlap
     ethr =  1.00E-02,  avg # of iterations = 13.1

     negative rho (up, down):  2.330E-04 0.000E+00
 
     Adding external electric field

     Computed dipole along edir(3) : 
        Dipole               -5.9289 Ry au,        -15.0698 Debye
        Dipole field         -0.0112 Ry au, 
 
        Potential amp.        1.0372 Ry
        Total length         46.3494 bohr
 

     total cpu time spent up to now is      294.4 secs

     total energy              =   -3008.38904018 Ry
     estimated scf accuracy    <    2142.55277879 Ry

     iteration #  5     ecut=    29.40 Ry     beta= 0.05
     Davidson diagonalization with overlap
     ethr =  1.00E-02,  avg # of iterations =  3.2

     negative rho (up, down):  2.524E-04 0.000E+00
 
     Adding external electric field

     Computed dipole along edir(3) : 
        Dipole               -7.1891 Ry au,        -18.2728 Debye
        Dipole field         -0.0136 Ry au, 
 
        Potential amp.        1.2576 Ry
        Total length         46.3494 bohr
 

     total cpu time spent up to now is      309.1 secs

     total energy              =   -2977.72898456 Ry
     estimated scf accuracy    <    2040.45829343 Ry

     iteration #  6     ecut=    29.40 Ry     beta= 0.05
     Davidson diagonalization with overlap
     ethr =  1.00E-02,  avg # of iterations = 12.1

     negative rho (up, down):  2.345E-04 0.000E+00
 
     Adding external electric field

     Computed dipole along edir(3) : 
        Dipole               -4.8608 Ry au,        -12.3549 Debye
        Dipole field         -0.0092 Ry au, 
 
        Potential amp.        0.8503 Ry
        Total length         46.3494 bohr
 

     total cpu time spent up to now is      340.5 secs

     total energy              =   -3008.67101694 Ry
     estimated scf accuracy    <     123.18374980 Ry

     iteration #  7     ecut=    29.40 Ry     beta= 0.05
     Davidson diagonalization with overlap
     ethr =  1.00E-02,  avg # of iterations =  2.6

     negative rho (up, down):  2.238E-04 0.000E+00
 
     Adding external electric field

     Computed dipole along edir(3) : 
        Dipole               -1.6827 Ry au,         -4.2771 Debye
        Dipole field         -0.0032 Ry au, 
 
        Potential amp.        0.2944 Ry
        Total length         46.3494 bohr
 

     total cpu time spent up to now is      354.5 secs

     total energy              =   -3008.69606285 Ry
     estimated scf accuracy    <      93.90226032 Ry

     iteration #  8     ecut=    29.40 Ry     beta= 0.05
     Davidson diagonalization with overlap
     ethr =  1.00E-02,  avg # of iterations =  5.7

     negative rho (up, down):  2.258E-04 0.000E+00
 
     Adding external electric field

     Computed dipole along edir(3) : 
        Dipole                4.1154 Ry au,         10.4603 Debye
        Dipole field          0.0078 Ry au, 
 
        Potential amp.       -0.7199 Ry
        Total length         46.3494 bohr
 

     total cpu time spent up to now is      370.6 secs

     total energy              =   -3042.09830970 Ry
     estimated scf accuracy    <    1172.20832127 Ry

     iteration #  9     ecut=    29.40 Ry     beta= 0.05
     Davidson diagonalization with overlap
     ethr =  1.00E-02,  avg # of iterations = 12.5

     negative rho (up, down):  2.403E-04 0.000E+00
 
     Adding external electric field

     Computed dipole along edir(3) : 
        Dipole                2.9635 Ry au,          7.5325 Debye
        Dipole field          0.0056 Ry au, 
 
        Potential amp.       -0.5184 Ry
        Total length         46.3494 bohr
 

     total cpu time spent up to now is      394.9 secs

     total energy              =   -3033.77472481 Ry
     estimated scf accuracy    <    4485.25986474 Ry

     iteration # 10     ecut=    29.40 Ry     beta= 0.05
     Davidson diagonalization with overlap
     ethr =  1.00E-02,  avg # of iterations =  2.0

     negative rho (up, down):  2.827E-04 0.000E+00
 
     Adding external electric field

     Computed dipole along edir(3) : 
        Dipole                4.5230 Ry au,         11.4963 Debye
        Dipole field          0.0085 Ry au, 
 
        Potential amp.       -0.7912 Ry
        Total length         46.3494 bohr
 

     total cpu time spent up to now is      408.7 secs

     total energy              =   -3013.29586063 Ry
     estimated scf accuracy    <    3442.82301018 Ry

     iteration # 11     ecut=    29.40 Ry     beta= 0.05
     Davidson diagonalization with overlap
     ethr =  1.00E-02,  avg # of iterations =  6.9

     negative rho (up, down):  3.396E-04 0.000E+00
 
     Adding external electric field

     Computed dipole along edir(3) : 
        Dipole               -0.6343 Ry au,         -1.6122 Debye
        Dipole field         -0.0012 Ry au, 
 
        Potential amp.        0.1110 Ry
        Total length         46.3494 bohr
 

     total cpu time spent up to now is      429.8 secs

     total energy              =   -2946.71692286 Ry
     estimated scf accuracy    <    3288.14177966 Ry

     iteration # 12     ecut=    29.40 Ry     beta= 0.05
     Davidson diagonalization with overlap
     ethr =  1.00E-02,  avg # of iterations = 12.6

     negative rho (up, down):  2.009E-04 0.000E+00
 
     Adding external electric field

     Computed dipole along edir(3) : 
        Dipole                3.4709 Ry au,          8.8223 Debye
        Dipole field          0.0066 Ry au, 
 
        Potential amp.       -0.6072 Ry
        Total length         46.3494 bohr
 

     total cpu time spent up to now is      471.0 secs

     total energy              =   -2986.54961903 Ry
     estimated scf accuracy    <     760.09963620 Ry

     iteration # 13     ecut=    29.40 Ry     beta= 0.05
     Davidson diagonalization with overlap
     ethr =  1.00E-02,  avg # of iterations = 10.7

     negative rho (up, down):  2.193E-04 0.000E+00
 
     Adding external electric field

     Computed dipole along edir(3) : 
        Dipole                0.4273 Ry au,          1.0862 Debye
        Dipole field          0.0008 Ry au, 
 
        Potential amp.       -0.0748 Ry
        Total length         46.3494 bohr
 

     total cpu time spent up to now is      498.1 secs

     total energy              =   -3005.69578480 Ry
     estimated scf accuracy    <     261.22061206 Ry

     iteration # 14     ecut=    29.40 Ry     beta= 0.05
     Davidson diagonalization with overlap
     ethr =  1.00E-02,  avg # of iterations =  1.5

     negative rho (up, down):  1.898E-04 0.000E+00
 
     Adding external electric field

     Computed dipole along edir(3) : 
        Dipole               -3.2764 Ry au,         -8.3279 Debye
        Dipole field         -0.0062 Ry au, 
 
        Potential amp.        0.5732 Ry
        Total length         46.3494 bohr
 

     total cpu time spent up to now is      514.0 secs

     total energy              =   -3007.76346279 Ry
     estimated scf accuracy    <      54.24171072 Ry

     iteration # 15     ecut=    29.40 Ry     beta= 0.05
     Davidson diagonalization with overlap
     ethr =  1.00E-02,  avg # of iterations =  5.5

     negative rho (up, down):  1.667E-04 0.000E+00
 
     Adding external electric field

     Computed dipole along edir(3) : 
        Dipole                2.1787 Ry au,          5.5378 Debye
        Dipole field          0.0041 Ry au, 
 
        Potential amp.       -0.3811 Ry
        Total length         46.3494 bohr
 

     total cpu time spent up to now is      533.5 secs

     total energy              =   -3007.94377253 Ry
     estimated scf accuracy    <      46.69312333 Ry

     iteration # 16     ecut=    29.40 Ry     beta= 0.05
     Davidson diagonalization with overlap
     ethr =  1.00E-02,  avg # of iterations =  4.6

     negative rho (up, down):  1.517E-04 0.000E+00
 
     Adding external electric field

     Computed dipole along edir(3) : 
        Dipole                0.2657 Ry au,          0.6753 Debye
        Dipole field          0.0005 Ry au, 
 
        Potential amp.       -0.0465 Ry
        Total length         46.3494 bohr
 

     total cpu time spent up to now is      552.0 secs

     total energy              =   -3007.97212535 Ry
     estimated scf accuracy    <     134.76123691 Ry

     iteration # 17     ecut=    29.40 Ry     beta= 0.05
     Davidson diagonalization with overlap
     ethr =  1.00E-02,  avg # of iterations =  1.5

     negative rho (up, down):  6.419E-05 0.000E+00
 
     Adding external electric field

     Computed dipole along edir(3) : 
        Dipole                1.1922 Ry au,          3.0302 Debye
        Dipole field          0.0022 Ry au, 
 
        Potential amp.       -0.2086 Ry
        Total length         46.3494 bohr
 

     total cpu time spent up to now is      567.0 secs

     total energy              =   -3008.61480160 Ry
     estimated scf accuracy    <      62.66098452 Ry

     iteration # 18     ecut=    29.40 Ry     beta= 0.05
     Davidson diagonalization with overlap
     c_bands:  4 eigenvalues not converged
     ethr =  1.00E-02,  avg # of iterations = 17.7

     negative rho (up, down):  2.518E-05 0.000E+00
 
     Adding external electric field

     Computed dipole along edir(3) : 
        Dipole               -1.1315 Ry au,         -2.8760 Debye
        Dipole field         -0.0021 Ry au, 
 
        Potential amp.        0.1979 Ry
        Total length         46.3494 bohr
 

     total cpu time spent up to now is      596.9 secs

     total energy              =   -3018.02768697 Ry
     estimated scf accuracy    <    1874.05850826 Ry

     iteration # 19     ecut=    29.40 Ry     beta= 0.05
     Davidson diagonalization with overlap
     ethr =  1.00E-02,  avg # of iterations =  2.6

     negative rho (up, down):  1.037E-05 0.000E+00
 
     Adding external electric field

     Computed dipole along edir(3) : 
        Dipole               -1.4683 Ry au,         -3.7320 Debye
        Dipole field         -0.0028 Ry au, 
 
        Potential amp.        0.2569 Ry
        Total length         46.3494 bohr
 

     total cpu time spent up to now is      613.2 secs

     total energy              =   -3012.63104794 Ry
     estimated scf accuracy    <    1574.62483496 Ry

     iteration # 20     ecut=    29.40 Ry     beta= 0.05
     Davidson diagonalization with overlap
     ethr =  1.00E-02,  avg # of iterations =  1.3

     negative rho (up, down):  8.441E-06 0.000E+00
 
     Adding external electric field

     Computed dipole along edir(3) : 
        Dipole                0.4074 Ry au,          1.0355 Debye
        Dipole field          0.0008 Ry au, 
 
        Potential amp.       -0.0713 Ry
        Total length         46.3494 bohr
 

     total cpu time spent up to now is      626.4 secs

     total energy              =   -3007.40222918 Ry
     estimated scf accuracy    <    1120.33556669 Ry

     iteration # 21     ecut=    29.40 Ry     beta= 0.05
     Davidson diagonalization with overlap
     ethr =  1.00E-02,  avg # of iterations =  1.0

     negative rho (up, down):  3.355E-05 0.000E+00
 
     Adding external electric field

     Computed dipole along edir(3) : 
        Dipole               -2.3019 Ry au,         -5.8510 Debye
        Dipole field         -0.0043 Ry au, 
 
        Potential amp.        0.4027 Ry
        Total length         46.3494 bohr
 

     total cpu time spent up to now is      639.3 secs

     total energy              =   -2989.92232165 Ry
     estimated scf accuracy    <     910.26580321 Ry

     iteration # 22     ecut=    29.40 Ry     beta= 0.05
     Davidson diagonalization with overlap
     ethr =  1.00E-02,  avg # of iterations = 13.1

     negative rho (up, down):  4.650E-05 0.000E+00
 
     Adding external electric field

     Computed dipole along edir(3) : 
        Dipole                1.0555 Ry au,          2.6827 Debye
        Dipole field          0.0020 Ry au, 
 
        Potential amp.       -0.1846 Ry
        Total length         46.3494 bohr
 

     total cpu time spent up to now is      662.0 secs

     total energy              =   -3004.88507215 Ry
     estimated scf accuracy    <       4.33029826 Ry

     iteration # 23     ecut=    29.40 Ry     beta= 0.05
     Davidson diagonalization with overlap
     ethr =  1.06E-03,  avg # of iterations = 17.0

     negative rho (up, down):  4.163E-05 0.000E+00
 
     Adding external electric field

     Computed dipole along edir(3) : 
        Dipole               -0.5421 Ry au,         -1.3779 Debye
        Dipole field         -0.0010 Ry au, 
 
        Potential amp.        0.0948 Ry
        Total length         46.3494 bohr
 

     total cpu time spent up to now is      694.6 secs

     total energy              =   -3004.43193180 Ry
     estimated scf accuracy    <     102.54001290 Ry

     iteration # 24     ecut=    29.40 Ry     beta= 0.05
     Davidson diagonalization with overlap
     ethr =  1.06E-03,  avg # of iterations =  5.0

     negative rho (up, down):  4.887E-05 0.000E+00
 
     Adding external electric field

     Computed dipole along edir(3) : 
        Dipole                0.3560 Ry au,          0.9050 Debye
        Dipole field          0.0007 Ry au, 
 
        Potential amp.       -0.0623 Ry
        Total length         46.3494 bohr
 

     total cpu time spent up to now is      709.5 secs

     total energy              =   -3006.18289666 Ry
     estimated scf accuracy    <       7.33467633 Ry

     iteration # 25     ecut=    29.40 Ry     beta= 0.05
     Davidson diagonalization with overlap
     ethr =  1.06E-03,  avg # of iterations =  1.0

     negative rho (up, down):  2.132E-03 0.000E+00
 
     Adding external electric field

     Computed dipole along edir(3) : 
        Dipole               -0.7371 Ry au,         -1.8736 Debye
        Dipole field         -0.0014 Ry au, 
 
        Potential amp.        0.1290 Ry
        Total length         46.3494 bohr
 

     total cpu time spent up to now is      722.4 secs

     total energy              =   -3005.83057833 Ry
     estimated scf accuracy    <      37.73867861 Ry

     iteration # 26     ecut=    29.40 Ry     beta= 0.05
     Davidson diagonalization with overlap
     ethr =  1.06E-03,  avg # of iterations =  5.4

     negative rho (up, down):  5.635E-04 0.000E+00
 
     Adding external electric field

     Computed dipole along edir(3) : 
        Dipole               -0.4281 Ry au,         -1.0882 Debye
        Dipole field         -0.0008 Ry au, 
 
        Potential amp.        0.0749 Ry
        Total length         46.3494 bohr
 

     total cpu time spent up to now is      737.5 secs

     total energy              =   -3004.41451233 Ry
     estimated scf accuracy    <     150.51991264 Ry

     iteration # 27     ecut=    29.40 Ry     beta= 0.05
     Davidson diagonalization with overlap
     ethr =  1.06E-03,  avg # of iterations =  1.0

     negative rho (up, down):  2.016E-02 0.000E+00
 
     Adding external electric field

     Computed dipole along edir(3) : 
        Dipole                0.7067 Ry au,          1.7961 Debye
        Dipole field          0.0013 Ry au, 
 
        Potential amp.       -0.1236 Ry
        Total length         46.3494 bohr
 

     total cpu time spent up to now is      750.5 secs

     total energy              =   -3005.43252013 Ry
     estimated scf accuracy    <       2.96061649 Ry

     iteration # 28     ecut=    29.40 Ry     beta= 0.05
     Davidson diagonalization with overlap
     ethr =  7.26E-04,  avg # of iterations =  2.0

     negative rho (up, down):  3.660E-02 0.000E+00
 
     Adding external electric field

     Computed dipole along edir(3) : 
        Dipole                1.0487 Ry au,          2.6655 Debye
        Dipole field          0.0020 Ry au, 
 
        Potential amp.       -0.1834 Ry
        Total length         46.3494 bohr
 

     total cpu time spent up to now is      764.6 secs

     total energy              =   -3005.44817838 Ry
     estimated scf accuracy    <       7.06733566 Ry

     iteration # 29     ecut=    29.40 Ry     beta= 0.05
     Davidson diagonalization with overlap
     ethr =  7.26E-04,  avg # of iterations =  1.0

     negative rho (up, down):  6.771E-02 0.000E+00
 
     Adding external electric field

     Computed dipole along edir(3) : 
        Dipole                1.1917 Ry au,          3.0290 Debye
        Dipole field          0.0022 Ry au, 
 
        Potential amp.       -0.2085 Ry
        Total length         46.3494 bohr
 

     total cpu time spent up to now is      777.5 secs

     total energy              =   -3005.32698129 Ry
     estimated scf accuracy    <       4.36244549 Ry

     iteration # 30     ecut=    29.40 Ry     beta= 0.05
     Davidson diagonalization with overlap
     ethr =  7.26E-04,  avg # of iterations =  1.2

     negative rho (up, down):  1.009E-01 0.000E+00
 
     Adding external electric field

     Computed dipole along edir(3) : 
        Dipole                0.8408 Ry au,          2.1371 Debye
        Dipole field          0.0016 Ry au, 
 
        Potential amp.       -0.1471 Ry
        Total length         46.3494 bohr
 

     total cpu time spent up to now is      790.6 secs

     total energy              =   -3005.28949692 Ry
     estimated scf accuracy    <       1.37887089 Ry

     iteration # 31     ecut=    29.40 Ry     beta= 0.05
     Davidson diagonalization with overlap
     c_bands:  1 eigenvalues not converged
     c_bands:  1 eigenvalues not converged
     c_bands:  2 eigenvalues not converged
     c_bands:  3 eigenvalues not converged
     ethr =  3.38E-04,  avg # of iterations = 12.3

     negative rho (up, down):  1.454E-01 0.000E+00
 
     Adding external electric field

     Computed dipole along edir(3) : 
        Dipole                0.5437 Ry au,          1.3820 Debye
        Dipole field          0.0010 Ry au, 
 
        Potential amp.       -0.0951 Ry
        Total length         46.3494 bohr
 

     total cpu time spent up to now is      808.7 secs

     total energy              =   -3005.32567458 Ry
     estimated scf accuracy    <       0.70308483 Ry

     iteration # 32     ecut=    29.40 Ry     beta= 0.05
     Davidson diagonalization with overlap
     c_bands:  1 eigenvalues not converged
     c_bands:  1 eigenvalues not converged
     c_bands:  1 eigenvalues not converged
     c_bands:  2 eigenvalues not converged
     ethr =  1.72E-04,  avg # of iterations = 16.7

     negative rho (up, down):  7.000E-02 0.000E+00
 
     Adding external electric field

     Computed dipole along edir(3) : 
        Dipole                0.1432 Ry au,          0.3640 Debye
        Dipole field          0.0003 Ry au, 
 
        Potential amp.       -0.0251 Ry
        Total length         46.3494 bohr
 

     total cpu time spent up to now is      831.2 secs

     total energy              =   -3005.28171952 Ry
     estimated scf accuracy    <       0.81917351 Ry

     iteration # 33     ecut=    29.40 Ry     beta= 0.05
     Davidson diagonalization with overlap
     ethr =  1.72E-04,  avg # of iterations =  3.0

     negative rho (up, down):  4.047E-02 0.000E+00
 
     Adding external electric field

     Computed dipole along edir(3) : 
        Dipole               -0.4171 Ry au,         -1.0600 Debye
        Dipole field         -0.0008 Ry au, 
 
        Potential amp.        0.0730 Ry
        Total length         46.3494 bohr
 

     total cpu time spent up to now is      845.7 secs

     total energy              =   -3005.29384051 Ry
     estimated scf accuracy    <       0.42871861 Ry

     iteration # 34     ecut=    29.40 Ry     beta= 0.05
     Davidson diagonalization with overlap
     c_bands:  1 eigenvalues not converged
     ethr =  1.05E-04,  avg # of iterations =  9.4

     negative rho (up, down):  4.800E-02 0.000E+00
 
     Adding external electric field

     Computed dipole along edir(3) : 
        Dipole               -0.1868 Ry au,         -0.4749 Debye
        Dipole field         -0.0004 Ry au, 
 
        Potential amp.        0.0327 Ry
        Total length         46.3494 bohr
 

     total cpu time spent up to now is      863.6 secs

     total energy              =   -3005.31909344 Ry
     estimated scf accuracy    <       0.37909259 Ry

     iteration # 35     ecut=    29.40 Ry     beta= 0.05
     Davidson diagonalization with overlap
     ethr =  9.29E-05,  avg # of iterations =  1.1

     negative rho (up, down):  5.408E-02 0.000E+00
 
     Adding external electric field

     Computed dipole along edir(3) : 
        Dipole                0.2605 Ry au,          0.6621 Debye
        Dipole field          0.0005 Ry au, 
 
        Potential amp.       -0.0456 Ry
        Total length         46.3494 bohr
 

     total cpu time spent up to now is      876.6 secs

     total energy              =   -3005.30028557 Ry
     estimated scf accuracy    <       0.30686832 Ry

     iteration # 36     ecut=    29.40 Ry     beta= 0.05
     Davidson diagonalization with overlap
     ethr =  7.52E-05,  avg # of iterations =  1.1

     negative rho (up, down):  3.798E-02 0.000E+00
 
     Adding external electric field

     Computed dipole along edir(3) : 
        Dipole                0.5692 Ry au,          1.4466 Debye
        Dipole field          0.0011 Ry au, 
 
        Potential amp.       -0.0996 Ry
        Total length         46.3494 bohr
 

     total cpu time spent up to now is      889.6 secs

     total energy              =   -3005.28864123 Ry
     estimated scf accuracy    <       0.16975826 Ry

     iteration # 37     ecut=    29.40 Ry     beta= 0.05
     Davidson diagonalization with overlap
     c_bands:  1 eigenvalues not converged
     ethr =  4.16E-05,  avg # of iterations =  9.4

     negative rho (up, down):  2.580E-02 0.000E+00
 
     Adding external electric field

     Computed dipole along edir(3) : 
        Dipole                0.4854 Ry au,          1.2339 Debye
        Dipole field          0.0009 Ry au, 
 
        Potential amp.       -0.0849 Ry
        Total length         46.3494 bohr
 

     total cpu time spent up to now is      906.0 secs

     total energy              =   -3005.28376248 Ry
     estimated scf accuracy    <       0.09822328 Ry

     iteration # 38     ecut=    29.40 Ry     beta= 0.05
     Davidson diagonalization with overlap
     c_bands:  1 eigenvalues not converged
     c_bands:  2 eigenvalues not converged
     c_bands:  3 eigenvalues not converged
     c_bands:  1 eigenvalues not converged
     ethr =  2.41E-05,  avg # of iterations = 15.4

     negative rho (up, down):  2.149E-02 0.000E+00
 
     Adding external electric field

     Computed dipole along edir(3) : 
        Dipole                0.2450 Ry au,          0.6228 Debye
        Dipole field          0.0005 Ry au, 
 
        Potential amp.       -0.0429 Ry
        Total length         46.3494 bohr
 

     total cpu time spent up to now is      926.1 secs

     total energy              =   -3005.28946734 Ry
     estimated scf accuracy    <       0.04486105 Ry

     iteration # 39     ecut=    29.40 Ry     beta= 0.05
     Davidson diagonalization with overlap
     c_bands:  2 eigenvalues not converged
     c_bands:  3 eigenvalues not converged
     c_bands:  1 eigenvalues not converged
     c_bands:  1 eigenvalues not converged
     c_bands:  1 eigenvalues not converged
     c_bands:  1 eigenvalues not converged
     c_bands:  2 eigenvalues not converged
     ethr =  1.10E-05,  avg # of iterations = 18.0

     negative rho (up, down):  1.790E-02 0.000E+00
 
     Adding external electric field

     Computed dipole along edir(3) : 
        Dipole                0.1608 Ry au,          0.4087 Debye
        Dipole field          0.0003 Ry au, 
 
        Potential amp.       -0.0281 Ry
        Total length         46.3494 bohr
 

     total cpu time spent up to now is      949.8 secs

     total energy              =   -3005.29121446 Ry
     estimated scf accuracy    <       0.03727305 Ry

     iteration # 40     ecut=    29.40 Ry     beta= 0.05
     Davidson diagonalization with overlap
     c_bands:  1 eigenvalues not converged
     ethr =  9.14E-06,  avg # of iterations =  6.8

     negative rho (up, down):  8.478E-03 0.000E+00
 
     Adding external electric field

     Computed dipole along edir(3) : 
        Dipole                0.5163 Ry au,          1.3124 Debye
        Dipole field          0.0010 Ry au, 
 
        Potential amp.       -0.0903 Ry
        Total length         46.3494 bohr
 

     total cpu time spent up to now is      965.3 secs

     total energy              =   -3005.28277966 Ry
     estimated scf accuracy    <       0.03027486 Ry

     iteration # 41     ecut=    29.40 Ry     beta= 0.05
     Davidson diagonalization with overlap
     c_bands:  5 eigenvalues not converged
     c_bands:  3 eigenvalues not converged
     c_bands:  3 eigenvalues not converged
     c_bands:  2 eigenvalues not converged
     c_bands:  1 eigenvalues not converged
     c_bands:  2 eigenvalues not converged
     c_bands:  1 eigenvalues not converged
     ethr =  7.42E-06,  avg # of iterations = 18.5

     negative rho (up, down):  8.935E-03 0.000E+00
 
     Adding external electric field

     Computed dipole along edir(3) : 
        Dipole                0.5513 Ry au,          1.4013 Debye
        Dipole field          0.0010 Ry au, 
 
        Potential amp.       -0.0964 Ry
        Total length         46.3494 bohr
 

     total cpu time spent up to now is      993.8 secs

     total energy              =   -3005.28742575 Ry
     estimated scf accuracy    <       0.00895387 Ry

     iteration # 42     ecut=    29.40 Ry     beta= 0.05
     Davidson diagonalization with overlap
     c_bands:  2 eigenvalues not converged
     c_bands:  1 eigenvalues not converged
     c_bands:  2 eigenvalues not converged
     c_bands:  1 eigenvalues not converged
     c_bands:  2 eigenvalues not converged
     c_bands:  1 eigenvalues not converged
     c_bands:  1 eigenvalues not converged
     ethr =  2.19E-06,  avg # of iterations = 17.0

     negative rho (up, down):  1.248E-02 0.000E+00
 
     Adding external electric field

     Computed dipole along edir(3) : 
        Dipole                0.4681 Ry au,          1.1897 Debye
        Dipole field          0.0009 Ry au, 
 
        Potential amp.       -0.0819 Ry
        Total length         46.3494 bohr
 

     total cpu time spent up to now is     1014.7 secs

     total energy              =   -3005.28729647 Ry
     estimated scf accuracy    <       0.00745266 Ry

     iteration # 43     ecut=    29.40 Ry     beta= 0.05
     Davidson diagonalization with overlap
     c_bands:  1 eigenvalues not converged
     c_bands:  1 eigenvalues not converged
     c_bands:  2 eigenvalues not converged
     c_bands:  1 eigenvalues not converged
     c_bands:  1 eigenvalues not converged
     c_bands:  2 eigenvalues not converged
     c_bands:  2 eigenvalues not converged
     ethr =  1.83E-06,  avg # of iterations = 18.7

     negative rho (up, down):  1.064E-02 0.000E+00
 
     Adding external electric field

     Computed dipole along edir(3) : 
        Dipole                0.5813 Ry au,          1.4776 Debye
        Dipole field          0.0011 Ry au, 
 
        Potential amp.       -0.1017 Ry
        Total length         46.3494 bohr
 

     total cpu time spent up to now is     1041.8 secs

     total energy              =   -3005.28763291 Ry
     estimated scf accuracy    <       0.00413239 Ry

     iteration # 44     ecut=    29.40 Ry     beta= 0.05
     Davidson diagonalization with overlap
     c_bands:  2 eigenvalues not converged
     c_bands:  2 eigenvalues not converged
     c_bands:  2 eigenvalues not converged
     c_bands:  1 eigenvalues not converged
     c_bands:  2 eigenvalues not converged
     c_bands:  2 eigenvalues not converged
     c_bands:  1 eigenvalues not converged
     c_bands:  3 eigenvalues not converged
     ethr =  1.01E-06,  avg # of iterations = 19.2

     negative rho (up, down):  1.040E-02 0.000E+00
 
     Adding external electric field

     Computed dipole along edir(3) : 
        Dipole                0.5465 Ry au,          1.3891 Debye
        Dipole field          0.0010 Ry au, 
 
        Potential amp.       -0.0956 Ry
        Total length         46.3494 bohr
 

     total cpu time spent up to now is     1071.8 secs

     total energy              =   -3005.28839659 Ry
     estimated scf accuracy    <       0.00184648 Ry

     iteration # 45     ecut=    29.40 Ry     beta= 0.05
     Davidson diagonalization with overlap
     ethr =  4.53E-07,  avg # of iterations =  7.1

     negative rho (up, down):  1.044E-02 0.000E+00
 
     Adding external electric field

     Computed dipole along edir(3) : 
        Dipole                0.5007 Ry au,          1.2726 Debye
        Dipole field          0.0009 Ry au, 
 
        Potential amp.       -0.0876 Ry
        Total length         46.3494 bohr
 

     total cpu time spent up to now is     1087.2 secs

     total energy              =   -3005.28826835 Ry
     estimated scf accuracy    <       0.00144373 Ry

     iteration # 46     ecut=    29.40 Ry     beta= 0.05
     Davidson diagonalization with overlap
     c_bands:  2 eigenvalues not converged
     c_bands:  1 eigenvalues not converged
     ethr =  3.54E-07,  avg # of iterations = 15.9

     negative rho (up, down):  1.144E-02 0.000E+00
 
     Adding external electric field

     Computed dipole along edir(3) : 
        Dipole                0.5300 Ry au,          1.3470 Debye
        Dipole field          0.0010 Ry au, 
 
        Potential amp.       -0.0927 Ry
        Total length         46.3494 bohr
 

     total cpu time spent up to now is     1110.3 secs

     total energy              =   -3005.28863857 Ry
     estimated scf accuracy    <       0.00066130 Ry

     iteration # 47     ecut=    29.40 Ry     beta= 0.05
     Davidson diagonalization with overlap
     ethr =  1.62E-07,  avg # of iterations =  5.3

     negative rho (up, down):  1.181E-02 0.000E+00
 
     Adding external electric field

     Computed dipole along edir(3) : 
        Dipole                0.4953 Ry au,          1.2590 Debye
        Dipole field          0.0009 Ry au, 
 
        Potential amp.       -0.0866 Ry
        Total length         46.3494 bohr
 

     total cpu time spent up to now is     1127.7 secs

     total energy              =   -3005.28873250 Ry
     estimated scf accuracy    <       0.00023049 Ry

     iteration # 48     ecut=    29.40 Ry     beta= 0.05
     Davidson diagonalization with overlap
     ethr =  5.65E-08,  avg # of iterations =  5.0

     negative rho (up, down):  1.168E-02 0.000E+00
 
     Adding external electric field

     Computed dipole along edir(3) : 
        Dipole                0.5100 Ry au,          1.2962 Debye
        Dipole field          0.0010 Ry au, 
 
        Potential amp.       -0.0892 Ry
        Total length         46.3494 bohr
 

     total cpu time spent up to now is     1149.2 secs

     total energy              =   -3005.28880297 Ry
     estimated scf accuracy    <       0.00041643 Ry

     iteration # 49     ecut=    29.40 Ry     beta= 0.05
     Davidson diagonalization with overlap
     ethr =  5.65E-08,  avg # of iterations =  1.0

     negative rho (up, down):  1.165E-02 0.000E+00
 
     Adding external electric field

     Computed dipole along edir(3) : 
        Dipole                0.5448 Ry au,          1.3847 Debye
        Dipole field          0.0010 Ry au, 
 
        Potential amp.       -0.0953 Ry
        Total length         46.3494 bohr
 

     total cpu time spent up to now is     1162.1 secs

     total energy              =   -3005.28877472 Ry
     estimated scf accuracy    <       0.00030325 Ry

     iteration # 50     ecut=    29.40 Ry     beta= 0.05
     Davidson diagonalization with overlap
     ethr =  5.65E-08,  avg # of iterations =  4.7

     negative rho (up, down):  1.199E-02 0.000E+00
 
     Adding external electric field

     Computed dipole along edir(3) : 
        Dipole                0.5236 Ry au,          1.3308 Debye
        Dipole field          0.0010 Ry au, 
 
        Potential amp.       -0.0916 Ry
        Total length         46.3494 bohr
 

     total cpu time spent up to now is     1180.5 secs

     total energy              =   -3005.28883640 Ry
     estimated scf accuracy    <       0.00014338 Ry

     iteration # 51     ecut=    29.40 Ry     beta= 0.05
     Davidson diagonalization with overlap
     ethr =  3.51E-08,  avg # of iterations =  4.7

     negative rho (up, down):  1.185E-02 0.000E+00
 
     Adding external electric field

     Computed dipole along edir(3) : 
        Dipole                0.5217 Ry au,          1.3259 Debye
        Dipole field          0.0010 Ry au, 
 
        Potential amp.       -0.0913 Ry
        Total length         46.3494 bohr
 

     total cpu time spent up to now is     1198.4 secs

     total energy              =   -3005.28887469 Ry
     estimated scf accuracy    <       0.00012642 Ry

     iteration # 52     ecut=    29.40 Ry     beta= 0.05
     Davidson diagonalization with overlap
     ethr =  3.10E-08,  avg # of iterations =  3.9

     negative rho (up, down):  1.174E-02 0.000E+00
 
     Adding external electric field

     Computed dipole along edir(3) : 
        Dipole                0.5335 Ry au,          1.3559 Debye
        Dipole field          0.0010 Ry au, 
 
        Potential amp.       -0.0933 Ry
        Total length         46.3494 bohr
 

     total cpu time spent up to now is     1215.3 secs

     total energy              =   -3005.28888261 Ry
     estimated scf accuracy    <       0.00012608 Ry

     iteration # 53     ecut=    29.40 Ry     beta= 0.05
     Davidson diagonalization with overlap
     ethr =  3.09E-08,  avg # of iterations =  4.2

     negative rho (up, down):  1.184E-02 0.000E+00
 
     Adding external electric field

     Computed dipole along edir(3) : 
        Dipole                0.5336 Ry au,          1.3562 Debye
        Dipole field          0.0010 Ry au, 
 
        Potential amp.       -0.0933 Ry
        Total length         46.3494 bohr
 

     total cpu time spent up to now is     1231.9 secs

     total energy              =   -3005.28891521 Ry
     estimated scf accuracy    <       0.00004540 Ry

     iteration # 54     ecut=    29.40 Ry     beta= 0.05
     Davidson diagonalization with overlap
     ethr =  1.11E-08,  avg # of iterations =  3.3

     negative rho (up, down):  1.191E-02 0.000E+00
 
     Adding external electric field

     Computed dipole along edir(3) : 
        Dipole                0.5350 Ry au,          1.3598 Debye
        Dipole field          0.0010 Ry au, 
 
        Potential amp.       -0.0936 Ry
        Total length         46.3494 bohr
 

     total cpu time spent up to now is     1246.3 secs

     total energy              =   -3005.28893102 Ry
     estimated scf accuracy    <       0.00003967 Ry

     iteration # 55     ecut=    29.40 Ry     beta= 0.05
     Davidson diagonalization with overlap
     ethr =  9.72E-09,  avg # of iterations =  2.0

     negative rho (up, down):  1.165E-02 0.000E+00
 
     Adding external electric field

     Computed dipole along edir(3) : 
        Dipole                0.5448 Ry au,          1.3847 Debye
        Dipole field          0.0010 Ry au, 
 
        Potential amp.       -0.0953 Ry
        Total length         46.3494 bohr
 

     total cpu time spent up to now is     1260.5 secs

     total energy              =   -3005.28894266 Ry
     estimated scf accuracy    <       0.00003165 Ry

     iteration # 56     ecut=    29.40 Ry     beta= 0.05
     Davidson diagonalization with overlap
     ethr =  7.76E-09,  avg # of iterations =  5.1

     negative rho (up, down):  1.163E-02 0.000E+00
 
     Adding external electric field

     Computed dipole along edir(3) : 
        Dipole                0.5384 Ry au,          1.3685 Debye
        Dipole field          0.0010 Ry au, 
 
        Potential amp.       -0.0942 Ry
        Total length         46.3494 bohr
 

     total cpu time spent up to now is     1279.9 secs

     total energy              =   -3005.28895497 Ry
     estimated scf accuracy    <       0.00004264 Ry

     iteration # 57     ecut=    29.40 Ry     beta= 0.05
     Davidson diagonalization with overlap
     ethr =  7.76E-09,  avg # of iterations =  3.2

     negative rho (up, down):  1.164E-02 0.000E+00
 
     Adding external electric field

     Computed dipole along edir(3) : 
        Dipole                0.5353 Ry au,          1.3606 Debye
        Dipole field          0.0010 Ry au, 
 
        Potential amp.       -0.0936 Ry
        Total length         46.3494 bohr
 

     total cpu time spent up to now is     1295.2 secs

     total energy              =   -3005.28896611 Ry
     estimated scf accuracy    <       0.00001524 Ry

     iteration # 58     ecut=    29.40 Ry     beta= 0.05
     Davidson diagonalization with overlap
     ethr =  3.73E-09,  avg # of iterations =  4.6

     negative rho (up, down):  1.156E-02 0.000E+00
 
     Adding external electric field

     Computed dipole along edir(3) : 
        Dipole                0.5393 Ry au,          1.3708 Debye
        Dipole field          0.0010 Ry au, 
 
        Potential amp.       -0.0943 Ry
        Total length         46.3494 bohr
 

     total cpu time spent up to now is     1316.7 secs

     total energy              =   -3005.28897880 Ry
     estimated scf accuracy    <       0.00001523 Ry

     iteration # 59     ecut=    29.40 Ry     beta= 0.05
     Davidson diagonalization with overlap
     ethr =  3.73E-09,  avg # of iterations =  4.0

     negative rho (up, down):  1.149E-02 0.000E+00
 
     Adding external electric field

     Computed dipole along edir(3) : 
        Dipole                0.5350 Ry au,          1.3597 Debye
        Dipole field          0.0010 Ry au, 
 
        Potential amp.       -0.0936 Ry
        Total length         46.3494 bohr
 

     total cpu time spent up to now is     1333.4 secs

     total energy              =   -3005.28898980 Ry
     estimated scf accuracy    <       0.00000454 Ry

     iteration # 60     ecut=    29.40 Ry     beta= 0.05
     Davidson diagonalization with overlap
     ethr =  1.11E-09,  avg # of iterations =  5.0

     negative rho (up, down):  1.144E-02 0.000E+00
 
     Adding external electric field

     Computed dipole along edir(3) : 
        Dipole                0.5360 Ry au,          1.3623 Debye
        Dipole field          0.0010 Ry au, 
 
        Potential amp.       -0.0938 Ry
        Total length         46.3494 bohr
 

     total cpu time spent up to now is     1351.5 secs

     total energy              =   -3005.28899928 Ry
     estimated scf accuracy    <       0.00000238 Ry

     iteration # 61     ecut=    29.40 Ry     beta= 0.05
     Davidson diagonalization with overlap
     ethr =  5.82E-10,  avg # of iterations =  2.6

     negative rho (up, down):  1.142E-02 0.000E+00
 
     Adding external electric field

     Computed dipole along edir(3) : 
        Dipole                0.5359 Ry au,          1.3621 Debye
        Dipole field          0.0010 Ry au, 
 
        Potential amp.       -0.0937 Ry
        Total length         46.3494 bohr
 

     total cpu time spent up to now is     1366.1 secs

     total energy              =   -3005.28900743 Ry
     estimated scf accuracy    <       0.00000132 Ry

     iteration # 62     ecut=    29.40 Ry     beta= 0.05
     Davidson diagonalization with overlap
     ethr =  3.23E-10,  avg # of iterations =  7.2

     negative rho (up, down):  1.142E-02 0.000E+00
 
     Adding external electric field

     Computed dipole along edir(3) : 
        Dipole                0.5345 Ry au,          1.3586 Debye
        Dipole field          0.0010 Ry au, 
 
        Potential amp.       -0.0935 Ry
        Total length         46.3494 bohr
 

     total cpu time spent up to now is     1388.7 secs

     total energy              =   -3005.28901453 Ry
     estimated scf accuracy    <       0.00000253 Ry

     iteration # 63     ecut=    29.40 Ry     beta= 0.05
     Davidson diagonalization with overlap
     ethr =  3.23E-10,  avg # of iterations =  5.9

     negative rho (up, down):  1.140E-02 0.000E+00
 
     Adding external electric field

     Computed dipole along edir(3) : 
        Dipole                0.5343 Ry au,          1.3581 Debye
        Dipole field          0.0010 Ry au, 
 
        Potential amp.       -0.0935 Ry
        Total length         46.3494 bohr
 

     total cpu time spent up to now is     1406.7 secs

     total energy              =   -3005.28902131 Ry
     estimated scf accuracy    <       0.00000065 Ry

     iteration # 64     ecut=    29.40 Ry     beta= 0.05
     Davidson diagonalization with overlap
     ethr =  1.58E-10,  avg # of iterations =  2.0

     negative rho (up, down):  1.136E-02 0.000E+00
 
     Adding external electric field

     Computed dipole along edir(3) : 
        Dipole                0.5345 Ry au,          1.3587 Debye
        Dipole field          0.0010 Ry au, 
 
        Potential amp.       -0.0935 Ry
        Total length         46.3494 bohr
 

     total cpu time spent up to now is     1420.7 secs

     total energy              =   -3005.28902735 Ry
     estimated scf accuracy    <       0.00000040 Ry

     iteration # 65     ecut=    29.40 Ry     beta= 0.05
     Davidson diagonalization with overlap
     ethr =  9.69E-11,  avg # of iterations =  5.0

     negative rho (up, down):  1.136E-02 0.000E+00
 
     Adding external electric field

     Computed dipole along edir(3) : 
        Dipole                0.5345 Ry au,          1.3585 Debye
        Dipole field          0.0010 Ry au, 
 
        Potential amp.       -0.0935 Ry
        Total length         46.3494 bohr
 

     total cpu time spent up to now is     1440.6 secs

     total energy              =   -3005.28903269 Ry
     estimated scf accuracy    <       0.00000030 Ry

     iteration # 66     ecut=    29.40 Ry     beta= 0.05
     Davidson diagonalization with overlap
     ethr =  7.45E-11,  avg # of iterations =  1.0

     negative rho (up, down):  1.138E-02 0.000E+00
 
     Adding external electric field

     Computed dipole along edir(3) : 
        Dipole                0.5341 Ry au,          1.3576 Debye
        Dipole field          0.0010 Ry au, 
 
        Potential amp.       -0.0934 Ry
        Total length         46.3494 bohr
 

     total cpu time spent up to now is     1453.4 secs

     total energy              =   -3005.28903735 Ry
     estimated scf accuracy    <       0.00000030 Ry

     iteration # 67     ecut=    29.40 Ry     beta= 0.05
     Davidson diagonalization with overlap
     ethr =  7.40E-11,  avg # of iterations =  1.0

     negative rho (up, down):  1.136E-02 0.000E+00
 
     Adding external electric field

     Computed dipole along edir(3) : 
        Dipole                0.5348 Ry au,          1.3592 Debye
        Dipole field          0.0010 Ry au, 
 
        Potential amp.       -0.0935 Ry
        Total length         46.3494 bohr
 

     total cpu time spent up to now is     1466.4 secs

     total energy              =   -3005.28904174 Ry
     estimated scf accuracy    <       0.00000026 Ry

     iteration # 68     ecut=    29.40 Ry     beta= 0.05
     Davidson diagonalization with overlap
     ethr =  6.38E-11,  avg # of iterations =  5.0

     negative rho (up, down):  1.136E-02 0.000E+00
 
     Adding external electric field

     Computed dipole along edir(3) : 
        Dipole                0.5345 Ry au,          1.3586 Debye
        Dipole field          0.0010 Ry au, 
 
        Potential amp.       -0.0935 Ry
        Total length         46.3494 bohr
 

     total cpu time spent up to now is     1482.0 secs

     total energy              =   -3005.28904559 Ry
     estimated scf accuracy    <       0.00000049 Ry

     iteration # 69     ecut=    29.40 Ry     beta= 0.05
     Davidson diagonalization with overlap
     ethr =  6.38E-11,  avg # of iterations =  1.0

     negative rho (up, down):  1.135E-02 0.000E+00
 
     Adding external electric field

     Computed dipole along edir(3) : 
        Dipole                0.5338 Ry au,          1.3568 Debye
        Dipole field          0.0010 Ry au, 
 
        Potential amp.       -0.0934 Ry
        Total length         46.3494 bohr
 

     total cpu time spent up to now is     1494.9 secs

     total energy              =   -3005.28904899 Ry
     estimated scf accuracy    <       0.00000045 Ry

     iteration # 70     ecut=    29.40 Ry     beta= 0.05
     Davidson diagonalization with overlap
     ethr =  6.38E-11,  avg # of iterations =  5.5

     negative rho (up, down):  1.136E-02 0.000E+00
 
     Adding external electric field

     Computed dipole along edir(3) : 
        Dipole                0.5337 Ry au,          1.3566 Debye
        Dipole field          0.0010 Ry au, 
 
        Potential amp.       -0.0934 Ry
        Total length         46.3494 bohr
 

     total cpu time spent up to now is     1512.6 secs

     total energy              =   -3005.28905214 Ry
     estimated scf accuracy    <       0.00000020 Ry

     iteration # 71     ecut=    29.40 Ry     beta= 0.05
     Davidson diagonalization with overlap
     ethr =  4.89E-11,  avg # of iterations =  2.7

     negative rho (up, down):  1.135E-02 0.000E+00
 
     Adding external electric field

     Computed dipole along edir(3) : 
        Dipole                0.5329 Ry au,          1.3546 Debye
        Dipole field          0.0010 Ry au, 
 
        Potential amp.       -0.0932 Ry
        Total length         46.3494 bohr
 

     total cpu time spent up to now is     1527.2 secs

     total energy              =   -3005.28905504 Ry
     estimated scf accuracy    <       0.00000010 Ry

     iteration # 72     ecut=    29.40 Ry     beta= 0.05
     Davidson diagonalization with overlap
     ethr =  2.50E-11,  avg # of iterations =  7.2

     negative rho (up, down):  1.135E-02 0.000E+00
 
     Adding external electric field

     Computed dipole along edir(3) : 
        Dipole                0.5336 Ry au,          1.3562 Debye
        Dipole field          0.0010 Ry au, 
 
        Potential amp.       -0.0933 Ry
        Total length         46.3494 bohr
 

     total cpu time spent up to now is     1549.3 secs

     total energy              =   -3005.28905760 Ry
     estimated scf accuracy    <       0.00000018 Ry

     iteration # 73     ecut=    29.40 Ry     beta= 0.05
     Davidson diagonalization with overlap
     ethr =  2.50E-11,  avg # of iterations =  5.0

     negative rho (up, down):  1.141E-02 0.000E+00
 
     Adding external electric field

     Computed dipole along edir(3) : 
        Dipole                0.5328 Ry au,          1.3542 Debye
        Dipole field          0.0010 Ry au, 
 
        Potential amp.       -0.0932 Ry
        Total length         46.3494 bohr
 

     total cpu time spent up to now is     1566.8 secs

     End of self-consistent calculation

          k = 0.0000 0.0000 0.0000 ( 18029 PWs)   bands (ev):

   -56.1419 -56.0944 -55.5847 -55.5640 -55.5462 -55.5268 -55.4926 -55.4696
   -55.4358 -55.4067 -55.3750 -55.3332 -55.3319 -55.1954 -54.7548 -54.7209
   -32.5549 -32.4061 -32.3557 -32.3215 -32.2268 -32.1813 -32.0857 -32.0313
   -32.0233 -31.9128 -31.8725 -31.8539 -31.8463 -31.8267 -31.8257 -31.7863
   -31.7821 -31.7676 -31.7508 -31.7439 -31.7383 -31.6973 -31.6879 -31.6742
   -31.6710 -31.6539 -31.6508 -31.6396 -31.6331 -31.6232 -31.6171 -31.5971
   -31.5845 -31.5784 -31.5705 -31.5381 -31.5290 -31.5261 -31.4958 -31.4500
   -31.4122 -31.4006 -31.1493 -31.0949 -31.0706 -30.9661 -30.8812 -30.7704
   -20.8333 -17.3816 -16.3462 -16.2978 -16.1572 -15.9205 -15.7755 -15.6990
   -15.4694 -15.4591 -15.3434 -15.3373 -15.3030 -15.1715 -15.1552 -15.1464
   -15.0924 -15.0805 -15.0575 -15.0528 -15.0518 -15.0428 -14.9858 -14.9667
   -14.9271 -14.8680 -14.7916 -14.7693 -14.7223 -14.7102 -14.6700 -14.4438
   -13.2563 -13.1477  -9.0443  -5.9942  -4.1061  -3.9899  -3.9583  -3.9188
    -3.8254  -3.7669  -3.6004  -3.5016  -3.4674  -3.3927  -3.3037  -3.1978
    -2.9838  -2.8325  -2.7694  -2.7302  -2.6943  -2.6882  -2.6471  -2.5856
    -2.5306  -2.4884  -2.4540  -2.4212  -2.3602  -2.3467  -2.3316  -2.3013
    -2.2825  -2.2612  -2.2272  -2.2168  -2.0809  -2.0452  -2.0140  -2.0048
    -1.9510  -1.9308  -1.9118  -1.9024  -1.8590  -1.7614  -1.6647  -1.6496
    -1.6053  -1.4174  -1.3453  -1.2960  -1.2201  -1.1553  -1.0746  -1.0558
    -1.0447  -0.9915  -0.9542  -0.8504  -0.8189  -0.7783  -0.7114  -0.7043
    -0.6679  -0.6005  -0.5763  -0.5195  -0.4921  -0.4605  -0.3184  -0.2819
    -0.2648  -0.2055  -0.2044  -0.1087  -0.0469   0.0025   0.0189   0.0744
     0.1155   0.1379   0.1864   0.2181   0.2332   0.3153   0.3643   0.3709
     0.4110   0.4454   0.4655   0.5044   0.5853   0.6357   0.6588   0.6870
     0.8281   0.8463   0.8971   1.0030   1.0262   1.1973   1.2627   1.2984
     1.4851   1.5231   1.8144   1.8601   3.1581   3.3215   3.6007   3.7153
     3.7570   3.7970   3.8724   3.8991   4.0537   4.0781

          k = 0.0000 0.0419 0.0000 ( 17933 PWs)   bands (ev):

   -56.1387 -56.0975 -55.5836 -55.5618 -55.5454 -55.5240 -55.4947 -55.4723
   -55.4367 -55.4073 -55.3712 -55.3366 -55.3311 -55.1963 -54.7498 -54.7258
   -32.5019 -32.4038 -32.3573 -32.3091 -32.2391 -32.2368 -32.0397 -31.9777
   -31.9732 -31.8794 -31.8389 -31.8197 -31.8190 -31.8175 -31.8160 -31.7786
   -31.7736 -31.7618 -31.7432 -31.7424 -31.7408 -31.7129 -31.6971 -31.6952
   -31.6842 -31.6788 -31.6764 -31.6731 -31.6583 -31.6432 -31.6204 -31.6112
   -31.5963 -31.5796 -31.5769 -31.5514 -31.5448 -31.5283 -31.5276 -31.4726
   -31.4398 -31.4002 -31.0957 -31.0912 -31.0739 -30.9536 -30.8938 -30.8270
   -20.8332 -17.3647 -16.3318 -16.1715 -16.0419 -15.8155 -15.6772 -15.6144
   -15.4993 -15.4002 -15.3995 -15.3674 -15.2681 -15.2271 -15.1750 -15.1379
   -15.1116 -15.0937 -15.0882 -15.0822 -15.0419 -15.0248 -15.0068 -15.0006
   -14.9433 -14.8483 -14.8404 -14.8197 -14.7909 -14.7791 -14.7272 -14.5059
   -13.2640 -13.1891  -9.0445  -5.9938  -4.0633  -3.9822  -3.9616  -3.8954
    -3.7468  -3.6427  -3.4362  -3.4213  -3.3442  -3.2966  -3.1390  -3.0572
    -2.8007  -2.7438  -2.7345  -2.7163  -2.6895  -2.6631  -2.6212  -2.5806
    -2.5692  -2.5527  -2.5123  -2.4808  -2.4610  -2.4412  -2.3983  -2.3744
    -2.3613  -2.3518  -2.3066  -2.2513  -2.2368  -2.1870  -2.1585  -2.0911
    -2.0724  -1.9449  -1.8989  -1.8914  -1.8204  -1.7512  -1.6741  -1.5003
    -1.3589  -1.3266  -1.2855  -1.2570  -1.1781  -1.0364  -1.0248  -0.9759
    -0.8794  -0.8649  -0.8119  -0.8006  -0.7845  -0.7174  -0.6822  -0.6312
    -0.5982  -0.5795  -0.5177  -0.4926  -0.4632  -0.4063  -0.3852  -0.3498
    -0.3189  -0.2753  -0.2391  -0.2153  -0.1920  -0.1523  -0.0979  -0.0568
     0.0448   0.0592   0.1170   0.2000   0.2211   0.2420   0.2588   0.2646
     0.2961   0.3337   0.4128   0.4649   0.5531   0.5988   0.6324   0.6509
     0.6826   0.7875   0.7959   0.8449   0.9335   0.9481   1.1090   1.3685
     1.4746   1.5996   1.7592   1.7781   3.4218   3.4273   3.5992   3.8679
     3.8942   3.9240   3.9407   3.9903   4.0089   4.0273

          k = 0.0000-0.0839 0.0000 ( 17884 PWs)   bands (ev):

   -56.1349 -56.1012 -55.5826 -55.5594 -55.5447 -55.5208 -55.4970 -55.4754
   -55.4376 -55.4079 -55.3663 -55.3414 -55.3301 -55.1973 -54.7379 -54.7375
   -32.4015 -32.3849 -32.3595 -32.3563 -32.2884 -32.2598 -31.9743 -31.8931
   -31.8666 -31.8439 -31.8273 -31.8261 -31.8098 -31.7975 -31.7809 -31.7726
   -31.7609 -31.7581 -31.7553 -31.7432 -31.7331 -31.7295 -31.7206 -31.7153
   -31.7015 -31.6964 -31.6941 -31.6883 -31.6802 -31.6790 -31.6687 -31.6426
   -31.6058 -31.5966 -31.5786 -31.5689 -31.5559 -31.5487 -31.5269 -31.5153
   -31.4505 -31.3998 -31.0825 -31.0823 -30.9649 -30.9632 -30.9234 -30.9224
   -20.8332 -17.3478 -16.3238 -15.8475 -15.8434 -15.7860 -15.7185 -15.5520
   -15.5378 -15.4275 -15.3951 -15.3570 -15.3309 -15.2560 -15.2552 -15.1858
   -15.1591 -15.0914 -15.0566 -15.0324 -14.9965 -14.9863 -14.9612 -14.9548
   -14.9450 -14.9172 -14.9145 -14.9084 -14.8716 -14.8545 -14.7797 -14.6010
   -13.2523 -13.2511  -9.0447  -5.9933  -4.0317  -3.9742  -3.9656  -3.8572
    -3.7392  -3.4311  -3.1845  -3.1832  -3.0253  -2.9992  -2.9669  -2.9475
    -2.9416  -2.9319  -2.8062  -2.7949  -2.7273  -2.7229  -2.7114  -2.6857
    -2.6729  -2.6659  -2.6419  -2.5737  -2.5286  -2.5160  -2.4785  -2.4584
    -2.3967  -2.3363  -2.2848  -2.2479  -2.2198  -2.1827  -2.1574  -1.9797
    -1.9252  -1.7930  -1.7482  -1.6911  -1.5917  -1.5635  -1.5249  -1.4886
    -1.4380  -1.4269  -1.3618  -1.2011  -1.1633  -1.1193  -1.0935  -1.0595
    -1.0352  -1.0257  -0.9890  -0.9408  -0.8596  -0.8161  -0.6818  -0.6037
    -0.5269  -0.5116  -0.4370  -0.3677  -0.3345  -0.3226  -0.2911  -0.2565
    -0.2380  -0.2236  -0.1975  -0.1811  -0.1622  -0.1374  -0.1071  -0.1033
    -0.0457  -0.0102   0.0037   0.0666   0.1010   0.1115   0.1815   0.1899
     0.2337   0.2782   0.2997   0.3349   0.3695   0.4128   0.4752   0.5470
     0.5815   0.6536   0.7081   0.7742   0.9889   1.0097   1.1228   1.1817
     1.6192   1.6404   1.7006   1.7115   3.6265   3.6554   3.7580   3.7794
     3.8512   3.8696   3.9133   4.0009   4.1015   4.1342

          k = 0.0380 0.0000 0.0000 ( 17913 PWs)   bands (ev):

   -56.1418 -56.0943 -55.5846 -55.5637 -55.5462 -55.5267 -55.4926 -55.4695
   -55.4357 -55.4066 -55.3749 -55.3331 -55.3318 -55.1953 -54.7547 -54.7208
   -32.5555 -32.4059 -32.3555 -32.3196 -32.2264 -32.1810 -32.0858 -32.0315
   -32.0251 -31.9179 -31.8789 -31.8549 -31.8343 -31.8263 -31.8199 -31.7858
   -31.7817 -31.7674 -31.7441 -31.7416 -31.7346 -31.6966 -31.6873 -31.6737
   -31.6624 -31.6537 -31.6479 -31.6391 -31.6328 -31.6231 -31.6169 -31.6016
   -31.6008 -31.5783 -31.5705 -31.5380 -31.5327 -31.5260 -31.4956 -31.4499
   -31.4121 -31.4017 -31.1489 -31.0973 -31.0688 -30.9659 -30.8811 -30.7701
   -20.8333 -17.3793 -16.3342 -16.2033 -16.0684 -15.8408 -15.7515 -15.6779
   -15.6164 -15.5217 -15.3707 -15.3141 -15.2669 -15.2556 -15.2350 -15.2325
   -15.1636 -15.1586 -15.1243 -15.0652 -15.0194 -14.9611 -14.9095 -14.8826
   -14.8422 -14.8262 -14.7939 -14.7842 -14.7667 -14.7430 -14.7102 -14.4418
   -13.2536 -13.1473  -9.0440  -5.9953  -4.0929  -3.9764  -3.9579  -3.9144
    -3.7659  -3.5434  -3.5102  -3.4207  -3.3065  -3.2501  -3.1492  -3.1201
    -3.0197  -2.9695  -2.9391  -2.8421  -2.8231  -2.7497  -2.6890  -2.6728
    -2.5711  -2.4945  -2.3979  -2.3800  -2.3354  -2.2633  -2.2438  -2.2200
    -2.2112  -2.1885  -2.1265  -2.1041  -2.0550  -2.0379  -2.0090  -2.0028
    -1.9643  -1.9177  -1.8442  -1.7098  -1.6792  -1.6551  -1.5663  -1.5552
    -1.4995  -1.4181  -1.3879  -1.3516  -1.2347  -1.2258  -1.1073  -1.0925
    -1.0396  -1.0111  -0.9829  -0.9580  -0.9387  -0.8990  -0.8835  -0.7833
    -0.7277  -0.6790  -0.6634  -0.6131  -0.5024  -0.4018  -0.3735  -0.3309
    -0.2863  -0.2126  -0.1653  -0.0837  -0.0620  -0.0256   0.0327   0.0354
     0.0715   0.1102   0.1334   0.1639   0.1982   0.2362   0.2694   0.3084
     0.3314   0.4057   0.4585   0.5010   0.5330   0.6056   0.6219   0.6659
     0.7243   0.7539   0.8379   0.8513   0.9982   1.0995   1.2745   1.2919
     1.3719   1.4963   1.7063   1.7707   3.3028   3.3422   3.6119   3.7638
     3.7859   3.8358   3.9054   3.9294   3.9605   3.9990

          k = 0.0380 0.0419 0.0000 ( 17878 PWs)   bands (ev):

   -56.1386 -56.0975 -55.5836 -55.5616 -55.5455 -55.5239 -55.4947 -55.4722
   -55.4366 -55.4073 -55.3711 -55.3366 -55.3311 -55.1963 -54.7497 -54.7257
   -32.5025 -32.4037 -32.3573 -32.3076 -32.2387 -32.2367 -32.0399 -31.9783
   -31.9746 -31.8840 -31.8292 -31.8271 -31.8215 -31.8172 -31.8117 -31.7782
   -31.7727 -31.7622 -31.7423 -31.7413 -31.7285 -31.7139 -31.6971 -31.6951
   -31.6835 -31.6771 -31.6732 -31.6658 -31.6551 -31.6431 -31.6202 -31.6115
   -31.6002 -31.5955 -31.5770 -31.5495 -31.5474 -31.5313 -31.5278 -31.4724
   -31.4397 -31.4019 -31.0954 -31.0930 -31.0730 -30.9534 -30.8939 -30.8269
   -20.8332 -17.3632 -16.3266 -16.0789 -15.9587 -15.7439 -15.6628 -15.5967
   -15.5745 -15.4589 -15.3630 -15.3257 -15.2963 -15.2658 -15.2487 -15.2137
   -15.1901 -15.1404 -15.1153 -15.0565 -15.0291 -15.0068 -14.9868 -14.9299
   -14.8974 -14.8734 -14.8485 -14.8245 -14.8088 -14.7913 -14.7841 -14.5032
   -13.2621 -13.1893  -9.0442  -5.9949  -4.0591  -3.9854  -3.9591  -3.8921
    -3.7329  -3.4710  -3.3647  -3.2520  -3.1670  -3.0767  -3.0312  -2.9878
    -2.8638  -2.7966  -2.7558  -2.6919  -2.6863  -2.6614  -2.6157  -2.5856
    -2.5462  -2.5259  -2.5101  -2.4523  -2.4202  -2.4003  -2.3703  -2.3367
    -2.3283  -2.3019  -2.2780  -2.2450  -2.2172  -2.1576  -2.1029  -2.0651
    -2.0167  -1.9067  -1.8870  -1.8417  -1.7724  -1.6422  -1.6187  -1.5412
    -1.3796  -1.3326  -1.2863  -1.2444  -1.1164  -1.0939  -1.0623  -1.0542
    -0.9821  -0.9508  -0.9130  -0.8444  -0.8147  -0.7874  -0.7563  -0.7360
    -0.6928  -0.6323  -0.6249  -0.5925  -0.5523  -0.5350  -0.4346  -0.4122
    -0.3845  -0.3609  -0.3191  -0.3079  -0.2368  -0.2151  -0.1530  -0.0736
    -0.0079   0.0091   0.0410   0.0691   0.1234   0.1641   0.1840   0.2366
     0.3046   0.3662   0.4356   0.4680   0.5700   0.5987   0.6633   0.6947
     0.7230   0.7481   0.7821   0.8195   0.8831   0.9207   1.0726   1.3017
     1.4870   1.6041   1.6846   1.7467   3.4077   3.5635   3.6578   3.8148
     3.8649   3.9198   3.9844   4.0013   4.0565   4.0777

          k = 0.0380-0.0839 0.0000 ( 17916 PWs)   bands (ev):

   -56.1349 -56.1012 -55.5826 -55.5593 -55.5449 -55.5208 -55.4970 -55.4754
   -55.4376 -55.4080 -55.3664 -55.3414 -55.3301 -55.1973 -54.7380 -54.7375
   -32.4015 -32.3855 -32.3596 -32.3568 -32.2877 -32.2591 -31.9748 -31.8948
   -31.8669 -31.8444 -31.8269 -31.8222 -31.8073 -31.7975 -31.7822 -31.7731
   -31.7642 -31.7583 -31.7569 -31.7415 -31.7368 -31.7326 -31.7201 -31.7154
   -31.7095 -31.7040 -31.6941 -31.6744 -31.6719 -31.6646 -31.6565 -31.6425
   -31.6058 -31.6030 -31.5791 -31.5769 -31.5648 -31.5484 -31.5298 -31.5151
   -31.4505 -31.4020 -31.0831 -31.0829 -30.9648 -30.9631 -30.9234 -30.9224
   -20.8332 -17.3471 -16.3209 -15.7814 -15.7754 -15.7382 -15.6600 -15.5098
   -15.4886 -15.4074 -15.3927 -15.3639 -15.3358 -15.3299 -15.3140 -15.1916
   -15.1779 -15.0864 -15.0763 -15.0476 -15.0373 -15.0103 -14.9866 -14.9725
   -14.9651 -14.9530 -14.9336 -14.9222 -14.9079 -14.8669 -14.7715 -14.5939
   -13.2521 -13.2509  -9.0445  -5.9945  -4.0317  -3.9838  -3.9613  -3.8567
    -3.7221  -3.4479  -2.9806  -2.9720  -2.9500  -2.8760  -2.8138  -2.8072
    -2.7556  -2.7439  -2.7297  -2.6933  -2.6846  -2.6719  -2.6323  -2.6099
    -2.5958  -2.5677  -2.5441  -2.5296  -2.5119  -2.4705  -2.4422  -2.3935
    -2.3685  -2.3461  -2.3248  -2.2809  -2.2295  -2.2161  -2.1527  -1.8719
    -1.8457  -1.8059  -1.7415  -1.6772  -1.6454  -1.5863  -1.5584  -1.5500
    -1.4864  -1.4566  -1.4106  -1.3713  -1.3424  -1.3263  -1.2907  -1.2798
    -1.1937  -1.1082  -1.0716  -0.8899  -0.8369  -0.7793  -0.7000  -0.6822
    -0.6260  -0.5864  -0.5551  -0.5387  -0.4990  -0.4539  -0.4482  -0.4336
    -0.3805  -0.3560  -0.3209  -0.2997  -0.2843  -0.2672  -0.2337  -0.2063
    -0.1402  -0.0623  -0.0223   0.0488   0.0963   0.1313   0.2149   0.2294
     0.2959   0.3360   0.4294   0.4443   0.4531   0.4930   0.5512   0.6167
     0.6406   0.6739   0.7054   0.7623   0.9577   1.0054   1.1032   1.1286
     1.6291   1.6470   1.6877   1.6967   3.6357   3.6481   3.7945   3.8034
     3.9266   3.9967   4.0173   4.0377   4.1017   4.1371

          k = 0.0380-0.0419 0.0000 ( 17876 PWs)   bands (ev):

   -56.1386 -56.0975 -55.5836 -55.5616 -55.5455 -55.5239 -55.4947 -55.4722
   -55.4366 -55.4073 -55.3711 -55.3366 -55.3311 -55.1963 -54.7497 -54.7257
   -32.5025 -32.4037 -32.3573 -32.3076 -32.2387 -32.2368 -32.0399 -31.9783
   -31.9746 -31.8844 -31.8301 -31.8271 -31.8190 -31.8172 -31.8114 -31.7782
   -31.7728 -31.7619 -31.7438 -31.7415 -31.7285 -31.7136 -31.6969 -31.6948
   -31.6843 -31.6770 -31.6738 -31.6664 -31.6541 -31.6432 -31.6199 -31.6110
   -31.6007 -31.5949 -31.5770 -31.5497 -31.5475 -31.5314 -31.5279 -31.4725
   -31.4397 -31.4017 -31.0954 -31.0930 -31.0730 -30.9534 -30.8939 -30.8269
   -20.8332 -17.3632 -16.3266 -16.0790 -15.9588 -15.7438 -15.6620 -15.5974
   -15.5746 -15.4583 -15.3631 -15.3249 -15.2971 -15.2667 -15.2489 -15.2161
   -15.1898 -15.1409 -15.1154 -15.0544 -15.0288 -15.0059 -14.9829 -14.9331
   -14.8972 -14.8726 -14.8495 -14.8260 -14.8083 -14.7914 -14.7834 -14.5036
   -13.2621 -13.1893  -9.0442  -5.9949  -4.0573  -3.9733  -3.9596  -3.8931
    -3.7417  -3.4801  -3.3639  -3.2510  -3.1711  -3.0719  -3.0195  -2.9885
    -2.8620  -2.7970  -2.7538  -2.6918  -2.6860  -2.6700  -2.6112  -2.5856
    -2.5528  -2.5275  -2.5063  -2.4456  -2.4318  -2.4025  -2.3640  -2.3422
    -2.3239  -2.3056  -2.2834  -2.2481  -2.2122  -2.1531  -2.0890  -2.0724
    -2.0179  -1.9089  -1.8841  -1.8393  -1.7407  -1.6631  -1.6252  -1.5511
    -1.3888  -1.3256  -1.2776  -1.2548  -1.1245  -1.0982  -1.0692  -1.0567
    -0.9877  -0.9500  -0.9112  -0.8513  -0.8093  -0.7789  -0.7736  -0.7119
    -0.6892  -0.6450  -0.6237  -0.5913  -0.5625  -0.5148  -0.4342  -0.4124
    -0.3732  -0.3588  -0.3253  -0.2723  -0.2626  -0.2122  -0.1409  -0.0986
    -0.0226   0.0120   0.0257   0.0691   0.1210   0.1589   0.1988   0.2383
     0.3192   0.3423   0.4265   0.4588   0.5718   0.6132   0.6738   0.7024
     0.7178   0.7626   0.7832   0.8150   0.8843   0.9215   1.0924   1.3022
     1.4863   1.6055   1.6836   1.7480   3.4121   3.5639   3.6577   3.8122
     3.8502   3.9302   3.9639   4.0009   4.0388   4.0820

          k =-0.0760-0.0000 0.0000 ( 17886 PWs)   bands (ev):

   -56.1418 -56.0943 -55.5845 -55.5635 -55.5463 -55.5266 -55.4926 -55.4694
   -55.4357 -55.4066 -55.3749 -55.3331 -55.3318 -55.1953 -54.7546 -54.7208
   -32.5562 -32.4058 -32.3554 -32.3177 -32.2266 -32.1810 -32.0861 -32.0318
   -32.0269 -31.9229 -31.8848 -31.8557 -31.8263 -31.8193 -31.8142 -31.7855
   -31.7800 -31.7672 -31.7509 -31.7438 -31.7139 -31.6954 -31.6865 -31.6735
   -31.6536 -31.6502 -31.6451 -31.6388 -31.6342 -31.6267 -31.6228 -31.6167
   -31.6047 -31.5783 -31.5707 -31.5386 -31.5375 -31.5259 -31.4956 -31.4499
   -31.4121 -31.4030 -31.1486 -31.0996 -31.0677 -30.9658 -30.8810 -30.7702
   -20.8332 -17.3771 -16.3269 -16.0277 -15.9631 -15.8525 -15.6994 -15.6890
   -15.6297 -15.5460 -15.4465 -15.4084 -15.3395 -15.3137 -15.3042 -15.3003
   -15.1549 -15.1325 -15.1037 -15.0805 -15.0053 -14.9678 -14.8978 -14.8945
   -14.8498 -14.8363 -14.7873 -14.7830 -14.7595 -14.7112 -14.6957 -14.4410
   -13.2510 -13.1470  -9.0437  -5.9965  -4.0827  -3.9588  -3.9577  -3.9146
    -3.7654  -3.5504  -3.3528  -3.2800  -3.1601  -3.1448  -3.0795  -3.0511
    -2.9585  -2.9256  -2.9004  -2.8886  -2.8386  -2.7615  -2.6861  -2.5561
    -2.5362  -2.4305  -2.3899  -2.3821  -2.2311  -2.2085  -2.2022  -2.1531
    -2.1191  -2.1180  -2.0836  -2.0676  -2.0339  -2.0183  -1.9750  -1.9546
    -1.9453  -1.9329  -1.8404  -1.7873  -1.7607  -1.7053  -1.6684  -1.4827
    -1.4628  -1.3701  -1.3344  -1.2999  -1.2966  -1.2642  -1.2240  -1.1187
    -1.1032  -1.0607  -1.0352  -0.9868  -0.9667  -0.9370  -0.8956  -0.8440
    -0.7986  -0.7423  -0.6631  -0.6506  -0.5988  -0.5191  -0.4320  -0.3756
    -0.3031  -0.2397  -0.2320  -0.2236  -0.1212  -0.1060  -0.0692  -0.0486
     0.0022   0.0444   0.0686   0.1238   0.1687   0.1886   0.2599   0.3208
     0.3823   0.3931   0.4243   0.4573   0.4984   0.5948   0.6337   0.6800
     0.7215   0.7731   0.8454   0.9301   0.9480   1.0269   1.0829   1.2943
     1.3336   1.4760   1.5830   1.7009   3.2900   3.4434   3.5230   3.6230
     3.7583   3.7843   3.8234   3.8980   3.9378   4.0164

          k =-0.0760 0.0419 0.0000 ( 17914 PWs)   bands (ev):

   -56.1386 -56.0975 -55.5836 -55.5614 -55.5456 -55.5239 -55.4947 -55.4722
   -55.4366 -55.4073 -55.3712 -55.3366 -55.3311 -55.1963 -54.7497 -54.7258
   -32.5033 -32.4037 -32.3573 -32.3063 -32.2386 -32.2370 -32.0403 -31.9793
   -31.9760 -31.8892 -31.8344 -31.8234 -31.8178 -31.8149 -31.8074 -31.7781
   -31.7691 -31.7648 -31.7487 -31.7415 -31.7139 -31.7126 -31.6968 -31.6937
   -31.6833 -31.6772 -31.6741 -31.6524 -31.6509 -31.6432 -31.6198 -31.6155
   -31.6120 -31.6044 -31.5770 -31.5515 -31.5482 -31.5351 -31.5278 -31.4724
   -31.4397 -31.4036 -31.0952 -31.0951 -31.0724 -30.9535 -30.8939 -30.8269
   -20.8332 -17.3618 -16.3221 -15.9059 -15.8643 -15.7471 -15.6552 -15.6215
   -15.5395 -15.4649 -15.3917 -15.3627 -15.3427 -15.3150 -15.3118 -15.2574
   -15.1885 -15.1567 -15.1140 -15.1107 -15.0159 -15.0069 -14.9562 -14.9293
   -14.9250 -14.8966 -14.8762 -14.8278 -14.7965 -14.7940 -14.7717 -14.5022
   -13.2603 -13.1896  -9.0441  -5.9961  -4.0542  -3.9770  -3.9565  -3.8914
    -3.7277  -3.4993  -3.1861  -3.1459  -2.9446  -2.8495  -2.8345  -2.8166
    -2.7743  -2.7424  -2.6917  -2.6844  -2.6757  -2.6617  -2.6042  -2.5963
    -2.5354  -2.5240  -2.5051  -2.4852  -2.4076  -2.3835  -2.3743  -2.2973
    -2.2855  -2.2376  -2.2146  -2.1900  -2.1685  -2.1385  -2.1251  -2.0288
    -1.9531  -1.8934  -1.7200  -1.6926  -1.6871  -1.6582  -1.6457  -1.5344
    -1.5037  -1.3997  -1.2393  -1.2182  -1.1931  -1.1636  -1.1427  -1.1112
    -1.1036  -1.0233  -1.0006  -0.9755  -0.9322  -0.8809  -0.8711  -0.8329
    -0.8176  -0.7584  -0.7421  -0.7025  -0.6569  -0.6223  -0.5808  -0.5462
    -0.5034  -0.4312  -0.4262  -0.3941  -0.2955  -0.2700  -0.2112  -0.1631
    -0.0922  -0.0751   0.0164   0.0382   0.1060   0.1287   0.2079   0.2275
     0.3018   0.3902   0.4536   0.5213   0.5502   0.6121   0.6971   0.7238
     0.7713   0.8047   0.8321   0.8608   0.9376   1.0074   1.0448   1.0770
     1.5010   1.6087   1.6131   1.7278   3.4099   3.5874   3.6115   3.7292
     3.8050   3.8730   3.9408   3.9999   4.0702   4.1172

          k =-0.0760-0.0839 0.0000 ( 17948 PWs)   bands (ev):

   -56.1349 -56.1013 -55.5826 -55.5592 -55.5450 -55.5208 -55.4971 -55.4754
   -55.4376 -55.4080 -55.3664 -55.3414 -55.3301 -55.1973 -54.7380 -54.7376
   -32.4015 -32.3861 -32.3597 -32.3574 -32.2870 -32.2583 -31.9752 -31.8964
   -31.8672 -31.8464 -31.8271 -31.8133 -31.8044 -31.7976 -31.7852 -31.7726
   -31.7666 -31.7593 -31.7582 -31.7484 -31.7416 -31.7328 -31.7191 -31.7161
   -31.7155 -31.6976 -31.6940 -31.6670 -31.6610 -31.6597 -31.6426 -31.6356
   -31.6106 -31.6056 -31.5904 -31.5783 -31.5758 -31.5478 -31.5331 -31.5150
   -31.4506 -31.4041 -31.0837 -31.0835 -30.9649 -30.9631 -30.9234 -30.9225
   -20.8332 -17.3465 -16.3180 -15.7042 -15.6159 -15.6065 -15.5990 -15.5661
   -15.5304 -15.4653 -15.4514 -15.3821 -15.3111 -15.2795 -15.2373 -15.2123
   -15.1974 -15.1606 -15.1563 -15.0951 -15.0513 -15.0426 -15.0279 -15.0141
   -14.9696 -14.9616 -14.9528 -14.9366 -14.9237 -14.8668 -14.7668 -14.5883
   -13.2519 -13.2508  -9.0445  -5.9957  -4.0318  -3.9901  -3.9595  -3.8565
    -3.7063  -3.4606  -2.9375  -2.8576  -2.7791  -2.7771  -2.6883  -2.6801
    -2.6400  -2.6173  -2.5803  -2.5656  -2.5430  -2.4784  -2.4535  -2.4391
    -2.4356  -2.4265  -2.4109  -2.3918  -2.3489  -2.3399  -2.3255  -2.3165
    -2.2984  -2.2930  -2.2815  -2.2582  -2.2197  -2.1574  -2.0972  -1.9605
    -1.9523  -1.9244  -1.9058  -1.8808  -1.8570  -1.8068  -1.7252  -1.7050
    -1.6864  -1.6099  -1.5510  -1.3450  -1.3225  -1.3077  -1.2376  -1.1691
    -1.1025  -1.0850  -1.0500  -1.0181  -0.9934  -0.9534  -0.8946  -0.8622
    -0.8198  -0.8065  -0.7691  -0.7282  -0.6617  -0.6204  -0.6116  -0.5788
    -0.5286  -0.5056  -0.4152  -0.4066  -0.3834  -0.3655  -0.3256  -0.2399
    -0.1884  -0.1412  -0.0516  -0.0035   0.0267   0.1666   0.2293   0.2620
     0.3388   0.3845   0.4831   0.5058   0.5890   0.6067   0.6350   0.6600
     0.7358   0.7956   0.8476   0.8990   0.9374   0.9517   1.0026   1.0616
     1.6562   1.6587   1.6662   1.6726   3.7012   3.7274   3.7352   3.7685
     3.9734   4.0034   4.0760   4.0933   4.1140   4.1668

     the Fermi energy is     2.5664 ev

!    total energy              =   -3005.28908139 Ry
     estimated scf accuracy    <       0.00000005 Ry
     smearing contrib. (-TS)   =      -0.00015442 Ry
     internal energy E=F+TS    =   -3005.28892697 Ry

     The total energy is F=E-TS. E is the sum of the following terms:
     one-electron contribution =  -22578.71993528 Ry
     hartree contribution      =   11385.56323336 Ry
     xc contribution           =    -500.24465028 Ry
     ewald contribution        =    8688.11188956 Ry
     electric field correction =       0.00053567 Ry

     convergence has been achieved in  73 iterations

     Forces acting on atoms (cartesian axes, Ry/au):

     atom    1 type  1   force =     0.00011933    0.00010754    0.13278376
     atom    2 type  1   force =    -0.00011940    0.00820796   -0.15824074
     atom    3 type  2   force =     0.00030001   -0.00362351   -0.05306956
     atom    4 type  2   force =     0.00059159    0.00104903    0.04010040
     atom    5 type  2   force =    -0.00785489   -0.00194927   -0.00032636
     atom    6 type  2   force =     0.00845571   -0.00490242   -0.00003278
     atom    7 type  1   force =    -0.00017299   -0.00031461   -0.00004041
     atom    8 type  1   force =    -0.00000512   -0.00026182    0.00020177
     atom    9 type  2   force =     0.00013313    0.00009977   -0.00000740
     atom   10 type  2   force =    -0.00003385    0.00020496    0.00011947
     atom   11 type  2   force =    -0.00007438    0.00013544    0.00000164
     atom   12 type  2   force =     0.00039309   -0.00010668   -0.00004465
     atom   13 type  1   force =    -0.00018115    0.00004048    0.00004912
     atom   14 type  1   force =     0.00011941    0.00059439    0.00013949
     atom   15 type  2   force =    -0.00009466    0.00015520    0.00037763
     atom   16 type  2   force =     0.00001458    0.00004844   -0.00051556
     atom   17 type  2   force =     0.00041096   -0.00026590    0.00014274
     atom   18 type  2   force =    -0.00035061   -0.00042656    0.00003277
     atom   19 type  1   force =    -0.00035223    0.00031993    0.00024794
     atom   20 type  1   force =     0.00038034    0.00080178    0.00126943
     atom   21 type  2   force =    -0.00006603    0.00009323    0.09917088
     atom   22 type  2   force =    -0.00023910    0.00010735   -0.00029724
     atom   23 type  2   force =    -0.08059040    0.00058340   -0.03415869
     atom   24 type  2   force =     0.08036403    0.00110428   -0.03420042
     atom   25 type  1   force =    -0.00021592   -0.00017922    0.14168753
     atom   26 type  1   force =    -0.00019006   -0.00687083   -0.15775091
     atom   27 type  2   force =     0.00044019    0.00018112   -0.05211317
     atom   28 type  2   force =     0.00043872    0.00035648    0.04188118
     atom   29 type  2   force =    -0.00939303    0.00598535    0.00166381
     atom   30 type  2   force =     0.00930668    0.00235675    0.00177324
     atom   31 type  1   force =    -0.00004071    0.00010172    0.00014795
     atom   32 type  1   force =     0.00002333   -0.00012823   -0.00012346
     atom   33 type  2   force =    -0.00006565   -0.00031603    0.00024834
     atom   34 type  2   force =    -0.00009710   -0.00005378    0.00005958
     atom   35 type  2   force =     0.00058450    0.00024911   -0.00006408
     atom   36 type  2   force =    -0.00015646    0.00014435    0.00006133
     atom   37 type  1   force =    -0.00038621    0.00047161   -0.00072540
     atom   38 type  1   force =     0.00025111   -0.00034665   -0.00004926
     atom   39 type  2   force =    -0.00006006   -0.00000124    0.00110714
     atom   40 type  2   force =     0.00013051   -0.00008298   -0.00049145
     atom   41 type  2   force =     0.00101173   -0.00005164    0.00010557
     atom   42 type  2   force =    -0.00067457    0.00021613   -0.00007273
     atom   43 type  1   force =    -0.00061568   -0.00032730    0.00067018
     atom   44 type  1   force =    -0.00005482   -0.00136758    0.00107564
     atom   45 type  2   force =    -0.00007638    0.00018283    0.09874006
     atom   46 type  2   force =    -0.08055378   -0.00156700   -0.03411318
     atom   47 type  2   force =     0.08035977   -0.00103384   -0.03419772
     atom   48 type  3   force =    -0.00158095   -0.00013503    0.00691003
     atom   49 type  2   force =     0.00354766    0.00000836   -0.01292389
     atom   50 type  4   force =    -0.00105647    0.00014642    0.00025644
     atom   51 type  4   force =    -0.00065696   -0.00023356    0.00144152
     atom   52 type  4   force =    -0.00034090    0.00042274    0.00102102
     atom   53 type  5   force =     0.00098383    0.00010755    0.00073368
     atom   54 type  5   force =    -0.00131599   -0.00000379   -0.00082915
     atom   55 type  2   force =    -0.00107512    0.00081007   -0.00025399
     atom   56 type  4   force =     0.00038142   -0.00084434    0.00042093

     Total force =     0.383998     Total SCF correction =     0.000499
  @ DRIVER MODE: Message from server: STATUS
  @ DRIVER MODE: Message from server: GETFORCE
  @ DRIVER MODE: Returning v,forces,stress,ensemble 

     Writing output data file ./calc.save/
  @ DRIVER MODE: Message from server: EXIT
  @ DRIVE MODE: Exiting  
 
     init_run     :     13.71s CPU     14.06s WALL (       1 calls)
     electrons    :   1515.04s CPU   1552.43s WALL (       1 calls)
     forces       :      2.97s CPU      3.10s WALL (       1 calls)

     Called by init_run:
     wfcinit      :      6.07s CPU      6.23s WALL (       1 calls)
     potinit      :      6.84s CPU      6.92s WALL (       1 calls)
     hinit0       :      0.37s CPU      0.37s WALL (       1 calls)

     Called by electrons:
     c_bands      :   1289.65s CPU   1311.30s WALL (      73 calls)
     sum_band     :    154.06s CPU    161.64s WALL (      73 calls)
     v_of_rho     :     53.41s CPU     55.62s WALL (      74 calls)
     newd         :     21.53s CPU     27.37s WALL (      74 calls)
     mix_rho      :      2.19s CPU      2.26s WALL (      73 calls)
     vdW_kernel   :      5.85s CPU      5.87s WALL (       1 calls)

     Called by c_bands:
     init_us_2    :      7.97s CPU      8.01s WALL (    1480 calls)
     cegterg      :   1265.04s CPU   1286.05s WALL (     746 calls)

     Called by *egterg:
     cdiaghg      :    187.50s CPU    188.84s WALL (    6129 calls)
     h_psi        :    702.78s CPU    716.11s WALL (    6144 calls)
     s_psi        :     86.21s CPU     86.66s WALL (    6144 calls)
     g_psi        :      2.51s CPU      2.53s WALL (    5388 calls)

     Called by h_psi:
     h_psi:calbec :     84.33s CPU     85.64s WALL (    6144 calls)
     vloc_psi     :    528.35s CPU    535.16s WALL (    6144 calls)
     add_vuspsi   :     86.51s CPU     89.19s WALL (    6144 calls)

     General routines
     calbec       :    111.43s CPU    112.89s WALL (    6914 calls)
     fft          :     28.13s CPU     28.37s WALL (    4662 calls)
     ffts         :      0.19s CPU      0.19s WALL (     147 calls)
     fftw         :    586.95s CPU    594.51s WALL ( 1063026 calls)
     interpolate  :      0.57s CPU      0.58s WALL (      74 calls)
     davcio       :      0.00s CPU      1.15s WALL (      10 calls)
 
     Parallel routines
 
     PWSCF        :  25m31.97s CPU  26m11.88s WALL

 
   This run was terminated on:  16:59:46  23Sep2021            

=------------------------------------------------------------------------------=
   JOB DONE.
=------------------------------------------------------------------------------=
