
     Program PWSCF v.6.7GPU starts on 16Jul2021 at  4:40:42 

     This program is part of the open-source Quantum ESPRESSO suite
     for quantum simulation of materials; please cite
         "P. Giannozzi et al., J. Phys.:Condens. Matter 21 395502 (2009);
         "P. Giannozzi et al., J. Phys.:Condens. Matter 29 465901 (2017);
         "P. Giannozzi et al., J. Chem. Phys. 152 154105 (2020);
          URL http://www.quantum-espresso.org", 
     in publications or presentations arising from this work. More details at
     http://www.quantum-espresso.org/quote

     Parallel version (MPI), running on    16 processors

     MPI processes distributed on     1 nodes
     R & G space division:  proc/nbgrp/npool/nimage =      16
     Reading input from /storage/home/hcoda1/3/ntian30/research/carbon/15Jul_vib/ads_slab/CH3NNHH_a/out_0018/pw.inp
Warning: card &CELL ignored
Warning: card   CELL_DYNAMICS='IPI', ignored
Warning: card / ignored

     Current dimensions of program PWSCF are:
     Max number of different atomic species (ntypx) = 10
     Max number of k-points (npk) =  40000
     Max angular momentum in pseudopotentials (lmaxx) =  3
     Presently no symmetry can be used with electric field

     Message from routine cell_base_init:
     DEPRECATED: use true lattice parameter, not A to a.u. conversion factor

     **************************************************************************
     Initializing libbeef V0.1.2 with the BEEF-vdW functional.
     Citation: Wellendorff et al., PRB 85, 235149 (2012).
     **************************************************************************


     IMPORTANT: XC functional enforced from input :
     Exchange-correlation= BEEF-VDW
                           (   1   4  43  14   2   0   0)
     Any further DFT definition will be discarded
     Please, verify this is what you really want


     Subspace diagonalization in iterative solution of the eigenvalue problem:
     one sub-group per band group will be used
     scalapack distributed-memory algorithm (size of sub-group:  4*  4 procs)

  @ DRIVER MODE: Connecting to 
 qe_1139763_2351651.sched-torque.pace.gatech.eduh8ncka4l_scratch
  using UNIX socket
  @ DRIVER MODE: Message from server: STATUS
  @ DRIVER MODE: Message from server: INIT
  @ DRIVER MODE: Receiving replica           0          -1
  @ DRIVER MODE: Receiving encoded integer          25
  @ DRIVER MODE:  SCF:  T  FORCE:  T  STRESS:  F  VC:  F  ENSEMBLE:  F
  @ DRIVER MODE:  SCF:  T  FORCE:  T  STRESS:  F  VC:  F  ENSEMBLE:  F
 
     Parallelization info
     --------------------
     sticks:   dense  smooth     PW     G-vecs:    dense   smooth      PW
     Min         204      82     23                35422     8962    1367
     Max         205      84     24                35435     8968    1382
     Sum        3275    1317    379               566857   143421   21985
 
     Using Slab Decomposition
 


     bravais-lattice index     =            0
     lattice parameter (alat)  =       1.8897  a.u.
     unit-cell volume          =    6658.9804 (a.u.)^3
     number of atoms/cell      =           55
     number of atomic types    =            5
     number of electrons       =       397.00
     number of Kohn-Sham states=          208
     kinetic-energy cutoff     =      29.3995  Ry
     charge density cutoff     =     293.9946  Ry
     scf convergence threshold =      7.3E-08
     mixing beta               =       0.0500
     number of iterations used =            8  plain     mixing
     Exchange-correlation= BEEF-VDW
                           (   1   4  43  14   2   0   0)

     celldm(1)=   1.889726  celldm(2)=   0.000000  celldm(3)=   0.000000
     celldm(4)=   0.000000  celldm(5)=   0.000000  celldm(6)=   0.000000

     crystal axes: (cart. coord. in units of alat)
               a(1) = (   6.579727   0.000000   0.000000 )  
               a(2) = (  -0.000775   5.961596   0.000000 )  
               a(3) = (   0.000000   0.000000  25.155947 )  

     reciprocal axes: (cart. coord. in units 2 pi/alat)
               b(1) = (  0.151982  0.000020  0.000000 )  
               b(2) = (  0.000000  0.167740  0.000000 )  
               b(3) = (  0.000000  0.000000  0.039752 )  


     PseudoPot. # 1 for Ti read from file:
     /storage/coda1/p-amedford6/0/shared/rich_project_chbe-medford/medford-share/data/pseudos_module/espresso/nninc/pbe/van/Ti.UPF
     MD5 check sum: 8e4df49b7f0d34bbd5052bf3f5ea0213
     Pseudo is Ultrasoft, Zval = 12.0
     Generated by new atomic code, or converted to UPF format
     Using radial grid of  851 points,  6 beta functions with: 
                l(1) =   0
                l(2) =   0
                l(3) =   1
                l(4) =   1
                l(5) =   2
                l(6) =   2
     Q(r) pseudized with  8 coefficients,  rinner =    1.000   1.000   1.000
                                                       1.000   1.000

     PseudoPot. # 2 for O  read from file:
     /storage/coda1/p-amedford6/0/shared/rich_project_chbe-medford/medford-share/data/pseudos_module/espresso/nninc/pbe/van/O.UPF
     MD5 check sum: 78c19812648e8988a0fe644b0f25305e
     Pseudo is Ultrasoft, Zval =  6.0
     Generated by new atomic code, or converted to UPF format
     Using radial grid of  737 points,  4 beta functions with: 
                l(1) =   0
                l(2) =   0
                l(3) =   1
                l(4) =   1
     Q(r) pseudized with  8 coefficients,  rinner =    0.800   0.800   0.800


     PseudoPot. # 3 for N  read from file:
     /storage/coda1/p-amedford6/0/shared/rich_project_chbe-medford/medford-share/data/pseudos_module/espresso/nninc/pbe/van/N.UPF
     MD5 check sum: 90d10febe142ad51ac9d5be1deb811c4
     Pseudo is Ultrasoft, Zval =  5.0
     Generated by new atomic code, or converted to UPF format
     Using radial grid of  729 points,  4 beta functions with: 
                l(1) =   0
                l(2) =   0
                l(3) =   1
                l(4) =   1
     Q(r) pseudized with  8 coefficients,  rinner =    0.800   0.800   0.800


     PseudoPot. # 4 for C  read from file:
     /storage/coda1/p-amedford6/0/shared/rich_project_chbe-medford/medford-share/data/pseudos_module/espresso/nninc/pbe/van/C.UPF
     MD5 check sum: 1a69bf6b8db32088f5b2163dbdb77a27
     Pseudo is Ultrasoft, Zval =  4.0
     Generated by new atomic code, or converted to UPF format
     Using radial grid of  721 points,  4 beta functions with: 
                l(1) =   0
                l(2) =   0
                l(3) =   1
                l(4) =   1
     Q(r) pseudized with  8 coefficients,  rinner =    0.800   0.800   0.800


     PseudoPot. # 5 for H  read from file:
     /storage/coda1/p-amedford6/0/shared/rich_project_chbe-medford/medford-share/data/pseudos_module/espresso/nninc/pbe/van/H.UPF
     MD5 check sum: b5ee9d7bfd3a09ee7748110bda690ff7
     Pseudo is Ultrasoft, Zval =  1.0
     Generated by new atomic code, or converted to UPF format
     Using radial grid of  615 points,  1 beta functions with: 
                l(1) =   0
     Q(r) pseudized with  8 coefficients,  rinner =    0.800

     atomic species   valence    mass     pseudopotential
        Ti1           12.00    47.86700     Ti( 1.00)
        O1             6.00    15.99900     O ( 1.00)
        N1             5.00    14.00700     N ( 1.00)
        C1             4.00    12.01100     C ( 1.00)
        H1             1.00     1.00800     H ( 1.00)

     Starting magnetic structure 
     atomic species   magnetization
        Ti1          0.000
        O1           0.000
        N1           0.000
        C1           0.025
        H1           0.000

     No symmetry found



   Cartesian axes

     site n.     atom                  positions (alat units)
         1           Ti1 tau(   1) = (   0.0004258   2.9801865   6.0000000  )
         2           Ti1 tau(   2) = (   3.2906075   1.4906267   6.0002472  )
         3           O1  tau(   3) = (   0.0006271   0.0005054   7.9858123  )
         4           O1  tau(   4) = (   3.2906025   0.0005020   7.3038282  )
         5           O1  tau(   5) = (   4.5942328   1.4918067   9.2879030  )
         6           O1  tau(   6) = (   1.9868534   1.4903216   9.2879459  )
         7           Ti1 tau(   7) = (   3.2907910   2.8959150   9.1758416  )
         8           Ti1 tau(   8) = (   0.0015273   1.4827037   9.2680791  )
         9           O1  tau(   9) = (   3.3020592   5.9599881  11.3075072  )
        10           O1  tau(  10) = (   0.0116148   5.9584955  10.6183126  )
        11           O1  tau(  11) = (   1.3218652   1.4872367  12.6142461  )
        12           O1  tau(  12) = (   5.3149618   1.4866655  12.6283206  )
        13           Ti1 tau(  13) = (   6.5343381   3.0098038  12.6530281  )
        14           Ti1 tau(  14) = (   3.2132235   1.4912063  12.4551521  )
        15           O1  tau(  15) = (   0.0515422   5.9562953  14.6829507  )
        16           O1  tau(  16) = (   3.3088797   0.0214154  13.8770011  )
        17           O1  tau(  17) = (   4.5726725   1.5412406  16.1224456  )
        18           O1  tau(  18) = (   2.0900022   1.5114086  15.9969863  )
        19           Ti1 tau(  19) = (   3.3311046   3.0200058  15.6476981  )
        20           Ti1 tau(  20) = (   0.0790784   1.4105808  15.8036947  )
        21           O1  tau(  21) = (   3.2904802   0.0005063   4.7018136  )
        22           O1  tau(  22) = (   0.0613336   0.0214447  17.2555488  )
        23           O1  tau(  23) = (   1.3043587   1.4918075   6.0039043  )
        24           O1  tau(  24) = (   5.2767064   1.4903225   6.0039473  )
        25           Ti1 tau(  25) = (   0.0000382   5.9609847   6.0000000  )
        26           Ti1 tau(  26) = (   3.2902200   4.4714249   6.0002472  )
        27           O1  tau(  27) = (   0.0002396   2.9813036   7.9858123  )
        28           O1  tau(  28) = (   3.2902150   2.9813002   7.3038282  )
        29           O1  tau(  29) = (   4.5938453   4.4726049   9.2879030  )
        30           O1  tau(  30) = (   1.9864658   4.4711199   9.2879459  )
        31           Ti1 tau(  31) = (   3.2891106   5.8743827   9.1763621  )
        32           Ti1 tau(  32) = (   0.0006254   4.4649316   9.2693709  )
        33           O1  tau(  33) = (   3.3026341   2.9893090  11.3092672  )
        34           O1  tau(  34) = (   0.0092240   2.9805883  10.6323155  )
        35           O1  tau(  35) = (   1.3182942   4.4670451  12.6271195  )
        36           O1  tau(  36) = (   5.3124783   4.4780259  12.6376329  )
        37           Ti1 tau(  37) = (   6.5365500   0.0194685  12.5464133  )
        38           Ti1 tau(  38) = (   3.2155898   4.4753301  12.4613306  )
        39           O1  tau(  39) = (   0.0167368   2.9407051  14.7244952  )
        40           O1  tau(  40) = (   3.3149560   2.9822459  13.8616979  )
        41           O1  tau(  41) = (   4.5706274   4.5128733  15.9228735  )
        42           O1  tau(  42) = (   2.1262058   4.4922812  16.0793225  )
        43           Ti1 tau(  43) = (   3.3222298   0.0210159  15.6751784  )
        44           Ti1 tau(  44) = (   6.5499002   4.5104744  16.2959303  )
        45           O1  tau(  45) = (   3.2900926   2.9813045   4.7018136  )
        46           O1  tau(  46) = (   1.3039711   4.4726057   6.0039043  )
        47           O1  tau(  47) = (   5.2763189   4.4711207   6.0039473  )
        48           N1  tau(  48) = (   0.3735289   2.9861087  17.6038306  )
        49           C1  tau(  49) = (   1.3580301   2.7301661  18.6431808  )
        50           H1  tau(  50) = (   1.5128655   3.6233449  19.2741712  )
        51           H1  tau(  51) = (   1.0354786   1.8978442  19.2795547  )
        52           H1  tau(  52) = (   2.3065860   2.4473273  18.1987077  )
        53           N1  tau(  53) = (   5.7326324   3.4596218  18.1373629  )
        54           H1  tau(  54) = (   5.8436824   4.0267099  18.9748678  )
        55           H1  tau(  55) = (   5.0375616   2.7244768  18.2555579  )

     number of k points=    10  Fermi-Dirac smearing, width (Ry)=  0.0073
                       cart. coord. in units 2pi/alat
        k(    1) = (   0.0000000   0.0000000   0.0000000), wk =   0.0625000
        k(    2) = (   0.0000000   0.0419351   0.0000000), wk =   0.1250000
        k(    3) = (   0.0000000  -0.0838702   0.0000000), wk =   0.0625000
        k(    4) = (   0.0379955   0.0000049   0.0000000), wk =   0.1250000
        k(    5) = (   0.0379955   0.0419400   0.0000000), wk =   0.1250000
        k(    6) = (   0.0379955  -0.0838652   0.0000000), wk =   0.1250000
        k(    7) = (   0.0379955  -0.0419301   0.0000000), wk =   0.1250000
        k(    8) = (  -0.0759910  -0.0000099   0.0000000), wk =   0.0625000
        k(    9) = (  -0.0759910   0.0419252   0.0000000), wk =   0.1250000
        k(   10) = (  -0.0759910  -0.0838800   0.0000000), wk =   0.0625000

     Dense  grid:   566857 G-vectors     FFT dimensions: (  72,  64, 270)

     Smooth grid:   143421 G-vectors     FFT dimensions: (  45,  40, 180)

     Estimated max dynamical RAM per process >     279.78 MB

     Estimated total dynamical RAM >       4.37 GB
     Generating pointlists ...
     new r_m :   0.7260 (alat units)  1.3719 (a.u.) for type    1
     new r_m :   0.7260 (alat units)  1.3719 (a.u.) for type    2
     new r_m :   0.4197 (alat units)  0.7932 (a.u.) for type    3
     new r_m :   0.4476 (alat units)  0.8458 (a.u.) for type    4
     new r_m :   0.4197 (alat units)  0.7932 (a.u.) for type    5
     Cannot read rho : file not found

     Initial potential from superposition of free atoms

     starting charge  380.99914, renormalised to  397.00000

     negative rho (up, down):  8.316E-03 8.319E-03


     %%%%%%%%%%%%%%%%%%%%%%%%%%%%%%%%%%%%%%%%%%%%%%%%%%%%%%%%%%%%%%%%%%%%%%%%
     %                                                                      %
     % You are using vdW-DF, which was implemented by the Thonhauser group. %
     % Please cite the following two papers that made this development      %
     % possible and the two reviews that describe the various versions:     %
     %                                                                      %
     %   T. Thonhauser et al., PRL 115, 136402 (2015).                      %
     %   T. Thonhauser et al., PRB 76, 125112 (2007).                       %
     %   K. Berland et al., Rep. Prog. Phys. 78, 066501 (2015).             %
     %   D.C. Langreth et al., J. Phys.: Condens. Matter 21, 084203 (2009). %
     %                                                                      %
     %                                                                      %
     % If you are calculating the stress with vdW-DF, please also cite:     %
     %                                                                      %
     %   R. Sabatini et al., J. Phys.: Condens. Matter 24, 424209 (2012).   %
     %                                                                      %
     %%%%%%%%%%%%%%%%%%%%%%%%%%%%%%%%%%%%%%%%%%%%%%%%%%%%%%%%%%%%%%%%%%%%%%%%


 
     Adding external electric field

     Computed dipole along edir(3) : 
        Dipole               -9.2590 Ry au,        -23.5340 Debye
        Dipole field         -0.0175 Ry au, 
 
        Potential amp.        1.6197 Ry
        Total length         46.3494 bohr
 
 
     Adding external electric field

     Computed dipole along edir(3) : 
        Dipole               -9.2590 Ry au,        -23.5340 Debye
        Dipole field         -0.0175 Ry au, 
 
        Potential amp.        1.6197 Ry
        Total length         46.3494 bohr
 
     Starting wfcs are  301 atomic wfcs
  @ DRIVER MODE: Message from server: STATUS
  @ DRIVER MODE: Message from server: POSDATA
  @ DRIVER MODE: Reading and sharing cell 
  @ DRIVER MODE: Reading and sharing positions 
  @ DRIVER MODE: Received positions 

     total cpu time spent up to now is       15.5 secs

     Self-consistent Calculation

     iteration #  1     ecut=    29.40 Ry     beta= 0.05
     Davidson diagonalization with overlap
     c_bands:  1 eigenvalues not converged
     c_bands:  2 eigenvalues not converged
     c_bands:  1 eigenvalues not converged
     c_bands:  2 eigenvalues not converged
     c_bands:  2 eigenvalues not converged
     c_bands:  2 eigenvalues not converged
     c_bands:  2 eigenvalues not converged
     c_bands:  1 eigenvalues not converged
     c_bands:  4 eigenvalues not converged
     c_bands:  1 eigenvalues not converged
     c_bands:  2 eigenvalues not converged
     c_bands:  1 eigenvalues not converged
     c_bands:  2 eigenvalues not converged
     c_bands:  2 eigenvalues not converged
     c_bands:  2 eigenvalues not converged
     c_bands:  2 eigenvalues not converged
     c_bands:  1 eigenvalues not converged
     c_bands:  4 eigenvalues not converged
     ethr =  1.00E-05,  avg # of iterations = 19.8

     negative rho (up, down):  6.407E-03 6.411E-03
 
     Adding external electric field

     Computed dipole along edir(3) : 
        Dipole               43.4216 Ry au,        110.3666 Debye
        Dipole field          0.0819 Ry au, 
 
        Potential amp.       -7.5959 Ry
        Total length         46.3494 bohr
 
 
     Adding external electric field

     Computed dipole along edir(3) : 
        Dipole               43.4216 Ry au,        110.3666 Debye
        Dipole field          0.0819 Ry au, 
 
        Potential amp.       -7.5959 Ry
        Total length         46.3494 bohr
 

     total cpu time spent up to now is       77.2 secs

     total energy              =   -2525.30475900 Ry
     estimated scf accuracy    <    4616.24103758 Ry

     total magnetization       =     0.00 Bohr mag/cell
     absolute magnetization    =     0.03 Bohr mag/cell

     iteration #  2     ecut=    29.40 Ry     beta= 0.05
     Davidson diagonalization with overlap
     ethr =  1.00E-02,  avg # of iterations = 24.1

     negative rho (up, down):  1.852E-03 1.852E-03
 
     Adding external electric field

     Computed dipole along edir(3) : 
        Dipole               -1.7967 Ry au,         -4.5668 Debye
        Dipole field         -0.0034 Ry au, 
 
        Potential amp.        0.3143 Ry
        Total length         46.3494 bohr
 
 
     Adding external electric field

     Computed dipole along edir(3) : 
        Dipole               -1.7967 Ry au,         -4.5668 Debye
        Dipole field         -0.0034 Ry au, 
 
        Potential amp.        0.3143 Ry
        Total length         46.3494 bohr
 

     total cpu time spent up to now is      191.2 secs

     total energy              =   -2477.70300752 Ry
     estimated scf accuracy    <   65137.42167777 Ry

     total magnetization       =    -0.16 Bohr mag/cell
     absolute magnetization    =     0.51 Bohr mag/cell

     iteration #  3     ecut=    29.40 Ry     beta= 0.05
     Davidson diagonalization with overlap
     ethr =  1.00E-02,  avg # of iterations = 14.1

     negative rho (up, down):  1.887E-03 1.887E-03
 
     Adding external electric field

     Computed dipole along edir(3) : 
        Dipole               -4.1175 Ry au,        -10.4657 Debye
        Dipole field         -0.0078 Ry au, 
 
        Potential amp.        0.7203 Ry
        Total length         46.3494 bohr
 
 
     Adding external electric field

     Computed dipole along edir(3) : 
        Dipole               -4.1175 Ry au,        -10.4657 Debye
        Dipole field         -0.0078 Ry au, 
 
        Potential amp.        0.7203 Ry
        Total length         46.3494 bohr
 

     total cpu time spent up to now is      260.3 secs

     total energy              =   -2924.54154381 Ry
     estimated scf accuracy    <    4384.11720551 Ry

     total magnetization       =     0.03 Bohr mag/cell
     absolute magnetization    =     0.46 Bohr mag/cell

     iteration #  4     ecut=    29.40 Ry     beta= 0.05
     Davidson diagonalization with overlap
     c_bands:  2 eigenvalues not converged
     c_bands:  1 eigenvalues not converged
     ethr =  1.00E-02,  avg # of iterations = 13.3

     negative rho (up, down):  1.908E-03 1.908E-03
 
     Adding external electric field

     Computed dipole along edir(3) : 
        Dipole               -5.5935 Ry au,        -14.2172 Debye
        Dipole field         -0.0106 Ry au, 
 
        Potential amp.        0.9785 Ry
        Total length         46.3494 bohr
 
 
     Adding external electric field

     Computed dipole along edir(3) : 
        Dipole               -5.5935 Ry au,        -14.2172 Debye
        Dipole field         -0.0106 Ry au, 
 
        Potential amp.        0.9785 Ry
        Total length         46.3494 bohr
 

     total cpu time spent up to now is      288.8 secs

     total energy              =   -2928.03838920 Ry
     estimated scf accuracy    <    1588.60503792 Ry

     total magnetization       =     0.01 Bohr mag/cell
     absolute magnetization    =     0.56 Bohr mag/cell

     iteration #  5     ecut=    29.40 Ry     beta= 0.05
     Davidson diagonalization with overlap
     c_bands:  1 eigenvalues not converged
     c_bands:  1 eigenvalues not converged
     ethr =  1.00E-02,  avg # of iterations = 15.9

     negative rho (up, down):  1.919E-03 1.918E-03
 
     Adding external electric field

     Computed dipole along edir(3) : 
        Dipole               -5.1529 Ry au,        -13.0974 Debye
        Dipole field         -0.0097 Ry au, 
 
        Potential amp.        0.9014 Ry
        Total length         46.3494 bohr
 
 
     Adding external electric field

     Computed dipole along edir(3) : 
        Dipole               -5.1529 Ry au,        -13.0974 Debye
        Dipole field         -0.0097 Ry au, 
 
        Potential amp.        0.9014 Ry
        Total length         46.3494 bohr
 

     total cpu time spent up to now is      318.2 secs

     total energy              =   -2943.06988355 Ry
     estimated scf accuracy    <      73.19367854 Ry

     total magnetization       =    -1.97 Bohr mag/cell
     absolute magnetization    =     2.08 Bohr mag/cell

     iteration #  6     ecut=    29.40 Ry     beta= 0.05
     Davidson diagonalization with overlap
     ethr =  1.00E-02,  avg # of iterations =  1.6

     negative rho (up, down):  1.916E-03 1.914E-03
 
     Adding external electric field

     Computed dipole along edir(3) : 
        Dipole               -5.0552 Ry au,        -12.8490 Debye
        Dipole field         -0.0095 Ry au, 
 
        Potential amp.        0.8843 Ry
        Total length         46.3494 bohr
 
 
     Adding external electric field

     Computed dipole along edir(3) : 
        Dipole               -5.0552 Ry au,        -12.8490 Debye
        Dipole field         -0.0095 Ry au, 
 
        Potential amp.        0.8843 Ry
        Total length         46.3494 bohr
 

     total cpu time spent up to now is      333.8 secs

     total energy              =   -2943.30186427 Ry
     estimated scf accuracy    <      53.88723153 Ry

     total magnetization       =    -1.89 Bohr mag/cell
     absolute magnetization    =     2.14 Bohr mag/cell

     iteration #  7     ecut=    29.40 Ry     beta= 0.05
     Davidson diagonalization with overlap
     ethr =  1.00E-02,  avg # of iterations =  1.1

     negative rho (up, down):  2.080E-03 2.078E-03
 
     Adding external electric field

     Computed dipole along edir(3) : 
        Dipole               -3.0861 Ry au,         -7.8441 Debye
        Dipole field         -0.0058 Ry au, 
 
        Potential amp.        0.5399 Ry
        Total length         46.3494 bohr
 
 
     Adding external electric field

     Computed dipole along edir(3) : 
        Dipole               -3.0861 Ry au,         -7.8441 Debye
        Dipole field         -0.0058 Ry au, 
 
        Potential amp.        0.5399 Ry
        Total length         46.3494 bohr
 

     total cpu time spent up to now is      347.3 secs

     total energy              =   -2941.03230742 Ry
     estimated scf accuracy    <      53.94124705 Ry

     total magnetization       =    -1.84 Bohr mag/cell
     absolute magnetization    =     2.16 Bohr mag/cell

     iteration #  8     ecut=    29.40 Ry     beta= 0.05
     Davidson diagonalization with overlap
     ethr =  1.00E-02,  avg # of iterations =  1.0

     negative rho (up, down):  2.224E-03 2.223E-03
 
     Adding external electric field

     Computed dipole along edir(3) : 
        Dipole               -2.0874 Ry au,         -5.3056 Debye
        Dipole field         -0.0039 Ry au, 
 
        Potential amp.        0.3652 Ry
        Total length         46.3494 bohr
 
 
     Adding external electric field

     Computed dipole along edir(3) : 
        Dipole               -2.0874 Ry au,         -5.3056 Debye
        Dipole field         -0.0039 Ry au, 
 
        Potential amp.        0.3652 Ry
        Total length         46.3494 bohr
 

     total cpu time spent up to now is      360.9 secs

     total energy              =   -2941.08456967 Ry
     estimated scf accuracy    <      73.80570130 Ry

     total magnetization       =    -1.91 Bohr mag/cell
     absolute magnetization    =     2.38 Bohr mag/cell

     iteration #  9     ecut=    29.40 Ry     beta= 0.05
     Davidson diagonalization with overlap
     ethr =  1.00E-02,  avg # of iterations =  1.4

     negative rho (up, down):  2.218E-03 2.216E-03
 
     Adding external electric field

     Computed dipole along edir(3) : 
        Dipole               -2.1555 Ry au,         -5.4786 Debye
        Dipole field         -0.0041 Ry au, 
 
        Potential amp.        0.3771 Ry
        Total length         46.3494 bohr
 
 
     Adding external electric field

     Computed dipole along edir(3) : 
        Dipole               -2.1555 Ry au,         -5.4786 Debye
        Dipole field         -0.0041 Ry au, 
 
        Potential amp.        0.3771 Ry
        Total length         46.3494 bohr
 

     total cpu time spent up to now is      379.1 secs

     total energy              =   -2941.85589760 Ry
     estimated scf accuracy    <     270.97264051 Ry

     total magnetization       =    -1.18 Bohr mag/cell
     absolute magnetization    =     2.23 Bohr mag/cell

     iteration # 10     ecut=    29.40 Ry     beta= 0.05
     Davidson diagonalization with overlap
     ethr =  1.00E-02,  avg # of iterations =  1.0

     negative rho (up, down):  2.233E-03 2.228E-03
 
     Adding external electric field

     Computed dipole along edir(3) : 
        Dipole               -3.3076 Ry au,         -8.4070 Debye
        Dipole field         -0.0062 Ry au, 
 
        Potential amp.        0.5786 Ry
        Total length         46.3494 bohr
 
 
     Adding external electric field

     Computed dipole along edir(3) : 
        Dipole               -3.3076 Ry au,         -8.4070 Debye
        Dipole field         -0.0062 Ry au, 
 
        Potential amp.        0.5786 Ry
        Total length         46.3494 bohr
 

     total cpu time spent up to now is      392.6 secs

     total energy              =   -2938.19918453 Ry
     estimated scf accuracy    <     217.34869847 Ry

     total magnetization       =    -1.40 Bohr mag/cell
     absolute magnetization    =     2.38 Bohr mag/cell

     iteration # 11     ecut=    29.40 Ry     beta= 0.05
     Davidson diagonalization with overlap
     ethr =  1.00E-02,  avg # of iterations =  2.6

     negative rho (up, down):  2.473E-03 2.471E-03
 
     Adding external electric field

     Computed dipole along edir(3) : 
        Dipole               -2.1822 Ry au,         -5.5466 Debye
        Dipole field         -0.0041 Ry au, 
 
        Potential amp.        0.3817 Ry
        Total length         46.3494 bohr
 
 
     Adding external electric field

     Computed dipole along edir(3) : 
        Dipole               -2.1822 Ry au,         -5.5466 Debye
        Dipole field         -0.0041 Ry au, 
 
        Potential amp.        0.3817 Ry
        Total length         46.3494 bohr
 

     total cpu time spent up to now is      407.3 secs

     total energy              =   -2940.94412311 Ry
     estimated scf accuracy    <      10.15762632 Ry

     total magnetization       =    -0.72 Bohr mag/cell
     absolute magnetization    =     1.24 Bohr mag/cell

     iteration # 12     ecut=    29.40 Ry     beta= 0.05
     Davidson diagonalization with overlap
     ethr =  2.56E-03,  avg # of iterations =  2.6

     negative rho (up, down):  2.519E-03 2.521E-03
 
     Adding external electric field

     Computed dipole along edir(3) : 
        Dipole               -1.4211 Ry au,         -3.6120 Debye
        Dipole field         -0.0027 Ry au, 
 
        Potential amp.        0.2486 Ry
        Total length         46.3494 bohr
 
 
     Adding external electric field

     Computed dipole along edir(3) : 
        Dipole               -1.4211 Ry au,         -3.6120 Debye
        Dipole field         -0.0027 Ry au, 
 
        Potential amp.        0.2486 Ry
        Total length         46.3494 bohr
 

     total cpu time spent up to now is      422.8 secs

     total energy              =   -2941.50534168 Ry
     estimated scf accuracy    <       7.58213958 Ry

     total magnetization       =    -0.20 Bohr mag/cell
     absolute magnetization    =     1.32 Bohr mag/cell

     iteration # 13     ecut=    29.40 Ry     beta= 0.05
     Davidson diagonalization with overlap
     c_bands:  1 eigenvalues not converged
     ethr =  1.91E-03,  avg # of iterations =  3.9

     negative rho (up, down):  2.569E-03 2.582E-03
 
     Adding external electric field

     Computed dipole along edir(3) : 
        Dipole               -0.3167 Ry au,         -0.8049 Debye
        Dipole field         -0.0006 Ry au, 
 
        Potential amp.        0.0554 Ry
        Total length         46.3494 bohr
 
 
     Adding external electric field

     Computed dipole along edir(3) : 
        Dipole               -0.3167 Ry au,         -0.8049 Debye
        Dipole field         -0.0006 Ry au, 
 
        Potential amp.        0.0554 Ry
        Total length         46.3494 bohr
 

     total cpu time spent up to now is      442.4 secs

     total energy              =   -2941.81727004 Ry
     estimated scf accuracy    <       4.11732948 Ry

     total magnetization       =     0.83 Bohr mag/cell
     absolute magnetization    =     1.91 Bohr mag/cell

     iteration # 14     ecut=    29.40 Ry     beta= 0.05
     Davidson diagonalization with overlap
     c_bands:  1 eigenvalues not converged
     c_bands:  1 eigenvalues not converged
     c_bands:  1 eigenvalues not converged
     c_bands:  3 eigenvalues not converged
     ethr =  1.04E-03,  avg # of iterations = 14.2

     negative rho (up, down):  2.519E-03 2.525E-03
 
     Adding external electric field

     Computed dipole along edir(3) : 
        Dipole               -1.2272 Ry au,         -3.1191 Debye
        Dipole field         -0.0023 Ry au, 
 
        Potential amp.        0.2147 Ry
        Total length         46.3494 bohr
 
 
     Adding external electric field

     Computed dipole along edir(3) : 
        Dipole               -1.2272 Ry au,         -3.1191 Debye
        Dipole field         -0.0023 Ry au, 
 
        Potential amp.        0.2147 Ry
        Total length         46.3494 bohr
 

     total cpu time spent up to now is      467.0 secs

     total energy              =   -2940.84263641 Ry
     estimated scf accuracy    <      50.94097858 Ry

     total magnetization       =    -0.17 Bohr mag/cell
     absolute magnetization    =     1.28 Bohr mag/cell

     iteration # 15     ecut=    29.40 Ry     beta= 0.05
     Davidson diagonalization with overlap
     ethr =  1.04E-03,  avg # of iterations = 10.8

     negative rho (up, down):  2.480E-03 2.484E-03
 
     Adding external electric field

     Computed dipole along edir(3) : 
        Dipole               -1.5934 Ry au,         -4.0500 Debye
        Dipole field         -0.0030 Ry au, 
 
        Potential amp.        0.2787 Ry
        Total length         46.3494 bohr
 
 
     Adding external electric field

     Computed dipole along edir(3) : 
        Dipole               -1.5934 Ry au,         -4.0500 Debye
        Dipole field         -0.0030 Ry au, 
 
        Potential amp.        0.2787 Ry
        Total length         46.3494 bohr
 

     total cpu time spent up to now is      487.3 secs

     total energy              =   -2941.71217523 Ry
     estimated scf accuracy    <       2.08109608 Ry

     total magnetization       =    -0.14 Bohr mag/cell
     absolute magnetization    =     0.96 Bohr mag/cell

     iteration # 16     ecut=    29.40 Ry     beta= 0.05
     Davidson diagonalization with overlap
     c_bands:  1 eigenvalues not converged
     ethr =  5.24E-04,  avg # of iterations =  6.8

     negative rho (up, down):  2.486E-03 2.487E-03
 
     Adding external electric field

     Computed dipole along edir(3) : 
        Dipole               -1.7609 Ry au,         -4.4757 Debye
        Dipole field         -0.0033 Ry au, 
 
        Potential amp.        0.3080 Ry
        Total length         46.3494 bohr
 
 
     Adding external electric field

     Computed dipole along edir(3) : 
        Dipole               -1.7609 Ry au,         -4.4757 Debye
        Dipole field         -0.0033 Ry au, 
 
        Potential amp.        0.3080 Ry
        Total length         46.3494 bohr
 

     total cpu time spent up to now is      504.9 secs

     total energy              =   -2941.80925777 Ry
     estimated scf accuracy    <       1.58122681 Ry

     total magnetization       =    -0.01 Bohr mag/cell
     absolute magnetization    =     0.67 Bohr mag/cell

     iteration # 17     ecut=    29.40 Ry     beta= 0.05
     Davidson diagonalization with overlap
     c_bands:  2 eigenvalues not converged
     ethr =  3.98E-04,  avg # of iterations =  8.4

     negative rho (up, down):  2.428E-03 2.428E-03
 
     Adding external electric field

     Computed dipole along edir(3) : 
        Dipole               -2.3214 Ry au,         -5.9003 Debye
        Dipole field         -0.0044 Ry au, 
 
        Potential amp.        0.4061 Ry
        Total length         46.3494 bohr
 
 
     Adding external electric field

     Computed dipole along edir(3) : 
        Dipole               -2.3214 Ry au,         -5.9003 Debye
        Dipole field         -0.0044 Ry au, 
 
        Potential amp.        0.4061 Ry
        Total length         46.3494 bohr
 

     total cpu time spent up to now is      526.2 secs

     total energy              =   -2941.70596634 Ry
     estimated scf accuracy    <       1.75498126 Ry

     total magnetization       =    -0.05 Bohr mag/cell
     absolute magnetization    =     0.63 Bohr mag/cell

     iteration # 18     ecut=    29.40 Ry     beta= 0.05
     Davidson diagonalization with overlap
     c_bands:  1 eigenvalues not converged
     c_bands:  1 eigenvalues not converged
     c_bands:  3 eigenvalues not converged
     ethr =  3.98E-04,  avg # of iterations = 12.6

     negative rho (up, down):  2.456E-03 2.457E-03
 
     Adding external electric field

     Computed dipole along edir(3) : 
        Dipole               -2.1090 Ry au,         -5.3604 Debye
        Dipole field         -0.0040 Ry au, 
 
        Potential amp.        0.3689 Ry
        Total length         46.3494 bohr
 
 
     Adding external electric field

     Computed dipole along edir(3) : 
        Dipole               -2.1090 Ry au,         -5.3604 Debye
        Dipole field         -0.0040 Ry au, 
 
        Potential amp.        0.3689 Ry
        Total length         46.3494 bohr
 

     total cpu time spent up to now is      555.2 secs

     total energy              =   -2941.83831376 Ry
     estimated scf accuracy    <       2.04201043 Ry

     total magnetization       =     0.07 Bohr mag/cell
     absolute magnetization    =     0.35 Bohr mag/cell

     iteration # 19     ecut=    29.40 Ry     beta= 0.05
     Davidson diagonalization with overlap
     ethr =  3.98E-04,  avg # of iterations =  2.4

     negative rho (up, down):  2.679E-03 2.693E-03
 
     Adding external electric field

     Computed dipole along edir(3) : 
        Dipole               -0.6141 Ry au,         -1.5608 Debye
        Dipole field         -0.0012 Ry au, 
 
        Potential amp.        0.1074 Ry
        Total length         46.3494 bohr
 
 
     Adding external electric field

     Computed dipole along edir(3) : 
        Dipole               -0.6141 Ry au,         -1.5608 Debye
        Dipole field         -0.0012 Ry au, 
 
        Potential amp.        0.1074 Ry
        Total length         46.3494 bohr
 

     total cpu time spent up to now is      571.2 secs

     total energy              =   -2941.67696671 Ry
     estimated scf accuracy    <       2.05808381 Ry

     total magnetization       =     0.09 Bohr mag/cell
     absolute magnetization    =     0.37 Bohr mag/cell

     iteration # 20     ecut=    29.40 Ry     beta= 0.05
     Davidson diagonalization with overlap
     c_bands:  3 eigenvalues not converged
     c_bands:  1 eigenvalues not converged
     c_bands:  2 eigenvalues not converged
     c_bands:  2 eigenvalues not converged
     c_bands:  4 eigenvalues not converged
     c_bands:  1 eigenvalues not converged
     c_bands:  3 eigenvalues not converged
     c_bands:  1 eigenvalues not converged
     c_bands:  1 eigenvalues not converged
     c_bands:  1 eigenvalues not converged
     c_bands:  2 eigenvalues not converged
     ethr =  3.98E-04,  avg # of iterations = 15.5

     negative rho (up, down):  2.704E-03 2.715E-03
 
     Adding external electric field

     Computed dipole along edir(3) : 
        Dipole               -0.6076 Ry au,         -1.5443 Debye
        Dipole field         -0.0011 Ry au, 
 
        Potential amp.        0.1063 Ry
        Total length         46.3494 bohr
 
 
     Adding external electric field

     Computed dipole along edir(3) : 
        Dipole               -0.6076 Ry au,         -1.5443 Debye
        Dipole field         -0.0011 Ry au, 
 
        Potential amp.        0.1063 Ry
        Total length         46.3494 bohr
 

     total cpu time spent up to now is      596.1 secs

     total energy              =   -2941.94508867 Ry
     estimated scf accuracy    <       5.22088365 Ry

     total magnetization       =     0.28 Bohr mag/cell
     absolute magnetization    =     0.71 Bohr mag/cell

     iteration # 21     ecut=    29.40 Ry     beta= 0.05
     Davidson diagonalization with overlap
     c_bands:  3 eigenvalues not converged
     ethr =  3.98E-04,  avg # of iterations =  3.2

     negative rho (up, down):  2.724E-03 2.736E-03
 
     Adding external electric field

     Computed dipole along edir(3) : 
        Dipole               -0.4231 Ry au,         -1.0753 Debye
        Dipole field         -0.0008 Ry au, 
 
        Potential amp.        0.0740 Ry
        Total length         46.3494 bohr
 
 
     Adding external electric field

     Computed dipole along edir(3) : 
        Dipole               -0.4231 Ry au,         -1.0753 Debye
        Dipole field         -0.0008 Ry au, 
 
        Potential amp.        0.0740 Ry
        Total length         46.3494 bohr
 

     total cpu time spent up to now is      622.9 secs

     total energy              =   -2941.98187838 Ry
     estimated scf accuracy    <      14.23792017 Ry

     total magnetization       =     0.38 Bohr mag/cell
     absolute magnetization    =     0.82 Bohr mag/cell

     iteration # 22     ecut=    29.40 Ry     beta= 0.05
     Davidson diagonalization with overlap
     c_bands:  3 eigenvalues not converged
     ethr =  3.98E-04,  avg # of iterations =  3.0

     negative rho (up, down):  2.672E-03 2.678E-03
 
     Adding external electric field

     Computed dipole along edir(3) : 
        Dipole               -1.0485 Ry au,         -2.6650 Debye
        Dipole field         -0.0020 Ry au, 
 
        Potential amp.        0.1834 Ry
        Total length         46.3494 bohr
 
 
     Adding external electric field

     Computed dipole along edir(3) : 
        Dipole               -1.0485 Ry au,         -2.6650 Debye
        Dipole field         -0.0020 Ry au, 
 
        Potential amp.        0.1834 Ry
        Total length         46.3494 bohr
 

     total cpu time spent up to now is      639.5 secs

     total energy              =   -2941.61875428 Ry
     estimated scf accuracy    <      11.61924867 Ry

     total magnetization       =     0.30 Bohr mag/cell
     absolute magnetization    =     0.78 Bohr mag/cell

     iteration # 23     ecut=    29.40 Ry     beta= 0.05
     Davidson diagonalization with overlap
     ethr =  3.98E-04,  avg # of iterations =  2.8

     negative rho (up, down):  2.766E-03 2.775E-03
 
     Adding external electric field

     Computed dipole along edir(3) : 
        Dipole               -0.8361 Ry au,         -2.1251 Debye
        Dipole field         -0.0016 Ry au, 
 
        Potential amp.        0.1463 Ry
        Total length         46.3494 bohr
 
 
     Adding external electric field

     Computed dipole along edir(3) : 
        Dipole               -0.8361 Ry au,         -2.1251 Debye
        Dipole field         -0.0016 Ry au, 
 
        Potential amp.        0.1463 Ry
        Total length         46.3494 bohr
 

     total cpu time spent up to now is      658.1 secs

     total energy              =   -2941.74136753 Ry
     estimated scf accuracy    <       2.05415455 Ry

     total magnetization       =     0.14 Bohr mag/cell
     absolute magnetization    =     0.49 Bohr mag/cell

     iteration # 24     ecut=    29.40 Ry     beta= 0.05
     Davidson diagonalization with overlap
     ethr =  3.98E-04,  avg # of iterations =  1.0

     negative rho (up, down):  3.105E-03 3.122E-03
 
     Adding external electric field

     Computed dipole along edir(3) : 
        Dipole               -0.2559 Ry au,         -0.6504 Debye
        Dipole field         -0.0005 Ry au, 
 
        Potential amp.        0.0448 Ry
        Total length         46.3494 bohr
 
 
     Adding external electric field

     Computed dipole along edir(3) : 
        Dipole               -0.2559 Ry au,         -0.6504 Debye
        Dipole field         -0.0005 Ry au, 
 
        Potential amp.        0.0448 Ry
        Total length         46.3494 bohr
 

     total cpu time spent up to now is      688.7 secs

     total energy              =   -2941.63708252 Ry
     estimated scf accuracy    <       2.01241920 Ry

     total magnetization       =     0.13 Bohr mag/cell
     absolute magnetization    =     0.46 Bohr mag/cell

     iteration # 25     ecut=    29.40 Ry     beta= 0.05
     Davidson diagonalization with overlap
     ethr =  3.98E-04,  avg # of iterations =  1.6

     negative rho (up, down):  3.192E-03 3.211E-03
 
     Adding external electric field

     Computed dipole along edir(3) : 
        Dipole               -0.1003 Ry au,         -0.2550 Debye
        Dipole field         -0.0002 Ry au, 
 
        Potential amp.        0.0175 Ry
        Total length         46.3494 bohr
 
 
     Adding external electric field

     Computed dipole along edir(3) : 
        Dipole               -0.1003 Ry au,         -0.2550 Debye
        Dipole field         -0.0002 Ry au, 
 
        Potential amp.        0.0175 Ry
        Total length         46.3494 bohr
 

     total cpu time spent up to now is      705.6 secs

     total energy              =   -2941.66879766 Ry
     estimated scf accuracy    <       1.07585503 Ry

     total magnetization       =     0.01 Bohr mag/cell
     absolute magnetization    =     0.32 Bohr mag/cell

     iteration # 26     ecut=    29.40 Ry     beta= 0.05
     Davidson diagonalization with overlap
     ethr =  2.71E-04,  avg # of iterations =  1.6

     negative rho (up, down):  3.185E-03 3.201E-03
 
     Adding external electric field

     Computed dipole along edir(3) : 
        Dipole               -0.2014 Ry au,         -0.5119 Debye
        Dipole field         -0.0004 Ry au, 
 
        Potential amp.        0.0352 Ry
        Total length         46.3494 bohr
 
 
     Adding external electric field

     Computed dipole along edir(3) : 
        Dipole               -0.2014 Ry au,         -0.5119 Debye
        Dipole field         -0.0004 Ry au, 
 
        Potential amp.        0.0352 Ry
        Total length         46.3494 bohr
 

     total cpu time spent up to now is      719.8 secs

     total energy              =   -2941.66072705 Ry
     estimated scf accuracy    <       0.93973835 Ry

     total magnetization       =    -0.03 Bohr mag/cell
     absolute magnetization    =     0.29 Bohr mag/cell

     iteration # 27     ecut=    29.40 Ry     beta= 0.05
     Davidson diagonalization with overlap
     ethr =  2.37E-04,  avg # of iterations =  1.6

     negative rho (up, down):  3.067E-03 3.076E-03
 
     Adding external electric field

     Computed dipole along edir(3) : 
        Dipole               -0.4050 Ry au,         -1.0293 Debye
        Dipole field         -0.0008 Ry au, 
 
        Potential amp.        0.0708 Ry
        Total length         46.3494 bohr
 
 
     Adding external electric field

     Computed dipole along edir(3) : 
        Dipole               -0.4050 Ry au,         -1.0293 Debye
        Dipole field         -0.0008 Ry au, 
 
        Potential amp.        0.0708 Ry
        Total length         46.3494 bohr
 

     total cpu time spent up to now is      733.9 secs

     total energy              =   -2941.63200721 Ry
     estimated scf accuracy    <       0.79098289 Ry

     total magnetization       =    -0.06 Bohr mag/cell
     absolute magnetization    =     0.28 Bohr mag/cell

     iteration # 28     ecut=    29.40 Ry     beta= 0.05
     Davidson diagonalization with overlap
     ethr =  1.99E-04,  avg # of iterations =  9.4

     negative rho (up, down):  3.253E-03 3.269E-03
 
     Adding external electric field

     Computed dipole along edir(3) : 
        Dipole                0.1091 Ry au,          0.2773 Debye
        Dipole field          0.0002 Ry au, 
 
        Potential amp.       -0.0191 Ry
        Total length         46.3494 bohr
 
 
     Adding external electric field

     Computed dipole along edir(3) : 
        Dipole                0.1091 Ry au,          0.2773 Debye
        Dipole field          0.0002 Ry au, 
 
        Potential amp.       -0.0191 Ry
        Total length         46.3494 bohr
 

     total cpu time spent up to now is      753.5 secs

     total energy              =   -2941.63955199 Ry
     estimated scf accuracy    <       0.46351016 Ry

     total magnetization       =    -0.04 Bohr mag/cell
     absolute magnetization    =     0.25 Bohr mag/cell

     iteration # 29     ecut=    29.40 Ry     beta= 0.05
     Davidson diagonalization with overlap
     c_bands:  2 eigenvalues not converged
     c_bands:  2 eigenvalues not converged
     c_bands:  2 eigenvalues not converged
     c_bands:  2 eigenvalues not converged
     c_bands:  3 eigenvalues not converged
     ethr =  1.17E-04,  avg # of iterations = 14.2

     negative rho (up, down):  3.282E-03 3.302E-03
 
     Adding external electric field

     Computed dipole along edir(3) : 
        Dipole                0.2864 Ry au,          0.7279 Debye
        Dipole field          0.0005 Ry au, 
 
        Potential amp.       -0.0501 Ry
        Total length         46.3494 bohr
 
 
     Adding external electric field

     Computed dipole along edir(3) : 
        Dipole                0.2864 Ry au,          0.7279 Debye
        Dipole field          0.0005 Ry au, 
 
        Potential amp.       -0.0501 Ry
        Total length         46.3494 bohr
 

     total cpu time spent up to now is      776.1 secs

     total energy              =   -2941.65740750 Ry
     estimated scf accuracy    <       0.31939888 Ry

     total magnetization       =    -0.05 Bohr mag/cell
     absolute magnetization    =     0.26 Bohr mag/cell

     iteration # 30     ecut=    29.40 Ry     beta= 0.05
     Davidson diagonalization with overlap
     c_bands:  3 eigenvalues not converged
     c_bands:  5 eigenvalues not converged
     ethr =  8.05E-05,  avg # of iterations = 10.6

     negative rho (up, down):  3.340E-03 3.356E-03
 
     Adding external electric field

     Computed dipole along edir(3) : 
        Dipole                0.4341 Ry au,          1.1034 Debye
        Dipole field          0.0008 Ry au, 
 
        Potential amp.       -0.0759 Ry
        Total length         46.3494 bohr
 
 
     Adding external electric field

     Computed dipole along edir(3) : 
        Dipole                0.4341 Ry au,          1.1034 Debye
        Dipole field          0.0008 Ry au, 
 
        Potential amp.       -0.0759 Ry
        Total length         46.3494 bohr
 

     total cpu time spent up to now is      795.2 secs

     total energy              =   -2941.63528271 Ry
     estimated scf accuracy    <       0.55487358 Ry

     total magnetization       =    -0.03 Bohr mag/cell
     absolute magnetization    =     0.24 Bohr mag/cell

     iteration # 31     ecut=    29.40 Ry     beta= 0.05
     Davidson diagonalization with overlap
     c_bands:  1 eigenvalues not converged
     ethr =  8.05E-05,  avg # of iterations =  4.0

     negative rho (up, down):  3.676E-03 3.685E-03
 
     Adding external electric field

     Computed dipole along edir(3) : 
        Dipole                0.7917 Ry au,          2.0122 Debye
        Dipole field          0.0015 Ry au, 
 
        Potential amp.       -0.1385 Ry
        Total length         46.3494 bohr
 
 
     Adding external electric field

     Computed dipole along edir(3) : 
        Dipole                0.7917 Ry au,          2.0122 Debye
        Dipole field          0.0015 Ry au, 
 
        Potential amp.       -0.1385 Ry
        Total length         46.3494 bohr
 

     total cpu time spent up to now is      810.4 secs

     total energy              =   -2941.59807414 Ry
     estimated scf accuracy    <       0.30977993 Ry

     total magnetization       =    -0.03 Bohr mag/cell
     absolute magnetization    =     0.23 Bohr mag/cell

     iteration # 32     ecut=    29.40 Ry     beta= 0.05
     Davidson diagonalization with overlap
     c_bands:  2 eigenvalues not converged
     c_bands:  1 eigenvalues not converged
     c_bands:  3 eigenvalues not converged
     c_bands:  4 eigenvalues not converged
     c_bands:  5 eigenvalues not converged
     c_bands:  5 eigenvalues not converged
     c_bands:  1 eigenvalues not converged
     c_bands:  5 eigenvalues not converged
     c_bands:  5 eigenvalues not converged
     c_bands:  2 eigenvalues not converged
     c_bands:  4 eigenvalues not converged
     c_bands:  1 eigenvalues not converged
     c_bands:  4 eigenvalues not converged
     c_bands:  3 eigenvalues not converged
     c_bands:  5 eigenvalues not converged
     c_bands:  4 eigenvalues not converged
     c_bands:  1 eigenvalues not converged
     c_bands:  3 eigenvalues not converged
     ethr =  7.80E-05,  avg # of iterations = 22.2

     negative rho (up, down):  3.651E-03 3.664E-03
 
     Adding external electric field

     Computed dipole along edir(3) : 
        Dipole                0.7357 Ry au,          1.8699 Debye
        Dipole field          0.0014 Ry au, 
 
        Potential amp.       -0.1287 Ry
        Total length         46.3494 bohr
 
 
     Adding external electric field

     Computed dipole along edir(3) : 
        Dipole                0.7357 Ry au,          1.8699 Debye
        Dipole field          0.0014 Ry au, 
 
        Potential amp.       -0.1287 Ry
        Total length         46.3494 bohr
 

     total cpu time spent up to now is      851.2 secs

     total energy              =   -2941.63857019 Ry
     estimated scf accuracy    <       0.42753604 Ry

     total magnetization       =     0.02 Bohr mag/cell
     absolute magnetization    =     0.14 Bohr mag/cell

     iteration # 33     ecut=    29.40 Ry     beta= 0.05
     Davidson diagonalization with overlap
     ethr =  7.80E-05,  avg # of iterations =  5.7

     negative rho (up, down):  3.660E-03 3.674E-03
 
     Adding external electric field

     Computed dipole along edir(3) : 
        Dipole                0.7358 Ry au,          1.8703 Debye
        Dipole field          0.0014 Ry au, 
 
        Potential amp.       -0.1287 Ry
        Total length         46.3494 bohr
 
 
     Adding external electric field

     Computed dipole along edir(3) : 
        Dipole                0.7358 Ry au,          1.8703 Debye
        Dipole field          0.0014 Ry au, 
 
        Potential amp.       -0.1287 Ry
        Total length         46.3494 bohr
 

     total cpu time spent up to now is      871.6 secs

     total energy              =   -2941.63029555 Ry
     estimated scf accuracy    <       0.24772422 Ry

     total magnetization       =     0.01 Bohr mag/cell
     absolute magnetization    =     0.15 Bohr mag/cell

     iteration # 34     ecut=    29.40 Ry     beta= 0.05
     Davidson diagonalization with overlap
     c_bands:  5 eigenvalues not converged
     c_bands:  2 eigenvalues not converged
     c_bands:  2 eigenvalues not converged
     c_bands:  1 eigenvalues not converged
     c_bands:  1 eigenvalues not converged
     c_bands:  3 eigenvalues not converged
     c_bands:  2 eigenvalues not converged
     c_bands:  1 eigenvalues not converged
     c_bands:  1 eigenvalues not converged
     c_bands:  1 eigenvalues not converged
     ethr =  6.24E-05,  avg # of iterations = 16.2

     negative rho (up, down):  3.915E-03 3.931E-03
 
     Adding external electric field

     Computed dipole along edir(3) : 
        Dipole                0.8934 Ry au,          2.2708 Debye
        Dipole field          0.0017 Ry au, 
 
        Potential amp.       -0.1563 Ry
        Total length         46.3494 bohr
 
 
     Adding external electric field

     Computed dipole along edir(3) : 
        Dipole                0.8934 Ry au,          2.2708 Debye
        Dipole field          0.0017 Ry au, 
 
        Potential amp.       -0.1563 Ry
        Total length         46.3494 bohr
 

     total cpu time spent up to now is      917.2 secs

     total energy              =   -2941.63688226 Ry
     estimated scf accuracy    <       0.03866590 Ry

     total magnetization       =    -0.02 Bohr mag/cell
     absolute magnetization    =     0.16 Bohr mag/cell

     iteration # 35     ecut=    29.40 Ry     beta= 0.05
     Davidson diagonalization with overlap
     c_bands:  2 eigenvalues not converged
     c_bands:  1 eigenvalues not converged
     c_bands:  2 eigenvalues not converged
     c_bands:  3 eigenvalues not converged
     c_bands:  2 eigenvalues not converged
     c_bands:  1 eigenvalues not converged
     c_bands:  1 eigenvalues not converged
     c_bands:  3 eigenvalues not converged
     c_bands:  1 eigenvalues not converged
     c_bands:  1 eigenvalues not converged
     c_bands:  2 eigenvalues not converged
     c_bands:  1 eigenvalues not converged
     c_bands:  4 eigenvalues not converged
     c_bands:  3 eigenvalues not converged
     c_bands:  4 eigenvalues not converged
     c_bands:  1 eigenvalues not converged
     c_bands:  3 eigenvalues not converged
     c_bands:  3 eigenvalues not converged
     ethr =  9.74E-06,  avg # of iterations = 19.4

     negative rho (up, down):  4.240E-03 4.247E-03
 
     Adding external electric field

     Computed dipole along edir(3) : 
        Dipole                1.0723 Ry au,          2.7256 Debye
        Dipole field          0.0020 Ry au, 
 
        Potential amp.       -0.1876 Ry
        Total length         46.3494 bohr
 
 
     Adding external electric field

     Computed dipole along edir(3) : 
        Dipole                1.0723 Ry au,          2.7256 Debye
        Dipole field          0.0020 Ry au, 
 
        Potential amp.       -0.1876 Ry
        Total length         46.3494 bohr
 

     total cpu time spent up to now is      966.0 secs

     total energy              =   -2941.62857824 Ry
     estimated scf accuracy    <       0.05667771 Ry

     total magnetization       =    -0.01 Bohr mag/cell
     absolute magnetization    =     0.16 Bohr mag/cell

     iteration # 36     ecut=    29.40 Ry     beta= 0.05
     Davidson diagonalization with overlap
     c_bands:  1 eigenvalues not converged
     c_bands:  3 eigenvalues not converged
     c_bands:  3 eigenvalues not converged
     c_bands:  3 eigenvalues not converged
     c_bands:  4 eigenvalues not converged
     c_bands:  1 eigenvalues not converged
     c_bands:  3 eigenvalues not converged
     c_bands:  2 eigenvalues not converged
     c_bands:  2 eigenvalues not converged
     c_bands:  2 eigenvalues not converged
     c_bands:  2 eigenvalues not converged
     c_bands:  3 eigenvalues not converged
     c_bands:  3 eigenvalues not converged
     c_bands:  3 eigenvalues not converged
     c_bands:  4 eigenvalues not converged
     c_bands:  2 eigenvalues not converged
     c_bands:  4 eigenvalues not converged
     c_bands:  2 eigenvalues not converged
     c_bands:  2 eigenvalues not converged
     c_bands:  2 eigenvalues not converged
     ethr =  9.74E-06,  avg # of iterations = 20.0

     negative rho (up, down):  4.253E-03 4.261E-03
 
     Adding external electric field

     Computed dipole along edir(3) : 
        Dipole                1.0813 Ry au,          2.7485 Debye
        Dipole field          0.0020 Ry au, 
 
        Potential amp.       -0.1892 Ry
        Total length         46.3494 bohr
 
 
     Adding external electric field

     Computed dipole along edir(3) : 
        Dipole                1.0813 Ry au,          2.7485 Debye
        Dipole field          0.0020 Ry au, 
 
        Potential amp.       -0.1892 Ry
        Total length         46.3494 bohr
 

     total cpu time spent up to now is     1015.0 secs

     total energy              =   -2941.65536483 Ry
     estimated scf accuracy    <       0.29767270 Ry

     total magnetization       =     0.02 Bohr mag/cell
     absolute magnetization    =     0.12 Bohr mag/cell

     iteration # 37     ecut=    29.40 Ry     beta= 0.05
     Davidson diagonalization with overlap
     c_bands:  2 eigenvalues not converged
     c_bands:  1 eigenvalues not converged
     c_bands:  1 eigenvalues not converged
     c_bands:  1 eigenvalues not converged
     c_bands:  1 eigenvalues not converged
     ethr =  9.74E-06,  avg # of iterations =  9.8

     negative rho (up, down):  4.779E-03 4.790E-03
 
     Adding external electric field

     Computed dipole along edir(3) : 
        Dipole                1.1968 Ry au,          3.0419 Debye
        Dipole field          0.0023 Ry au, 
 
        Potential amp.       -0.2094 Ry
        Total length         46.3494 bohr
 
 
     Adding external electric field

     Computed dipole along edir(3) : 
        Dipole                1.1968 Ry au,          3.0419 Debye
        Dipole field          0.0023 Ry au, 
 
        Potential amp.       -0.2094 Ry
        Total length         46.3494 bohr
 

     total cpu time spent up to now is     1043.3 secs

     total energy              =   -2941.63655751 Ry
     estimated scf accuracy    <       0.32934428 Ry

     total magnetization       =     0.02 Bohr mag/cell
     absolute magnetization    =     0.12 Bohr mag/cell

     iteration # 38     ecut=    29.40 Ry     beta= 0.05
     Davidson diagonalization with overlap
     c_bands:  2 eigenvalues not converged
     c_bands:  1 eigenvalues not converged
     c_bands:  1 eigenvalues not converged
     c_bands:  1 eigenvalues not converged
     c_bands:  2 eigenvalues not converged
     c_bands:  1 eigenvalues not converged
     c_bands:  1 eigenvalues not converged
     ethr =  9.74E-06,  avg # of iterations = 17.1

     negative rho (up, down):  4.916E-03 4.928E-03
 
     Adding external electric field

     Computed dipole along edir(3) : 
        Dipole                1.1973 Ry au,          3.0431 Debye
        Dipole field          0.0023 Ry au, 
 
        Potential amp.       -0.2094 Ry
        Total length         46.3494 bohr
 
 
     Adding external electric field

     Computed dipole along edir(3) : 
        Dipole                1.1973 Ry au,          3.0431 Debye
        Dipole field          0.0023 Ry au, 
 
        Potential amp.       -0.2094 Ry
        Total length         46.3494 bohr
 

     total cpu time spent up to now is     1070.0 secs

     total energy              =   -2941.63743470 Ry
     estimated scf accuracy    <       0.15928310 Ry

     total magnetization       =     0.01 Bohr mag/cell
     absolute magnetization    =     0.12 Bohr mag/cell

     iteration # 39     ecut=    29.40 Ry     beta= 0.05
     Davidson diagonalization with overlap
     c_bands:  1 eigenvalues not converged
     c_bands:  1 eigenvalues not converged
     ethr =  9.74E-06,  avg # of iterations = 11.9

     negative rho (up, down):  5.077E-03 5.090E-03
 
     Adding external electric field

     Computed dipole along edir(3) : 
        Dipole                1.1124 Ry au,          2.8274 Debye
        Dipole field          0.0021 Ry au, 
 
        Potential amp.       -0.1946 Ry
        Total length         46.3494 bohr
 
 
     Adding external electric field

     Computed dipole along edir(3) : 
        Dipole                1.1124 Ry au,          2.8274 Debye
        Dipole field          0.0021 Ry au, 
 
        Potential amp.       -0.1946 Ry
        Total length         46.3494 bohr
 

     total cpu time spent up to now is     1090.2 secs

     total energy              =   -2941.63413343 Ry
     estimated scf accuracy    <       0.07574435 Ry

     total magnetization       =     0.00 Bohr mag/cell
     absolute magnetization    =     0.12 Bohr mag/cell

     iteration # 40     ecut=    29.40 Ry     beta= 0.05
     Davidson diagonalization with overlap
     c_bands:  2 eigenvalues not converged
     c_bands:  4 eigenvalues not converged
     c_bands:  1 eigenvalues not converged
     c_bands:  2 eigenvalues not converged
     c_bands:  1 eigenvalues not converged
     c_bands:  2 eigenvalues not converged
     c_bands:  1 eigenvalues not converged
     c_bands:  5 eigenvalues not converged
     c_bands:  1 eigenvalues not converged
     c_bands:  2 eigenvalues not converged
     ethr =  9.74E-06,  avg # of iterations = 18.4

     negative rho (up, down):  4.611E-03 4.623E-03
 
     Adding external electric field

     Computed dipole along edir(3) : 
        Dipole                0.9776 Ry au,          2.4849 Debye
        Dipole field          0.0018 Ry au, 
 
        Potential amp.       -0.1710 Ry
        Total length         46.3494 bohr
 
 
     Adding external electric field

     Computed dipole along edir(3) : 
        Dipole                0.9776 Ry au,          2.4849 Debye
        Dipole field          0.0018 Ry au, 
 
        Potential amp.       -0.1710 Ry
        Total length         46.3494 bohr
 

     total cpu time spent up to now is     1119.2 secs

     total energy              =   -2941.63432934 Ry
     estimated scf accuracy    <       0.08351057 Ry

     total magnetization       =    -0.01 Bohr mag/cell
     absolute magnetization    =     0.12 Bohr mag/cell

     iteration # 41     ecut=    29.40 Ry     beta= 0.05
     Davidson diagonalization with overlap
     c_bands:  1 eigenvalues not converged
     ethr =  9.74E-06,  avg # of iterations = 10.6

     negative rho (up, down):  4.547E-03 4.559E-03
 
     Adding external electric field

     Computed dipole along edir(3) : 
        Dipole                0.9219 Ry au,          2.3432 Debye
        Dipole field          0.0017 Ry au, 
 
        Potential amp.       -0.1613 Ry
        Total length         46.3494 bohr
 
 
     Adding external electric field

     Computed dipole along edir(3) : 
        Dipole                0.9219 Ry au,          2.3432 Debye
        Dipole field          0.0017 Ry au, 
 
        Potential amp.       -0.1613 Ry
        Total length         46.3494 bohr
 

     total cpu time spent up to now is     1141.7 secs

     total energy              =   -2941.63475908 Ry
     estimated scf accuracy    <       0.01783302 Ry

     total magnetization       =    -0.01 Bohr mag/cell
     absolute magnetization    =     0.12 Bohr mag/cell

     iteration # 42     ecut=    29.40 Ry     beta= 0.05
     Davidson diagonalization with overlap
     c_bands:  1 eigenvalues not converged
     c_bands:  1 eigenvalues not converged
     c_bands:  1 eigenvalues not converged
     c_bands:  2 eigenvalues not converged
     c_bands:  1 eigenvalues not converged
     c_bands:  1 eigenvalues not converged
     c_bands:  2 eigenvalues not converged
     c_bands:  2 eigenvalues not converged
     c_bands:  1 eigenvalues not converged
     c_bands:  3 eigenvalues not converged
     ethr =  4.49E-06,  avg # of iterations = 17.9

     negative rho (up, down):  5.851E-03 5.862E-03
 
     Adding external electric field

     Computed dipole along edir(3) : 
        Dipole                1.1080 Ry au,          2.8162 Debye
        Dipole field          0.0021 Ry au, 
 
        Potential amp.       -0.1938 Ry
        Total length         46.3494 bohr
 
 
     Adding external electric field

     Computed dipole along edir(3) : 
        Dipole                1.1080 Ry au,          2.8162 Debye
        Dipole field          0.0021 Ry au, 
 
        Potential amp.       -0.1938 Ry
        Total length         46.3494 bohr
 

     total cpu time spent up to now is     1169.4 secs

     total energy              =   -2941.63546946 Ry
     estimated scf accuracy    <       0.00869269 Ry

     total magnetization       =    -0.00 Bohr mag/cell
     absolute magnetization    =     0.12 Bohr mag/cell

     iteration # 43     ecut=    29.40 Ry     beta= 0.05
     Davidson diagonalization with overlap
     c_bands:  1 eigenvalues not converged
     c_bands:  1 eigenvalues not converged
     c_bands:  2 eigenvalues not converged
     c_bands:  1 eigenvalues not converged
     c_bands:  1 eigenvalues not converged
     c_bands:  1 eigenvalues not converged
     ethr =  2.19E-06,  avg # of iterations = 16.9

     negative rho (up, down):  5.817E-03 5.827E-03
 
     Adding external electric field

     Computed dipole along edir(3) : 
        Dipole                1.0737 Ry au,          2.7290 Debye
        Dipole field          0.0020 Ry au, 
 
        Potential amp.       -0.1878 Ry
        Total length         46.3494 bohr
 
 
     Adding external electric field

     Computed dipole along edir(3) : 
        Dipole                1.0737 Ry au,          2.7290 Debye
        Dipole field          0.0020 Ry au, 
 
        Potential amp.       -0.1878 Ry
        Total length         46.3494 bohr
 

     total cpu time spent up to now is     1200.9 secs

     total energy              =   -2941.63800070 Ry
     estimated scf accuracy    <       0.05074459 Ry

     total magnetization       =    -0.01 Bohr mag/cell
     absolute magnetization    =     0.10 Bohr mag/cell

     iteration # 44     ecut=    29.40 Ry     beta= 0.05
     Davidson diagonalization with overlap
     ethr =  2.19E-06,  avg # of iterations =  7.0

     negative rho (up, down):  5.571E-03 5.581E-03
 
     Adding external electric field

     Computed dipole along edir(3) : 
        Dipole                1.0417 Ry au,          2.6477 Debye
        Dipole field          0.0020 Ry au, 
 
        Potential amp.       -0.1822 Ry
        Total length         46.3494 bohr
 
 
     Adding external electric field

     Computed dipole along edir(3) : 
        Dipole                1.0417 Ry au,          2.6477 Debye
        Dipole field          0.0020 Ry au, 
 
        Potential amp.       -0.1822 Ry
        Total length         46.3494 bohr
 

     total cpu time spent up to now is     1218.3 secs

     total energy              =   -2941.63727231 Ry
     estimated scf accuracy    <       0.02624652 Ry

     total magnetization       =    -0.01 Bohr mag/cell
     absolute magnetization    =     0.10 Bohr mag/cell

     iteration # 45     ecut=    29.40 Ry     beta= 0.05
     Davidson diagonalization with overlap
     c_bands:  1 eigenvalues not converged
     ethr =  2.19E-06,  avg # of iterations = 12.4

     negative rho (up, down):  5.637E-03 5.648E-03
 
     Adding external electric field

     Computed dipole along edir(3) : 
        Dipole                1.0420 Ry au,          2.6486 Debye
        Dipole field          0.0020 Ry au, 
 
        Potential amp.       -0.1823 Ry
        Total length         46.3494 bohr
 
 
     Adding external electric field

     Computed dipole along edir(3) : 
        Dipole                1.0420 Ry au,          2.6486 Debye
        Dipole field          0.0020 Ry au, 
 
        Potential amp.       -0.1823 Ry
        Total length         46.3494 bohr
 

     total cpu time spent up to now is     1239.6 secs

     total energy              =   -2941.63695085 Ry
     estimated scf accuracy    <       0.01093936 Ry

     total magnetization       =    -0.01 Bohr mag/cell
     absolute magnetization    =     0.10 Bohr mag/cell

     iteration # 46     ecut=    29.40 Ry     beta= 0.05
     Davidson diagonalization with overlap
     c_bands:  1 eigenvalues not converged
     ethr =  2.19E-06,  avg # of iterations =  5.7

     negative rho (up, down):  6.356E-03 6.364E-03
 
     Adding external electric field

     Computed dipole along edir(3) : 
        Dipole                1.0578 Ry au,          2.6887 Debye
        Dipole field          0.0020 Ry au, 
 
        Potential amp.       -0.1850 Ry
        Total length         46.3494 bohr
 
 
     Adding external electric field

     Computed dipole along edir(3) : 
        Dipole                1.0578 Ry au,          2.6887 Debye
        Dipole field          0.0020 Ry au, 
 
        Potential amp.       -0.1850 Ry
        Total length         46.3494 bohr
 

     total cpu time spent up to now is     1257.2 secs

     total energy              =   -2941.63689410 Ry
     estimated scf accuracy    <       0.00280374 Ry

     total magnetization       =    -0.01 Bohr mag/cell
     absolute magnetization    =     0.10 Bohr mag/cell

     iteration # 47     ecut=    29.40 Ry     beta= 0.05
     Davidson diagonalization with overlap
     c_bands:  1 eigenvalues not converged
     c_bands:  2 eigenvalues not converged
     c_bands:  2 eigenvalues not converged
     c_bands:  3 eigenvalues not converged
     c_bands:  2 eigenvalues not converged
     c_bands:  2 eigenvalues not converged
     c_bands:  1 eigenvalues not converged
     c_bands:  1 eigenvalues not converged
     c_bands:  1 eigenvalues not converged
     c_bands:  2 eigenvalues not converged
     c_bands:  2 eigenvalues not converged
     c_bands:  2 eigenvalues not converged
     c_bands:  2 eigenvalues not converged
     c_bands:  2 eigenvalues not converged
     c_bands:  1 eigenvalues not converged
     c_bands:  1 eigenvalues not converged
     ethr =  7.06E-07,  avg # of iterations = 18.6

     negative rho (up, down):  7.334E-03 7.339E-03
 
     Adding external electric field

     Computed dipole along edir(3) : 
        Dipole                1.1264 Ry au,          2.8629 Debye
        Dipole field          0.0021 Ry au, 
 
        Potential amp.       -0.1970 Ry
        Total length         46.3494 bohr
 
 
     Adding external electric field

     Computed dipole along edir(3) : 
        Dipole                1.1264 Ry au,          2.8629 Debye
        Dipole field          0.0021 Ry au, 
 
        Potential amp.       -0.1970 Ry
        Total length         46.3494 bohr
 

     total cpu time spent up to now is     1292.6 secs

     total energy              =   -2941.63721898 Ry
     estimated scf accuracy    <       0.01249698 Ry

     total magnetization       =    -0.00 Bohr mag/cell
     absolute magnetization    =     0.08 Bohr mag/cell

     iteration # 48     ecut=    29.40 Ry     beta= 0.05
     Davidson diagonalization with overlap
     c_bands:  2 eigenvalues not converged
     c_bands:  1 eigenvalues not converged
     c_bands:  1 eigenvalues not converged
     ethr =  7.06E-07,  avg # of iterations = 14.8

     negative rho (up, down):  7.551E-03 7.556E-03
 
     Adding external electric field

     Computed dipole along edir(3) : 
        Dipole                1.1425 Ry au,          2.9039 Debye
        Dipole field          0.0022 Ry au, 
 
        Potential amp.       -0.1999 Ry
        Total length         46.3494 bohr
 
 
     Adding external electric field

     Computed dipole along edir(3) : 
        Dipole                1.1425 Ry au,          2.9039 Debye
        Dipole field          0.0022 Ry au, 
 
        Potential amp.       -0.1999 Ry
        Total length         46.3494 bohr
 

     total cpu time spent up to now is     1317.8 secs

     total energy              =   -2941.63775795 Ry
     estimated scf accuracy    <       0.00073368 Ry

     total magnetization       =    -0.00 Bohr mag/cell
     absolute magnetization    =     0.07 Bohr mag/cell

     iteration # 49     ecut=    29.40 Ry     beta= 0.05
     Davidson diagonalization with overlap
     ethr =  1.85E-07,  avg # of iterations = 12.9

     negative rho (up, down):  7.679E-03 7.684E-03
 
     Adding external electric field

     Computed dipole along edir(3) : 
        Dipole                1.1432 Ry au,          2.9058 Debye
        Dipole field          0.0022 Ry au, 
 
        Potential amp.       -0.2000 Ry
        Total length         46.3494 bohr
 
 
     Adding external electric field

     Computed dipole along edir(3) : 
        Dipole                1.1432 Ry au,          2.9058 Debye
        Dipole field          0.0022 Ry au, 
 
        Potential amp.       -0.2000 Ry
        Total length         46.3494 bohr
 

     total cpu time spent up to now is     1345.2 secs

     total energy              =   -2941.63785394 Ry
     estimated scf accuracy    <       0.00034559 Ry

     total magnetization       =    -0.00 Bohr mag/cell
     absolute magnetization    =     0.07 Bohr mag/cell

     iteration # 50     ecut=    29.40 Ry     beta= 0.05
     Davidson diagonalization with overlap
     ethr =  8.71E-08,  avg # of iterations =  9.9

     negative rho (up, down):  7.831E-03 7.836E-03
 
     Adding external electric field

     Computed dipole along edir(3) : 
        Dipole                1.1483 Ry au,          2.9187 Debye
        Dipole field          0.0022 Ry au, 
 
        Potential amp.       -0.2009 Ry
        Total length         46.3494 bohr
 
 
     Adding external electric field

     Computed dipole along edir(3) : 
        Dipole                1.1483 Ry au,          2.9187 Debye
        Dipole field          0.0022 Ry au, 
 
        Potential amp.       -0.2009 Ry
        Total length         46.3494 bohr
 

     total cpu time spent up to now is     1370.1 secs

     total energy              =   -2941.63789873 Ry
     estimated scf accuracy    <       0.00019664 Ry

     total magnetization       =    -0.00 Bohr mag/cell
     absolute magnetization    =     0.07 Bohr mag/cell

     iteration # 51     ecut=    29.40 Ry     beta= 0.05
     Davidson diagonalization with overlap
     ethr =  4.95E-08,  avg # of iterations =  5.1

     negative rho (up, down):  8.080E-03 8.083E-03
 
     Adding external electric field

     Computed dipole along edir(3) : 
        Dipole                1.1411 Ry au,          2.9004 Debye
        Dipole field          0.0022 Ry au, 
 
        Potential amp.       -0.1996 Ry
        Total length         46.3494 bohr
 
 
     Adding external electric field

     Computed dipole along edir(3) : 
        Dipole                1.1411 Ry au,          2.9004 Debye
        Dipole field          0.0022 Ry au, 
 
        Potential amp.       -0.1996 Ry
        Total length         46.3494 bohr
 

     total cpu time spent up to now is     1386.7 secs

     total energy              =   -2941.63791398 Ry
     estimated scf accuracy    <       0.00014380 Ry

     total magnetization       =    -0.00 Bohr mag/cell
     absolute magnetization    =     0.06 Bohr mag/cell

     iteration # 52     ecut=    29.40 Ry     beta= 0.05
     Davidson diagonalization with overlap
     c_bands:  2 eigenvalues not converged
     c_bands:  1 eigenvalues not converged
     ethr =  3.62E-08,  avg # of iterations = 13.6

     negative rho (up, down):  8.093E-03 8.096E-03
 
     Adding external electric field

     Computed dipole along edir(3) : 
        Dipole                1.1450 Ry au,          2.9102 Debye
        Dipole field          0.0022 Ry au, 
 
        Potential amp.       -0.2003 Ry
        Total length         46.3494 bohr
 
 
     Adding external electric field

     Computed dipole along edir(3) : 
        Dipole                1.1450 Ry au,          2.9102 Debye
        Dipole field          0.0022 Ry au, 
 
        Potential amp.       -0.2003 Ry
        Total length         46.3494 bohr
 

     total cpu time spent up to now is     1413.0 secs

     total energy              =   -2941.63794574 Ry
     estimated scf accuracy    <       0.00010291 Ry

     total magnetization       =    -0.00 Bohr mag/cell
     absolute magnetization    =     0.05 Bohr mag/cell

     iteration # 53     ecut=    29.40 Ry     beta= 0.05
     Davidson diagonalization with overlap
     c_bands:  1 eigenvalues not converged
     c_bands:  1 eigenvalues not converged
     ethr =  2.59E-08,  avg # of iterations =  4.5

     negative rho (up, down):  8.156E-03 8.159E-03
 
     Adding external electric field

     Computed dipole along edir(3) : 
        Dipole                1.1472 Ry au,          2.9158 Debye
        Dipole field          0.0022 Ry au, 
 
        Potential amp.       -0.2007 Ry
        Total length         46.3494 bohr
 
 
     Adding external electric field

     Computed dipole along edir(3) : 
        Dipole                1.1472 Ry au,          2.9158 Debye
        Dipole field          0.0022 Ry au, 
 
        Potential amp.       -0.2007 Ry
        Total length         46.3494 bohr
 

     total cpu time spent up to now is     1437.4 secs

     total energy              =   -2941.63795698 Ry
     estimated scf accuracy    <       0.00005763 Ry

     total magnetization       =    -0.00 Bohr mag/cell
     absolute magnetization    =     0.05 Bohr mag/cell

     iteration # 54     ecut=    29.40 Ry     beta= 0.05
     Davidson diagonalization with overlap
     c_bands:  1 eigenvalues not converged
     c_bands:  1 eigenvalues not converged
     ethr =  1.45E-08,  avg # of iterations = 13.3

     negative rho (up, down):  8.249E-03 8.250E-03
 
     Adding external electric field

     Computed dipole along edir(3) : 
        Dipole                1.1468 Ry au,          2.9148 Debye
        Dipole field          0.0022 Ry au, 
 
        Potential amp.       -0.2006 Ry
        Total length         46.3494 bohr
 
 
     Adding external electric field

     Computed dipole along edir(3) : 
        Dipole                1.1468 Ry au,          2.9148 Debye
        Dipole field          0.0022 Ry au, 
 
        Potential amp.       -0.2006 Ry
        Total length         46.3494 bohr
 

     total cpu time spent up to now is     1476.2 secs

     total energy              =   -2941.63797468 Ry
     estimated scf accuracy    <       0.00003188 Ry

     total magnetization       =    -0.00 Bohr mag/cell
     absolute magnetization    =     0.05 Bohr mag/cell

     iteration # 55     ecut=    29.40 Ry     beta= 0.05
     Davidson diagonalization with overlap
     ethr =  8.03E-09,  avg # of iterations =  3.4

     negative rho (up, down):  8.268E-03 8.269E-03
 
     Adding external electric field

     Computed dipole along edir(3) : 
        Dipole                1.1458 Ry au,          2.9122 Debye
        Dipole field          0.0022 Ry au, 
 
        Potential amp.       -0.2004 Ry
[...]
     0.6758   0.7337   0.8029   0.8378   0.8627   1.0896   1.1315   1.4168
     1.4381   1.4962   1.6478   1.6747   1.9427   2.0163   3.5971   3.6251
     3.8931   3.9287   3.9441   3.9858   4.0138   4.0186   4.0369   4.0796

          k = 0.0380 0.0419 0.0000 ( 17878 PWs)   bands (ev):

   -55.5691 -55.5674 -55.5434 -55.5414 -55.4565 -55.4281 -55.4182 -55.3926
   -55.3659 -55.3418 -55.3227 -55.2985 -55.0313 -54.8756 -54.5327 -54.5087
   -32.0785 -31.9994 -31.9101 -31.8736 -31.8604 -31.8507 -31.8385 -31.8065
   -31.7879 -31.7875 -31.7774 -31.7703 -31.7569 -31.7403 -31.7313 -31.7270
   -31.7087 -31.6719 -31.6436 -31.6436 -31.6424 -31.6272 -31.6210 -31.6187
   -31.5971 -31.5846 -31.5609 -31.5592 -31.5537 -31.5476 -31.5372 -31.5346
   -31.5248 -31.5046 -31.4928 -31.4895 -31.4601 -31.3068 -31.2577 -31.1832
   -31.1299 -31.0420 -30.8895 -30.8565 -30.8369 -30.7483 -30.6872 -30.6202
   -17.5755 -16.1672 -15.8525 -15.6670 -15.6276 -15.5980 -15.5236 -15.4795
   -15.3938 -15.3226 -15.2227 -15.2163 -15.1869 -15.1755 -15.1507 -15.0540
   -15.0146 -15.0043 -14.9521 -14.9399 -14.9056 -14.8927 -14.8885 -14.8087
   -14.7993 -14.7735 -14.7304 -14.6667 -14.5754 -14.2938 -13.0421 -12.9638
   -12.5427  -9.1767  -6.3256  -5.1044  -4.1519  -3.5051  -3.3593  -3.1655
    -3.1032  -3.0194  -3.0126  -2.9559  -2.9366  -2.9095  -2.7739  -2.6642
    -2.6354  -2.6134  -2.5514  -2.4941  -2.4563  -2.4391  -2.4071  -2.3773
    -2.3520  -2.3001  -2.2820  -2.2732  -2.2142  -2.1995  -2.1854  -2.1234
    -2.0590  -2.0316  -1.9805  -1.8929  -1.8284  -1.7851  -1.7507  -1.7141
    -1.5870  -1.5529  -1.5107  -1.4056  -1.3750  -1.3161  -1.2766  -1.1754
    -1.1101  -1.0323  -1.0030  -0.9810  -0.8977  -0.8718  -0.8476  -0.8380
    -0.7309  -0.7075  -0.6853  -0.6553  -0.5851  -0.5233  -0.4834  -0.4654
    -0.4424  -0.3895  -0.3391  -0.3029  -0.2795  -0.2384  -0.1976  -0.1610
    -0.1496  -0.0677  -0.0283  -0.0201   0.0737   0.1187   0.1441   0.1710
     0.2223   0.2705   0.2988   0.3817   0.4694   0.5177   0.5963   0.6406
     0.6687   0.7641   0.7863   0.8343   0.8667   0.9137   1.0338   1.0988
     1.3780   1.6624   1.6849   1.7661   1.9306   1.9919   3.7415   3.8065
     3.8687   3.9262   3.9793   3.9864   4.0773   4.1188   4.1491   4.1570

          k = 0.0380-0.0839 0.0000 ( 17916 PWs)   bands (ev):

   -55.5607 -55.5560 -55.5549 -55.5499 -55.4497 -55.4349 -55.4092 -55.4017
   -55.3555 -55.3522 -55.3124 -55.3088 -55.0307 -54.8763 -54.5208 -54.5207
   -31.9418 -31.9314 -31.8675 -31.8668 -31.8510 -31.8501 -31.8437 -31.8272
   -31.7950 -31.7815 -31.7679 -31.7486 -31.7415 -31.7317 -31.7066 -31.6802
   -31.6799 -31.6770 -31.6757 -31.6677 -31.6534 -31.6463 -31.6425 -31.6359
   -31.6258 -31.6141 -31.6048 -31.6021 -31.5810 -31.5798 -31.5456 -31.5434
   -31.5340 -31.5304 -31.5062 -31.5045 -31.4121 -31.3172 -31.2573 -31.2166
   -31.1331 -31.0467 -30.8467 -30.8466 -30.7569 -30.7567 -30.7179 -30.7178
   -17.5713 -15.8553 -15.8323 -15.6071 -15.6020 -15.4836 -15.4636 -15.3849
   -15.3522 -15.3358 -15.3263 -15.2687 -15.2616 -15.1444 -15.1345 -15.0569
   -15.0283 -14.9857 -14.9750 -14.9652 -14.9615 -14.9283 -14.9163 -14.8972
   -14.8598 -14.8524 -14.7680 -14.6745 -14.5288 -14.4380 -13.0260 -13.0260
   -12.5419  -9.1768  -6.3214  -5.1013  -4.1335  -3.3806  -3.1201  -3.0734
    -2.8477  -2.8273  -2.7766  -2.7716  -2.7297  -2.6723  -2.6654  -2.6483
    -2.6359  -2.6113  -2.5942  -2.5767  -2.5514  -2.4984  -2.4246  -2.4080
    -2.3935  -2.3779  -2.3545  -2.2953  -2.2864  -2.2644  -2.2208  -2.1945
    -2.1510  -2.1060  -2.0497  -1.9872  -1.7589  -1.6877  -1.6742  -1.6330
    -1.5095  -1.4814  -1.4454  -1.4214  -1.3784  -1.3595  -1.3395  -1.2698
    -1.2328  -1.2122  -1.1917  -1.1574  -1.0277  -1.0106  -0.8977  -0.8274
    -0.7728  -0.7343  -0.6690  -0.6095  -0.5396  -0.5084  -0.4844  -0.3803
    -0.3665  -0.3428  -0.3293  -0.3072  -0.2785  -0.2423  -0.1920  -0.1696
    -0.1398  -0.1358  -0.1142  -0.0966  -0.0354   0.0135   0.0491   0.1145
     0.2075   0.2463   0.3192   0.3768   0.4724   0.5182   0.5557   0.5595
     0.5932   0.6189   0.6816   0.7717   0.8368   0.9721   1.0245   1.0948
     1.1953   1.6744   1.8316   1.8321   1.9338   1.9348   3.8509   3.8712
     3.9113   3.9310   3.9915   3.9983   4.1524   4.1677   4.1962   4.2011

          k = 0.0380-0.0419 0.0000 ( 17876 PWs)   bands (ev):

   -55.5691 -55.5674 -55.5434 -55.5414 -55.4565 -55.4281 -55.4182 -55.3926
   -55.3659 -55.3418 -55.3227 -55.2985 -55.0313 -54.8756 -54.5327 -54.5087
   -32.0785 -31.9994 -31.9101 -31.8736 -31.8604 -31.8507 -31.8386 -31.8065
   -31.7878 -31.7872 -31.7776 -31.7704 -31.7570 -31.7404 -31.7312 -31.7267
   -31.7087 -31.6727 -31.6436 -31.6435 -31.6423 -31.6260 -31.6219 -31.6187
   -31.5971 -31.5843 -31.5610 -31.5593 -31.5537 -31.5477 -31.5372 -31.5346
   -31.5247 -31.5046 -31.4928 -31.4895 -31.4606 -31.3068 -31.2578 -31.1828
   -31.1298 -31.0421 -30.8895 -30.8565 -30.8369 -30.7483 -30.6872 -30.6202
   -17.5754 -16.1675 -15.8525 -15.6691 -15.6254 -15.6000 -15.5242 -15.4787
   -15.3947 -15.3228 -15.2228 -15.2168 -15.1827 -15.1648 -15.1523 -15.0547
   -15.0241 -14.9897 -14.9684 -14.9432 -14.9130 -14.8905 -14.8851 -14.8087
   -14.7995 -14.7727 -14.7206 -14.6699 -14.5749 -14.2936 -13.0421 -12.9638
   -12.5434  -9.1764  -6.3247  -5.1068  -4.1376  -3.5050  -3.3628  -3.1692
    -3.1021  -3.0185  -3.0090  -2.9575  -2.9363  -2.9074  -2.7731  -2.6682
    -2.6353  -2.6135  -2.5521  -2.5025  -2.4603  -2.4314  -2.4000  -2.3825
    -2.3609  -2.3049  -2.2937  -2.2733  -2.2314  -2.2082  -2.1808  -2.1217
    -2.0640  -2.0411  -1.9946  -1.9003  -1.8598  -1.7774  -1.7363  -1.6886
    -1.5929  -1.5777  -1.5314  -1.4126  -1.3558  -1.3084  -1.2699  -1.1692
    -1.0744  -1.0327  -1.0121  -0.9532  -0.9044  -0.8754  -0.8567  -0.7996
    -0.7453  -0.7137  -0.6441  -0.6189  -0.5601  -0.5005  -0.4850  -0.4545
    -0.4122  -0.3790  -0.3455  -0.2921  -0.2721  -0.2275  -0.2057  -0.1663
    -0.1406  -0.0774  -0.0418  -0.0109   0.0802   0.1095   0.1349   0.1557
     0.2082   0.2851   0.3169   0.3639   0.4088   0.4898   0.5787   0.6605
     0.6731   0.7053   0.7751   0.8212   0.8559   0.9019   1.0365   1.1035
     1.3810   1.6846   1.6900   1.7660   1.9304   1.9925   3.7454   3.8090
     3.8747   3.9285   3.9700   3.9972   4.0822   4.1227   4.1550   4.1721

          k =-0.0760-0.0000 0.0000 ( 17886 PWs)   bands (ev):

   -55.5741 -55.5724 -55.5384 -55.5364 -55.4610 -55.4237 -55.4231 -55.3877
   -55.3706 -55.3369 -55.3277 -55.2936 -55.0319 -54.8750 -54.5377 -54.5037
   -32.1367 -32.0543 -31.9688 -31.8940 -31.8877 -31.8738 -31.8648 -31.8291
   -31.8127 -31.7854 -31.7614 -31.7568 -31.7542 -31.7192 -31.7158 -31.7137
   -31.7045 -31.6742 -31.6523 -31.6482 -31.6302 -31.6133 -31.5967 -31.5859
   -31.5720 -31.5706 -31.5699 -31.5648 -31.5583 -31.5455 -31.5309 -31.5044
   -31.4929 -31.4906 -31.4827 -31.4728 -31.4417 -31.3060 -31.2604 -31.1551
   -31.1279 -31.0363 -30.9431 -30.8639 -30.8316 -30.7608 -30.6744 -30.5630
   -17.5776 -16.2187 -15.8754 -15.7191 -15.6730 -15.6419 -15.5676 -15.4305
   -15.3848 -15.3404 -15.2900 -15.2771 -15.2599 -15.2449 -15.1916 -15.1637
   -15.1276 -14.9329 -14.9197 -14.9011 -14.8670 -14.8279 -14.8093 -14.7851
   -14.7211 -14.7028 -14.6575 -14.6495 -14.5527 -14.2087 -13.0339 -12.9233
   -12.5564  -9.1565  -6.3123  -5.1311  -4.1257  -3.6651  -3.3597  -3.2394
    -3.2103  -3.1495  -3.0159  -2.9641  -2.9157  -2.8253  -2.8143  -2.7897
    -2.7823  -2.7238  -2.6110  -2.5143  -2.4738  -2.3938  -2.3457  -2.3000
    -2.2114  -2.1475  -2.1282  -2.0757  -2.0687  -2.0027  -1.9697  -1.9320
    -1.9152  -1.8717  -1.8425  -1.7964  -1.7949  -1.7608  -1.7513  -1.7072
    -1.6419  -1.5743  -1.5678  -1.4484  -1.4001  -1.3016  -1.2160  -1.1697
    -1.1542  -1.1475  -1.1367  -1.1283  -1.0316  -1.0114  -0.9315  -0.9088
    -0.8703  -0.8497  -0.8028  -0.7387  -0.7305  -0.6995  -0.5663  -0.5153
    -0.4671  -0.4015  -0.3388  -0.2549  -0.2169  -0.2097  -0.1688  -0.0934
    -0.0628  -0.0224   0.0493   0.0817   0.1282   0.1386   0.1772   0.1894
     0.2359   0.2763   0.2891   0.3478   0.4391   0.4468   0.5266   0.6800
     0.6979   0.7239   0.8025   0.8988   0.9414   1.0157   1.1312   1.1727
     1.4323   1.5173   1.6233   1.6456   1.8138   1.9608   3.6000   3.6058
     3.7228   3.8601   3.9030   3.9729   4.0152   4.0612   4.0874   4.0924

          k =-0.0760 0.0419 0.0000 ( 17914 PWs)   bands (ev):

   -55.5691 -55.5675 -55.5434 -55.5414 -55.4565 -55.4282 -55.4182 -55.3926
   -55.3658 -55.3418 -55.3228 -55.2986 -55.0313 -54.8757 -54.5327 -54.5087
   -32.0788 -32.0004 -31.9160 -31.8737 -31.8605 -31.8509 -31.8398 -31.8064
   -31.7879 -31.7876 -31.7747 -31.7594 -31.7558 -31.7405 -31.7315 -31.7176
   -31.7066 -31.6937 -31.6435 -31.6435 -31.6398 -31.6269 -31.6239 -31.5973
   -31.5872 -31.5846 -31.5631 -31.5564 -31.5540 -31.5488 -31.5482 -31.5346
   -31.5345 -31.5042 -31.4958 -31.4927 -31.4595 -31.3068 -31.2595 -31.1831
   -31.1300 -31.0425 -30.8893 -30.8593 -30.8362 -30.7483 -30.6872 -30.6202
   -17.5738 -16.0976 -15.7614 -15.6318 -15.6014 -15.5657 -15.4877 -15.4753
   -15.3328 -15.3140 -15.3033 -15.2572 -15.2317 -15.2006 -15.1608 -15.1340
   -15.1180 -14.9948 -14.9855 -14.9511 -14.9394 -14.9005 -14.8545 -14.8457
   -14.8256 -14.7402 -14.7209 -14.6563 -14.5693 -14.2939 -13.0400 -12.9641
   -12.5540  -9.1569  -6.3084  -5.1249  -4.1249  -3.4943  -3.3742  -3.0734
    -2.9575  -2.9279  -2.8397  -2.7559  -2.7233  -2.6914  -2.6721  -2.6146
    -2.6098  -2.5710  -2.5476  -2.5125  -2.4724  -2.4241  -2.4132  -2.3418
    -2.3101  -2.2921  -2.2627  -2.2480  -2.2015  -2.1560  -2.1399  -2.0473
    -2.0437  -2.0019  -1.9539  -1.8727  -1.8232  -1.7058  -1.6942  -1.6646
    -1.5750  -1.5710  -1.5295  -1.4246  -1.3523  -1.3309  -1.2299  -1.1881
    -1.1223  -1.1167  -1.0658  -1.0218  -0.9852  -0.9681  -0.8982  -0.8574
    -0.8376  -0.7930  -0.7877  -0.7676  -0.7265  -0.6950  -0.6325  -0.6208
    -0.5904  -0.5451  -0.4778  -0.3993  -0.3814  -0.3358  -0.3017  -0.2789
    -0.2157  -0.1888  -0.1314  -0.0802  -0.0266   0.0282   0.1129   0.1592
     0.2605   0.2708   0.3068   0.3783   0.4400   0.5756   0.6382   0.7187
     0.7623   0.7769   0.8172   0.8868   0.9075   0.9569   1.0121   1.0357
     1.2307   1.6470   1.6998   1.7695   1.8540   1.9813   3.7267   3.7875
     3.8049   3.8907   3.9142   3.9338   4.0422   4.1137   4.1649   4.2352

          k =-0.0760-0.0839 0.0000 ( 17948 PWs)   bands (ev):

   -55.5607 -55.5560 -55.5549 -55.5499 -55.4498 -55.4350 -55.4092 -55.4018
   -55.3554 -55.3522 -55.3125 -55.3089 -55.0307 -54.8763 -54.5208 -54.5207
   -31.9421 -31.9317 -31.8682 -31.8675 -31.8510 -31.8501 -31.8439 -31.8274
   -31.8025 -31.7885 -31.7681 -31.7485 -31.7230 -31.7124 -31.7070 -31.6812
   -31.6801 -31.6759 -31.6746 -31.6679 -31.6661 -31.6534 -31.6499 -31.6470
   -31.6263 -31.6133 -31.6029 -31.6020 -31.5531 -31.5510 -31.5452 -31.5429
   -31.5345 -31.5312 -31.5274 -31.5256 -31.4119 -31.3173 -31.2587 -31.2165
   -31.1332 -31.0473 -30.8477 -30.8476 -30.7568 -30.7567 -30.7179 -30.7178
   -17.5700 -15.8217 -15.7818 -15.5268 -15.5180 -15.5152 -15.4754 -15.3515
   -15.3027 -15.2769 -15.2659 -15.2473 -15.2388 -15.1376 -15.1235 -15.1073
   -15.0969 -15.0700 -15.0271 -15.0220 -15.0130 -15.0036 -14.9920 -14.9254
   -14.8733 -14.8694 -14.7552 -14.6637 -14.5231 -14.4341 -13.0258 -13.0258
   -12.5515  -9.1573  -6.3050  -5.1189  -4.1256  -3.3928  -3.1222  -3.0747
    -2.7868  -2.7674  -2.7520  -2.6385  -2.5193  -2.5099  -2.4841  -2.4625
    -2.4280  -2.4153  -2.4051  -2.3970  -2.3789  -2.3609  -2.3501  -2.3103
    -2.2418  -2.2339  -2.2256  -2.2174  -2.2006  -2.1770  -2.1662  -2.1391
    -2.1145  -2.0797  -2.0207  -1.9897  -1.8402  -1.7963  -1.7349  -1.6963
    -1.6877  -1.6587  -1.6251  -1.6177  -1.5067  -1.4922  -1.4588  -1.3285
    -1.2681  -1.2600  -1.2275  -1.1399  -1.1011  -0.9723  -0.9587  -0.9217
    -0.8664  -0.8587  -0.8214  -0.7834  -0.7326  -0.6804  -0.6370  -0.6141
    -0.5956  -0.5243  -0.5238  -0.4770  -0.4204  -0.3503  -0.3271  -0.3197
    -0.2871  -0.2436  -0.1964  -0.1332  -0.0578  -0.0386  -0.0235   0.0755
     0.1488   0.3676   0.4148   0.5116   0.5336   0.5612   0.6213   0.6710
     0.7400   0.7549   0.7832   0.8568   0.8789   0.9706   0.9820   0.9991
     1.1767   1.6453   1.8498   1.8507   1.9188   1.9191   3.8576   3.8735
     3.8979   3.9215   4.0821   4.0860   4.0990   4.1017   4.2222   4.2532

     the Fermi energy is     3.5634 ev

!    total energy              =   -2941.63806629 Ry
     estimated scf accuracy    <       0.00000007 Ry
     smearing contrib. (-TS)   =      -0.02171666 Ry
     internal energy E=F+TS    =   -2941.61634963 Ry

     The total energy is F=E-TS. E is the sum of the following terms:
     one-electron contribution =  -24387.58467735 Ry
     hartree contribution      =   12285.74471397 Ry
     xc contribution           =    -486.93699518 Ry
     ewald contribution        =    9647.15812478 Ry
     electric field correction =       0.00248415 Ry

     total magnetization       =    -0.01 Bohr mag/cell
     absolute magnetization    =     0.01 Bohr mag/cell

     convergence has been achieved in  77 iterations

     Forces acting on atoms (cartesian axes, Ry/au):

     atom    1 type  1   force =    -0.00001106   -0.00019401    0.09686398
     atom    2 type  1   force =     0.00009027   -0.00068639   -0.17461972
     atom    3 type  2   force =     0.00018306   -0.00005935   -0.02512338
     atom    4 type  2   force =     0.00000791   -0.00124862    0.05118788
     atom    5 type  2   force =    -0.01127766   -0.00080141    0.00227687
     atom    6 type  2   force =     0.01311631   -0.00035321    0.00272196
     atom    7 type  1   force =     0.00100479    0.00021191   -0.01339295
     atom    8 type  1   force =    -0.00009849    0.01533414    0.02827265
     atom    9 type  2   force =    -0.00007211   -0.00001289    0.00008611
     atom   10 type  2   force =    -0.00234134    0.00080748   -0.01059093
     atom   11 type  2   force =     0.00035614    0.00005201   -0.00001652
     atom   12 type  2   force =    -0.00043337   -0.00006993    0.00025279
     atom   13 type  1   force =     0.00014787   -0.00018376   -0.00007289
     atom   14 type  1   force =     0.00010620   -0.00022098    0.00003633
     atom   15 type  2   force =    -0.00005072    0.00024668   -0.00008801
     atom   16 type  2   force =    -0.00019970    0.00003757   -0.00019987
     atom   17 type  2   force =    -0.00011297    0.00007759   -0.00005399
     atom   18 type  2   force =    -0.00015850    0.00002891   -0.00015391
     atom   19 type  1   force =    -0.00031985    0.00025690    0.00008409
     atom   20 type  1   force =     0.00004877   -0.00060774    0.00014203
     atom   21 type  2   force =     0.00003619   -0.00009125    0.10301071
     atom   22 type  2   force =    -0.00008945    0.00033705    0.00038641
     atom   23 type  2   force =    -0.07179219   -0.00020952   -0.02779072
     atom   24 type  2   force =     0.07175124    0.00024694   -0.02785520
     atom   25 type  1   force =     0.00003418   -0.00025879    0.09646920
     atom   26 type  1   force =    -0.00000483   -0.00029850   -0.17488392
     atom   27 type  2   force =     0.00019240   -0.00025832   -0.02398259
     atom   28 type  2   force =     0.00005285   -0.00100571    0.05145774
     atom   29 type  2   force =    -0.01130703    0.00078759    0.00169027
     atom   30 type  2   force =     0.01299511    0.00111418    0.00208946
     atom   31 type  1   force =     0.00103821    0.00256815   -0.01541231
     atom   32 type  1   force =     0.00005664   -0.01662800    0.02915022
     atom   33 type  2   force =     0.00011663    0.00003029   -0.00012670
     atom   34 type  2   force =    -0.00271134    0.00093360   -0.01869477
     atom   35 type  2   force =     0.00017539   -0.00007226   -0.00008977
     atom   36 type  2   force =    -0.00037783   -0.00007079    0.00013157
     atom   37 type  1   force =    -0.00011167   -0.00019219    0.00013218
     atom   38 type  1   force =     0.00007720    0.00008844   -0.00005430
     atom   39 type  2   force =    -0.00003306    0.00043597    0.00001373
     atom   40 type  2   force =    -0.00038090    0.00014793   -0.00014855
     atom   41 type  2   force =     0.00010120   -0.00001007   -0.00013695
     atom   42 type  2   force =     0.00002314    0.00021166   -0.00003171
     atom   43 type  1   force =     0.00015975   -0.00003999   -0.00009821
     atom   44 type  1   force =    -0.00028475   -0.00032443   -0.00032847
     atom   45 type  2   force =     0.00005359   -0.00011024    0.10300628
     atom   46 type  2   force =    -0.07181563   -0.00016177   -0.02781574
     atom   47 type  2   force =     0.07175708    0.00022518   -0.02785904
     atom   48 type  3   force =    -0.00032831    0.00043684    0.00157308
     atom   49 type  4   force =     0.00058785    0.00354401    0.00414455
     atom   50 type  5   force =    -0.00117388   -0.00417362   -0.00470900
     atom   51 type  5   force =    -0.00053164   -0.00058090   -0.00062854
     atom   52 type  5   force =     0.00082797    0.00017017    0.00038763
     atom   53 type  3   force =     0.00073567    0.00041848   -0.00012124
     atom   54 type  5   force =     0.00039974   -0.00013194    0.00106518
     atom   55 type  5   force =    -0.00021509    0.00030689   -0.00155300

     Total force =     0.367336     Total SCF correction =     0.000525
  @ DRIVER MODE: Message from server: STATUS
  @ DRIVER MODE: Message from server: GETFORCE
  @ DRIVER MODE: Returning v,forces,stress,ensemble 

     Writing output data file ./calc.save/
  @ DRIVER MODE: Message from server: EXIT
  @ DRIVE MODE: Exiting  
 
     init_run     :     11.05s CPU     11.22s WALL (       1 calls)
     electrons    :   1927.99s CPU   1962.82s WALL (       1 calls)
     forces       :      3.38s CPU      3.44s WALL (       1 calls)

     Called by init_run:
     wfcinit      :      6.73s CPU      6.80s WALL (       1 calls)
     potinit      :      3.70s CPU      3.75s WALL (       1 calls)
     hinit0       :      0.32s CPU      0.33s WALL (       1 calls)

     Called by electrons:
     c_bands      :   1652.93s CPU   1675.98s WALL (      77 calls)
     sum_band     :    209.31s CPU    215.05s WALL (      77 calls)
     v_of_rho     :     44.21s CPU     46.11s WALL (      78 calls)
     newd         :     15.22s CPU     18.36s WALL (      78 calls)
     mix_rho      :      7.67s CPU      8.42s WALL (      77 calls)
     vdW_kernel   :      3.06s CPU      3.07s WALL (       1 calls)

     Called by c_bands:
     init_us_2    :     10.53s CPU     10.58s WALL (    3120 calls)
     cegterg      :   1623.95s CPU   1646.16s WALL (    1566 calls)

     Called by *egterg:
     cdiaghg      :    373.06s CPU    378.76s WALL (   15290 calls)
     h_psi        :    803.23s CPU    816.59s WALL (   15310 calls)
     s_psi        :     93.81s CPU     94.18s WALL (   15310 calls)
     g_psi        :      2.24s CPU      2.25s WALL (   13724 calls)

     Called by h_psi:
     h_psi:calbec :     98.81s CPU     99.46s WALL (   15310 calls)
     vloc_psi     :    604.87s CPU    617.22s WALL (   15310 calls)
     add_vuspsi   :     95.44s CPU     95.80s WALL (   15310 calls)

     General routines
     calbec       :    132.64s CPU    133.52s WALL (   16930 calls)
     fft          :     28.61s CPU     29.41s WALL (    6939 calls)
     ffts         :      0.40s CPU      0.40s WALL (     310 calls)
     fftw         :    714.17s CPU    729.93s WALL ( 2020788 calls)
     interpolate  :      0.92s CPU      0.95s WALL (     156 calls)
     davcio       :      0.00s CPU      0.28s WALL (      20 calls)
 
     Parallel routines
 
     PWSCF        :  32m27.37s CPU  33m 2.94s WALL

 
   This run was terminated on:   5:13:45  16Jul2021            

=------------------------------------------------------------------------------=
   JOB DONE.
=------------------------------------------------------------------------------=
