
     Program PWSCF v.6.7GPU starts on 23Sep2021 at  2:25: 1 

     This program is part of the open-source Quantum ESPRESSO suite
     for quantum simulation of materials; please cite
         "P. Giannozzi et al., J. Phys.:Condens. Matter 21 395502 (2009);
         "P. Giannozzi et al., J. Phys.:Condens. Matter 29 465901 (2017);
         "P. Giannozzi et al., J. Chem. Phys. 152 154105 (2020);
          URL http://www.quantum-espresso.org", 
     in publications or presentations arising from this work. More details at
     http://www.quantum-espresso.org/quote

     Parallel version (MPI), running on     8 processors

     MPI processes distributed on     1 nodes
     R & G space division:  proc/nbgrp/npool/nimage =       8
     Reading input from /storage/home/hcoda1/3/ntian30/research/carbon/CxH_vib/H2O_calc/ads_slab/CH2OHO_c/out_0011/pw.inp
Warning: card &CELL ignored
Warning: card   CELL_DYNAMICS='IPI', ignored
Warning: card / ignored

     Current dimensions of program PWSCF are:
     Max number of different atomic species (ntypx) = 10
     Max number of k-points (npk) =  40000
     Max angular momentum in pseudopotentials (lmaxx) =  3
     Presently no symmetry can be used with electric field

     Message from routine cell_base_init:
     DEPRECATED: use true lattice parameter, not A to a.u. conversion factor

     **************************************************************************
     Initializing libbeef V0.1.2 with the BEEF-vdW functional.
     Citation: Wellendorff et al., PRB 85, 235149 (2012).
     **************************************************************************


     IMPORTANT: XC functional enforced from input :
     Exchange-correlation= BEEF-VDW
                           (   1   4  43  14   2   0   0)
     Any further DFT definition will be discarded
     Please, verify this is what you really want


     Subspace diagonalization in iterative solution of the eigenvalue problem:
     one sub-group per band group will be used
     scalapack distributed-memory algorithm (size of sub-group:  2*  2 procs)

  @ DRIVER MODE: Connecting to 
 qe_1139763_2941011.sched-torque.pace.gatech.eduu1u0wlz4_scratch
  using UNIX socket
  @ DRIVER MODE: Message from server: STATUS
  @ DRIVER MODE: Message from server: INIT
  @ DRIVER MODE: Receiving replica           0          -1
  @ DRIVER MODE: Receiving encoded integer          25
  @ DRIVER MODE:  SCF:  T  FORCE:  T  STRESS:  F  VC:  F  ENSEMBLE:  F
  @ DRIVER MODE:  SCF:  T  FORCE:  T  STRESS:  F  VC:  F  ENSEMBLE:  F
 
     Parallelization info
     --------------------
     sticks:   dense  smooth     PW     G-vecs:    dense   smooth      PW
     Min         409     164     47                70857    17926    2743
     Max         411     165     48                70858    17931    2751
     Sum        3275    1317    379               566857   143421   21985
 
     Using Slab Decomposition
 


     bravais-lattice index     =            0
     lattice parameter (alat)  =       1.8897  a.u.
     unit-cell volume          =    6658.9804 (a.u.)^3
     number of atoms/cell      =           53
     number of atomic types    =            4
     number of electrons       =       397.00
     number of Kohn-Sham states=          208
     kinetic-energy cutoff     =      29.3995  Ry
     charge density cutoff     =     293.9946  Ry
     scf convergence threshold =      7.3E-08
     mixing beta               =       0.0500
     number of iterations used =            8  plain     mixing
     Exchange-correlation= BEEF-VDW
                           (   1   4  43  14   2   0   0)

     celldm(1)=   1.889726  celldm(2)=   0.000000  celldm(3)=   0.000000
     celldm(4)=   0.000000  celldm(5)=   0.000000  celldm(6)=   0.000000

     crystal axes: (cart. coord. in units of alat)
               a(1) = (   6.579727   0.000000   0.000000 )  
               a(2) = (  -0.000775   5.961596   0.000000 )  
               a(3) = (   0.000000   0.000000  25.155947 )  

     reciprocal axes: (cart. coord. in units 2 pi/alat)
               b(1) = (  0.151982  0.000020  0.000000 )  
               b(2) = (  0.000000  0.167740  0.000000 )  
               b(3) = (  0.000000  0.000000  0.039752 )  


     PseudoPot. # 1 for O  read from file:
     /storage/coda1/p-amedford6/0/shared/rich_project_chbe-medford/medford-share/data/pseudos_module/espresso/nninc/pbe/van/O.UPF
     MD5 check sum: 78c19812648e8988a0fe644b0f25305e
     Pseudo is Ultrasoft, Zval =  6.0
     Generated by new atomic code, or converted to UPF format
     Using radial grid of  737 points,  4 beta functions with: 
                l(1) =   0
                l(2) =   0
                l(3) =   1
                l(4) =   1
     Q(r) pseudized with  8 coefficients,  rinner =    0.800   0.800   0.800


     PseudoPot. # 2 for Ti read from file:
     /storage/coda1/p-amedford6/0/shared/rich_project_chbe-medford/medford-share/data/pseudos_module/espresso/nninc/pbe/van/Ti.UPF
     MD5 check sum: 8e4df49b7f0d34bbd5052bf3f5ea0213
     Pseudo is Ultrasoft, Zval = 12.0
     Generated by new atomic code, or converted to UPF format
     Using radial grid of  851 points,  6 beta functions with: 
                l(1) =   0
                l(2) =   0
                l(3) =   1
                l(4) =   1
                l(5) =   2
                l(6) =   2
     Q(r) pseudized with  8 coefficients,  rinner =    1.000   1.000   1.000
                                                       1.000   1.000

     PseudoPot. # 3 for C  read from file:
     /storage/coda1/p-amedford6/0/shared/rich_project_chbe-medford/medford-share/data/pseudos_module/espresso/nninc/pbe/van/C.UPF
     MD5 check sum: 1a69bf6b8db32088f5b2163dbdb77a27
     Pseudo is Ultrasoft, Zval =  4.0
     Generated by new atomic code, or converted to UPF format
     Using radial grid of  721 points,  4 beta functions with: 
                l(1) =   0
                l(2) =   0
                l(3) =   1
                l(4) =   1
     Q(r) pseudized with  8 coefficients,  rinner =    0.800   0.800   0.800


     PseudoPot. # 4 for H  read from file:
     /storage/coda1/p-amedford6/0/shared/rich_project_chbe-medford/medford-share/data/pseudos_module/espresso/nninc/pbe/van/H.UPF
     MD5 check sum: b5ee9d7bfd3a09ee7748110bda690ff7
     Pseudo is Ultrasoft, Zval =  1.0
     Generated by new atomic code, or converted to UPF format
     Using radial grid of  615 points,  1 beta functions with: 
                l(1) =   0
     Q(r) pseudized with  8 coefficients,  rinner =    0.800

     atomic species   valence    mass     pseudopotential
        O1             6.00    15.99900     O ( 1.00)
        Ti1           12.00    47.86700     Ti( 1.00)
        C1             4.00    12.01100     C ( 1.00)
        H1             1.00     1.00800     H ( 1.00)

     No symmetry found



   Cartesian axes

     site n.     atom                  positions (alat units)
         1           O1  tau(   1) = (   3.2904802   0.0005063   4.7018136  )
         2           O1  tau(   2) = (   3.2900926   2.9813045   4.7018136  )
         3           Ti1 tau(   3) = (   0.0004258   2.9801865   6.0000000  )
         4           Ti1 tau(   4) = (   0.0000382   5.9609847   6.0000000  )
         5           Ti1 tau(   5) = (   3.2906075   1.4906267   6.0002472  )
         6           Ti1 tau(   6) = (   3.2902200   4.4714249   6.0002472  )
         7           O1  tau(   7) = (   1.3043587   1.4918075   6.0039043  )
         8           O1  tau(   8) = (   1.3039711   4.4726057   6.0039043  )
         9           O1  tau(   9) = (   5.2767064   1.4903225   6.0039473  )
        10           O1  tau(  10) = (   5.2763189   4.4711207   6.0039473  )
        11           O1  tau(  11) = (   3.2906025   0.0005020   7.3038282  )
        12           O1  tau(  12) = (   3.2902150   2.9813002   7.3038282  )
        13           O1  tau(  13) = (   0.0006271   0.0005054   7.9858123  )
        14           O1  tau(  14) = (   0.0002396   2.9813036   7.9858123  )
        15           Ti1 tau(  15) = (   3.3202697   0.0919879   9.1698383  )
        16           Ti1 tau(  16) = (   3.3215697   3.0759731   9.1987478  )
        17           Ti1 tau(  17) = (   0.0419684   4.5271873   9.2680259  )
        18           Ti1 tau(  18) = (   0.0391189   1.6041453   9.3419098  )
        19           O1  tau(  19) = (   4.5942328   1.4918067   9.2879030  )
        20           O1  tau(  20) = (   4.5938453   4.4726049   9.2879030  )
        21           O1  tau(  21) = (   1.9868534   1.4903216   9.2879459  )
        22           O1  tau(  22) = (   1.9864658   4.4711199   9.2879459  )
        23           O1  tau(  23) = (   0.0125722   0.0097687  10.5830051  )
        24           O1  tau(  24) = (   0.0081120   2.9918398  10.5664780  )
        25           O1  tau(  25) = (   3.3077729   2.9680546  11.3050536  )
        26           O1  tau(  26) = (   3.3059260   0.0232323  11.3367354  )
        27           Ti1 tau(  27) = (   0.0233359   0.0627999  12.4784840  )
        28           Ti1 tau(  28) = (   3.3058864   4.6637881  12.6801991  )
        29           Ti1 tau(  29) = (   3.3037148   1.5793570  12.4293313  )
        30           Ti1 tau(  30) = (   0.0089448   3.0481173  12.7472709  )
        31           O1  tau(  31) = (   1.2933882   4.4692258  12.6303221  )
        32           O1  tau(  32) = (   1.2985301   1.4993897  12.6236677  )
        33           O1  tau(  33) = (   5.3274268   4.4793405  12.6275207  )
        34           O1  tau(  34) = (   5.3265499   1.4915365  12.6220616  )
        35           O1  tau(  35) = (   3.3295878   2.9786622  13.8932268  )
        36           O1  tau(  36) = (   3.3104420   5.9098017  13.9586718  )
        37           O1  tau(  37) = (   0.0385923   0.0024916  14.6531765  )
        38           O1  tau(  38) = (   0.0086518   2.9873893  14.7004014  )
        39           Ti1 tau(  39) = (   3.3201234   2.9526136  15.6695435  )
        40           Ti1 tau(  40) = (   3.4185286   5.9334276  16.2343674  )
        41           Ti1 tau(  41) = (   0.1049196   4.5923083  15.9423708  )
        42           Ti1 tau(  42) = (   0.0892020   1.3980244  15.8930203  )
        43           O1  tau(  43) = (   4.5900789   4.4270775  16.0984088  )
        44           O1  tau(  44) = (   4.5919070   1.5192920  16.0669747  )
        45           O1  tau(  45) = (   2.0372030   1.5514537  16.0349210  )
        46           O1  tau(  46) = (   2.0392294   4.4021701  16.0428288  )
        47           O1  tau(  47) = (   0.0638787   0.0130652  17.1658208  )
        48           O1  tau(  48) = (   6.5756481   2.9829514  17.4361268  )
        49           C1  tau(  49) = (   6.2652767   2.9703434  18.6484371  )
        50           H1  tau(  50) = (   6.1492679   3.9148029  19.1865895  )
        51           H1  tau(  51) = (   6.0998186   2.0156765  19.1535163  )
        52           O1  tau(  52) = (   3.1909063   0.0039016  18.0657888  )
        53           H1  tau(  53) = (   2.2823347   0.1153277  18.3895531  )

     number of k points=    10  Fermi-Dirac smearing, width (Ry)=  0.0073
                       cart. coord. in units 2pi/alat
        k(    1) = (   0.0000000   0.0000000   0.0000000), wk =   0.1250000
        k(    2) = (   0.0000000   0.0419351   0.0000000), wk =   0.2500000
        k(    3) = (   0.0000000  -0.0838702   0.0000000), wk =   0.1250000
        k(    4) = (   0.0379955   0.0000049   0.0000000), wk =   0.2500000
        k(    5) = (   0.0379955   0.0419400   0.0000000), wk =   0.2500000
        k(    6) = (   0.0379955  -0.0838652   0.0000000), wk =   0.2500000
        k(    7) = (   0.0379955  -0.0419301   0.0000000), wk =   0.2500000
        k(    8) = (  -0.0759910  -0.0000099   0.0000000), wk =   0.1250000
        k(    9) = (  -0.0759910   0.0419252   0.0000000), wk =   0.2500000
        k(   10) = (  -0.0759910  -0.0838800   0.0000000), wk =   0.1250000

     Dense  grid:   566857 G-vectors     FFT dimensions: (  72,  64, 270)

     Smooth grid:   143421 G-vectors     FFT dimensions: (  45,  40, 180)

     Estimated max dynamical RAM per process >     455.90 MB

     Estimated total dynamical RAM >       3.56 GB
     Cannot read rho : file not found

     Initial potential from superposition of free atoms

     starting charge  380.99918, renormalised to  397.00000

     negative rho (up, down):  1.769E-02 0.000E+00


     %%%%%%%%%%%%%%%%%%%%%%%%%%%%%%%%%%%%%%%%%%%%%%%%%%%%%%%%%%%%%%%%%%%%%%%%
     %                                                                      %
     % You are using vdW-DF, which was implemented by the Thonhauser group. %
     % Please cite the following two papers that made this development      %
     % possible and the two reviews that describe the various versions:     %
     %                                                                      %
     %   T. Thonhauser et al., PRL 115, 136402 (2015).                      %
     %   T. Thonhauser et al., PRB 76, 125112 (2007).                       %
     %   K. Berland et al., Rep. Prog. Phys. 78, 066501 (2015).             %
     %   D.C. Langreth et al., J. Phys.: Condens. Matter 21, 084203 (2009). %
     %                                                                      %
     %                                                                      %
     % If you are calculating the stress with vdW-DF, please also cite:     %
     %                                                                      %
     %   R. Sabatini et al., J. Phys.: Condens. Matter 24, 424209 (2012).   %
     %                                                                      %
     %%%%%%%%%%%%%%%%%%%%%%%%%%%%%%%%%%%%%%%%%%%%%%%%%%%%%%%%%%%%%%%%%%%%%%%%


 
     Adding external electric field

     Computed dipole along edir(3) : 
        Dipole               -8.3970 Ry au,        -21.3430 Debye
        Dipole field         -0.0158 Ry au, 
 
        Potential amp.        1.4689 Ry
        Total length         46.3494 bohr
 
     Starting wfcs are  299 atomic wfcs
  @ DRIVER MODE: Message from server: STATUS
  @ DRIVER MODE: Message from server: POSDATA
  @ DRIVER MODE: Reading and sharing cell 
  @ DRIVER MODE: Reading and sharing positions 
  @ DRIVER MODE: Received positions 

     total cpu time spent up to now is       13.8 secs

     Self-consistent Calculation

     iteration #  1     ecut=    29.40 Ry     beta= 0.05
     Davidson diagonalization with overlap
     c_bands:  1 eigenvalues not converged
     c_bands:  1 eigenvalues not converged
     c_bands:  1 eigenvalues not converged
     c_bands:  1 eigenvalues not converged
     ethr =  1.00E-05,  avg # of iterations = 18.2

     negative rho (up, down):  1.462E-02 0.000E+00
 
     Adding external electric field

     Computed dipole along edir(3) : 
        Dipole               40.1365 Ry au,        102.0168 Debye
        Dipole field          0.0757 Ry au, 
 
        Potential amp.       -7.0213 Ry
        Total length         46.3494 bohr
 

     total cpu time spent up to now is       61.6 secs

     total energy              =   -2610.77247024 Ry
     estimated scf accuracy    <    3908.45587317 Ry

     iteration #  2     ecut=    29.40 Ry     beta= 0.05
     Davidson diagonalization with overlap
     ethr =  1.00E-02,  avg # of iterations = 23.2

     negative rho (up, down):  4.754E-03 0.000E+00
 
     Adding external electric field

     Computed dipole along edir(3) : 
        Dipole               -2.2663 Ry au,         -5.7603 Debye
        Dipole field         -0.0043 Ry au, 
 
        Potential amp.        0.3964 Ry
        Total length         46.3494 bohr
 

     total cpu time spent up to now is      146.6 secs

     total energy              =   -2481.71102216 Ry
     estimated scf accuracy    <   65218.87070341 Ry

     iteration #  3     ecut=    29.40 Ry     beta= 0.05
     Davidson diagonalization with overlap
     ethr =  1.00E-02,  avg # of iterations = 14.4

     negative rho (up, down):  4.825E-03 0.000E+00
 
     Adding external electric field

     Computed dipole along edir(3) : 
        Dipole               -4.4449 Ry au,        -11.2979 Debye
        Dipole field         -0.0084 Ry au, 
 
        Potential amp.        0.7776 Ry
        Total length         46.3494 bohr
 

     total cpu time spent up to now is      201.4 secs

     total energy              =   -2942.40412693 Ry
     estimated scf accuracy    <    4000.80003864 Ry

     iteration #  4     ecut=    29.40 Ry     beta= 0.05
     Davidson diagonalization with overlap
     c_bands:  3 eigenvalues not converged
     c_bands:  2 eigenvalues not converged
     c_bands:  3 eigenvalues not converged
     c_bands:  5 eigenvalues not converged
     ethr =  1.00E-02,  avg # of iterations = 16.8

     negative rho (up, down):  4.876E-03 0.000E+00
 
     Adding external electric field

     Computed dipole along edir(3) : 
        Dipole               -5.4917 Ry au,        -13.9586 Debye
        Dipole field         -0.0104 Ry au, 
 
        Potential amp.        0.9607 Ry
        Total length         46.3494 bohr
 

     total cpu time spent up to now is      226.4 secs

     total energy              =   -2956.66280920 Ry
     estimated scf accuracy    <     630.72383334 Ry

     iteration #  5     ecut=    29.40 Ry     beta= 0.05
     Davidson diagonalization with overlap
     ethr =  1.00E-02,  avg # of iterations =  5.9

     negative rho (up, down):  4.876E-03 0.000E+00
 
     Adding external electric field

     Computed dipole along edir(3) : 
        Dipole               -5.8732 Ry au,        -14.9281 Debye
        Dipole field         -0.0111 Ry au, 
 
        Potential amp.        1.0274 Ry
        Total length         46.3494 bohr
 

     total cpu time spent up to now is      240.8 secs

     total energy              =   -2957.05016236 Ry
     estimated scf accuracy    <     367.93643939 Ry

     iteration #  6     ecut=    29.40 Ry     beta= 0.05
     Davidson diagonalization with overlap
     ethr =  1.00E-02,  avg # of iterations =  3.6

     negative rho (up, down):  4.975E-03 0.000E+00
 
     Adding external electric field

     Computed dipole along edir(3) : 
        Dipole               -6.5153 Ry au,        -16.5601 Debye
        Dipole field         -0.0123 Ry au, 
 
        Potential amp.        1.1397 Ry
        Total length         46.3494 bohr
 

     total cpu time spent up to now is      255.0 secs

     total energy              =   -2955.46028366 Ry
     estimated scf accuracy    <     248.62015907 Ry

     iteration #  7     ecut=    29.40 Ry     beta= 0.05
     Davidson diagonalization with overlap
     c_bands:  1 eigenvalues not converged
     ethr =  1.00E-02,  avg # of iterations =  8.3

     negative rho (up, down):  4.587E-03 0.000E+00
 
     Adding external electric field

     Computed dipole along edir(3) : 
        Dipole               -5.7708 Ry au,        -14.6679 Debye
        Dipole field         -0.0109 Ry au, 
 
        Potential amp.        1.0095 Ry
        Total length         46.3494 bohr
 

     total cpu time spent up to now is      272.7 secs

     total energy              =   -2963.31552114 Ry
     estimated scf accuracy    <      10.24915674 Ry

     iteration #  8     ecut=    29.40 Ry     beta= 0.05
     Davidson diagonalization with overlap
     ethr =  2.58E-03,  avg # of iterations =  6.4

     negative rho (up, down):  4.590E-03 0.000E+00
 
     Adding external electric field

     Computed dipole along edir(3) : 
        Dipole               -5.6093 Ry au,        -14.2573 Debye
        Dipole field         -0.0106 Ry au, 
 
        Potential amp.        0.9813 Ry
        Total length         46.3494 bohr
 

     total cpu time spent up to now is      290.4 secs

     total energy              =   -2966.55212588 Ry
     estimated scf accuracy    <      13.32125143 Ry

     iteration #  9     ecut=    29.40 Ry     beta= 0.05
     Davidson diagonalization with overlap
     ethr =  2.58E-03,  avg # of iterations =  1.1

     negative rho (up, down):  4.752E-03 0.000E+00
 
     Adding external electric field

     Computed dipole along edir(3) : 
        Dipole               -5.1833 Ry au,        -13.1745 Debye
        Dipole field         -0.0098 Ry au, 
 
        Potential amp.        0.9067 Ry
        Total length         46.3494 bohr
 

     total cpu time spent up to now is      302.8 secs

     total energy              =   -2966.31137494 Ry
     estimated scf accuracy    <      12.48486233 Ry

     iteration # 10     ecut=    29.40 Ry     beta= 0.05
     Davidson diagonalization with overlap
     ethr =  2.58E-03,  avg # of iterations =  1.1

     negative rho (up, down):  1.099E-02 0.000E+00
 
     Adding external electric field

     Computed dipole along edir(3) : 
        Dipole               -1.4786 Ry au,         -3.7581 Debye
        Dipole field         -0.0028 Ry au, 
 
        Potential amp.        0.2587 Ry
        Total length         46.3494 bohr
 

     total cpu time spent up to now is      315.2 secs

     total energy              =   -2963.01960181 Ry
     estimated scf accuracy    <      11.19992326 Ry

     iteration # 11     ecut=    29.40 Ry     beta= 0.05
     Davidson diagonalization with overlap
     ethr =  2.58E-03,  avg # of iterations = 13.5

     negative rho (up, down):  1.071E-02 0.000E+00
 
     Adding external electric field

     Computed dipole along edir(3) : 
        Dipole                0.4032 Ry au,          1.0248 Debye
        Dipole field          0.0008 Ry au, 
 
        Potential amp.       -0.0705 Ry
        Total length         46.3494 bohr
 

     total cpu time spent up to now is      337.9 secs

     total energy              =   -2974.48447514 Ry
     estimated scf accuracy    <     438.26543133 Ry

     iteration # 12     ecut=    29.40 Ry     beta= 0.05
     Davidson diagonalization with overlap
     c_bands:  3 eigenvalues not converged
     c_bands:  1 eigenvalues not converged
     c_bands:  2 eigenvalues not converged
     c_bands:  3 eigenvalues not converged
     c_bands:  5 eigenvalues not converged
     c_bands:  1 eigenvalues not converged
     c_bands:  4 eigenvalues not converged
     c_bands:  2 eigenvalues not converged
     c_bands:  1 eigenvalues not converged
     ethr =  2.58E-03,  avg # of iterations = 20.4

     negative rho (up, down):  8.134E-03 0.000E+00
 
     Adding external electric field

     Computed dipole along edir(3) : 
        Dipole               -0.9386 Ry au,         -2.3858 Debye
        Dipole field         -0.0018 Ry au, 
 
        Potential amp.        0.1642 Ry
        Total length         46.3494 bohr
 

     total cpu time spent up to now is      363.8 secs

     total energy              =   -2965.16569167 Ry
     estimated scf accuracy    <    1535.48897798 Ry

     iteration # 13     ecut=    29.40 Ry     beta= 0.05
     Davidson diagonalization with overlap
     ethr =  2.58E-03,  avg # of iterations =  6.1

     negative rho (up, down):  7.593E-03 0.000E+00
 
     Adding external electric field

     Computed dipole along edir(3) : 
        Dipole               -0.6935 Ry au,         -1.7627 Debye
        Dipole field         -0.0013 Ry au, 
 
        Potential amp.        0.1213 Ry
        Total length         46.3494 bohr
 

     total cpu time spent up to now is      378.5 secs

     total energy              =   -2967.73347849 Ry
     estimated scf accuracy    <     923.19245857 Ry

     iteration # 14     ecut=    29.40 Ry     beta= 0.05
     Davidson diagonalization with overlap
     ethr =  2.58E-03,  avg # of iterations =  1.3

     negative rho (up, down):  4.695E-03 0.000E+00
 
     Adding external electric field

     Computed dipole along edir(3) : 
        Dipole               -4.4168 Ry au,        -11.2263 Debye
        Dipole field         -0.0083 Ry au, 
 
        Potential amp.        0.7726 Ry
        Total length         46.3494 bohr
 

     total cpu time spent up to now is      391.1 secs

     total energy              =   -2942.90924457 Ry
     estimated scf accuracy    <     896.22206010 Ry

     iteration # 15     ecut=    29.40 Ry     beta= 0.05
     Davidson diagonalization with overlap
     ethr =  2.58E-03,  avg # of iterations = 14.6

     negative rho (up, down):  4.499E-03 0.000E+00
 
     Adding external electric field

     Computed dipole along edir(3) : 
        Dipole               -4.8184 Ry au,        -12.2472 Debye
        Dipole field         -0.0091 Ry au, 
 
        Potential amp.        0.8429 Ry
        Total length         46.3494 bohr
 

     total cpu time spent up to now is      424.9 secs

     total energy              =   -2966.04666214 Ry
     estimated scf accuracy    <     258.33127155 Ry

     iteration # 16     ecut=    29.40 Ry     beta= 0.05
     Davidson diagonalization with overlap
     ethr =  2.58E-03,  avg # of iterations =  1.2

     negative rho (up, down):  4.361E-03 0.000E+00
 
     Adding external electric field

     Computed dipole along edir(3) : 
        Dipole               -5.3605 Ry au,        -13.6251 Debye
        Dipole field         -0.0101 Ry au, 
 
        Potential amp.        0.9377 Ry
        Total length         46.3494 bohr
 

     total cpu time spent up to now is      437.4 secs

     total energy              =   -2966.83987041 Ry
     estimated scf accuracy    <     306.59258707 Ry

     iteration # 17     ecut=    29.40 Ry     beta= 0.05
     Davidson diagonalization with overlap
     ethr =  2.58E-03,  avg # of iterations =  1.2

     negative rho (up, down):  4.189E-03 0.000E+00
 
     Adding external electric field

     Computed dipole along edir(3) : 
        Dipole               -5.7834 Ry au,        -14.6999 Debye
        Dipole field         -0.0109 Ry au, 
 
        Potential amp.        1.0117 Ry
        Total length         46.3494 bohr
 

     total cpu time spent up to now is      449.9 secs

     total energy              =   -2966.74273644 Ry
     estimated scf accuracy    <     388.60864124 Ry

     iteration # 18     ecut=    29.40 Ry     beta= 0.05
     Davidson diagonalization with overlap
     ethr =  2.58E-03,  avg # of iterations =  1.4

     negative rho (up, down):  5.242E-03 0.000E+00
 
     Adding external electric field

     Computed dipole along edir(3) : 
        Dipole               -3.6632 Ry au,         -9.3110 Debye
        Dipole field         -0.0069 Ry au, 
 
        Potential amp.        0.6408 Ry
        Total length         46.3494 bohr
 

     total cpu time spent up to now is      462.7 secs

     total energy              =   -2960.17338971 Ry
     estimated scf accuracy    <     249.52785183 Ry

     iteration # 19     ecut=    29.40 Ry     beta= 0.05
     Davidson diagonalization with overlap
     ethr =  2.58E-03,  avg # of iterations =  6.7

     negative rho (up, down):  5.807E-03 0.000E+00
 
     Adding external electric field

     Computed dipole along edir(3) : 
        Dipole               -2.7830 Ry au,         -7.0736 Debye
        Dipole field         -0.0053 Ry au, 
 
        Potential amp.        0.4868 Ry
        Total length         46.3494 bohr
 

     total cpu time spent up to now is      478.2 secs

     total energy              =   -2963.95254797 Ry
     estimated scf accuracy    <       5.77175185 Ry

     iteration # 20     ecut=    29.40 Ry     beta= 0.05
     Davidson diagonalization with overlap
     ethr =  1.45E-03,  avg # of iterations =  1.8

     negative rho (up, down):  7.266E-03 0.000E+00
 
     Adding external electric field

     Computed dipole along edir(3) : 
        Dipole               -1.2155 Ry au,         -3.0895 Debye
        Dipole field         -0.0023 Ry au, 
 
        Potential amp.        0.2126 Ry
        Total length         46.3494 bohr
 

     total cpu time spent up to now is      491.4 secs

     total energy              =   -2963.49690155 Ry
     estimated scf accuracy    <       3.93556029 Ry

     iteration # 21     ecut=    29.40 Ry     beta= 0.05
     Davidson diagonalization with overlap
     ethr =  9.91E-04,  avg # of iterations =  8.1

     negative rho (up, down):  6.615E-03 0.000E+00
 
     Adding external electric field

     Computed dipole along edir(3) : 
        Dipole               -1.7554 Ry au,         -4.4619 Debye
        Dipole field         -0.0033 Ry au, 
 
        Potential amp.        0.3071 Ry
        Total length         46.3494 bohr
 

     total cpu time spent up to now is      507.7 secs

     total energy              =   -2963.84100001 Ry
     estimated scf accuracy    <       2.14159461 Ry

     iteration # 22     ecut=    29.40 Ry     beta= 0.05
     Davidson diagonalization with overlap
     ethr =  5.39E-04,  avg # of iterations =  1.9

     negative rho (up, down):  5.828E-03 0.000E+00
 
     Adding external electric field

     Computed dipole along edir(3) : 
        Dipole               -2.1137 Ry au,         -5.3725 Debye
        Dipole field         -0.0040 Ry au, 
 
        Potential amp.        0.3698 Ry
        Total length         46.3494 bohr
 

     total cpu time spent up to now is      521.5 secs

     total energy              =   -2963.85140479 Ry
     estimated scf accuracy    <       1.96687342 Ry

     iteration # 23     ecut=    29.40 Ry     beta= 0.05
     Davidson diagonalization with overlap
     ethr =  4.95E-04,  avg # of iterations =  4.4

     negative rho (up, down):  6.249E-03 0.000E+00
 
     Adding external electric field

     Computed dipole along edir(3) : 
        Dipole               -0.5033 Ry au,         -1.2793 Debye
        Dipole field         -0.0009 Ry au, 
 
        Potential amp.        0.0880 Ry
        Total length         46.3494 bohr
 

     total cpu time spent up to now is      535.8 secs

     total energy              =   -2963.72026820 Ry
     estimated scf accuracy    <       2.08527159 Ry

     iteration # 24     ecut=    29.40 Ry     beta= 0.05
     Davidson diagonalization with overlap
     c_bands:  1 eigenvalues not converged
     ethr =  4.95E-04,  avg # of iterations =  4.2

     negative rho (up, down):  6.551E-03 0.000E+00
 
     Adding external electric field

     Computed dipole along edir(3) : 
        Dipole               -0.2046 Ry au,         -0.5200 Debye
        Dipole field         -0.0004 Ry au, 
 
        Potential amp.        0.0358 Ry
        Total length         46.3494 bohr
 

     total cpu time spent up to now is      551.3 secs

     total energy              =   -2963.80148346 Ry
     estimated scf accuracy    <       1.67507755 Ry

     iteration # 25     ecut=    29.40 Ry     beta= 0.05
     Davidson diagonalization with overlap
     ethr =  4.22E-04,  avg # of iterations =  2.6

     negative rho (up, down):  6.963E-03 0.000E+00
 
     Adding external electric field

     Computed dipole along edir(3) : 
        Dipole               -0.0953 Ry au,         -0.2421 Debye
        Dipole field         -0.0002 Ry au, 
 
        Potential amp.        0.0167 Ry
        Total length         46.3494 bohr
 

     total cpu time spent up to now is      564.7 secs

     total energy              =   -2963.78638089 Ry
     estimated scf accuracy    <       1.08499572 Ry

     iteration # 26     ecut=    29.40 Ry     beta= 0.05
     Davidson diagonalization with overlap
     c_bands:  3 eigenvalues not converged
     c_bands:  1 eigenvalues not converged
     c_bands:  4 eigenvalues not converged
     c_bands:  2 eigenvalues not converged
     c_bands:  3 eigenvalues not converged
     c_bands:  4 eigenvalues not converged
     c_bands:  2 eigenvalues not converged
     ethr =  2.73E-04,  avg # of iterations = 16.9

     negative rho (up, down):  7.082E-03 0.000E+00
 
     Adding external electric field

     Computed dipole along edir(3) : 
        Dipole               -0.1753 Ry au,         -0.4455 Debye
        Dipole field         -0.0003 Ry au, 
 
        Potential amp.        0.0307 Ry
        Total length         46.3494 bohr
 

     total cpu time spent up to now is      584.5 secs

     total energy              =   -2963.84119481 Ry
     estimated scf accuracy    <       0.91535085 Ry

     iteration # 27     ecut=    29.40 Ry     beta= 0.05
     Davidson diagonalization with overlap
     ethr =  2.31E-04,  avg # of iterations =  3.7

     negative rho (up, down):  6.867E-03 0.000E+00
 
     Adding external electric field

     Computed dipole along edir(3) : 
        Dipole               -0.6668 Ry au,         -1.6948 Debye
        Dipole field         -0.0013 Ry au, 
 
        Potential amp.        0.1166 Ry
        Total length         46.3494 bohr
 

     total cpu time spent up to now is      598.3 secs

     total energy              =   -2963.73851368 Ry
     estimated scf accuracy    <       0.87414942 Ry

     iteration # 28     ecut=    29.40 Ry     beta= 0.05
     Davidson diagonalization with overlap
     ethr =  2.20E-04,  avg # of iterations =  3.4

     negative rho (up, down):  6.803E-03 0.000E+00
 
     Adding external electric field

     Computed dipole along edir(3) : 
        Dipole               -0.3253 Ry au,         -0.8268 Debye
        Dipole field         -0.0006 Ry au, 
 
        Potential amp.        0.0569 Ry
        Total length         46.3494 bohr
 

     total cpu time spent up to now is      612.0 secs

     total energy              =   -2963.74350784 Ry
     estimated scf accuracy    <       0.63401133 Ry

     iteration # 29     ecut=    29.40 Ry     beta= 0.05
     Davidson diagonalization with overlap
     c_bands:  1 eigenvalues not converged
     c_bands:  1 eigenvalues not converged
     c_bands:  2 eigenvalues not converged
     c_bands:  1 eigenvalues not converged
     c_bands:  1 eigenvalues not converged
     c_bands:  1 eigenvalues not converged
     ethr =  1.60E-04,  avg # of iterations = 16.4

     negative rho (up, down):  7.064E-03 0.000E+00
 
     Adding external electric field

     Computed dipole along edir(3) : 
        Dipole                0.0237 Ry au,          0.0603 Debye
        Dipole field          0.0000 Ry au, 
 
        Potential amp.       -0.0041 Ry
        Total length         46.3494 bohr
 

     total cpu time spent up to now is      635.0 secs

     total energy              =   -2963.81436674 Ry
     estimated scf accuracy    <       1.35167324 Ry

     iteration # 30     ecut=    29.40 Ry     beta= 0.05
     Davidson diagonalization with overlap
     ethr =  1.60E-04,  avg # of iterations =  1.6

     negative rho (up, down):  7.363E-03 0.000E+00
 
     Adding external electric field

     Computed dipole along edir(3) : 
        Dipole                0.5541 Ry au,          1.4085 Debye
        Dipole field          0.0010 Ry au, 
 
        Potential amp.       -0.0969 Ry
        Total length         46.3494 bohr
 

     total cpu time spent up to now is      648.3 secs

     total energy              =   -2963.74477698 Ry
     estimated scf accuracy    <       1.16867074 Ry

     iteration # 31     ecut=    29.40 Ry     beta= 0.05
     Davidson diagonalization with overlap
     c_bands:  2 eigenvalues not converged
     c_bands:  1 eigenvalues not converged
     c_bands:  3 eigenvalues not converged
     c_bands:  1 eigenvalues not converged
     ethr =  1.60E-04,  avg # of iterations = 16.1

     negative rho (up, down):  7.359E-03 0.000E+00
 
     Adding external electric field

     Computed dipole along edir(3) : 
        Dipole                0.6195 Ry au,          1.5746 Debye
        Dipole field          0.0012 Ry au, 
 
        Potential amp.       -0.1084 Ry
        Total length         46.3494 bohr
 

     total cpu time spent up to now is      667.9 secs

     total energy              =   -2963.78116230 Ry
     estimated scf accuracy    <       0.15392180 Ry

     iteration # 32     ecut=    29.40 Ry     beta= 0.05
     Davidson diagonalization with overlap
     c_bands:  1 eigenvalues not converged
     c_bands:  2 eigenvalues not converged
     c_bands:  3 eigenvalues not converged
     c_bands:  4 eigenvalues not converged
     c_bands:  1 eigenvalues not converged
     ethr =  3.88E-05,  avg # of iterations = 15.8

     negative rho (up, down):  7.316E-03 0.000E+00
 
     Adding external electric field

     Computed dipole along edir(3) : 
        Dipole                0.3007 Ry au,          0.7644 Debye
        Dipole field          0.0006 Ry au, 
 
        Potential amp.       -0.0526 Ry
        Total length         46.3494 bohr
 

     total cpu time spent up to now is      687.5 secs

     total energy              =   -2963.76951023 Ry
     estimated scf accuracy    <       0.14518029 Ry

     iteration # 33     ecut=    29.40 Ry     beta= 0.05
     Davidson diagonalization with overlap
     c_bands:  3 eigenvalues not converged
     c_bands:  3 eigenvalues not converged
     c_bands:  1 eigenvalues not converged
     ethr =  3.66E-05,  avg # of iterations = 14.0

     negative rho (up, down):  7.692E-03 0.000E+00
 
     Adding external electric field

     Computed dipole along edir(3) : 
        Dipole                0.6242 Ry au,          1.5866 Debye
        Dipole field          0.0012 Ry au, 
 
        Potential amp.       -0.1092 Ry
        Total length         46.3494 bohr
 

     total cpu time spent up to now is      706.8 secs

     total energy              =   -2963.76119360 Ry
     estimated scf accuracy    <       0.77371916 Ry

     iteration # 34     ecut=    29.40 Ry     beta= 0.05
     Davidson diagonalization with overlap
     c_bands:  3 eigenvalues not converged
     c_bands:  1 eigenvalues not converged
     ethr =  3.66E-05,  avg # of iterations = 12.9

     negative rho (up, down):  8.028E-03 0.000E+00
 
     Adding external electric field

     Computed dipole along edir(3) : 
        Dipole                0.7217 Ry au,          1.8344 Debye
        Dipole field          0.0014 Ry au, 
 
        Potential amp.       -0.1262 Ry
        Total length         46.3494 bohr
 

     total cpu time spent up to now is      725.0 secs

     total energy              =   -2963.77766843 Ry
     estimated scf accuracy    <       0.03867371 Ry

     iteration # 35     ecut=    29.40 Ry     beta= 0.05
     Davidson diagonalization with overlap
     c_bands:  1 eigenvalues not converged
     c_bands:  3 eigenvalues not converged
     c_bands:  2 eigenvalues not converged
     c_bands:  2 eigenvalues not converged
     ethr =  9.74E-06,  avg # of iterations = 16.6

     negative rho (up, down):  8.400E-03 0.000E+00
 
     Adding external electric field

     Computed dipole along edir(3) : 
        Dipole                0.6035 Ry au,          1.5338 Debye
        Dipole field          0.0011 Ry au, 
 
        Potential amp.       -0.1056 Ry
        Total length         46.3494 bohr
 

     total cpu time spent up to now is      746.8 secs

     total energy              =   -2963.78006187 Ry
     estimated scf accuracy    <       0.02188384 Ry

     iteration # 36     ecut=    29.40 Ry     beta= 0.05
     Davidson diagonalization with overlap
     c_bands:  1 eigenvalues not converged
     c_bands:  1 eigenvalues not converged
     c_bands:  2 eigenvalues not converged
     c_bands:  1 eigenvalues not converged
     c_bands:  1 eigenvalues not converged
     ethr =  5.51E-06,  avg # of iterations = 18.5

     negative rho (up, down):  9.597E-03 0.000E+00
 
     Adding external electric field

     Computed dipole along edir(3) : 
        Dipole                0.8088 Ry au,          2.0557 Debye
        Dipole field          0.0015 Ry au, 
 
        Potential amp.       -0.1415 Ry
        Total length         46.3494 bohr
 

     total cpu time spent up to now is      770.8 secs

     total energy              =   -2963.77587923 Ry
     estimated scf accuracy    <       0.37538518 Ry

     iteration # 37     ecut=    29.40 Ry     beta= 0.05
     Davidson diagonalization with overlap
     c_bands:  1 eigenvalues not converged
     c_bands:  1 eigenvalues not converged
     ethr =  5.51E-06,  avg # of iterations = 16.5

     negative rho (up, down):  1.312E-02 0.000E+00
 
     Adding external electric field

     Computed dipole along edir(3) : 
        Dipole                1.0204 Ry au,          2.5937 Debye
        Dipole field          0.0019 Ry au, 
 
        Potential amp.       -0.1785 Ry
        Total length         46.3494 bohr
 

     total cpu time spent up to now is      793.8 secs

     total energy              =   -2963.78262009 Ry
     estimated scf accuracy    <       0.01312650 Ry

     iteration # 38     ecut=    29.40 Ry     beta= 0.05
     Davidson diagonalization with overlap
     c_bands:  3 eigenvalues not converged
     c_bands:  3 eigenvalues not converged
     c_bands:  3 eigenvalues not converged
     c_bands:  4 eigenvalues not converged
     c_bands:  2 eigenvalues not converged
     c_bands:  3 eigenvalues not converged
     c_bands:  2 eigenvalues not converged
     c_bands:  3 eigenvalues not converged
     c_bands:  1 eigenvalues not converged
     ethr =  3.31E-06,  avg # of iterations = 20.0

     negative rho (up, down):  1.178E-02 0.000E+00
 
     Adding external electric field

     Computed dipole along edir(3) : 
        Dipole                0.9081 Ry au,          2.3082 Debye
        Dipole field          0.0017 Ry au, 
 
        Potential amp.       -0.1589 Ry
        Total length         46.3494 bohr
 

     total cpu time spent up to now is      824.8 secs

     total energy              =   -2963.78605283 Ry
     estimated scf accuracy    <       0.18752464 Ry

     iteration # 39     ecut=    29.40 Ry     beta= 0.05
     Davidson diagonalization with overlap
     c_bands:  1 eigenvalues not converged
     c_bands:  1 eigenvalues not converged
     c_bands:  3 eigenvalues not converged
     c_bands:  2 eigenvalues not converged
     c_bands:  1 eigenvalues not converged
     c_bands:  1 eigenvalues not converged
     ethr =  3.31E-06,  avg # of iterations = 17.8

     negative rho (up, down):  1.263E-02 0.000E+00
 
     Adding external electric field

     Computed dipole along edir(3) : 
        Dipole                0.9360 Ry au,          2.3790 Debye
        Dipole field          0.0018 Ry au, 
 
        Potential amp.       -0.1637 Ry
        Total length         46.3494 bohr
 

     total cpu time spent up to now is      845.5 secs

     total energy              =   -2963.78514888 Ry
     estimated scf accuracy    <       0.09269541 Ry

     iteration # 40     ecut=    29.40 Ry     beta= 0.05
     Davidson diagonalization with overlap
     ethr =  3.31E-06,  avg # of iterations =  6.7

     negative rho (up, down):  1.366E-02 0.000E+00
 
     Adding external electric field

     Computed dipole along edir(3) : 
        Dipole                0.9476 Ry au,          2.4085 Debye
        Dipole field          0.0018 Ry au, 
 
        Potential amp.       -0.1658 Ry
        Total length         46.3494 bohr
 

     total cpu time spent up to now is      860.4 secs

     total energy              =   -2963.78439059 Ry
     estimated scf accuracy    <       0.04684669 Ry

     iteration # 41     ecut=    29.40 Ry     beta= 0.05
     Davidson diagonalization with overlap
     c_bands:  1 eigenvalues not converged
     ethr =  3.31E-06,  avg # of iterations =  9.6

     negative rho (up, down):  1.360E-02 0.000E+00
 
     Adding external electric field

     Computed dipole along edir(3) : 
        Dipole                0.9350 Ry au,          2.3764 Debye
        Dipole field          0.0018 Ry au, 
 
        Potential amp.       -0.1636 Ry
        Total length         46.3494 bohr
 

     total cpu time spent up to now is      876.5 secs

     total energy              =   -2963.78385227 Ry
     estimated scf accuracy    <       0.02460705 Ry

     iteration # 42     ecut=    29.40 Ry     beta= 0.05
     Davidson diagonalization with overlap
     c_bands:  1 eigenvalues not converged
     ethr =  3.31E-06,  avg # of iterations =  8.2

     negative rho (up, down):  1.367E-02 0.000E+00
 
     Adding external electric field

     Computed dipole along edir(3) : 
        Dipole                0.9286 Ry au,          2.3604 Debye
        Dipole field          0.0018 Ry au, 
 
        Potential amp.       -0.1625 Ry
        Total length         46.3494 bohr
 

     total cpu time spent up to now is      892.4 secs

     total energy              =   -2963.78400178 Ry
     estimated scf accuracy    <       0.01507978 Ry

     iteration # 43     ecut=    29.40 Ry     beta= 0.05
     Davidson diagonalization with overlap
     ethr =  3.31E-06,  avg # of iterations =  3.9

     negative rho (up, down):  1.449E-02 0.000E+00
 
     Adding external electric field

     Computed dipole along edir(3) : 
        Dipole                0.9155 Ry au,          2.3269 Debye
        Dipole field          0.0017 Ry au, 
 
        Potential amp.       -0.1601 Ry
        Total length         46.3494 bohr
 

     total cpu time spent up to now is      906.4 secs

     total energy              =   -2963.78381819 Ry
     estimated scf accuracy    <       0.00874030 Ry

     iteration # 44     ecut=    29.40 Ry     beta= 0.05
     Davidson diagonalization with overlap
     c_bands:  2 eigenvalues not converged
     ethr =  2.20E-06,  avg # of iterations = 13.4

     negative rho (up, down):  1.710E-02 0.000E+00
 
     Adding external electric field

     Computed dipole along edir(3) : 
        Dipole                0.9189 Ry au,          2.3357 Debye
        Dipole field          0.0017 Ry au, 
 
        Potential amp.       -0.1608 Ry
        Total length         46.3494 bohr
 

     total cpu time spent up to now is      924.6 secs

     total energy              =   -2963.78397703 Ry
     estimated scf accuracy    <       0.00191666 Ry

     iteration # 45     ecut=    29.40 Ry     beta= 0.05
     Davidson diagonalization with overlap
     c_bands:  1 eigenvalues not converged
     c_bands:  1 eigenvalues not converged
     c_bands:  2 eigenvalues not converged
     c_bands:  1 eigenvalues not converged
     c_bands:  1 eigenvalues not converged
     ethr =  4.83E-07,  avg # of iterations = 16.0

     negative rho (up, down):  1.680E-02 0.000E+00
 
     Adding external electric field

     Computed dipole along edir(3) : 
        Dipole                0.8896 Ry au,          2.2611 Debye
        Dipole field          0.0017 Ry au, 
 
        Potential amp.       -0.1556 Ry
        Total length         46.3494 bohr
 

     total cpu time spent up to now is      951.6 secs

     total energy              =   -2963.78435070 Ry
     estimated scf accuracy    <       0.00475168 Ry

     iteration # 46     ecut=    29.40 Ry     beta= 0.05
     Davidson diagonalization with overlap
     ethr =  4.83E-07,  avg # of iterations =  5.8

     negative rho (up, down):  1.674E-02 0.000E+00
 
     Adding external electric field

     Computed dipole along edir(3) : 
        Dipole                0.9134 Ry au,          2.3215 Debye
        Dipole field          0.0017 Ry au, 
 
        Potential amp.       -0.1598 Ry
        Total length         46.3494 bohr
 

     total cpu time spent up to now is      966.4 secs

     total energy              =   -2963.78403293 Ry
     estimated scf accuracy    <       0.00489102 Ry

     iteration # 47     ecut=    29.40 Ry     beta= 0.05
     Davidson diagonalization with overlap
     c_bands:  1 eigenvalues not converged
     ethr =  4.83E-07,  avg # of iterations = 14.8

     negative rho (up, down):  1.690E-02 0.000E+00
 
     Adding external electric field

     Computed dipole along edir(3) : 
        Dipole                0.9076 Ry au,          2.3068 Debye
        Dipole field          0.0017 Ry au, 
 
        Potential amp.       -0.1588 Ry
        Total length         46.3494 bohr
 

     total cpu time spent up to now is      990.0 secs

     total energy              =   -2963.78435913 Ry
     estimated scf accuracy    <       0.00340171 Ry

     iteration # 48     ecut=    29.40 Ry     beta= 0.05
     Davidson diagonalization with overlap
     ethr =  4.83E-07,  avg # of iterations =  2.4

     negative rho (up, down):  1.666E-02 0.000E+00
 
     Adding external electric field

     Computed dipole along edir(3) : 
        Dipole                0.8961 Ry au,          2.2776 Debye
        Dipole field          0.0017 Ry au, 
 
        Potential amp.       -0.1568 Ry
        Total length         46.3494 bohr
 

     total cpu time spent up to now is     1003.6 secs

     total energy              =   -2963.78432702 Ry
     estimated scf accuracy    <       0.00058666 Ry

     iteration # 49     ecut=    29.40 Ry     beta= 0.05
     Davidson diagonalization with overlap
     ethr =  1.48E-07,  avg # of iterations = 12.8

     negative rho (up, down):  1.626E-02 0.000E+00
 
     Adding external electric field

     Computed dipole along edir(3) : 
        Dipole                0.8851 Ry au,          2.2497 Debye
        Dipole field          0.0017 Ry au, 
 
        Potential amp.       -0.1548 Ry
        Total length         46.3494 bohr
 

     total cpu time spent up to now is     1023.6 secs

     total energy              =   -2963.78436391 Ry
     estimated scf accuracy    <       0.00033003 Ry

     iteration # 50     ecut=    29.40 Ry     beta= 0.05
     Davidson diagonalization with overlap
     ethr =  8.31E-08,  avg # of iterations =  6.0

     negative rho (up, down):  1.616E-02 0.000E+00
 
     Adding external electric field

     Computed dipole along edir(3) : 
        Dipole                0.8812 Ry au,          2.2397 Debye
        Dipole field          0.0017 Ry au, 
 
        Potential amp.       -0.1541 Ry
        Total length         46.3494 bohr
 

     total cpu time spent up to now is     1041.3 secs

     total energy              =   -2963.78438496 Ry
     estimated scf accuracy    <       0.00013056 Ry

     iteration # 51     ecut=    29.40 Ry     beta= 0.05
     Davidson diagonalization with overlap
     ethr =  3.29E-08,  avg # of iterations =  8.8

     negative rho (up, down):  1.652E-02 0.000E+00
 
     Adding external electric field

     Computed dipole along edir(3) : 
        Dipole                0.8898 Ry au,          2.2616 Debye
        Dipole field          0.0017 Ry au, 
 
        Potential amp.       -0.1557 Ry
        Total length         46.3494 bohr
 

     total cpu time spent up to now is     1060.9 secs

     total energy              =   -2963.78442134 Ry
     estimated scf accuracy    <       0.00011338 Ry

     iteration # 52     ecut=    29.40 Ry     beta= 0.05
     Davidson diagonalization with overlap
     ethr =  2.86E-08,  avg # of iterations =  5.2

     negative rho (up, down):  1.665E-02 0.000E+00
 
     Adding external electric field

     Computed dipole along edir(3) : 
        Dipole                0.8895 Ry au,          2.2608 Debye
        Dipole field          0.0017 Ry au, 
 
        Potential amp.       -0.1556 Ry
        Total length         46.3494 bohr
 

     total cpu time spent up to now is     1075.9 secs

     total energy              =   -2963.78443498 Ry
     estimated scf accuracy    <       0.00007044 Ry

     iteration # 53     ecut=    29.40 Ry     beta= 0.05
     Davidson diagonalization with overlap
     ethr =  1.77E-08,  avg # of iterations = 10.9

     negative rho (up, down):  1.660E-02 0.000E+00
 
     Adding external electric field

     Computed dipole along edir(3) : 
        Dipole                0.8891 Ry au,          2.2599 Debye
        Dipole field          0.0017 Ry au, 
 
        Potential amp.       -0.1555 Ry
        Total length         46.3494 bohr
 

     total cpu time spent up to now is     1099.3 secs

     total energy              =   -2963.78445204 Ry
     estimated scf accuracy    <       0.00009819 Ry

     iteration # 54     ecut=    29.40 Ry     beta= 0.05
     Davidson diagonalization with overlap
     ethr =  1.77E-08,  avg # of iterations =  2.0

     negative rho (up, down):  1.691E-02 0.000E+00
 
     Adding external electric field

     Computed dipole along edir(3) : 
        Dipole                0.8944 Ry au,          2.2734 Debye
        Dipole field          0.0017 Ry au, 
 
        Potential amp.       -0.1565 Ry
        Total length         46.3494 bohr
 

     total cpu time spent up to now is     1112.9 secs

     total energy              =   -2963.78445726 Ry
     estimated scf accuracy    <       0.00005985 Ry

     iteration # 55     ecut=    29.40 Ry     beta= 0.05
     Davidson diagonalization with overlap
     ethr =  1.51E-08,  avg # of iterations = 11.9

     negative rho (up, down):  1.717E-02 0.000E+00
 
     Adding external electric field

     Computed dipole along edir(3) : 
        Dipole                0.8982 Ry au,          2.2829 Debye
        Dipole field          0.0017 Ry au, 
 
        Potential amp.       -0.1571 Ry
        Total length         46.3494 bohr
 

     total cpu time spent up to now is     1138.8 secs

     total energy              =   -2963.78447621 Ry
     estimated scf accuracy    <       0.00010967 Ry

     iteration # 56     ecut=    29.40 Ry     beta= 0.05
     Davidson diagonalization with overlap
     ethr =  1.51E-08,  avg # of iterations =  8.3

     negative rho (up, down):  1.731E-02 0.000E+00
 
     Adding external electric field

     Computed dipole along edir(3) : 
        Dipole                0.9004 Ry au,          2.2885 Debye
        Dipole field          0.0017 Ry au, 
 
        Potential amp.       -0.1575 Ry
        Total length         46.3494 bohr
 

     total cpu time spent up to now is     1157.2 secs

     total energy              =   -2963.78449229 Ry
     estimated scf accuracy    <       0.00002086 Ry

     iteration # 57     ecut=    29.40 Ry     beta= 0.05
     Davidson diagonalization with overlap
     ethr =  5.26E-09,  avg # of iterations =  9.6

     negative rho (up, down):  1.724E-02 0.000E+00
 
     Adding external electric field

     Computed dipole along edir(3) : 
        Dipole                0.8981 Ry au,          2.2828 Debye
        Dipole field          0.0017 Ry au, 
 
        Potential amp.       -0.1571 Ry
        Total length         46.3494 bohr
 

     total cpu time spent up to now is     1179.5 secs

     total energy              =   -2963.78450406 Ry
     estimated scf accuracy    <       0.00001225 Ry

     iteration # 58     ecut=    29.40 Ry     beta= 0.05
     Davidson diagonalization with overlap
     ethr =  3.08E-09,  avg # of iterations =  5.6

     negative rho (up, down):  1.722E-02 0.000E+00
 
     Adding external electric field

     Computed dipole along edir(3) : 
        Dipole                0.8970 Ry au,          2.2800 Debye
        Dipole field          0.0017 Ry au, 
 
        Potential amp.       -0.1569 Ry
        Total length         46.3494 bohr
 

     total cpu time spent up to now is     1194.6 secs

     total energy              =   -2963.78451066 Ry
     estimated scf accuracy    <       0.00000654 Ry

     iteration # 59     ecut=    29.40 Ry     beta= 0.05
     Davidson diagonalization with overlap
     ethr =  1.65E-09,  avg # of iterations =  7.9

     negative rho (up, down):  1.731E-02 0.000E+00
 
     Adding external electric field

     Computed dipole along edir(3) : 
        Dipole                0.8992 Ry au,          2.2855 Debye
        Dipole field          0.0017 Ry au, 
 
        Potential amp.       -0.1573 Ry
        Total length         46.3494 bohr
 

     total cpu time spent up to now is     1213.2 secs

     total energy              =   -2963.78451735 Ry
     estimated scf accuracy    <       0.00000425 Ry

     iteration # 60     ecut=    29.40 Ry     beta= 0.05
     Davidson diagonalization with overlap
     ethr =  1.07E-09,  avg # of iterations =  5.2

     negative rho (up, down):  1.731E-02 0.000E+00
 
     Adding external electric field

     Computed dipole along edir(3) : 
        Dipole                0.8995 Ry au,          2.2862 Debye
        Dipole field          0.0017 Ry au, 
 
        Potential amp.       -0.1573 Ry
        Total length         46.3494 bohr
 

     total cpu time spent up to now is     1227.9 secs

     total energy              =   -2963.78452255 Ry
     estimated scf accuracy    <       0.00000260 Ry

     iteration # 61     ecut=    29.40 Ry     beta= 0.05
     Davidson diagonalization with overlap
     ethr =  6.55E-10,  avg # of iterations =  8.7

     negative rho (up, down):  1.724E-02 0.000E+00
 
     Adding external electric field

     Computed dipole along edir(3) : 
        Dipole                0.8974 Ry au,          2.2810 Debye
        Dipole field          0.0017 Ry au, 
 
        Potential amp.       -0.1570 Ry
        Total length         46.3494 bohr
 

     total cpu time spent up to now is     1245.9 secs

     total energy              =   -2963.78452759 Ry
     estimated scf accuracy    <       0.00000150 Ry

     iteration # 62     ecut=    29.40 Ry     beta= 0.05
     Davidson diagonalization with overlap
     ethr =  3.78E-10,  avg # of iterations =  8.8

     negative rho (up, down):  1.723E-02 0.000E+00
 
     Adding external electric field

     Computed dipole along edir(3) : 
        Dipole                0.8972 Ry au,          2.2805 Debye
        Dipole field          0.0017 Ry au, 
 
        Potential amp.       -0.1570 Ry
        Total length         46.3494 bohr
 

     total cpu time spent up to now is     1263.3 secs

     total energy              =   -2963.78453213 Ry
     estimated scf accuracy    <       0.00000120 Ry

     iteration # 63     ecut=    29.40 Ry     beta= 0.05
     Davidson diagonalization with overlap
     ethr =  3.03E-10,  avg # of iterations =  2.2

     negative rho (up, down):  1.723E-02 0.000E+00
 
     Adding external electric field

     Computed dipole along edir(3) : 
        Dipole                0.8974 Ry au,          2.2810 Debye
        Dipole field          0.0017 Ry au, 
 
        Potential amp.       -0.1570 Ry
        Total length         46.3494 bohr
 

     total cpu time spent up to now is     1277.1 secs

     total energy              =   -2963.78453618 Ry
     estimated scf accuracy    <       0.00000090 Ry

     iteration # 64     ecut=    29.40 Ry     beta= 0.05
     Davidson diagonalization with overlap
     ethr =  2.26E-10,  avg # of iterations =  8.0

     negative rho (up, down):  1.720E-02 0.000E+00
 
     Adding external electric field

     Computed dipole along edir(3) : 
        Dipole                0.8969 Ry au,          2.2798 Debye
        Dipole field          0.0017 Ry au, 
 
        Potential amp.       -0.1569 Ry
        Total length         46.3494 bohr
 

     total cpu time spent up to now is     1293.3 secs

     total energy              =   -2963.78453979 Ry
     estimated scf accuracy    <       0.00000040 Ry

     iteration # 65     ecut=    29.40 Ry     beta= 0.05
     Davidson diagonalization with overlap
     ethr =  1.00E-10,  avg # of iterations =  8.2

     negative rho (up, down):  1.720E-02 0.000E+00
 
     Adding external electric field

     Computed dipole along edir(3) : 
        Dipole                0.8969 Ry au,          2.2796 Debye
        Dipole field          0.0017 Ry au, 
 
        Potential amp.       -0.1569 Ry
        Total length         46.3494 bohr
 

     total cpu time spent up to now is     1314.2 secs

     total energy              =   -2963.78454308 Ry
     estimated scf accuracy    <       0.00000022 Ry

     iteration # 66     ecut=    29.40 Ry     beta= 0.05
     Davidson diagonalization with overlap
     ethr =  5.49E-11,  avg # of iterations =  1.5

     negative rho (up, down):  1.718E-02 0.000E+00
 
     Adding external electric field

     Computed dipole along edir(3) : 
        Dipole                0.8962 Ry au,          2.2779 Debye
        Dipole field          0.0017 Ry au, 
 
        Potential amp.       -0.1568 Ry
        Total length         46.3494 bohr
 

     total cpu time spent up to now is     1327.1 secs

     total energy              =   -2963.78454595 Ry
     estimated scf accuracy    <       0.00000016 Ry

     iteration # 67     ecut=    29.40 Ry     beta= 0.05
     Davidson diagonalization with overlap
     ethr =  4.07E-11,  avg # of iterations = 12.4

     negative rho (up, down):  1.717E-02 0.000E+00
 
     Adding external electric field

     Computed dipole along edir(3) : 
        Dipole                0.8960 Ry au,          2.2774 Debye
        Dipole field          0.0017 Ry au, 
 
        Potential amp.       -0.1567 Ry
        Total length         46.3494 bohr
 

     total cpu time spent up to now is     1351.6 secs

     total energy              =   -2963.78454862 Ry
     estimated scf accuracy    <       0.00000023 Ry

     iteration # 68     ecut=    29.40 Ry     beta= 0.05
     Davidson diagonalization with overlap
     ethr =  4.07E-11,  avg # of iterations = 11.1

     negative rho (up, down):  1.717E-02 0.000E+00
 
     Adding external electric field

     Computed dipole along edir(3) : 
        Dipole                0.8960 Ry au,          2.2775 Debye
        Dipole field          0.0017 Ry au, 
 
        Potential amp.       -0.1567 Ry
        Total length         46.3494 bohr
 

     total cpu time spent up to now is     1374.8 secs

     total energy              =   -2963.78455103 Ry
     estimated scf accuracy    <       0.00000008 Ry

     iteration # 69     ecut=    29.40 Ry     beta= 0.05
     Davidson diagonalization with overlap
     ethr =  2.10E-11,  avg # of iterations =  4.2

     negative rho (up, down):  1.718E-02 0.000E+00
 
     Adding external electric field

     Computed dipole along edir(3) : 
        Dipole                0.8951 Ry au,          2.2752 Debye
        Dipole field          0.0017 Ry au, 
 
        Potential amp.       -0.1566 Ry
        Total length         46.3494 bohr
 

     total cpu time spent up to now is     1389.1 secs

     End of self-consistent calculation

          k = 0.0000 0.0000 0.0000 ( 18029 PWs)   bands (ev):

   -55.9191 -55.8779 -55.7856 -55.7013 -55.6670 -55.6580 -55.6533 -55.5986
   -55.5621 -55.5352 -55.5138 -55.4776 -55.4595 -55.3689 -54.7644 -54.7304
   -32.3713 -32.2462 -32.2130 -32.1797 -32.1757 -32.1264 -32.1235 -32.0777
   -32.0671 -32.0076 -32.0063 -32.0002 -31.9944 -31.9830 -31.9696 -31.9499
   -31.9367 -31.9231 -31.8781 -31.8763 -31.8628 -31.8472 -31.8464 -31.8356
   -31.8035 -31.8022 -31.7688 -31.7632 -31.7609 -31.7560 -31.7439 -31.7385
   -31.7262 -31.7169 -31.6918 -31.6797 -31.6739 -31.6514 -31.6298 -31.6156
   -31.5747 -31.5735 -31.1667 -31.0910 -31.0677 -30.9838 -30.8979 -30.7865
   -20.3727 -16.5748 -16.4187 -16.2470 -16.0587 -15.9622 -15.9017 -15.6850
   -15.6338 -15.5382 -15.4101 -15.3735 -15.3397 -15.3042 -15.2895 -15.2805
   -15.2537 -15.2356 -15.2044 -15.1834 -15.1757 -15.1342 -15.0635 -15.0223
   -15.0147 -14.9681 -14.9120 -14.8707 -14.8385 -14.7913 -14.6182 -13.2651
   -13.1514  -9.4649  -5.8189  -5.8017  -4.1692  -3.8607  -3.7770  -3.7303
    -3.6432  -3.6225  -3.5011  -3.3381  -3.1559  -3.0282  -2.9437  -2.9205
    -2.8818  -2.7699  -2.7182  -2.6866  -2.6444  -2.6159  -2.5936  -2.5572
    -2.5348  -2.4970  -2.4567  -2.4278  -2.3378  -2.3323  -2.2751  -2.2130
    -2.1797  -2.1657  -2.1640  -2.1393  -2.1027  -2.0486  -2.0137  -1.9786
    -1.9429  -1.8254  -1.8056  -1.7918  -1.7181  -1.4777  -1.3445  -1.3062
    -1.2495  -1.2132  -1.1931  -1.1642  -1.1553  -1.1392  -1.1100  -1.0584
    -0.9547  -0.8941  -0.8254  -0.8236  -0.8007  -0.7455  -0.6595  -0.5895
    -0.5547  -0.5198  -0.5013  -0.4260  -0.4237  -0.3459  -0.3179  -0.2479
    -0.1306  -0.0820  -0.0595  -0.0411  -0.0285   0.0256   0.0725   0.1327
     0.1627   0.1758   0.2066   0.2844   0.2932   0.3151   0.3336   0.4313
     0.4941   0.5030   0.5735   0.6618   0.6903   0.7801   0.9102   0.9823
     1.2329   1.2577   1.3412   1.4732   1.8192   1.8632   3.2958   3.3660
     3.4038   3.5036   3.5850   3.6050   3.6834   3.7451   3.8297   3.8711

          k = 0.0000 0.0419 0.0000 ( 17933 PWs)   bands (ev):

   -55.9152 -55.8817 -55.7851 -55.6966 -55.6716 -55.6568 -55.6503 -55.6014
   -55.5624 -55.5363 -55.5093 -55.4820 -55.4579 -55.3703 -54.7593 -54.7353
   -32.3177 -32.2093 -32.2059 -32.1706 -32.1270 -32.0909 -32.0843 -32.0644
   -32.0624 -32.0506 -31.9995 -31.9963 -31.9802 -31.9585 -31.9527 -31.9355
   -31.9186 -31.9145 -31.8893 -31.8714 -31.8629 -31.8621 -31.8538 -31.8466
   -31.8431 -31.8146 -31.7922 -31.7916 -31.7764 -31.7705 -31.7554 -31.7522
   -31.7399 -31.7169 -31.6973 -31.6855 -31.6814 -31.6733 -31.6504 -31.6383
   -31.6049 -31.5736 -31.1128 -31.0874 -31.0709 -30.9713 -30.9105 -30.8434
   -20.3699 -16.5590 -16.2956 -16.1336 -15.9517 -15.8905 -15.8176 -15.6324
   -15.6067 -15.5093 -15.4814 -15.3995 -15.3934 -15.3141 -15.3032 -15.2899
   -15.2774 -15.2274 -15.2236 -15.1847 -15.1717 -15.1204 -15.0918 -15.0662
   -15.0273 -14.9927 -14.9698 -14.9316 -14.9222 -14.8473 -14.6769 -13.2705
   -13.1915  -9.4661  -5.8125  -5.7942  -4.1623  -3.8542  -3.5951  -3.5576
    -3.5001  -3.4868  -3.3457  -3.2036  -2.9822  -2.9159  -2.8876  -2.8772
    -2.8018  -2.7468  -2.7404  -2.7317  -2.6857  -2.6743  -2.6498  -2.6221
    -2.5942  -2.5395  -2.5134  -2.4818  -2.4546  -2.4047  -2.3451  -2.3121
    -2.2918  -2.2362  -2.2287  -2.2180  -2.1643  -2.0836  -2.0421  -1.9952
    -1.9327  -1.8844  -1.7342  -1.5866  -1.5123  -1.4648  -1.4343  -1.3703
    -1.2502  -1.1708  -1.1605  -1.0562  -0.9871  -0.9564  -0.9342  -0.9067
    -0.8343  -0.8154  -0.7822  -0.7768  -0.7233  -0.6953  -0.6419  -0.5801
    -0.5737  -0.5292  -0.5130  -0.4896  -0.4508  -0.3946  -0.3485  -0.3197
    -0.2966  -0.2781  -0.2275  -0.1075  -0.0760  -0.0443  -0.0032   0.0290
     0.0712   0.1015   0.1269   0.1575   0.1772   0.2971   0.3424   0.4010
     0.4444   0.5012   0.5040   0.5410   0.6166   0.6263   0.7130   0.8757
     0.8972   1.2167   1.4541   1.5595   1.7697   1.7792   3.3837   3.5069
     3.5634   3.6425   3.6791   3.7802   3.8161   3.8394   3.8722   3.9299

          k = 0.0000-0.0839 0.0000 ( 17884 PWs)   bands (ev):

   -55.9101 -55.8867 -55.7846 -55.6884 -55.6797 -55.6555 -55.6470 -55.6047
   -55.5628 -55.5375 -55.5023 -55.4890 -55.4563 -55.3719 -54.7478 -54.7467
   -32.2069 -32.1951 -32.1753 -32.1702 -32.1550 -32.0634 -32.0421 -32.0387
   -32.0220 -32.0085 -32.0034 -32.0005 -31.9901 -31.9531 -31.9426 -31.9188
   -31.9047 -31.8979 -31.8939 -31.8714 -31.8669 -31.8636 -31.8620 -31.8574
   -31.8494 -31.8404 -31.8247 -31.8183 -31.8164 -31.8083 -31.7727 -31.7638
   -31.7432 -31.7369 -31.7184 -31.7157 -31.7007 -31.6739 -31.6734 -31.6493
   -31.6182 -31.5733 -31.0795 -31.0784 -30.9812 -30.9794 -30.9411 -30.9398
   -20.3672 -16.5484 -16.0080 -15.9851 -15.8583 -15.8426 -15.6983 -15.6728
   -15.6141 -15.5855 -15.5375 -15.5149 -15.4510 -15.3962 -15.2683 -15.2594
   -15.1822 -15.1739 -15.1732 -15.1724 -15.1681 -15.1266 -15.1132 -15.0972
   -15.0853 -15.0736 -15.0356 -15.0002 -14.9670 -14.9368 -14.7670 -13.2552
   -13.2532  -9.4673  -5.8028  -5.7917  -4.1559  -3.8544  -3.2080  -3.2002
    -3.1877  -3.1271  -3.1227  -3.1189  -3.0942  -3.0747  -3.0242  -2.9524
    -2.8763  -2.8326  -2.8266  -2.8115  -2.7643  -2.7433  -2.7213  -2.6918
    -2.6612  -2.6360  -2.5731  -2.5546  -2.5302  -2.4455  -2.3881  -2.3370
    -2.3206  -2.2734  -2.1330  -2.0540  -2.0298  -1.9063  -1.8633  -1.7858
    -1.7637  -1.7351  -1.6203  -1.5969  -1.5449  -1.4573  -1.4241  -1.3529
    -1.2656  -1.2326  -1.1832  -1.1540  -1.1458  -1.1248  -1.1087  -1.0751
    -1.0606  -0.9518  -0.8991  -0.7640  -0.6987  -0.6776  -0.4839  -0.4636
    -0.4352  -0.4295  -0.3907  -0.3775  -0.3513  -0.3342  -0.2772  -0.2612
    -0.2505  -0.2302  -0.2171  -0.1996  -0.1882  -0.1683  -0.1146  -0.0394
    -0.0270   0.0042   0.0426   0.0613   0.1014   0.1456   0.1875   0.2470
     0.2579   0.3517   0.4462   0.4800   0.5065   0.5238   0.7042   0.8104
     0.9711   1.0000   1.5951   1.6122   1.7069   1.7151   3.3378   3.7063
     3.7368   3.8027   3.8471   3.8547   3.8826   3.8975   4.0054   4.0136

          k = 0.0380 0.0000 0.0000 ( 17913 PWs)   bands (ev):

   -55.9190 -55.8778 -55.7855 -55.7012 -55.6669 -55.6579 -55.6532 -55.5985
   -55.5620 -55.5350 -55.5138 -55.4775 -55.4594 -55.3688 -54.7643 -54.7303
   -32.3721 -32.2464 -32.2128 -32.1815 -32.1756 -32.1266 -32.1265 -32.0752
   -32.0615 -32.0121 -32.0081 -31.9993 -31.9941 -31.9827 -31.9694 -31.9432
   -31.9375 -31.9229 -31.8762 -31.8629 -31.8622 -31.8451 -31.8447 -31.8354
   -31.8026 -31.7996 -31.7643 -31.7627 -31.7608 -31.7549 -31.7503 -31.7393
   -31.7258 -31.7169 -31.7053 -31.6796 -31.6734 -31.6551 -31.6296 -31.6155
   -31.5749 -31.5737 -31.1663 -31.0939 -31.0658 -30.9836 -30.8978 -30.7863
   -20.3725 -16.5615 -16.3387 -16.1611 -15.9856 -15.9572 -15.8414 -15.7196
   -15.6304 -15.5625 -15.5306 -15.4730 -15.4270 -15.4162 -15.3466 -15.3196
   -15.2561 -15.2275 -15.2058 -15.1407 -15.0842 -15.0835 -15.0471 -15.0017
   -14.9982 -14.9227 -14.9110 -14.8884 -14.8788 -14.8360 -14.6164 -13.2621
   -13.1510  -9.4641  -5.8182  -5.7961  -4.1564  -3.9382  -3.6100  -3.4860
    -3.4599  -3.3889  -3.3150  -3.2714  -3.1449  -3.1265  -3.0295  -3.0109
    -2.9640  -2.9156  -2.8917  -2.8320  -2.6962  -2.6346  -2.5194  -2.4461
    -2.4202  -2.4019  -2.3698  -2.3363  -2.2757  -2.2561  -2.2057  -2.1966
    -2.1581  -2.1372  -2.1257  -2.1241  -2.1029  -1.9633  -1.9463  -1.8922
    -1.8097  -1.7447  -1.6768  -1.6536  -1.5525  -1.5200  -1.4123  -1.3410
    -1.3344  -1.2908  -1.2691  -1.2465  -1.2012  -1.1422  -1.1150  -1.0802
    -1.0736  -1.0006  -0.9665  -0.9008  -0.8675  -0.8462  -0.7301  -0.6649
    -0.5421  -0.5337  -0.4543  -0.4083  -0.3930  -0.3625  -0.2825  -0.2407
    -0.1945  -0.1367  -0.1016  -0.0658  -0.0558  -0.0226   0.0027   0.0223
     0.0541   0.0887   0.1394   0.1646   0.1999   0.2855   0.3094   0.4279
     0.4722   0.4854   0.5051   0.5643   0.6111   0.6372   0.8712   0.9331
     1.1976   1.2554   1.2694   1.4439   1.7093   1.7798   3.3134   3.3794
     3.4148   3.6116   3.7046   3.7411   3.7515   3.7602   3.8045   3.8344

          k = 0.0380 0.0419 0.0000 ( 17878 PWs)   bands (ev):

   -55.9151 -55.8816 -55.7850 -55.6965 -55.6715 -55.6567 -55.6503 -55.6014
   -55.5624 -55.5362 -55.5093 -55.4820 -55.4578 -55.3703 -54.7593 -54.7352
   -32.3185 -32.2092 -32.2062 -32.1706 -32.1288 -32.0934 -32.0845 -32.0624
   -32.0581 -32.0506 -31.9989 -31.9960 -31.9807 -31.9601 -31.9584 -31.9298
   -31.9184 -31.9163 -31.8895 -31.8627 -31.8589 -31.8570 -31.8541 -31.8450
   -31.8434 -31.8142 -31.7923 -31.7867 -31.7763 -31.7609 -31.7549 -31.7518
   -31.7476 -31.7170 -31.7108 -31.6840 -31.6815 -31.6769 -31.6536 -31.6381
   -31.6048 -31.5748 -31.1125 -31.0897 -31.0699 -30.9711 -30.9106 -30.8433
   -20.3698 -16.5522 -16.2201 -16.0530 -15.9169 -15.8586 -15.7451 -15.6535
   -15.6112 -15.5326 -15.5098 -15.4587 -15.4330 -15.4131 -15.3639 -15.2761
   -15.2641 -15.2387 -15.2283 -15.1729 -15.1637 -15.1265 -15.0906 -15.0706
   -15.0327 -14.9846 -14.9534 -14.9354 -14.9279 -14.9154 -14.6747 -13.2684
   -13.1918  -9.4656  -5.8124  -5.7910  -4.1507  -3.8996  -3.4448  -3.3462
    -3.2859  -3.2268  -3.2131  -3.1299  -2.9913  -2.9590  -2.9081  -2.8862
    -2.8278  -2.7814  -2.7507  -2.6900  -2.6605  -2.6202  -2.6059  -2.5562
    -2.5288  -2.5145  -2.4845  -2.4447  -2.4300  -2.4144  -2.3846  -2.3174
    -2.2505  -2.2329  -2.2057  -2.1541  -2.1212  -2.0172  -1.9636  -1.8885
    -1.8675  -1.8047  -1.7236  -1.6832  -1.5015  -1.4399  -1.4079  -1.3470
    -1.2950  -1.2407  -1.2189  -1.1393  -1.0929  -1.0426  -1.0082  -0.9551
    -0.9282  -0.8819  -0.8632  -0.8528  -0.7808  -0.7544  -0.7296  -0.6954
    -0.6421  -0.5773  -0.5601  -0.5438  -0.5025  -0.4661  -0.4262  -0.3939
    -0.3672  -0.3544  -0.2786  -0.2232  -0.1656  -0.1242  -0.0873  -0.0593
    -0.0170   0.0203   0.0685   0.1461   0.2116   0.2655   0.3274   0.4125
     0.4386   0.4950   0.5379   0.5815   0.5955   0.6706   0.6845   0.8321
     0.8771   1.1598   1.4655   1.5632   1.6946   1.7553   3.3248   3.4874
     3.5928   3.7470   3.7767   3.8050   3.8569   3.8820   3.8926   3.9330

          k = 0.0380-0.0839 0.0000 ( 17916 PWs)   bands (ev):

   -55.9101 -55.8867 -55.7846 -55.6884 -55.6797 -55.6555 -55.6470 -55.6047
   -55.5628 -55.5374 -55.5023 -55.4891 -55.4563 -55.3719 -54.7479 -54.7467
   -32.2070 -32.1957 -32.1760 -32.1703 -32.1556 -32.0602 -32.0436 -32.0378
   -32.0210 -32.0096 -32.0033 -32.0014 -31.9917 -31.9534 -31.9429 -31.9188
   -31.9019 -31.8980 -31.8919 -31.8725 -31.8716 -31.8690 -31.8654 -31.8574
   -31.8527 -31.8291 -31.8279 -31.8109 -31.8082 -31.8054 -31.7641 -31.7528
   -31.7463 -31.7433 -31.7184 -31.7152 -31.7082 -31.6855 -31.6735 -31.6520
   -31.6182 -31.5754 -31.0803 -31.0792 -30.9811 -30.9794 -30.9412 -30.9398
   -20.3672 -16.5450 -15.9724 -15.9380 -15.8023 -15.7916 -15.6417 -15.6241
   -15.5870 -15.5755 -15.5296 -15.4892 -15.4260 -15.4212 -15.3116 -15.2977
   -15.2599 -15.2344 -15.2278 -15.2141 -15.1766 -15.1571 -15.1179 -15.1155
   -15.1027 -15.0773 -15.0371 -15.0291 -14.9971 -14.9242 -14.7607 -13.2550
   -13.2530  -9.4671  -5.8034  -5.7906  -4.1431  -3.8707  -3.1698  -3.1262
    -2.9962  -2.9832  -2.9280  -2.9150  -2.9016  -2.8828  -2.8683  -2.8527
    -2.8259  -2.8043  -2.7517  -2.7211  -2.7076  -2.6738  -2.6653  -2.6264
    -2.6063  -2.5935  -2.5538  -2.5197  -2.4677  -2.4176  -2.3998  -2.3712
    -2.3444  -2.2800  -2.1140  -2.0067  -1.9467  -1.9214  -1.8307  -1.7759
    -1.7184  -1.7050  -1.6384  -1.6227  -1.5827  -1.5687  -1.5480  -1.5145
    -1.4908  -1.4501  -1.4371  -1.4055  -1.2825  -1.2424  -1.1932  -1.1370
    -1.0118  -0.9354  -0.8646  -0.8544  -0.8090  -0.7556  -0.6245  -0.6165
    -0.5827  -0.5511  -0.5019  -0.4975  -0.4668  -0.4485  -0.4216  -0.4035
    -0.3703  -0.3574  -0.3302  -0.3042  -0.2487  -0.1968  -0.1486  -0.1071
    -0.0736   0.0090   0.1168   0.1273   0.2290   0.2541   0.2960   0.3353
     0.3585   0.3964   0.4467   0.4883   0.5474   0.6004   0.7048   0.7900
     0.9299   0.9779   1.6081   1.6237   1.6945   1.7020   3.2941   3.7093
     3.7238   3.7955   3.8470   3.8784   3.9075   3.9576   4.0260   4.0370

          k = 0.0380-0.0419 0.0000 ( 17876 PWs)   bands (ev):

   -55.9151 -55.8816 -55.7850 -55.6965 -55.6715 -55.6567 -55.6503 -55.6014
   -55.5624 -55.5362 -55.5093 -55.4820 -55.4578 -55.3703 -54.7593 -54.7352
   -32.3185 -32.2091 -32.2062 -32.1706 -32.1288 -32.0937 -32.0844 -32.0623
   -32.0575 -32.0506 -31.9991 -31.9959 -31.9806 -31.9599 -31.9584 -31.9298
   -31.9184 -31.9162 -31.8895 -31.8626 -31.8591 -31.8572 -31.8541 -31.8479
   -31.8423 -31.8113 -31.7924 -31.7875 -31.7766 -31.7607 -31.7549 -31.7521
   -31.7476 -31.7169 -31.7098 -31.6843 -31.6814 -31.6774 -31.6535 -31.6382
   -31.6048 -31.5748 -31.1124 -31.0897 -31.0698 -30.9711 -30.9106 -30.8433
   -20.3698 -16.5522 -16.2202 -16.0530 -15.9170 -15.8585 -15.7455 -15.6534
   -15.6114 -15.5335 -15.5067 -15.4593 -15.4353 -15.4123 -15.3646 -15.2760
   -15.2606 -15.2373 -15.2290 -15.1748 -15.1633 -15.1264 -15.0912 -15.0712
   -15.0326 -14.9828 -14.9532 -14.9395 -14.9302 -14.9113 -14.6748 -13.2684
   -13.1918  -9.4656  -5.8121  -5.7910  -4.1476  -3.9055  -3.4451  -3.3480
    -3.2852  -3.2228  -3.2064  -3.1295  -2.9816  -2.9602  -2.9136  -2.8838
    -2.8336  -2.7803  -2.7502  -2.6882  -2.6513  -2.6326  -2.6219  -2.5417
    -2.5346  -2.5097  -2.4850  -2.4407  -2.4247  -2.4157  -2.3865  -2.3135
    -2.2465  -2.2254  -2.2037  -2.1532  -2.1185  -1.9979  -1.9688  -1.9053
    -1.8752  -1.8109  -1.7272  -1.6800  -1.5121  -1.4295  -1.4071  -1.3675
    -1.3050  -1.2529  -1.2195  -1.1401  -1.0861  -1.0438  -1.0141  -0.9525
    -0.9179  -0.8852  -0.8634  -0.8297  -0.7809  -0.7508  -0.7391  -0.7234
    -0.6446  -0.5693  -0.5595  -0.5379  -0.5118  -0.4620  -0.4309  -0.4103
    -0.3876  -0.3278  -0.2796  -0.2199  -0.1684  -0.1416  -0.0806  -0.0460
    -0.0105   0.0286   0.0661   0.1402   0.1960   0.2582   0.3263   0.4266
     0.4694   0.5012   0.5372   0.5879   0.6005   0.6724   0.6854   0.8395
     0.8789   1.1591   1.4650   1.5639   1.6938   1.7563   3.3212   3.4920
     3.5909   3.7256   3.7828   3.8130   3.8512   3.8777   3.8869   3.9037

          k =-0.0760-0.0000 0.0000 ( 17886 PWs)   bands (ev):

   -55.9189 -55.8778 -55.7854 -55.7011 -55.6669 -55.6578 -55.6531 -55.5985
   -55.5620 -55.5349 -55.5139 -55.4775 -55.4594 -55.3687 -54.7642 -54.7303
   -32.3729 -32.2467 -32.2127 -32.1833 -32.1756 -32.1297 -32.1267 -32.0728
   -32.0560 -32.0175 -32.0087 -31.9984 -31.9941 -31.9830 -31.9692 -31.9384
   -31.9362 -31.9228 -31.8762 -31.8626 -31.8441 -31.8430 -31.8423 -31.8354
   -31.8023 -31.7970 -31.7630 -31.7620 -31.7610 -31.7589 -31.7523 -31.7404
   -31.7255 -31.7215 -31.7160 -31.6795 -31.6736 -31.6597 -31.6298 -31.6154
   -31.5753 -31.5739 -31.1660 -31.0967 -31.0645 -30.9836 -30.8977 -30.7863
   -20.3724 -16.5516 -16.1826 -16.1198 -15.9969 -15.8298 -15.7761 -15.7260
   -15.6437 -15.6136 -15.6096 -15.5388 -15.4884 -15.4447 -15.4303 -15.4220
   -15.2632 -15.2493 -15.2381 -15.1472 -15.0726 -15.0703 -15.0266 -14.9949
   -14.9734 -14.9298 -14.9215 -14.9028 -14.8370 -14.8178 -14.6160 -13.2593
   -13.1507  -9.4634  -5.8177  -5.7908  -4.1382  -3.9900  -3.5602  -3.4242
    -3.2410  -3.1854  -3.1546  -3.1194  -3.1166  -3.0862  -3.0704  -3.0388
    -2.9725  -2.9546  -2.8816  -2.7339  -2.6822  -2.5462  -2.4032  -2.3742
    -2.3293  -2.3248  -2.3090  -2.2840  -2.2726  -2.2293  -2.1938  -2.1601
    -2.1359  -2.0973  -2.0838  -2.0618  -2.0530  -2.0232  -2.0072  -1.9108
    -1.8447  -1.8442  -1.6784  -1.5497  -1.5189  -1.4992  -1.4126  -1.3473
    -1.3264  -1.3217  -1.2993  -1.2805  -1.2334  -1.1899  -1.1590  -1.1495
    -1.1074  -1.0665  -1.0646  -1.0306  -0.9495  -0.8714  -0.8099  -0.7695
    -0.6634  -0.6088  -0.5385  -0.4692  -0.3666  -0.3453  -0.3331  -0.2944
    -0.2637  -0.2505  -0.1924  -0.1778  -0.1053  -0.0787  -0.0383   0.0086
     0.0219   0.0709   0.1377   0.1656   0.1878   0.2661   0.2773   0.3076
     0.3624   0.4409   0.5176   0.5573   0.6290   0.7808   0.9034   0.9121
     0.9317   1.2561   1.2901   1.4207   1.5825   1.7207   3.2790   3.3686
     3.4262   3.5877   3.6385   3.6710   3.7020   3.7388   3.7776   3.8304

          k =-0.0760 0.0419 0.0000 ( 17914 PWs)   bands (ev):

   -55.9151 -55.8817 -55.7850 -55.6965 -55.6715 -55.6567 -55.6503 -55.6014
   -55.5624 -55.5361 -55.5094 -55.4820 -55.4579 -55.3703 -54.7593 -54.7353
   -32.3194 -32.2092 -32.2066 -32.1706 -32.1308 -32.0965 -32.0848 -32.0606
   -32.0532 -32.0509 -31.9985 -31.9959 -31.9812 -31.9665 -31.9585 -31.9241
   -31.9183 -31.9181 -31.8898 -31.8627 -31.8558 -31.8544 -31.8480 -31.8438
   -31.8418 -31.8057 -31.7931 -31.7841 -31.7767 -31.7576 -31.7553 -31.7545
   -31.7466 -31.7258 -31.7166 -31.6867 -31.6821 -31.6792 -31.6572 -31.6382
   -31.6048 -31.5762 -31.1123 -31.0921 -31.0692 -30.9711 -30.9106 -30.8434
   -20.3697 -16.5463 -16.0782 -16.0242 -15.9087 -15.7407 -15.6827 -15.6471
   -15.6196 -15.5743 -15.5427 -15.4899 -15.4756 -15.4586 -15.4082 -15.3765
   -15.2879 -15.2659 -15.2564 -15.1860 -15.1697 -15.1028 -15.0929 -15.0561
   -15.0443 -15.0175 -14.9538 -14.9411 -14.9240 -14.8999 -14.6739 -13.2664
   -13.1921  -9.4652  -5.8122  -5.7880  -4.1341  -3.9333  -3.4059  -3.2907
    -3.0315  -2.9873  -2.9636  -2.9258  -2.9081  -2.8807  -2.8617  -2.8356
    -2.8039  -2.7790  -2.7288  -2.6881  -2.6447  -2.5888  -2.5860  -2.5351
    -2.5028  -2.4668  -2.4577  -2.4133  -2.3801  -2.3354  -2.3090  -2.2851
    -2.2716  -2.2420  -2.2120  -2.1634  -2.1318  -1.9259  -1.8531  -1.8182
    -1.8026  -1.7250  -1.6994  -1.6329  -1.6170  -1.5567  -1.3906  -1.3412
    -1.3176  -1.3080  -1.2907  -1.2321  -1.1901  -1.1263  -1.0865  -1.0606
    -1.0368  -1.0132  -0.9842  -0.9427  -0.9134  -0.8945  -0.8772  -0.8074
    -0.7789  -0.7444  -0.6855  -0.6656  -0.6421  -0.5566  -0.5235  -0.5197
    -0.4394  -0.3780  -0.3484  -0.2699  -0.2443  -0.2181  -0.1333  -0.0506
    -0.0179   0.0726   0.0904   0.1238   0.2036   0.2746   0.3449   0.3972
     0.4667   0.5240   0.5731   0.6361   0.7080   0.7496   0.7800   0.7873
     0.8978   0.9646   1.4798   1.5662   1.6191   1.7430   3.2891   3.4781
     3.5908   3.6627   3.6747   3.7353   3.8194   3.8387   3.9279   3.9765

          k =-0.0760-0.0839 0.0000 ( 17948 PWs)   bands (ev):

   -55.9102 -55.8867 -55.7846 -55.6884 -55.6797 -55.6555 -55.6470 -55.6047
   -55.5629 -55.5374 -55.5024 -55.4891 -55.4563 -55.3719 -54.7479 -54.7467
   -32.2071 -32.1963 -32.1766 -32.1704 -32.1561 -32.0578 -32.0440 -32.0368
   -32.0200 -32.0108 -32.0032 -32.0023 -31.9931 -31.9535 -31.9430 -31.9188
   -31.8995 -31.8980 -31.8903 -31.8786 -31.8752 -31.8720 -31.8671 -31.8576
   -31.8511 -31.8346 -31.8174 -31.8079 -31.7974 -31.7943 -31.7639 -31.7598
   -31.7436 -31.7215 -31.7188 -31.7166 -31.7150 -31.7114 -31.6735 -31.6549
   -31.6183 -31.5774 -31.0811 -31.0800 -30.9811 -30.9794 -30.9412 -30.9398
   -20.3671 -16.5418 -15.9322 -15.8776 -15.7223 -15.6977 -15.6532 -15.6029
   -15.5390 -15.4988 -15.4880 -15.4602 -15.4404 -15.4122 -15.3946 -15.3597
   -15.3342 -15.2881 -15.2808 -15.2337 -15.2233 -15.2047 -15.1814 -15.1462
   -15.0905 -15.0776 -15.0694 -15.0266 -15.0048 -14.9180 -14.7557 -13.2548
   -13.2528  -9.4669  -5.8040  -5.7896  -4.1304  -3.8831  -3.1665  -3.0952
    -2.9465  -2.8708  -2.8034  -2.7833  -2.7682  -2.7375  -2.6682  -2.6481
    -2.5954  -2.5922  -2.5819  -2.5707  -2.5606  -2.5158  -2.4880  -2.4717
    -2.4646  -2.4482  -2.4159  -2.4026  -2.3877  -2.3754  -2.3681  -2.3595
    -2.3086  -2.2538  -2.1702  -2.1218  -2.1096  -1.9739  -1.9581  -1.8958
    -1.8825  -1.8746  -1.8438  -1.8403  -1.7682  -1.7146  -1.5662  -1.5481
    -1.5120  -1.4480  -1.4084  -1.3248  -1.3126  -1.2740  -1.2281  -1.2162
    -1.1905  -1.1689  -1.0768  -0.9935  -0.9525  -0.9127  -0.7995  -0.7811
    -0.7677  -0.7039  -0.6831  -0.6740  -0.6650  -0.6013  -0.5396  -0.4888
    -0.4719  -0.4356  -0.4201  -0.3675  -0.3104  -0.2352  -0.1622  -0.0915
    -0.0653   0.0466   0.1192   0.1594   0.2708   0.3305   0.3600   0.3906
     0.4590   0.5152   0.5292   0.6168   0.6849   0.7040   0.7654   0.7990
     0.8377   0.8734   1.6293   1.6423   1.6741   1.6848   3.2594   3.7860
     3.7959   3.8087   3.8282   3.8490   3.8736   3.9594   4.0091   4.0135

     the Fermi energy is     3.2364 ev

!    total energy              =   -2963.78457285 Ry
     estimated scf accuracy    <       0.00000004 Ry
     smearing contrib. (-TS)   =      -0.01880425 Ry
     internal energy E=F+TS    =   -2963.76576859 Ry

     The total energy is F=E-TS. E is the sum of the following terms:
     one-electron contribution =  -24354.35892907 Ry
     hartree contribution      =   12267.34207052 Ry
     xc contribution           =    -489.28324333 Ry
     ewald contribution        =    9612.53282124 Ry
     electric field correction =       0.00151205 Ry

     convergence has been achieved in  69 iterations

     Forces acting on atoms (cartesian axes, Ry/au):

     atom    1 type  1   force =    -0.00006850    0.00012841    0.10167719
     atom    2 type  1   force =    -0.00006749    0.00015861    0.10134630
     atom    3 type  2   force =    -0.00028862   -0.00136452    0.10430259
     atom    4 type  2   force =    -0.00023415    0.00134362    0.11678163
     atom    5 type  2   force =    -0.00034279    0.00599538   -0.16907594
     atom    6 type  2   force =    -0.00007646   -0.00499355   -0.16914815
     atom    7 type  1   force =    -0.07473277    0.00067997   -0.03017567
     atom    8 type  1   force =    -0.07427100   -0.00132964   -0.03017802
     atom    9 type  1   force =     0.07440684    0.00121567   -0.03022509
     atom   10 type  1   force =     0.07408499   -0.00091395   -0.03024364
     atom   11 type  1   force =     0.00083342    0.00106580    0.04732338
     atom   12 type  1   force =     0.00077906    0.00082797    0.04932585
     atom   13 type  1   force =     0.00026710   -0.00562548   -0.03765439
     atom   14 type  1   force =     0.00053960    0.00416474   -0.03204671
     atom   15 type  2   force =    -0.00045248    0.00077172   -0.00028626
     atom   16 type  2   force =    -0.00039546   -0.00081448   -0.00029995
     atom   17 type  2   force =     0.00029002   -0.00005125    0.00042757
     atom   18 type  2   force =     0.00026458    0.00012040    0.00094267
     atom   19 type  1   force =    -0.00991061   -0.00202385    0.00044739
     atom   20 type  1   force =    -0.00989850    0.00493215    0.00135977
     atom   21 type  1   force =     0.01192227   -0.00463460    0.00145308
     atom   22 type  1   force =     0.01110244    0.00175170    0.00193300
     atom   23 type  1   force =    -0.00024968    0.00004449    0.00034837
     atom   24 type  1   force =    -0.00027102    0.00005044   -0.00023910
     atom   25 type  1   force =    -0.00036644   -0.00041723   -0.00026348
     atom   26 type  1   force =    -0.00021461   -0.00008914    0.00004573
     atom   27 type  2   force =    -0.00031815   -0.00024203   -0.00030796
     atom   28 type  2   force =     0.00016321   -0.00023536    0.00029372
     atom   29 type  2   force =     0.00033541   -0.00043772   -0.00094467
     atom   30 type  2   force =    -0.00016443    0.00026021   -0.00027013
     atom   31 type  1   force =     0.00006484    0.00055751    0.00032291
     atom   32 type  1   force =     0.00042399    0.00022271    0.00001934
     atom   33 type  1   force =    -0.00036245    0.00030128    0.00068781
     atom   34 type  1   force =    -0.00091376    0.00058161    0.00021623
     atom   35 type  1   force =    -0.00046158   -0.00045626   -0.00053916
     atom   36 type  1   force =    -0.00018383   -0.00015462    0.00022222
     atom   37 type  1   force =    -0.00012323   -0.00039259    0.00070986
     atom   38 type  1   force =     0.00041321    0.00030598    0.00062848
     atom   39 type  2   force =    -0.00008373    0.00028343    0.00013797
     atom   40 type  2   force =    -0.00013324   -0.00035748   -0.00023715
     atom   41 type  2   force =    -0.00010879    0.00117506   -0.00137311
     atom   42 type  2   force =    -0.00023754   -0.00110884   -0.00160095
     atom   43 type  1   force =     0.00052962   -0.00027150    0.00007150
     atom   44 type  1   force =    -0.00016216    0.00011488   -0.00000798
     atom   45 type  1   force =     0.00063796    0.00007445    0.00010283
     atom   46 type  1   force =    -0.00051112   -0.00017929    0.00003454
     atom   47 type  1   force =     0.00026660   -0.00056670    0.00068576
     atom   48 type  1   force =     0.00397606    0.00034554   -0.01711569
     atom   49 type  3   force =    -0.00604724    0.00010628    0.02617702
     atom   50 type  4   force =    -0.00011535   -0.00344338   -0.00348648
     atom   51 type  4   force =     0.00038573    0.00289214   -0.00303389
     atom   52 type  1   force =    -0.00081780    0.00029078    0.00159984
     atom   53 type  4   force =     0.00089805   -0.00065948   -0.00087098

     Total force =     0.370080     Total SCF correction =     0.000526
  @ DRIVER MODE: Message from server: STATUS
  @ DRIVER MODE: Message from server: GETFORCE
  @ DRIVER MODE: Returning v,forces,stress,ensemble 

     Writing output data file ./calc.save/
  @ DRIVER MODE: Message from server: EXIT
  @ DRIVE MODE: Exiting  
 
     init_run     :     13.11s CPU     13.45s WALL (       1 calls)
     electrons    :   1347.31s CPU   1375.39s WALL (       1 calls)
     forces       :      2.64s CPU      2.75s WALL (       1 calls)

     Called by init_run:
     wfcinit      :      5.73s CPU      5.89s WALL (       1 calls)
     potinit      :      6.74s CPU      6.82s WALL (       1 calls)
     hinit0       :      0.29s CPU      0.30s WALL (       1 calls)

     Called by electrons:
     c_bands      :   1151.79s CPU   1167.83s WALL (      69 calls)
     sum_band     :    136.41s CPU    142.10s WALL (      69 calls)
     v_of_rho     :     46.76s CPU     48.55s WALL (      70 calls)
     newd         :     16.41s CPU     20.88s WALL (      70 calls)
     mix_rho      :      1.74s CPU      1.81s WALL (      69 calls)
     vdW_kernel   :      5.84s CPU      5.86s WALL (       1 calls)

     Called by c_bands:
     init_us_2    :      6.61s CPU      6.68s WALL (    1400 calls)
     cegterg      :   1129.20s CPU   1144.88s WALL (     702 calls)

     Called by *egterg:
     cdiaghg      :    185.14s CPU    185.87s WALL (    6889 calls)
     h_psi        :    616.20s CPU    626.58s WALL (    6899 calls)
     s_psi        :     79.27s CPU     79.61s WALL (    6899 calls)
     g_psi        :      2.09s CPU      2.11s WALL (    6187 calls)

     Called by h_psi:
     h_psi:calbec :     75.71s CPU     76.84s WALL (    6899 calls)
     vloc_psi     :    458.67s CPU    463.52s WALL (    6899 calls)
     add_vuspsi   :     79.55s CPU     81.72s WALL (    6899 calls)

     General routines
     calbec       :    100.17s CPU    101.37s WALL (    7629 calls)
     fft          :     23.26s CPU     23.39s WALL (    4410 calls)
     ffts         :      0.19s CPU      0.19s WALL (     139 calls)
     fftw         :    513.62s CPU    518.99s WALL (  936048 calls)
     interpolate  :      0.50s CPU      0.50s WALL (      70 calls)
     davcio       :      0.00s CPU      0.22s WALL (      10 calls)
 
     Parallel routines
 
     PWSCF        :  22m43.58s CPU  23m13.43s WALL

 
   This run was terminated on:   2:48:15  23Sep2021            

=------------------------------------------------------------------------------=
   JOB DONE.
=------------------------------------------------------------------------------=
