
     Program PWSCF v.6.7GPU starts on 28Sep2021 at 14: 1:51 

     This program is part of the open-source Quantum ESPRESSO suite
     for quantum simulation of materials; please cite
         "P. Giannozzi et al., J. Phys.:Condens. Matter 21 395502 (2009);
         "P. Giannozzi et al., J. Phys.:Condens. Matter 29 465901 (2017);
         "P. Giannozzi et al., J. Chem. Phys. 152 154105 (2020);
          URL http://www.quantum-espresso.org", 
     in publications or presentations arising from this work. More details at
     http://www.quantum-espresso.org/quote

     Parallel version (MPI), running on     8 processors

     MPI processes distributed on     1 nodes
     R & G space division:  proc/nbgrp/npool/nimage =       8
     Reading input from /storage/home/hcoda1/3/ntian30/research/carbon/CxH_vib/H2O_calc/ads_slab/CHHO_a/out_0001/pw.inp
Warning: card &CELL ignored
Warning: card   CELL_DYNAMICS='IPI', ignored
Warning: card / ignored

     Current dimensions of program PWSCF are:
     Max number of different atomic species (ntypx) = 10
     Max number of k-points (npk) =  40000
     Max angular momentum in pseudopotentials (lmaxx) =  3
     Presently no symmetry can be used with electric field

     Message from routine cell_base_init:
     DEPRECATED: use true lattice parameter, not A to a.u. conversion factor

     **************************************************************************
     Initializing libbeef V0.1.2 with the BEEF-vdW functional.
     Citation: Wellendorff et al., PRB 85, 235149 (2012).
     **************************************************************************


     IMPORTANT: XC functional enforced from input :
     Exchange-correlation= BEEF-VDW
                           (   1   4  43  14   2   0   0)
     Any further DFT definition will be discarded
     Please, verify this is what you really want


     Subspace diagonalization in iterative solution of the eigenvalue problem:
     one sub-group per band group will be used
     scalapack distributed-memory algorithm (size of sub-group:  2*  2 procs)

  @ DRIVER MODE: Connecting to 
 qe_1139763_3011330.sched-torque.pace.gatech.eduzm5eyelf_scratch
  using UNIX socket
  @ DRIVER MODE: Message from server: STATUS
  @ DRIVER MODE: Message from server: INIT
  @ DRIVER MODE: Receiving replica           0          -1
  @ DRIVER MODE: Receiving encoded integer          25
  @ DRIVER MODE:  SCF:  T  FORCE:  T  STRESS:  F  VC:  F  ENSEMBLE:  F
  @ DRIVER MODE:  SCF:  T  FORCE:  T  STRESS:  F  VC:  F  ENSEMBLE:  F
 
     Parallelization info
     --------------------
     sticks:   dense  smooth     PW     G-vecs:    dense   smooth      PW
     Min         409     164     47                70857    17926    2743
     Max         411     165     48                70858    17931    2751
     Sum        3275    1317    379               566857   143421   21985
 
     Using Slab Decomposition
 


     bravais-lattice index     =            0
     lattice parameter (alat)  =       1.8897  a.u.
     unit-cell volume          =    6658.9804 (a.u.)^3
     number of atoms/cell      =           51
     number of atomic types    =            4
     number of electrons       =       390.00
     number of Kohn-Sham states=          205
     kinetic-energy cutoff     =      29.3995  Ry
     charge density cutoff     =     293.9946  Ry
     scf convergence threshold =      7.3E-08
     mixing beta               =       0.0500
     number of iterations used =            8  plain     mixing
     Exchange-correlation= BEEF-VDW
                           (   1   4  43  14   2   0   0)

     celldm(1)=   1.889726  celldm(2)=   0.000000  celldm(3)=   0.000000
     celldm(4)=   0.000000  celldm(5)=   0.000000  celldm(6)=   0.000000

     crystal axes: (cart. coord. in units of alat)
               a(1) = (   6.579727   0.000000   0.000000 )  
               a(2) = (  -0.000775   5.961596   0.000000 )  
               a(3) = (   0.000000   0.000000  25.155947 )  

     reciprocal axes: (cart. coord. in units 2 pi/alat)
               b(1) = (  0.151982  0.000020  0.000000 )  
               b(2) = (  0.000000  0.167740  0.000000 )  
               b(3) = (  0.000000  0.000000  0.039752 )  


     PseudoPot. # 1 for Ti read from file:
     /storage/coda1/p-amedford6/0/shared/rich_project_chbe-medford/medford-share/data/pseudos_module/espresso/nninc/pbe/van/Ti.UPF
     MD5 check sum: 8e4df49b7f0d34bbd5052bf3f5ea0213
     Pseudo is Ultrasoft, Zval = 12.0
     Generated by new atomic code, or converted to UPF format
     Using radial grid of  851 points,  6 beta functions with: 
                l(1) =   0
                l(2) =   0
                l(3) =   1
                l(4) =   1
                l(5) =   2
                l(6) =   2
     Q(r) pseudized with  8 coefficients,  rinner =    1.000   1.000   1.000
                                                       1.000   1.000

     PseudoPot. # 2 for O  read from file:
     /storage/coda1/p-amedford6/0/shared/rich_project_chbe-medford/medford-share/data/pseudos_module/espresso/nninc/pbe/van/O.UPF
     MD5 check sum: 78c19812648e8988a0fe644b0f25305e
     Pseudo is Ultrasoft, Zval =  6.0
     Generated by new atomic code, or converted to UPF format
     Using radial grid of  737 points,  4 beta functions with: 
                l(1) =   0
                l(2) =   0
                l(3) =   1
                l(4) =   1
     Q(r) pseudized with  8 coefficients,  rinner =    0.800   0.800   0.800


     PseudoPot. # 3 for C  read from file:
     /storage/coda1/p-amedford6/0/shared/rich_project_chbe-medford/medford-share/data/pseudos_module/espresso/nninc/pbe/van/C.UPF
     MD5 check sum: 1a69bf6b8db32088f5b2163dbdb77a27
     Pseudo is Ultrasoft, Zval =  4.0
     Generated by new atomic code, or converted to UPF format
     Using radial grid of  721 points,  4 beta functions with: 
                l(1) =   0
                l(2) =   0
                l(3) =   1
                l(4) =   1
     Q(r) pseudized with  8 coefficients,  rinner =    0.800   0.800   0.800


     PseudoPot. # 4 for H  read from file:
     /storage/coda1/p-amedford6/0/shared/rich_project_chbe-medford/medford-share/data/pseudos_module/espresso/nninc/pbe/van/H.UPF
     MD5 check sum: b5ee9d7bfd3a09ee7748110bda690ff7
     Pseudo is Ultrasoft, Zval =  1.0
     Generated by new atomic code, or converted to UPF format
     Using radial grid of  615 points,  1 beta functions with: 
                l(1) =   0
     Q(r) pseudized with  8 coefficients,  rinner =    0.800

     atomic species   valence    mass     pseudopotential
        Ti1           12.00    47.86700     Ti( 1.00)
        O1             6.00    15.99900     O ( 1.00)
        C1             4.00    12.01100     C ( 1.00)
        H1             1.00     1.00800     H ( 1.00)

     No symmetry found



   Cartesian axes

     site n.     atom                  positions (alat units)
         1           Ti1 tau(   1) = (   0.0004258   2.9801865   6.0000000  )
         2           Ti1 tau(   2) = (   3.2906075   1.4906267   6.0002472  )
         3           O1  tau(   3) = (   0.0006271   0.0005054   7.9858123  )
         4           O1  tau(   4) = (   3.2906025   0.0005020   7.3038282  )
         5           O1  tau(   5) = (   4.5942328   1.4918067   9.2879030  )
         6           O1  tau(   6) = (   1.9868534   1.4903216   9.2879459  )
         7           Ti1 tau(   7) = (   3.2576716   2.8711746   9.2039182  )
         8           Ti1 tau(   8) = (   6.5366639   1.4374725   9.3495247  )
         9           O1  tau(   9) = (   3.2654967   5.9220709  11.3209648  )
        10           O1  tau(  10) = (   0.0059489   5.9503157  10.5690854  )
        11           O1  tau(  11) = (   1.2710110   1.4830968  12.6026389  )
        12           O1  tau(  12) = (   5.2956248   1.4563849  12.6219738  )
        13           Ti1 tau(  13) = (   6.4707115   3.0232854  12.7046045  )
        14           Ti1 tau(  14) = (   3.3012427   1.2792539  12.6712786  )
        15           O1  tau(  15) = (   0.1208522   5.9439793  14.6184240  )
        16           O1  tau(  16) = (   3.2955454   0.0555021  13.9474554  )
        17           O1  tau(  17) = (   4.3710900   1.5417649  16.0729971  )
        18           O1  tau(  18) = (   1.7386421   2.0841158  16.4311239  )
        19           Ti1 tau(  19) = (   3.2301957   3.0269898  15.6570758  )
        20           Ti1 tau(  20) = (   6.3022331   1.4673853  15.8568112  )
        21           O1  tau(  21) = (   3.2904802   0.0005063   4.7018136  )
        22           O1  tau(  22) = (   6.3638003   5.9514110  17.1305022  )
        23           O1  tau(  23) = (   1.3043587   1.4918075   6.0039043  )
        24           O1  tau(  24) = (   5.2767064   1.4903225   6.0039473  )
        25           Ti1 tau(  25) = (   0.0000382   5.9609847   6.0000000  )
        26           Ti1 tau(  26) = (   3.2902200   4.4714249   6.0002472  )
        27           O1  tau(  27) = (   0.0002396   2.9813036   7.9858123  )
        28           O1  tau(  28) = (   3.2902150   2.9813002   7.3038282  )
        29           O1  tau(  29) = (   4.5938453   4.4726049   9.2879030  )
        30           O1  tau(  30) = (   1.9864658   4.4711199   9.2879459  )
        31           Ti1 tau(  31) = (   3.2576593   5.8570409   9.1743550  )
        32           Ti1 tau(  32) = (   6.5358986   4.4093296   9.3482377  )
        33           O1  tau(  33) = (   3.2940825   2.9875588  11.2901943  )
        34           O1  tau(  34) = (   6.5570357   2.9690702  10.5578446  )
        35           O1  tau(  35) = (   1.2556184   4.4285683  12.6007990  )
        36           O1  tau(  36) = (   5.2653856   4.4527926  12.6146307  )
        37           Ti1 tau(  37) = (   0.0986422   0.0400065  12.6561080  )
        38           Ti1 tau(  38) = (   3.2648468   4.3768915  12.4074939  )
        39           O1  tau(  39) = (   6.4357771   2.9845043  14.6319670  )
        40           O1  tau(  40) = (   3.2191030   2.9668167  13.8952198  )
        41           O1  tau(  41) = (   4.5664177   4.3244647  16.1555655  )
        42           O1  tau(  42) = (   2.0966903   4.6357478  16.0503417  )
        43           Ti1 tau(  43) = (   3.4732119   5.7943257  16.4097380  )
        44           Ti1 tau(  44) = (   0.0705528   4.5403211  16.0661977  )
        45           O1  tau(  45) = (   3.2900926   2.9813045   4.7018136  )
        46           O1  tau(  46) = (   1.3039711   4.4726057   6.0039043  )
        47           O1  tau(  47) = (   5.2763189   4.4711207   6.0039473  )
        48           C1  tau(  48) = (   0.6799253   2.7405959  17.1512775  )
        49           H1  tau(  49) = (   0.8031679   2.6269330  18.2321311  )
        50           O1  tau(  50) = (   3.3389373   5.9192928  18.2161996  )
        51           H1  tau(  51) = (   4.0498012   0.2866715  18.7870949  )

     number of k points=    10  Fermi-Dirac smearing, width (Ry)=  0.0073
                       cart. coord. in units 2pi/alat
        k(    1) = (   0.0000000   0.0000000   0.0000000), wk =   0.1250000
        k(    2) = (   0.0000000   0.0419351   0.0000000), wk =   0.2500000
        k(    3) = (   0.0000000  -0.0838702   0.0000000), wk =   0.1250000
        k(    4) = (   0.0379955   0.0000049   0.0000000), wk =   0.2500000
        k(    5) = (   0.0379955   0.0419400   0.0000000), wk =   0.2500000
        k(    6) = (   0.0379955  -0.0838652   0.0000000), wk =   0.2500000
        k(    7) = (   0.0379955  -0.0419301   0.0000000), wk =   0.2500000
        k(    8) = (  -0.0759910  -0.0000099   0.0000000), wk =   0.1250000
        k(    9) = (  -0.0759910   0.0419252   0.0000000), wk =   0.2500000
        k(   10) = (  -0.0759910  -0.0838800   0.0000000), wk =   0.1250000

     Dense  grid:   566857 G-vectors     FFT dimensions: (  72,  64, 270)

     Smooth grid:   143421 G-vectors     FFT dimensions: (  45,  40, 180)

     Estimated max dynamical RAM per process >     451.22 MB

     Estimated total dynamical RAM >       3.53 GB
     Cannot read rho : file not found

     Initial potential from superposition of free atoms

     starting charge  373.99919, renormalised to  390.00000

     negative rho (up, down):  1.956E-02 0.000E+00


     %%%%%%%%%%%%%%%%%%%%%%%%%%%%%%%%%%%%%%%%%%%%%%%%%%%%%%%%%%%%%%%%%%%%%%%%
     %                                                                      %
     % You are using vdW-DF, which was implemented by the Thonhauser group. %
     % Please cite the following two papers that made this development      %
     % possible and the two reviews that describe the various versions:     %
     %                                                                      %
     %   T. Thonhauser et al., PRL 115, 136402 (2015).                      %
     %   T. Thonhauser et al., PRB 76, 125112 (2007).                       %
     %   K. Berland et al., Rep. Prog. Phys. 78, 066501 (2015).             %
     %   D.C. Langreth et al., J. Phys.: Condens. Matter 21, 084203 (2009). %
     %                                                                      %
     %                                                                      %
     % If you are calculating the stress with vdW-DF, please also cite:     %
     %                                                                      %
     %   R. Sabatini et al., J. Phys.: Condens. Matter 24, 424209 (2012).   %
     %                                                                      %
     %%%%%%%%%%%%%%%%%%%%%%%%%%%%%%%%%%%%%%%%%%%%%%%%%%%%%%%%%%%%%%%%%%%%%%%%


 
     Adding external electric field

     Computed dipole along edir(3) : 
        Dipole               -3.9292 Ry au,         -9.9870 Debye
        Dipole field         -0.0074 Ry au, 
 
        Potential amp.        0.6874 Ry
        Total length         46.3494 bohr
 
     Starting wfcs are  294 atomic wfcs
  @ DRIVER MODE: Message from server: STATUS
  @ DRIVER MODE: Message from server: POSDATA
  @ DRIVER MODE: Reading and sharing cell 
  @ DRIVER MODE: Reading and sharing positions 
  @ DRIVER MODE: Received positions 

     total cpu time spent up to now is       14.0 secs

     Self-consistent Calculation

     iteration #  1     ecut=    29.40 Ry     beta= 0.05
     Davidson diagonalization with overlap
     c_bands:  5 eigenvalues not converged
     c_bands:  2 eigenvalues not converged
     c_bands:  4 eigenvalues not converged
     c_bands:  4 eigenvalues not converged
     c_bands:  1 eigenvalues not converged
     c_bands:  4 eigenvalues not converged
     c_bands:  1 eigenvalues not converged
     c_bands:  1 eigenvalues not converged
     c_bands:  3 eigenvalues not converged
     ethr =  1.00E-05,  avg # of iterations = 20.8

     negative rho (up, down):  1.923E-02 0.000E+00
 
     Adding external electric field

     Computed dipole along edir(3) : 
        Dipole                9.7366 Ry au,         24.7479 Debye
        Dipole field          0.0184 Ry au, 
 
        Potential amp.       -1.7033 Ry
        Total length         46.3494 bohr
 

     total cpu time spent up to now is       61.5 secs

     total energy              =   -2904.70804108 Ry
     estimated scf accuracy    <     308.52947735 Ry

     iteration #  2     ecut=    29.40 Ry     beta= 0.05
     Davidson diagonalization with overlap
     ethr =  1.00E-02,  avg # of iterations = 12.0

     negative rho (up, down):  1.073E-02 0.000E+00
 
     Adding external electric field

     Computed dipole along edir(3) : 
        Dipole               -1.5773 Ry au,         -4.0091 Debye
        Dipole field         -0.0030 Ry au, 
 
        Potential amp.        0.2759 Ry
        Total length         46.3494 bohr
 

     total cpu time spent up to now is       92.5 secs

     total energy              =   -2867.92140116 Ry
     estimated scf accuracy    <    6889.07739398 Ry

     iteration #  3     ecut=    29.40 Ry     beta= 0.05
     Davidson diagonalization with overlap
     ethr =  1.00E-02,  avg # of iterations = 14.6

     negative rho (up, down):  1.058E-02 0.000E+00
 
     Adding external electric field

     Computed dipole along edir(3) : 
        Dipole               -1.6217 Ry au,         -4.1220 Debye
        Dipole field         -0.0031 Ry au, 
 
        Potential amp.        0.2837 Ry
        Total length         46.3494 bohr
 

     total cpu time spent up to now is      123.9 secs

     total energy              =   -2931.48168147 Ry
     estimated scf accuracy    <      10.84528413 Ry

     iteration #  4     ecut=    29.40 Ry     beta= 0.05
     Davidson diagonalization with overlap
     ethr =  2.78E-03,  avg # of iterations =  2.5

     negative rho (up, down):  1.059E-02 0.000E+00
 
     Adding external electric field

     Computed dipole along edir(3) : 
        Dipole               -1.7329 Ry au,         -4.4046 Debye
        Dipole field         -0.0033 Ry au, 
 
        Potential amp.        0.3031 Ry
        Total length         46.3494 bohr
 

     total cpu time spent up to now is      137.6 secs

     total energy              =   -2930.50285091 Ry
     estimated scf accuracy    <       9.15057820 Ry

     iteration #  5     ecut=    29.40 Ry     beta= 0.05
     Davidson diagonalization with overlap
     ethr =  2.35E-03,  avg # of iterations =  1.4

     negative rho (up, down):  1.092E-02 0.000E+00
 
     Adding external electric field

     Computed dipole along edir(3) : 
        Dipole               -1.8104 Ry au,         -4.6016 Debye
        Dipole field         -0.0034 Ry au, 
 
        Potential amp.        0.3167 Ry
        Total length         46.3494 bohr
 

     total cpu time spent up to now is      150.2 secs

     total energy              =   -2928.46320359 Ry
     estimated scf accuracy    <       7.09919581 Ry

     iteration #  6     ecut=    29.40 Ry     beta= 0.05
     Davidson diagonalization with overlap
     ethr =  1.82E-03,  avg # of iterations =  9.5

     negative rho (up, down):  1.051E-02 0.000E+00
 
     Adding external electric field

     Computed dipole along edir(3) : 
        Dipole               -1.5774 Ry au,         -4.0094 Debye
        Dipole field         -0.0030 Ry au, 
 
        Potential amp.        0.2759 Ry
        Total length         46.3494 bohr
 

     total cpu time spent up to now is      172.8 secs

     total energy              =   -2929.88696107 Ry
     estimated scf accuracy    <     151.37921010 Ry

     iteration #  7     ecut=    29.40 Ry     beta= 0.05
     Davidson diagonalization with overlap
     ethr =  1.82E-03,  avg # of iterations =  1.5

     negative rho (up, down):  1.038E-02 0.000E+00
 
     Adding external electric field

     Computed dipole along edir(3) : 
        Dipole               -1.4992 Ry au,         -3.8105 Debye
        Dipole field         -0.0028 Ry au, 
 
        Potential amp.        0.2623 Ry
        Total length         46.3494 bohr
 

     total cpu time spent up to now is      185.6 secs

     total energy              =   -2930.17631186 Ry
     estimated scf accuracy    <      15.61090272 Ry

     iteration #  8     ecut=    29.40 Ry     beta= 0.05
     Davidson diagonalization with overlap
     ethr =  1.82E-03,  avg # of iterations =  1.0

     negative rho (up, down):  1.020E-02 0.000E+00
 
     Adding external electric field

     Computed dipole along edir(3) : 
        Dipole               -1.1687 Ry au,         -2.9707 Debye
        Dipole field         -0.0022 Ry au, 
 
        Potential amp.        0.2045 Ry
        Total length         46.3494 bohr
 

     total cpu time spent up to now is      197.9 secs

     total energy              =   -2929.89903402 Ry
     estimated scf accuracy    <      10.94998263 Ry

     iteration #  9     ecut=    29.40 Ry     beta= 0.05
     Davidson diagonalization with overlap
     ethr =  1.82E-03,  avg # of iterations =  1.0

     negative rho (up, down):  1.009E-02 0.000E+00
 
     Adding external electric field

     Computed dipole along edir(3) : 
        Dipole               -1.0500 Ry au,         -2.6689 Debye
        Dipole field         -0.0020 Ry au, 
 
        Potential amp.        0.1837 Ry
        Total length         46.3494 bohr
 

     total cpu time spent up to now is      210.3 secs

     total energy              =   -2929.95723443 Ry
     estimated scf accuracy    <       1.60162505 Ry

     iteration # 10     ecut=    29.40 Ry     beta= 0.05
     Davidson diagonalization with overlap
     ethr =  4.11E-04,  avg # of iterations =  5.9

     negative rho (up, down):  1.004E-02 0.000E+00
 
     Adding external electric field

     Computed dipole along edir(3) : 
        Dipole               -0.9132 Ry au,         -2.3210 Debye
        Dipole field         -0.0017 Ry au, 
 
        Potential amp.        0.1597 Ry
        Total length         46.3494 bohr
 

     total cpu time spent up to now is      225.0 secs

     total energy              =   -2929.98011590 Ry
     estimated scf accuracy    <       0.66484749 Ry

     iteration # 11     ecut=    29.40 Ry     beta= 0.05
     Davidson diagonalization with overlap
     c_bands:  1 eigenvalues not converged
     ethr =  1.70E-04,  avg # of iterations = 14.0

     negative rho (up, down):  1.036E-02 0.000E+00
 
     Adding external electric field

     Computed dipole along edir(3) : 
        Dipole               -0.2222 Ry au,         -0.5648 Debye
        Dipole field         -0.0004 Ry au, 
 
        Potential amp.        0.0389 Ry
        Total length         46.3494 bohr
 

     total cpu time spent up to now is      243.4 secs

     total energy              =   -2929.93653116 Ry
     estimated scf accuracy    <       0.58919599 Ry

     iteration # 12     ecut=    29.40 Ry     beta= 0.05
     Davidson diagonalization with overlap
     c_bands:  1 eigenvalues not converged
     c_bands:  3 eigenvalues not converged
     c_bands:  1 eigenvalues not converged
     c_bands:  2 eigenvalues not converged
     c_bands:  2 eigenvalues not converged
     ethr =  1.51E-04,  avg # of iterations = 17.8

     negative rho (up, down):  1.064E-02 0.000E+00
 
     Adding external electric field

     Computed dipole along edir(3) : 
        Dipole                0.3198 Ry au,          0.8129 Debye
        Dipole field          0.0006 Ry au, 
 
        Potential amp.       -0.0559 Ry
        Total length         46.3494 bohr
 

     total cpu time spent up to now is      265.3 secs

     total energy              =   -2929.97720464 Ry
     estimated scf accuracy    <       0.51212865 Ry

     iteration # 13     ecut=    29.40 Ry     beta= 0.05
     Davidson diagonalization with overlap
     c_bands:  4 eigenvalues not converged
     c_bands:  5 eigenvalues not converged
     c_bands:  2 eigenvalues not converged
     ethr =  1.31E-04,  avg # of iterations = 17.1

     negative rho (up, down):  1.111E-02 0.000E+00
 
     Adding external electric field

     Computed dipole along edir(3) : 
        Dipole                0.8914 Ry au,          2.2658 Debye
        Dipole field          0.0017 Ry au, 
 
        Potential amp.       -0.1559 Ry
        Total length         46.3494 bohr
 

     total cpu time spent up to now is      293.5 secs

     total energy              =   -2929.99459642 Ry
     estimated scf accuracy    <       0.27569516 Ry

     iteration # 14     ecut=    29.40 Ry     beta= 0.05
     Davidson diagonalization with overlap
     c_bands:  3 eigenvalues not converged
     c_bands:  5 eigenvalues not converged
     c_bands:  1 eigenvalues not converged
     c_bands:  1 eigenvalues not converged
     c_bands:  4 eigenvalues not converged
     ethr =  7.07E-05,  avg # of iterations = 19.8

     negative rho (up, down):  1.105E-02 0.000E+00
 
     Adding external electric field

     Computed dipole along edir(3) : 
        Dipole                0.7485 Ry au,          1.9026 Debye
        Dipole field          0.0014 Ry au, 
 
        Potential amp.       -0.1309 Ry
        Total length         46.3494 bohr
 

     total cpu time spent up to now is      322.3 secs

     total energy              =   -2930.01838682 Ry
     estimated scf accuracy    <       0.52413296 Ry

     iteration # 15     ecut=    29.40 Ry     beta= 0.05
     Davidson diagonalization with overlap
     ethr =  7.07E-05,  avg # of iterations =  2.0

     negative rho (up, down):  1.152E-02 0.000E+00
 
     Adding external electric field

     Computed dipole along edir(3) : 
        Dipole                0.6307 Ry au,          1.6030 Debye
        Dipole field          0.0012 Ry au, 
 
        Potential amp.       -0.1103 Ry
        Total length         46.3494 bohr
 

     total cpu time spent up to now is      341.7 secs

     total energy              =   -2929.96800950 Ry
     estimated scf accuracy    <       0.37305514 Ry

     iteration # 16     ecut=    29.40 Ry     beta= 0.05
     Davidson diagonalization with overlap
     c_bands:  1 eigenvalues not converged
     c_bands:  1 eigenvalues not converged
     ethr =  7.07E-05,  avg # of iterations = 16.5

     negative rho (up, down):  1.154E-02 0.000E+00
 
     Adding external electric field

     Computed dipole along edir(3) : 
        Dipole                0.8210 Ry au,          2.0867 Debye
        Dipole field          0.0015 Ry au, 
 
        Potential amp.       -0.1436 Ry
        Total length         46.3494 bohr
 

     total cpu time spent up to now is      369.3 secs

     total energy              =   -2930.00490006 Ry
     estimated scf accuracy    <       0.23806618 Ry

     iteration # 17     ecut=    29.40 Ry     beta= 0.05
     Davidson diagonalization with overlap
     ethr =  6.10E-05,  avg # of iterations =  2.0

     negative rho (up, down):  1.304E-02 0.000E+00
 
     Adding external electric field

     Computed dipole along edir(3) : 
        Dipole                0.8809 Ry au,          2.2390 Debye
        Dipole field          0.0017 Ry au, 
 
        Potential amp.       -0.1541 Ry
        Total length         46.3494 bohr
 

     total cpu time spent up to now is      382.8 secs

     total energy              =   -2930.00927333 Ry
     estimated scf accuracy    <       0.21543599 Ry

     iteration # 18     ecut=    29.40 Ry     beta= 0.05
     Davidson diagonalization with overlap
     ethr =  5.52E-05,  avg # of iterations = 10.5

     negative rho (up, down):  1.394E-02 0.000E+00
 
     Adding external electric field

     Computed dipole along edir(3) : 
        Dipole                0.7085 Ry au,          1.8007 Debye
        Dipole field          0.0013 Ry au, 
 
        Potential amp.       -0.1239 Ry
        Total length         46.3494 bohr
 

     total cpu time spent up to now is      401.8 secs

     total energy              =   -2930.00022881 Ry
     estimated scf accuracy    <       0.14242752 Ry

     iteration # 19     ecut=    29.40 Ry     beta= 0.05
     Davidson diagonalization with overlap
     ethr =  3.65E-05,  avg # of iterations = 12.0

     negative rho (up, down):  1.370E-02 0.000E+00
 
     Adding external electric field

     Computed dipole along edir(3) : 
        Dipole                0.7132 Ry au,          1.8127 Debye
        Dipole field          0.0013 Ry au, 
 
        Potential amp.       -0.1248 Ry
        Total length         46.3494 bohr
 

     total cpu time spent up to now is      419.7 secs

     total energy              =   -2930.00843484 Ry
     estimated scf accuracy    <       0.07523587 Ry

     iteration # 20     ecut=    29.40 Ry     beta= 0.05
     Davidson diagonalization with overlap
     c_bands:  1 eigenvalues not converged
     ethr =  1.93E-05,  avg # of iterations =  6.8

     negative rho (up, down):  1.400E-02 0.000E+00
 
     Adding external electric field

     Computed dipole along edir(3) : 
        Dipole                0.7243 Ry au,          1.8410 Debye
        Dipole field          0.0014 Ry au, 
 
        Potential amp.       -0.1267 Ry
        Total length         46.3494 bohr
 

     total cpu time spent up to now is      434.5 secs

     total energy              =   -2930.00463283 Ry
     estimated scf accuracy    <       0.07502540 Ry

     iteration # 21     ecut=    29.40 Ry     beta= 0.05
     Davidson diagonalization with overlap
     c_bands:  2 eigenvalues not converged
     ethr =  1.92E-05,  avg # of iterations =  6.5

     negative rho (up, down):  1.723E-02 0.000E+00
 
     Adding external electric field

     Computed dipole along edir(3) : 
        Dipole                0.5049 Ry au,          1.2833 Debye
        Dipole field          0.0010 Ry au, 
 
        Potential amp.       -0.0883 Ry
        Total length         46.3494 bohr
 

     total cpu time spent up to now is      449.2 secs

     total energy              =   -2930.00119799 Ry
     estimated scf accuracy    <       0.05683832 Ry

     iteration # 22     ecut=    29.40 Ry     beta= 0.05
     Davidson diagonalization with overlap
     c_bands:  2 eigenvalues not converged
     c_bands:  5 eigenvalues not converged
     c_bands:  4 eigenvalues not converged
     c_bands:  4 eigenvalues not converged
     c_bands:  1 eigenvalues not converged
     c_bands:  5 eigenvalues not converged
     c_bands:  1 eigenvalues not converged
     c_bands:  4 eigenvalues not converged
     c_bands:  2 eigenvalues not converged
     ethr =  1.46E-05,  avg # of iterations = 20.0

     negative rho (up, down):  1.745E-02 0.000E+00
 
     Adding external electric field

     Computed dipole along edir(3) : 
        Dipole                0.4833 Ry au,          1.2283 Debye
        Dipole field          0.0009 Ry au, 
 
        Potential amp.       -0.0845 Ry
        Total length         46.3494 bohr
 

     total cpu time spent up to now is      474.2 secs

     total energy              =   -2930.00615497 Ry
     estimated scf accuracy    <       0.01584279 Ry

     iteration # 23     ecut=    29.40 Ry     beta= 0.05
     Davidson diagonalization with overlap
     c_bands:  3 eigenvalues not converged
     c_bands:  3 eigenvalues not converged
     c_bands:  1 eigenvalues not converged
     c_bands:  3 eigenvalues not converged
     c_bands:  1 eigenvalues not converged
     ethr =  4.06E-06,  avg # of iterations = 16.8

     negative rho (up, down):  1.825E-02 0.000E+00
 
     Adding external electric field

     Computed dipole along edir(3) : 
        Dipole                0.4558 Ry au,          1.1586 Debye
        Dipole field          0.0009 Ry au, 
 
        Potential amp.       -0.0797 Ry
        Total length         46.3494 bohr
 

     total cpu time spent up to now is      495.3 secs

     total energy              =   -2930.00431887 Ry
     estimated scf accuracy    <       0.01369949 Ry

     iteration # 24     ecut=    29.40 Ry     beta= 0.05
     Davidson diagonalization with overlap
     c_bands:  1 eigenvalues not converged
     c_bands:  4 eigenvalues not converged
     c_bands:  1 eigenvalues not converged
     c_bands:  1 eigenvalues not converged
     c_bands:  1 eigenvalues not converged
     c_bands:  2 eigenvalues not converged
     ethr =  3.51E-06,  avg # of iterations = 19.3

     negative rho (up, down):  1.806E-02 0.000E+00
 
     Adding external electric field

     Computed dipole along edir(3) : 
        Dipole                0.5754 Ry au,          1.4625 Debye
        Dipole field          0.0011 Ry au, 
 
        Potential amp.       -0.1007 Ry
        Total length         46.3494 bohr
 

     total cpu time spent up to now is      523.7 secs

     total energy              =   -2930.00553140 Ry
     estimated scf accuracy    <       0.00739047 Ry

     iteration # 25     ecut=    29.40 Ry     beta= 0.05
     Davidson diagonalization with overlap
     c_bands:  1 eigenvalues not converged
     c_bands:  1 eigenvalues not converged
     c_bands:  2 eigenvalues not converged
     c_bands:  2 eigenvalues not converged
     c_bands:  1 eigenvalues not converged
     c_bands:  1 eigenvalues not converged
     c_bands:  1 eigenvalues not converged
     c_bands:  2 eigenvalues not converged
     ethr =  1.89E-06,  avg # of iterations = 19.0

     negative rho (up, down):  1.858E-02 0.000E+00
 
     Adding external electric field

     Computed dipole along edir(3) : 
        Dipole                0.5480 Ry au,          1.3929 Debye
        Dipole field          0.0010 Ry au, 
 
        Potential amp.       -0.0959 Ry
        Total length         46.3494 bohr
 

     total cpu time spent up to now is      550.5 secs

     total energy              =   -2930.00652650 Ry
     estimated scf accuracy    <       0.00429963 Ry

     iteration # 26     ecut=    29.40 Ry     beta= 0.05
     Davidson diagonalization with overlap
     c_bands:  2 eigenvalues not converged
     ethr =  1.10E-06,  avg # of iterations =  9.2

     negative rho (up, down):  1.863E-02 0.000E+00
 
     Adding external electric field

     Computed dipole along edir(3) : 
        Dipole                0.5192 Ry au,          1.3196 Debye
        Dipole field          0.0010 Ry au, 
 
        Potential amp.       -0.0908 Ry
        Total length         46.3494 bohr
 

     total cpu time spent up to now is      568.9 secs

     total energy              =   -2930.00677561 Ry
     estimated scf accuracy    <       0.00189408 Ry

     iteration # 27     ecut=    29.40 Ry     beta= 0.05
     Davidson diagonalization with overlap
     c_bands:  1 eigenvalues not converged
     c_bands:  1 eigenvalues not converged
     c_bands:  1 eigenvalues not converged
     c_bands:  2 eigenvalues not converged
     ethr =  4.86E-07,  avg # of iterations = 12.9

     negative rho (up, down):  1.877E-02 0.000E+00
 
     Adding external electric field

     Computed dipole along edir(3) : 
        Dipole                0.5355 Ry au,          1.3611 Debye
        Dipole field          0.0010 Ry au, 
 
        Potential amp.       -0.0937 Ry
        Total length         46.3494 bohr
 

     total cpu time spent up to now is      590.3 secs

     total energy              =   -2930.00721310 Ry
     estimated scf accuracy    <       0.00085993 Ry

     iteration # 28     ecut=    29.40 Ry     beta= 0.05
     Davidson diagonalization with overlap
     ethr =  2.20E-07,  avg # of iterations =  6.1

     negative rho (up, down):  1.975E-02 0.000E+00
 
     Adding external electric field

     Computed dipole along edir(3) : 
        Dipole                0.5147 Ry au,          1.3083 Debye
        Dipole field          0.0010 Ry au, 
 
        Potential amp.       -0.0900 Ry
        Total length         46.3494 bohr
 

     total cpu time spent up to now is      604.8 secs

     total energy              =   -2930.00744917 Ry
     estimated scf accuracy    <       0.00054606 Ry

     iteration # 29     ecut=    29.40 Ry     beta= 0.05
     Davidson diagonalization with overlap
     c_bands:  1 eigenvalues not converged
     c_bands:  1 eigenvalues not converged
     c_bands:  1 eigenvalues not converged
     ethr =  1.40E-07,  avg # of iterations =  9.5

     negative rho (up, down):  1.954E-02 0.000E+00
 
     Adding external electric field

     Computed dipole along edir(3) : 
        Dipole                0.5307 Ry au,          1.3489 Debye
        Dipole field          0.0010 Ry au, 
 
        Potential amp.       -0.0928 Ry
        Total length         46.3494 bohr
 

     total cpu time spent up to now is      623.9 secs

     total energy              =   -2930.00753728 Ry
     estimated scf accuracy    <       0.00086825 Ry

     iteration # 30     ecut=    29.40 Ry     beta= 0.05
     Davidson diagonalization with overlap
     ethr =  1.40E-07,  avg # of iterations =  4.8

     negative rho (up, down):  1.971E-02 0.000E+00
 
     Adding external electric field

     Computed dipole along edir(3) : 
        Dipole                0.5405 Ry au,          1.3739 Debye
        Dipole field          0.0010 Ry au, 
 
        Potential amp.       -0.0946 Ry
        Total length         46.3494 bohr
 

     total cpu time spent up to now is      638.1 secs

     total energy              =   -2930.00763000 Ry
     estimated scf accuracy    <       0.00024574 Ry

     iteration # 31     ecut=    29.40 Ry     beta= 0.05
     Davidson diagonalization with overlap
     c_bands:  1 eigenvalues not converged
     ethr =  6.30E-08,  avg # of iterations =  7.5

     negative rho (up, down):  1.976E-02 0.000E+00
 
     Adding external electric field

     Computed dipole along edir(3) : 
        Dipole                0.5359 Ry au,          1.3620 Debye
        Dipole field          0.0010 Ry au, 
 
        Potential amp.       -0.0937 Ry
        Total length         46.3494 bohr
 

     total cpu time spent up to now is      657.0 secs

     total energy              =   -2930.00769601 Ry
     estimated scf accuracy    <       0.00022010 Ry

     iteration # 32     ecut=    29.40 Ry     beta= 0.05
     Davidson diagonalization with overlap
     c_bands:  1 eigenvalues not converged
     ethr =  5.64E-08,  avg # of iterations =  7.9

     negative rho (up, down):  1.967E-02 0.000E+00
 
     Adding external electric field

     Computed dipole along edir(3) : 
        Dipole                0.5370 Ry au,          1.3648 Debye
        Dipole field          0.0010 Ry au, 
 
        Potential amp.       -0.0939 Ry
        Total length         46.3494 bohr
 

     total cpu time spent up to now is      678.4 secs

     total energy              =   -2930.00775824 Ry
     estimated scf accuracy    <       0.00042882 Ry

     iteration # 33     ecut=    29.40 Ry     beta= 0.05
     Davidson diagonalization with overlap
     ethr =  5.64E-08,  avg # of iterations =  5.0

     negative rho (up, down):  1.981E-02 0.000E+00
 
     Adding external electric field

     Computed dipole along edir(3) : 
        Dipole                0.5328 Ry au,          1.3543 Debye
        Dipole field          0.0010 Ry au, 
 
        Potential amp.       -0.0932 Ry
        Total length         46.3494 bohr
 

     total cpu time spent up to now is      694.8 secs

     total energy              =   -2930.00785405 Ry
     estimated scf accuracy    <       0.00006241 Ry

     iteration # 34     ecut=    29.40 Ry     beta= 0.05
     Davidson diagonalization with overlap
     ethr =  1.60E-08,  avg # of iterations =  6.0

     negative rho (up, down):  1.975E-02 0.000E+00
 
     Adding external electric field

     Computed dipole along edir(3) : 
        Dipole                0.5363 Ry au,          1.3632 Debye
        Dipole field          0.0010 Ry au, 
 
        Potential amp.       -0.0938 Ry
        Total length         46.3494 bohr
 

     total cpu time spent up to now is      714.9 secs

     total energy              =   -2930.00791983 Ry
     estimated scf accuracy    <       0.00005566 Ry

     iteration # 35     ecut=    29.40 Ry     beta= 0.05
     Davidson diagonalization with overlap
     ethr =  1.43E-08,  avg # of iterations =  2.0

     negative rho (up, down):  1.977E-02 0.000E+00
 
     Adding external electric field

     Computed dipole along edir(3) : 
        Dipole                0.5437 Ry au,          1.3821 Debye
        Dipole field          0.0010 Ry au, 
 
        Potential amp.       -0.0951 Ry
        Total length         46.3494 bohr
 

     total cpu time spent up to now is      728.1 secs

     total energy              =   -2930.00796328 Ry
     estimated scf accuracy    <       0.00003935 Ry

     iteration # 36     ecut=    29.40 Ry     beta= 0.05
     Davidson diagonalization with overlap
     ethr =  1.01E-08,  avg # of iterations =  6.2

     negative rho (up, down):  1.972E-02 0.000E+00
 
     Adding external electric field

     Computed dipole along edir(3) : 
        Dipole                0.5432 Ry au,          1.3807 Debye
        Dipole field          0.0010 Ry au, 
 
        Potential amp.       -0.0950 Ry
        Total length         46.3494 bohr
 

     total cpu time spent up to now is      745.8 secs

     total energy              =   -2930.00801115 Ry
     estimated scf accuracy    <       0.00002517 Ry

     iteration # 37     ecut=    29.40 Ry     beta= 0.05
     Davidson diagonalization with overlap
     ethr =  6.45E-09,  avg # of iterations =  3.2

     negative rho (up, down):  1.969E-02 0.000E+00
 
     Adding external electric field

     Computed dipole along edir(3) : 
        Dipole                0.5404 Ry au,          1.3736 Debye
        Dipole field          0.0010 Ry au, 
 
        Potential amp.       -0.0945 Ry
        Total length         46.3494 bohr
 

     total cpu time spent up to now is      759.5 secs

     total energy              =   -2930.00804623 Ry
     estimated scf accuracy    <       0.00002207 Ry

     iteration # 38     ecut=    29.40 Ry     beta= 0.05
     Davidson diagonalization with overlap
     ethr =  5.66E-09,  avg # of iterations =  5.0

     negative rho (up, down):  1.970E-02 0.000E+00
 
     Adding external electric field

     Computed dipole along edir(3) : 
        Dipole                0.5409 Ry au,          1.3749 Debye
        Dipole field          0.0010 Ry au, 
 
        Potential amp.       -0.0946 Ry
        Total length         46.3494 bohr
 

     total cpu time spent up to now is      774.4 secs

     total energy              =   -2930.00808189 Ry
     estimated scf accuracy    <       0.00001058 Ry

     iteration # 39     ecut=    29.40 Ry     beta= 0.05
     Davidson diagonalization with overlap
     ethr =  2.71E-09,  avg # of iterations =  5.3

     negative rho (up, down):  1.969E-02 0.000E+00
 
     Adding external electric field

     Computed dipole along edir(3) : 
        Dipole                0.5412 Ry au,          1.3756 Debye
        Dipole field          0.0010 Ry au, 
 
        Potential amp.       -0.0947 Ry
        Total length         46.3494 bohr
 

     total cpu time spent up to now is      791.8 secs

     total energy              =   -2930.00811499 Ry
     estimated scf accuracy    <       0.00000444 Ry

     iteration # 40     ecut=    29.40 Ry     beta= 0.05
     Davidson diagonalization with overlap
     ethr =  1.14E-09,  avg # of iterations =  5.1

     negative rho (up, down):  1.967E-02 0.000E+00
 
     Adding external electric field

     Computed dipole along edir(3) : 
        Dipole                0.5417 Ry au,          1.3769 Debye
        Dipole field          0.0010 Ry au, 
 
        Potential amp.       -0.0948 Ry
        Total length         46.3494 bohr
 

     total cpu time spent up to now is      806.5 secs

     total energy              =   -2930.00814288 Ry
     estimated scf accuracy    <       0.00000358 Ry

     iteration # 41     ecut=    29.40 Ry     beta= 0.05
     Davidson diagonalization with overlap
     ethr =  9.17E-10,  avg # of iterations =  4.4

     negative rho (up, down):  1.963E-02 0.000E+00
 
     Adding external electric field

     Computed dipole along edir(3) : 
        Dipole                0.5409 Ry au,          1.3748 Debye
        Dipole field          0.0010 Ry au, 
 
        Potential amp.       -0.0946 Ry
        Total length         46.3494 bohr
 

     total cpu time spent up to now is      821.4 secs

     total energy              =   -2930.00816874 Ry
     estimated scf accuracy    <       0.00000233 Ry

     iteration # 42     ecut=    29.40 Ry     beta= 0.05
     Davidson diagonalization with overlap
     ethr =  5.98E-10,  avg # of iterations =  6.0

     negative rho (up, down):  1.960E-02 0.000E+00
 
     Adding external electric field

     Computed dipole along edir(3) : 
        Dipole                0.5408 Ry au,          1.3746 Debye
        Dipole field          0.0010 Ry au, 
 
        Potential amp.       -0.0946 Ry
        Total length         46.3494 bohr
 

     total cpu time spent up to now is      839.3 secs

     total energy              =   -2930.00819194 Ry
     estimated scf accuracy    <       0.00000149 Ry

     iteration # 43     ecut=    29.40 Ry     beta= 0.05
     Davidson diagonalization with overlap
     ethr =  3.83E-10,  avg # of iterations =  5.0

     negative rho (up, down):  1.958E-02 0.000E+00
 
     Adding external electric field

     Computed dipole along edir(3) : 
        Dipole                0.5406 Ry au,          1.3740 Debye
        Dipole field          0.0010 Ry au, 
 
        Potential amp.       -0.0946 Ry
        Total length         46.3494 bohr
 

     total cpu time spent up to now is      854.7 secs

     total energy              =   -2930.00821282 Ry
     estimated scf accuracy    <       0.00000070 Ry

     iteration # 44     ecut=    29.40 Ry     beta= 0.05
     Davidson diagonalization with overlap
     ethr =  1.79E-10,  avg # of iterations =  5.2

     negative rho (up, down):  1.957E-02 0.000E+00
 
     Adding external electric field

     Computed dipole along edir(3) : 
        Dipole                0.5398 Ry au,          1.3719 Debye
        Dipole field          0.0010 Ry au, 
 
        Potential amp.       -0.0944 Ry
        Total length         46.3494 bohr
 

     total cpu time spent up to now is      870.9 secs

     total energy              =   -2930.00823158 Ry
     estimated scf accuracy    <       0.00000034 Ry

     iteration # 45     ecut=    29.40 Ry     beta= 0.05
     Davidson diagonalization with overlap
     ethr =  8.68E-11,  avg # of iterations =  7.1

     negative rho (up, down):  1.954E-02 0.000E+00
 
     Adding external electric field

     Computed dipole along edir(3) : 
        Dipole                0.5402 Ry au,          1.3732 Debye
        Dipole field          0.0010 Ry au, 
 
        Potential amp.       -0.0945 Ry
        Total length         46.3494 bohr
 

     total cpu time spent up to now is      893.2 secs

     total energy              =   -2930.00824839 Ry
     estimated scf accuracy    <       0.00000080 Ry

     iteration # 46     ecut=    29.40 Ry     beta= 0.05
     Davidson diagonalization with overlap
     ethr =  8.68E-11,  avg # of iterations =  6.3

     negative rho (up, down):  1.954E-02 0.000E+00
 
     Adding external electric field

     Computed dipole along edir(3) : 
        Dipole                0.5401 Ry au,          1.3727 Debye
        Dipole field          0.0010 Ry au, 
 
        Potential amp.       -0.0945 Ry
        Total length         46.3494 bohr
 

     total cpu time spent up to now is      915.7 secs

     total energy              =   -2930.00826375 Ry
     estimated scf accuracy    <       0.00000038 Ry

     iteration # 47     ecut=    29.40 Ry     beta= 0.05
     Davidson diagonalization with overlap
     ethr =  8.68E-11,  avg # of iterations =  4.7

     negative rho (up, down):  1.952E-02 0.000E+00
 
     Adding external electric field

     Computed dipole along edir(3) : 
        Dipole                0.5399 Ry au,          1.3722 Debye
        Dipole field          0.0010 Ry au, 
 
        Potential amp.       -0.0944 Ry
        Total length         46.3494 bohr
 

     total cpu time spent up to now is      956.4 secs

     total energy              =   -2930.00827758 Ry
     estimated scf accuracy    <       0.00000012 Ry

     iteration # 48     ecut=    29.40 Ry     beta= 0.05
     Davidson diagonalization with overlap
     ethr =  2.96E-11,  avg # of iterations =  4.7

     negative rho (up, down):  1.952E-02 0.000E+00
 
     Adding external electric field

     Computed dipole along edir(3) : 
        Dipole                0.5391 Ry au,          1.3702 Debye
        Dipole field          0.0010 Ry au, 
 
        Potential amp.       -0.0943 Ry
        Total length         46.3494 bohr
 

     total cpu time spent up to now is      972.5 secs

     End of self-consistent calculation

          k = 0.0000 0.0000 0.0000 ( 18029 PWs)   bands (ev):

   -56.4385 -56.4034 -56.1684 -55.9770 -55.8980 -55.8774 -55.8596 -55.8344
   -55.7770 -55.7330 -55.7301 -55.5623 -55.4831 -55.4331 -55.1287 -55.0947
   -32.8633 -32.7029 -32.6725 -32.6391 -32.6191 -32.5392 -32.5278 -32.4899
   -32.3953 -32.3826 -32.3822 -32.3817 -32.2686 -32.2440 -32.2258 -32.2006
   -32.1697 -32.1413 -32.1186 -32.0826 -32.0726 -32.0634 -32.0377 -32.0351
   -32.0288 -32.0042 -31.9890 -31.9879 -31.9868 -31.9710 -31.9362 -31.9328
   -31.9196 -31.8912 -31.8316 -31.8191 -31.8018 -31.7913 -31.7721 -31.7139
   -31.6111 -31.5256 -31.4957 -31.4637 -31.4396 -31.3430 -31.2579 -31.1465
   -18.0906 -17.0970 -16.7764 -16.6514 -16.5136 -16.3151 -16.2658 -16.1362
   -15.9490 -15.8563 -15.7916 -15.7422 -15.6704 -15.6690 -15.5862 -15.5321
   -15.5187 -15.4813 -15.4634 -15.4352 -15.3850 -15.3835 -15.3233 -15.2863
   -15.2427 -15.1894 -15.1333 -15.0535 -15.0032 -14.8172 -13.6281 -13.5173
    -8.0134  -4.8150  -4.5280  -4.1624  -4.0384  -4.0144  -3.8953  -3.7432
    -3.6982  -3.6355  -3.4212  -3.3958  -3.2963  -3.2422  -3.2215  -3.1401
    -3.0854  -3.0337  -3.0267  -2.9605  -2.9180  -2.8823  -2.8373  -2.7872
    -2.6994  -2.6920  -2.6677  -2.6082  -2.5762  -2.4832  -2.4766  -2.3793
    -2.3631  -2.3570  -2.3302  -2.3015  -2.2749  -2.1737  -2.1579  -2.1167
    -2.0204  -2.0013  -1.8952  -1.7784  -1.6800  -1.6767  -1.6472  -1.5509
    -1.5066  -1.4953  -1.4571  -1.4144  -1.3845  -1.3263  -1.2760  -1.2243
    -1.1805  -1.0658  -1.0140  -0.9676  -0.8817  -0.8599  -0.7950  -0.7756
    -0.6742  -0.6425  -0.5895  -0.5759  -0.5362  -0.4679  -0.3865  -0.3514
    -0.3254  -0.2756  -0.2391  -0.1819  -0.1651  -0.1540  -0.1145  -0.0780
    -0.0418   0.0362   0.0488   0.1178   0.2049   0.2942   0.3243   0.4242
     0.4569   0.5897   0.6262   0.8552   0.8923   0.9021   1.0879   1.1323
     1.4528   1.5035   2.1863   2.8413   2.9913   3.2791   3.2829   3.3528
     3.3957   3.4910   3.5404   3.6331   3.7337

          k = 0.0000 0.0419 0.0000 ( 17933 PWs)   bands (ev):

   -56.4338 -56.4079 -56.1679 -55.9773 -55.8938 -55.8735 -55.8637 -55.8381
   -55.7734 -55.7364 -55.7293 -55.5630 -55.4805 -55.4356 -55.1236 -55.0996
   -32.8100 -32.6991 -32.6756 -32.6158 -32.6059 -32.5457 -32.5410 -32.5347
   -32.4010 -32.3747 -32.3294 -32.3270 -32.2698 -32.2151 -32.2066 -32.1831
   -32.1546 -32.1315 -32.1072 -32.0899 -32.0769 -32.0706 -32.0538 -32.0484
   -32.0445 -32.0371 -32.0292 -31.9883 -31.9677 -31.9517 -31.9467 -31.9385
   -31.9362 -31.9191 -31.8616 -31.8194 -31.8177 -31.7935 -31.7724 -31.7340
   -31.6086 -31.5186 -31.4719 -31.4600 -31.4429 -31.3306 -31.2704 -31.2032
   -18.0774 -17.0930 -16.7005 -16.5269 -16.4074 -16.3415 -16.1717 -16.0516
   -16.0017 -15.8428 -15.7973 -15.7321 -15.7309 -15.6637 -15.6032 -15.5147
   -15.4935 -15.4758 -15.4680 -15.4446 -15.4185 -15.3869 -15.3771 -15.2825
   -15.2626 -15.2419 -15.1906 -15.1093 -15.0796 -14.8699 -13.6349 -13.5582
    -8.0159  -4.8155  -4.4770  -4.0470  -3.9792  -3.8411  -3.7324  -3.6121
    -3.5488  -3.5021  -3.3758  -3.3484  -3.2396  -3.1674  -3.1174  -3.0985
    -3.0575  -3.0485  -2.9903  -2.9661  -2.9446  -2.9223  -2.8657  -2.8440
    -2.7855  -2.7513  -2.7432  -2.6918  -2.6368  -2.6000  -2.5845  -2.5674
    -2.5337  -2.4671  -2.3731  -2.3438  -2.3075  -2.2125  -2.1559  -2.0341
    -1.9570  -1.9034  -1.8167  -1.7334  -1.7001  -1.6295  -1.5696  -1.5426
    -1.4758  -1.3602  -1.3160  -1.2925  -1.2280  -1.2071  -1.1739  -1.1555
    -1.1353  -1.0534  -0.9762  -0.9468  -0.8990  -0.8789  -0.8239  -0.7979
    -0.7638  -0.7421  -0.6807  -0.6297  -0.5603  -0.5416  -0.4974  -0.4536
    -0.4154  -0.3504  -0.3080  -0.2605  -0.2160  -0.1656  -0.1509  -0.1213
    -0.1145  -0.0537  -0.0305   0.0675   0.1507   0.2132   0.2778   0.3171
     0.3548   0.4282   0.5121   0.5550   0.8167   0.9647   1.0998   1.2142
     1.3967   1.4197   2.2283   3.1009   3.1101   3.2771   3.2864   3.4864
     3.5544   3.5697   3.5794   3.6171   3.6620

          k = 0.0000-0.0839 0.0000 ( 17884 PWs)   bands (ev):

   -56.4260 -56.4157 -56.1675 -55.9777 -55.8879 -55.8697 -55.8682 -55.8431
   -55.7689 -55.7408 -55.7285 -55.5638 -55.4776 -55.4384 -55.1118 -55.1113
   -32.6935 -32.6838 -32.6809 -32.6745 -32.5906 -32.5775 -32.5693 -32.5263
   -32.4114 -32.3634 -32.3013 -32.2091 -32.2079 -32.2042 -32.1913 -32.1818
   -32.1309 -32.1223 -32.1075 -32.0989 -32.0937 -32.0884 -32.0871 -32.0742
   -32.0662 -32.0629 -32.0511 -32.0191 -31.9892 -31.9597 -31.9459 -31.9439
   -31.9197 -31.9131 -31.8927 -31.8269 -31.8183 -31.8059 -31.7724 -31.7665
   -31.6002 -31.5452 -31.4514 -31.4511 -31.3408 -31.3392 -31.3004 -31.2995
   -18.0644 -17.0896 -16.5686 -16.4459 -16.2290 -16.1996 -16.1648 -16.0811
   -16.0495 -15.9489 -15.8249 -15.7774 -15.7170 -15.5885 -15.5881 -15.5578
   -15.5343 -15.4683 -15.4651 -15.4087 -15.3808 -15.3770 -15.3386 -15.3333
   -15.3245 -15.2545 -15.2332 -15.2183 -15.1815 -14.9407 -13.6212 -13.6205
    -8.0184  -4.8169  -4.4256  -4.0526  -3.5295  -3.5207  -3.5203  -3.4893
    -3.4223  -3.3651  -3.3477  -3.3238  -3.2887  -3.2573  -3.1770  -3.1249
    -3.0963  -3.0780  -3.0635  -3.0391  -3.0262  -2.9930  -2.9614  -2.8939
    -2.8633  -2.7806  -2.7391  -2.7158  -2.6970  -2.6543  -2.5880  -2.5637
    -2.5280  -2.4498  -2.3636  -2.1952  -2.1560  -2.1091  -2.0752  -2.0248
    -1.9518  -1.8004  -1.7757  -1.7377  -1.7184  -1.6943  -1.5645  -1.5376
    -1.4997  -1.4472  -1.4425  -1.4107  -1.3513  -1.3285  -1.2484  -1.1602
    -1.1256  -1.0233  -0.9970  -0.8674  -0.8244  -0.7754  -0.7462  -0.7156
    -0.6760  -0.6175  -0.5963  -0.5831  -0.5506  -0.5432  -0.5230  -0.4941
    -0.4781  -0.4353  -0.4022  -0.3568  -0.3181  -0.2991  -0.2354  -0.2269
    -0.1803  -0.1467  -0.1026  -0.0486  -0.0046   0.0249   0.0681   0.1695
     0.2186   0.4038   0.5240   0.6911   0.7249   0.8314   1.2423   1.2596
     1.3398   1.3478   2.2773   3.2530   3.3084   3.3164   3.4441   3.4496
     3.4745   3.5400   3.5458   3.6539   3.7091

          k = 0.0380 0.0000 0.0000 ( 17913 PWs)   bands (ev):

   -56.4384 -56.4033 -56.1683 -55.9769 -55.8978 -55.8773 -55.8595 -55.8342
   -55.7769 -55.7329 -55.7300 -55.5622 -55.4830 -55.4330 -55.1286 -55.0946
   -32.8640 -32.7027 -32.6724 -32.6401 -32.6170 -32.5370 -32.5275 -32.4896
   -32.3950 -32.3847 -32.3823 -32.3819 -32.2739 -32.2436 -32.2260 -32.1995
   -32.1618 -32.1410 -32.1001 -32.0823 -32.0722 -32.0619 -32.0351 -32.0311
   -32.0282 -32.0033 -31.9913 -31.9878 -31.9870 -31.9857 -31.9361 -31.9330
   -31.9240 -31.8910 -31.8315 -31.8224 -31.8018 -31.7903 -31.7734 -31.7136
   -31.6111 -31.5252 -31.4956 -31.4662 -31.4378 -31.3428 -31.2578 -31.1462
   -18.0756 -17.0963 -16.7523 -16.5620 -16.4319 -16.3560 -16.2200 -16.1217
   -15.9676 -15.9491 -15.9062 -15.7164 -15.6666 -15.6578 -15.6301 -15.6079
   -15.5704 -15.4994 -15.4898 -15.4751 -15.3999 -15.3027 -15.2481 -15.2383
   -15.1928 -15.1700 -15.1578 -15.1344 -15.0030 -14.8159 -13.6253 -13.5170
    -8.0087  -4.8147  -4.4670  -3.9532  -3.8834  -3.8449  -3.8293  -3.7210
    -3.6501  -3.5493  -3.4220  -3.3844  -3.3594  -3.3215  -3.2716  -3.2436
    -3.1988  -3.0897  -3.0201  -2.9775  -2.8821  -2.8343  -2.7718  -2.7238
    -2.6688  -2.5928  -2.5712  -2.5689  -2.5418  -2.4876  -2.4452  -2.3984
    -2.3528  -2.3249  -2.3132  -2.2688  -2.2100  -2.1466  -2.0413  -2.0240
    -2.0020  -1.9119  -1.8570  -1.8126  -1.7496  -1.6861  -1.6428  -1.6344
    -1.5648  -1.5329  -1.4798  -1.4364  -1.3803  -1.3250  -1.3127  -1.2636
    -1.2217  -1.1965  -1.1538  -1.1101  -0.9348  -0.8719  -0.8153  -0.7429
    -0.7194  -0.6585  -0.6023  -0.5609  -0.5060  -0.4649  -0.4385  -0.4123
    -0.3879  -0.3211  -0.2984  -0.2753  -0.2347  -0.1935  -0.1420  -0.0982
    -0.0684  -0.0135   0.0571   0.1097   0.1757   0.2270   0.2582   0.2960
     0.3567   0.5376   0.6114   0.8023   0.9026   0.9047   0.9812   1.1045
     1.3418   1.4129   2.1979   2.9773   3.0276   3.2862   3.3005   3.4312
     3.4513   3.5180   3.5558   3.5784   3.6381

          k = 0.0380 0.0419 0.0000 ( 17878 PWs)   bands (ev):

   -56.4338 -56.4079 -56.1679 -55.9773 -55.8937 -55.8734 -55.8636 -55.8381
   -55.7733 -55.7364 -55.7293 -55.5630 -55.4804 -55.4355 -55.1235 -55.0996
   -32.8107 -32.6989 -32.6756 -32.6167 -32.6042 -32.5457 -32.5407 -32.5330
   -32.4009 -32.3748 -32.3314 -32.3272 -32.2693 -32.2215 -32.2052 -32.1837
   -32.1483 -32.1312 -32.0919 -32.0874 -32.0768 -32.0701 -32.0543 -32.0456
   -32.0389 -32.0343 -32.0291 -31.9886 -31.9856 -31.9512 -31.9444 -31.9418
   -31.9363 -31.9223 -31.8616 -31.8196 -31.8188 -31.7947 -31.7743 -31.7341
   -31.6085 -31.5183 -31.4716 -31.4619 -31.4419 -31.3304 -31.2705 -31.2031
   -18.0643 -17.0921 -16.6818 -16.4437 -16.3783 -16.3240 -16.1324 -16.0406
   -15.9966 -15.9321 -15.8488 -15.7397 -15.6747 -15.6522 -15.6283 -15.5965
   -15.5756 -15.5392 -15.4671 -15.4586 -15.4139 -15.3299 -15.3113 -15.3031
   -15.2469 -15.2145 -15.1967 -15.1836 -15.0794 -14.8697 -13.6329 -13.5584
    -8.0134  -4.8134  -4.4164  -3.9319  -3.7312  -3.7080  -3.6719  -3.5813
    -3.4880  -3.4243  -3.3807  -3.2899  -3.2300  -3.1908  -3.1576  -3.0760
    -3.0397  -3.0103  -2.9695  -2.9381  -2.8961  -2.8579  -2.8358  -2.8041
    -2.7609  -2.7374  -2.7071  -2.6888  -2.6334  -2.6142  -2.5831  -2.5366
    -2.4762  -2.4052  -2.3654  -2.3123  -2.2636  -2.2178  -2.1136  -2.0220
    -2.0043  -1.9566  -1.7921  -1.7493  -1.6911  -1.6821  -1.6083  -1.5493
    -1.4521  -1.4262  -1.4004  -1.3680  -1.3128  -1.2739  -1.2376  -1.1975
    -1.1529  -1.0812  -1.0713  -1.0047  -0.9872  -0.9553  -0.9241  -0.8708
    -0.8416  -0.7689  -0.7413  -0.6932  -0.6518  -0.6348  -0.5597  -0.4909
    -0.4589  -0.4310  -0.4150  -0.3629  -0.3076  -0.2816  -0.2184  -0.1746
    -0.0962  -0.0226   0.0535   0.1263   0.1657   0.2138   0.3055   0.3379
     0.3778   0.3845   0.4958   0.5322   0.7909   0.9170   1.1124   1.2190
     1.3208   1.3890   2.2459   3.0874   3.2461   3.2941   3.3396   3.4743
     3.5392   3.5717   3.6170   3.6632   3.6836

          k = 0.0380-0.0839 0.0000 ( 17916 PWs)   bands (ev):

   -56.4261 -56.4157 -56.1675 -55.9777 -55.8879 -55.8697 -55.8682 -55.8431
   -55.7690 -55.7408 -55.7285 -55.5638 -55.4776 -55.4384 -55.1119 -55.1113
   -32.6936 -32.6844 -32.6809 -32.6752 -32.5913 -32.5767 -32.5685 -32.5251
   -32.4115 -32.3635 -32.3020 -32.2105 -32.2060 -32.2046 -32.1926 -32.1822
   -32.1338 -32.1173 -32.1100 -32.1034 -32.0989 -32.0953 -32.0877 -32.0630
   -32.0545 -32.0513 -32.0411 -32.0189 -31.9892 -31.9698 -31.9555 -31.9441
   -31.9228 -31.9132 -31.8928 -31.8270 -31.8192 -31.8069 -31.7745 -31.7671
   -31.6003 -31.5452 -31.4521 -31.4518 -31.3408 -31.3391 -31.3004 -31.2995
   -18.0568 -17.0873 -16.5254 -16.4540 -16.2126 -16.1343 -16.1166 -16.0966
   -15.9990 -15.9097 -15.8007 -15.7520 -15.7366 -15.7057 -15.6736 -15.5771
   -15.5349 -15.4711 -15.4564 -15.4164 -15.3872 -15.3787 -15.3575 -15.3543
   -15.3376 -15.2928 -15.2657 -15.2065 -15.1806 -14.9386 -13.6211 -13.6203
    -8.0153  -4.8133  -4.3826  -3.8943  -3.5432  -3.4631  -3.4202  -3.3137
    -3.3071  -3.2976  -3.2278  -3.1785  -3.1665  -3.1427  -3.1285  -3.0718
    -3.0433  -3.0345  -2.9781  -2.9607  -2.9357  -2.9153  -2.8876  -2.8768
    -2.8558  -2.7866  -2.7471  -2.7021  -2.6956  -2.6834  -2.6575  -2.6255
    -2.4534  -2.3968  -2.2517  -2.1993  -2.1581  -2.1022  -2.0306  -1.9917
    -1.9748  -1.9236  -1.8886  -1.8170  -1.7807  -1.7711  -1.7314  -1.7159
    -1.6543  -1.6293  -1.5342  -1.5168  -1.4641  -1.3491  -1.2890  -1.1906
    -1.1026  -1.0363  -1.0221  -0.9609  -0.9280  -0.9125  -0.8656  -0.8589
    -0.8276  -0.7685  -0.7615  -0.7446  -0.7010  -0.6719  -0.6468  -0.5906
    -0.5489  -0.5113  -0.4295  -0.3948  -0.3579  -0.2863  -0.2293  -0.1666
    -0.1051  -0.0869  -0.0271   0.0860   0.1195   0.1276   0.1516   0.2523
     0.3139   0.4056   0.4862   0.6645   0.7041   0.7857   1.2547   1.2694
     1.3271   1.3324   2.3040   3.3092   3.3137   3.3565   3.4724   3.4762
     3.5081   3.6281   3.7030   3.7112   3.7211

          k = 0.0380-0.0419 0.0000 ( 17876 PWs)   bands (ev):

   -56.4338 -56.4079 -56.1678 -55.9773 -55.8937 -55.8734 -55.8636 -55.8381
   -55.7733 -55.7364 -55.7293 -55.5630 -55.4804 -55.4355 -55.1235 -55.0996
   -32.8106 -32.6989 -32.6756 -32.6166 -32.6041 -32.5457 -32.5407 -32.5329
   -32.4008 -32.3747 -32.3316 -32.3272 -32.2703 -32.2214 -32.2047 -32.1833
   -32.1485 -32.1311 -32.0923 -32.0865 -32.0768 -32.0697 -32.0549 -32.0450
   -32.0386 -32.0355 -32.0291 -31.9885 -31.9847 -31.9511 -31.9446 -31.9418
   -31.9365 -31.9233 -31.8613 -31.8205 -31.8192 -31.7934 -31.7741 -31.7335
   -31.6087 -31.5185 -31.4716 -31.4619 -31.4419 -31.3304 -31.2705 -31.2031
   -18.0679 -17.0907 -16.6674 -16.4413 -16.3654 -16.3257 -16.1554 -16.0578
   -15.9910 -15.9327 -15.8475 -15.7369 -15.6741 -15.6513 -15.6200 -15.5981
   -15.5743 -15.5425 -15.4669 -15.4619 -15.4128 -15.3303 -15.3133 -15.2942
   -15.2482 -15.2159 -15.2007 -15.1840 -15.0791 -14.8688 -13.6329 -13.5584
    -8.0106  -4.8136  -4.4258  -3.8975  -3.7109  -3.6884  -3.6762  -3.5776
    -3.4844  -3.4493  -3.3879  -3.2833  -3.2303  -3.2140  -3.1622  -3.1024
    -3.0571  -3.0071  -2.9783  -2.9307  -2.9092  -2.8687  -2.8453  -2.8183
    -2.7719  -2.7578  -2.7129  -2.6883  -2.6520  -2.6189  -2.5790  -2.5302
    -2.4596  -2.3970  -2.3438  -2.3015  -2.2512  -2.1837  -2.0760  -2.0238
    -1.9748  -1.9366  -1.8494  -1.7396  -1.7001  -1.6620  -1.5854  -1.5637
    -1.4970  -1.4290  -1.4030  -1.3537  -1.3086  -1.2690  -1.2401  -1.2170
    -1.1452  -1.1096  -1.0660  -1.0155  -0.9901  -0.9583  -0.9248  -0.8699
    -0.8110  -0.7794  -0.7404  -0.6914  -0.6646  -0.6389  -0.5476  -0.5204
    -0.4823  -0.4254  -0.3846  -0.3465  -0.2892  -0.2630  -0.2169  -0.1716
    -0.1094  -0.0187   0.0720   0.1069   0.1717   0.2059   0.3158   0.3505
     0.3603   0.3897   0.5249   0.5381   0.7851   0.9068   1.1119   1.2205
     1.3198   1.3903   2.2419   3.0921   3.2463   3.3393   3.4101   3.4777
     3.4887   3.5361   3.5991   3.6515   3.6682

          k =-0.0760-0.0000 0.0000 ( 17886 PWs)   bands (ev):

   -56.4384 -56.4033 -56.1682 -55.9769 -55.8978 -55.8772 -55.8595 -55.8342
   -55.7769 -55.7329 -55.7300 -55.5622 -55.4830 -55.4330 -55.1285 -55.0946
   -32.8647 -32.7026 -32.6723 -32.6413 -32.6150 -32.5353 -32.5278 -32.4896
   -32.3948 -32.3870 -32.3823 -32.3822 -32.2790 -32.2433 -32.2264 -32.1986
   -32.1539 -32.1407 -32.0822 -32.0721 -32.0698 -32.0606 -32.0345 -32.0290
   -32.0248 -32.0198 -32.0027 -31.9879 -31.9876 -31.9851 -31.9361 -31.9337
   -31.9292 -31.8911 -31.8316 -31.8262 -31.8020 -31.7894 -31.7750 -31.7134
   -31.6112 -31.5250 -31.4956 -31.4686 -31.4367 -31.3428 -31.2577 -31.1463
   -18.0606 -17.0954 -16.7197 -16.4224 -16.3945 -16.3634 -16.2041 -16.0771
   -16.0321 -15.9991 -15.9234 -15.7855 -15.7345 -15.6884 -15.6833 -15.6562
   -15.5692 -15.5416 -15.4771 -15.4132 -15.4014 -15.3232 -15.2510 -15.2293
   -15.2028 -15.1772 -15.1504 -15.0764 -15.0029 -14.8156 -13.6226 -13.5167
    -8.0042  -4.8137  -4.4203  -3.9665  -3.8022  -3.7350  -3.6957  -3.5042
    -3.4998  -3.4852  -3.4389  -3.4245  -3.3415  -3.3254  -3.2768  -3.2248
    -3.1671  -3.0121  -2.9907  -2.8972  -2.8704  -2.7553  -2.7433  -2.7038
    -2.6442  -2.5978  -2.5279  -2.5120  -2.5025  -2.4531  -2.4183  -2.4135
    -2.3688  -2.3252  -2.3080  -2.2917  -2.2683  -2.2050  -2.1270  -2.0238
    -2.0020  -1.8966  -1.8219  -1.7638  -1.7052  -1.7016  -1.6667  -1.6292
    -1.6195  -1.5543  -1.5181  -1.5026  -1.4762  -1.4332  -1.3703  -1.2957
    -1.2615  -1.1549  -1.1288  -1.0993  -1.0603  -1.0169  -0.8576  -0.7552
    -0.7139  -0.6804  -0.6622  -0.6413  -0.6143  -0.5689  -0.4833  -0.4370
    -0.4079  -0.3690  -0.3522  -0.3235  -0.2721  -0.2290  -0.2019  -0.1466
    -0.0827  -0.0552   0.0001   0.0604   0.0890   0.2407   0.2846   0.3542
     0.4983   0.5584   0.6294   0.6739   0.8044   0.9245   0.9394   1.0833
     1.2135   1.3418   2.2065   2.9717   3.1289   3.1880   3.3030   3.3135
     3.3874   3.4325   3.5257   3.6033   3.6628

          k =-0.0760 0.0419 0.0000 ( 17914 PWs)   bands (ev):

   -56.4338 -56.4079 -56.1679 -55.9773 -55.8937 -55.8734 -55.8636 -55.8381
   -55.7734 -55.7364 -55.7293 -55.5630 -55.4805 -55.4355 -55.1236 -55.0996
   -32.8115 -32.6989 -32.6757 -32.6177 -32.6028 -32.5460 -32.5406 -32.5316
   -32.4009 -32.3749 -32.3338 -32.3276 -32.2700 -32.2275 -32.2037 -32.1842
   -32.1418 -32.1311 -32.0847 -32.0768 -32.0702 -32.0689 -32.0559 -32.0466
   -32.0379 -32.0289 -32.0230 -32.0106 -31.9882 -31.9508 -31.9466 -31.9434
   -31.9364 -31.9269 -31.8615 -31.8223 -31.8193 -31.7946 -31.7761 -31.7338
   -31.6087 -31.5184 -31.4715 -31.4641 -31.4413 -31.3304 -31.2705 -31.2032
   -18.0547 -17.0898 -16.6378 -16.4112 -16.3092 -16.2487 -16.1166 -16.0462
   -16.0104 -15.9878 -15.8471 -15.7868 -15.7116 -15.7004 -15.6568 -15.6094
   -15.5793 -15.5439 -15.5296 -15.4521 -15.4059 -15.3468 -15.3175 -15.2760
   -15.2510 -15.2302 -15.2100 -15.1598 -15.0788 -14.8697 -13.6310 -13.5587
    -8.0083  -4.8113  -4.3693  -3.8234  -3.6974  -3.6183  -3.5745  -3.4767
    -3.2845  -3.2707  -3.2374  -3.2025  -3.1896  -3.1490  -3.1247  -3.0688
    -3.0461  -2.9905  -2.9347  -2.9238  -2.8774  -2.8609  -2.8122  -2.7923
    -2.7631  -2.7398  -2.6767  -2.6581  -2.6297  -2.6015  -2.5659  -2.5312
    -2.5037  -2.4371  -2.3502  -2.2283  -2.1693  -2.0984  -2.0689  -2.0255
    -2.0039  -1.9400  -1.8598  -1.8084  -1.7365  -1.7030  -1.6115  -1.5827
    -1.5313  -1.4817  -1.4588  -1.4165  -1.3785  -1.3608  -1.3498  -1.3261
    -1.2684  -1.2440  -1.2052  -1.1404  -1.1073  -1.0740  -1.0104  -0.9809
    -0.8930  -0.8503  -0.8268  -0.7740  -0.7178  -0.6837  -0.5883  -0.5552
    -0.5370  -0.4767  -0.4437  -0.3940  -0.3529  -0.2664  -0.2334  -0.1640
    -0.1184  -0.0207   0.0336   0.0992   0.1735   0.3167   0.3634   0.4071
     0.4498   0.4762   0.5188   0.6277   0.7016   0.7679   1.1269   1.2240
     1.2488   1.3697   2.2592   3.0864   3.2638   3.2761   3.3752   3.4084
     3.4615   3.5567   3.6150   3.6684   3.7162

          k =-0.0760-0.0839 0.0000 ( 17948 PWs)   bands (ev):

   -56.4261 -56.4157 -56.1675 -55.9777 -55.8879 -55.8697 -55.8682 -55.8431
   -55.7690 -55.7409 -55.7285 -55.5639 -55.4777 -55.4384 -55.1119 -55.1114
   -32.6936 -32.6850 -32.6810 -32.6758 -32.5920 -32.5760 -32.5677 -32.5240
   -32.4116 -32.3635 -32.3027 -32.2119 -32.2051 -32.2039 -32.1937 -32.1825
   -32.1360 -32.1178 -32.1126 -32.1024 -32.1005 -32.0975 -32.0868 -32.0628
   -32.0511 -32.0349 -32.0213 -32.0138 -31.9891 -31.9870 -31.9693 -31.9440
   -31.9261 -31.9136 -31.8929 -31.8270 -31.8203 -31.8079 -31.7767 -31.7676
   -31.6003 -31.5451 -31.4527 -31.4524 -31.3408 -31.3392 -31.3004 -31.2996
   -18.0490 -17.0852 -16.4787 -16.4477 -16.2388 -16.1368 -15.9720 -15.9491
   -15.9451 -15.9135 -15.8565 -15.8422 -15.8250 -15.6768 -15.6524 -15.6366
   -15.5740 -15.5054 -15.4620 -15.4382 -15.4109 -15.3785 -15.3644 -15.3528
   -15.3504 -15.3359 -15.2820 -15.2010 -15.1798 -14.9370 -13.6209 -13.6201
    -8.0123  -4.8098  -4.3356  -3.7208  -3.5374  -3.4711  -3.4324  -3.2676
    -3.1871  -3.1758  -3.1063  -3.0905  -3.0464  -3.0094  -2.9709  -2.9358
    -2.9198  -2.8695  -2.8594  -2.8216  -2.7972  -2.7754  -2.7683  -2.7560
    -2.7303  -2.7238  -2.7023  -2.6920  -2.6745  -2.6525  -2.6163  -2.5734
    -2.5049  -2.4314  -2.3076  -2.2931  -2.2656  -2.1940  -2.1750  -2.1228
    -2.1060  -2.0774  -2.0692  -2.0169  -1.9748  -1.9542  -1.7073  -1.6814
    -1.6284  -1.5764  -1.5201  -1.4893  -1.4614  -1.4477  -1.3836  -1.2779
    -1.2409  -1.2047  -1.1861  -1.1661  -1.1605  -1.0812  -1.0571  -0.9921
    -0.9475  -0.9167  -0.8397  -0.8049  -0.7758  -0.7555  -0.6963  -0.6333
    -0.6165  -0.5396  -0.4910  -0.4715  -0.4117  -0.2769  -0.2427  -0.1436
    -0.0967  -0.0560   0.0519   0.1703   0.2368   0.2437   0.3525   0.3835
     0.4003   0.4975   0.5502   0.5691   0.6077   0.7455   1.2791   1.2936
     1.3031   1.3046   2.3314   3.3790   3.3924   3.4010   3.4080   3.4274
     3.5455   3.6148   3.6776   3.7486   3.7615

     the Fermi energy is     2.6218 ev

!    total energy              =   -2930.00840466 Ry
     estimated scf accuracy    <       0.00000005 Ry
     smearing contrib. (-TS)   =      -0.00355681 Ry
     internal energy E=F+TS    =   -2930.00484786 Ry

     The total energy is F=E-TS. E is the sum of the following terms:
     one-electron contribution =  -24472.97479104 Ry
     hartree contribution      =   12320.15300937 Ry
     xc contribution           =    -481.33486664 Ry
     ewald contribution        =    9704.15125203 Ry
     electric field correction =       0.00054842 Ry

     convergence has been achieved in  48 iterations

     Forces acting on atoms (cartesian axes, Ry/au):

     atom    1 type  1   force =     0.00045883   -0.00032734    0.13426546
     atom    2 type  1   force =     0.00012373    0.00528643   -0.16220505
     atom    3 type  2   force =    -0.00070405    0.00271518   -0.05124226
     atom    4 type  2   force =    -0.00084031   -0.00120402    0.04157555
     atom    5 type  2   force =    -0.01386447   -0.00296523    0.00207015
     atom    6 type  2   force =     0.01179164   -0.00439235    0.00134369
     atom    7 type  1   force =     0.00052774   -0.00030780   -0.00004628
     atom    8 type  1   force =    -0.00006916   -0.00038281    0.00041526
     atom    9 type  2   force =     0.00017850   -0.00025941   -0.00021485
     atom   10 type  2   force =    -0.00026654    0.00015844   -0.00058844
     atom   11 type  2   force =     0.00015794   -0.00097734    0.00000725
     atom   12 type  2   force =    -0.00073514    0.00010236    0.00007684
     atom   13 type  1   force =     0.00065842    0.00018054    0.00043745
     atom   14 type  1   force =    -0.00005195   -0.00010580    0.00063918
     atom   15 type  2   force =     0.00040045   -0.00028137   -0.00064321
     atom   16 type  2   force =     0.00083535    0.00012305   -0.00039309
     atom   17 type  2   force =     0.00072321   -0.00034411    0.00034504
     atom   18 type  2   force =    -0.00301848    0.00148438    0.00075346
     atom   19 type  1   force =    -0.00116645    0.00030409    0.00071271
     atom   20 type  1   force =    -0.00025019   -0.00051245    0.00019202
     atom   21 type  2   force =     0.00019992    0.00006130    0.10036026
     atom   22 type  2   force =     0.00002299   -0.00095191   -0.00032395
     atom   23 type  2   force =    -0.07804662    0.00020101   -0.03360464
     atom   24 type  2   force =     0.07809021    0.00071018   -0.03362213
     atom   25 type  1   force =     0.00017300   -0.00022086    0.13682418
     atom   26 type  1   force =     0.00017669   -0.00663540   -0.16244616
     atom   27 type  2   force =     0.00014645    0.00091986   -0.05041361
     atom   28 type  2   force =    -0.00050622   -0.00055022    0.04249886
     atom   29 type  2   force =    -0.01247257    0.00585693    0.00013799
     atom   30 type  2   force =     0.01101811   -0.00026929   -0.00039993
     atom   31 type  1   force =     0.00029795   -0.00026351   -0.00003588
     atom   32 type  1   force =    -0.00023378    0.00016171    0.00036129
     atom   33 type  2   force =    -0.00027396    0.00006473   -0.00011016
     atom   34 type  2   force =     0.00037845   -0.00021032   -0.00053864
     atom   35 type  2   force =     0.00137688    0.00040177   -0.00018747
     atom   36 type  2   force =    -0.00060953   -0.00009755   -0.00038658
     atom   37 type  1   force =    -0.00049273    0.00081509   -0.00005930
     atom   38 type  1   force =    -0.00027767    0.00035195   -0.00018671
     atom   39 type  2   force =     0.00052065   -0.00011883   -0.00058853
     atom   40 type  2   force =    -0.00003284    0.00018975   -0.00078731
     atom   41 type  2   force =     0.00106083   -0.00035474    0.00036262
     atom   42 type  2   force =    -0.00053967    0.00044607    0.00002655
     atom   43 type  1   force =     0.00056363   -0.00046894    0.00210337
     atom   44 type  1   force =     0.00002880    0.00171283    0.00055622
     atom   45 type  2   force =     0.00016438   -0.00002279    0.09987225
     atom   46 type  2   force =    -0.07806498    0.00000657   -0.03361627
     atom   47 type  2   force =     0.07811262    0.00053234   -0.03365442
     atom   48 type  3   force =     0.00722496   -0.00152161    0.00278246
     atom   49 type  4   force =    -0.00251118    0.00089820   -0.00203013
     atom   50 type  2   force =    -0.00154989   -0.00062816    0.00074216
     atom   51 type  4   force =     0.00116606    0.00068938   -0.00113726

     Total force =     0.384685     Total SCF correction =     0.000609
  @ DRIVER MODE: Message from server: STATUS
  @ DRIVER MODE: Message from server: GETFORCE
  @ DRIVER MODE: Returning v,forces,stress,ensemble 

     Writing output data file ./calc.save/
  @ DRIVER MODE: Message from server: EXIT
  @ DRIVE MODE: Exiting  
 
     init_run     :     13.00s CPU     13.36s WALL (       1 calls)
     electrons    :    936.95s CPU    958.46s WALL (       1 calls)
     forces       :      2.59s CPU      2.69s WALL (       1 calls)

     Called by init_run:
     wfcinit      :      5.66s CPU      5.81s WALL (       1 calls)
     potinit      :      6.70s CPU      6.78s WALL (       1 calls)
     hinit0       :      0.28s CPU      0.31s WALL (       1 calls)

     Called by electrons:
     c_bands      :    801.35s CPU    814.21s WALL (      48 calls)
     sum_band     :     94.13s CPU     98.17s WALL (      48 calls)
     v_of_rho     :     34.59s CPU     35.93s WALL (      49 calls)
     newd         :     11.71s CPU     14.88s WALL (      49 calls)
     mix_rho      :      1.21s CPU      1.30s WALL (      48 calls)
     vdW_kernel   :      5.84s CPU      5.86s WALL (       1 calls)

     Called by c_bands:
     init_us_2    :      4.71s CPU      4.77s WALL (     980 calls)
     cegterg      :    785.39s CPU    797.84s WALL (     485 calls)

     Called by *egterg:
     cdiaghg      :    132.19s CPU    133.44s WALL (    4578 calls)
     h_psi        :    433.34s CPU    440.92s WALL (    4589 calls)
     s_psi        :     51.73s CPU     51.91s WALL (    4589 calls)
     g_psi        :      1.39s CPU      1.40s WALL (    4094 calls)

     Called by h_psi:
     h_psi:calbec :     50.46s CPU     51.26s WALL (    4589 calls)
     vloc_psi     :    329.07s CPU    333.30s WALL (    4589 calls)
     add_vuspsi   :     52.15s CPU     53.18s WALL (    4589 calls)

     General routines
     calbec       :     67.42s CPU     68.28s WALL (    5109 calls)
     fft          :     16.69s CPU     16.78s WALL (    3087 calls)
     ffts         :      0.14s CPU      0.14s WALL (      97 calls)
     fftw         :    367.56s CPU    372.13s WALL (  624236 calls)
     interpolate  :      0.36s CPU      0.37s WALL (      49 calls)
     davcio       :      0.00s CPU      0.12s WALL (      10 calls)
 
     Parallel routines
 
     PWSCF        :  15m53.20s CPU  16m17.26s WALL

 
   This run was terminated on:  14:18: 9  28Sep2021            

=------------------------------------------------------------------------------=
   JOB DONE.
=------------------------------------------------------------------------------=
