
     Program PWSCF v.6.7GPU starts on  9Sep2021 at  3:37:27 

     This program is part of the open-source Quantum ESPRESSO suite
     for quantum simulation of materials; please cite
         "P. Giannozzi et al., J. Phys.:Condens. Matter 21 395502 (2009);
         "P. Giannozzi et al., J. Phys.:Condens. Matter 29 465901 (2017);
         "P. Giannozzi et al., J. Chem. Phys. 152 154105 (2020);
          URL http://www.quantum-espresso.org", 
     in publications or presentations arising from this work. More details at
     http://www.quantum-espresso.org/quote

     Parallel version (MPI), running on    10 processors

     MPI processes distributed on     1 nodes
     R & G space division:  proc/nbgrp/npool/nimage =      10
     Reading input from /storage/home/hcoda1/3/ntian30/research/carbon/CxH_vib/CH2_calc/ads_slab/CH2N_a/out_0022/pw.inp
Warning: card &CELL ignored
Warning: card   CELL_DYNAMICS='IPI', ignored
Warning: card / ignored

     Current dimensions of program PWSCF are:
     Max number of different atomic species (ntypx) = 10
     Max number of k-points (npk) =  40000
     Max angular momentum in pseudopotentials (lmaxx) =  3
     Presently no symmetry can be used with electric field

     Message from routine cell_base_init:
     DEPRECATED: use true lattice parameter, not A to a.u. conversion factor

     **************************************************************************
     Initializing libbeef V0.1.2 with the BEEF-vdW functional.
     Citation: Wellendorff et al., PRB 85, 235149 (2012).
     **************************************************************************


     IMPORTANT: XC functional enforced from input :
     Exchange-correlation= BEEF-VDW
                           (   1   4  43  14   2   0   0)
     Any further DFT definition will be discarded
     Please, verify this is what you really want


     Subspace diagonalization in iterative solution of the eigenvalue problem:
     one sub-group per band group will be used
     scalapack distributed-memory algorithm (size of sub-group:  3*  3 procs)

  @ DRIVER MODE: Connecting to 
 qe_1139763_2767392.sched-torque.pace.gatech.eduqrzl47mz_scratch
  using UNIX socket
  @ DRIVER MODE: Message from server: STATUS
  @ DRIVER MODE: Message from server: INIT
  @ DRIVER MODE: Receiving replica           0          -1
  @ DRIVER MODE: Receiving encoded integer          25
  @ DRIVER MODE:  SCF:  T  FORCE:  T  STRESS:  F  VC:  F  ENSEMBLE:  F
  @ DRIVER MODE:  SCF:  T  FORCE:  T  STRESS:  F  VC:  F  ENSEMBLE:  F
 
     Parallelization info
     --------------------
     sticks:   dense  smooth     PW     G-vecs:    dense   smooth      PW
     Min         327     131     37                56683    14340    2191
     Max         328     133     38                56694    14346    2206
     Sum        3275    1317    379               566857   143421   21985
 
     Using Slab Decomposition
 


     bravais-lattice index     =            0
     lattice parameter (alat)  =       1.8897  a.u.
     unit-cell volume          =    6658.9804 (a.u.)^3
     number of atoms/cell      =           51
     number of atomic types    =            5
     number of electrons       =       389.00
     number of Kohn-Sham states=          204
     kinetic-energy cutoff     =      29.3995  Ry
     charge density cutoff     =     293.9946  Ry
     scf convergence threshold =      7.3E-08
     mixing beta               =       0.0500
     number of iterations used =            8  plain     mixing
     Exchange-correlation= BEEF-VDW
                           (   1   4  43  14   2   0   0)

     celldm(1)=   1.889726  celldm(2)=   0.000000  celldm(3)=   0.000000
     celldm(4)=   0.000000  celldm(5)=   0.000000  celldm(6)=   0.000000

     crystal axes: (cart. coord. in units of alat)
               a(1) = (   6.579727   0.000000   0.000000 )  
               a(2) = (  -0.000775   5.961596   0.000000 )  
               a(3) = (   0.000000   0.000000  25.155947 )  

     reciprocal axes: (cart. coord. in units 2 pi/alat)
               b(1) = (  0.151982  0.000020  0.000000 )  
               b(2) = (  0.000000  0.167740  0.000000 )  
               b(3) = (  0.000000  0.000000  0.039752 )  


     PseudoPot. # 1 for Ti read from file:
     /storage/coda1/p-amedford6/0/shared/rich_project_chbe-medford/medford-share/data/pseudos_module/espresso/nninc/pbe/van/Ti.UPF
     MD5 check sum: 8e4df49b7f0d34bbd5052bf3f5ea0213
     Pseudo is Ultrasoft, Zval = 12.0
     Generated by new atomic code, or converted to UPF format
     Using radial grid of  851 points,  6 beta functions with: 
                l(1) =   0
                l(2) =   0
                l(3) =   1
                l(4) =   1
                l(5) =   2
                l(6) =   2
     Q(r) pseudized with  8 coefficients,  rinner =    1.000   1.000   1.000
                                                       1.000   1.000

     PseudoPot. # 2 for O  read from file:
     /storage/coda1/p-amedford6/0/shared/rich_project_chbe-medford/medford-share/data/pseudos_module/espresso/nninc/pbe/van/O.UPF
     MD5 check sum: 78c19812648e8988a0fe644b0f25305e
     Pseudo is Ultrasoft, Zval =  6.0
     Generated by new atomic code, or converted to UPF format
     Using radial grid of  737 points,  4 beta functions with: 
                l(1) =   0
                l(2) =   0
                l(3) =   1
                l(4) =   1
     Q(r) pseudized with  8 coefficients,  rinner =    0.800   0.800   0.800


     PseudoPot. # 3 for N  read from file:
     /storage/coda1/p-amedford6/0/shared/rich_project_chbe-medford/medford-share/data/pseudos_module/espresso/nninc/pbe/van/N.UPF
     MD5 check sum: 90d10febe142ad51ac9d5be1deb811c4
     Pseudo is Ultrasoft, Zval =  5.0
     Generated by new atomic code, or converted to UPF format
     Using radial grid of  729 points,  4 beta functions with: 
                l(1) =   0
                l(2) =   0
                l(3) =   1
                l(4) =   1
     Q(r) pseudized with  8 coefficients,  rinner =    0.800   0.800   0.800


     PseudoPot. # 4 for C  read from file:
     /storage/coda1/p-amedford6/0/shared/rich_project_chbe-medford/medford-share/data/pseudos_module/espresso/nninc/pbe/van/C.UPF
     MD5 check sum: 1a69bf6b8db32088f5b2163dbdb77a27
     Pseudo is Ultrasoft, Zval =  4.0
     Generated by new atomic code, or converted to UPF format
     Using radial grid of  721 points,  4 beta functions with: 
                l(1) =   0
                l(2) =   0
                l(3) =   1
                l(4) =   1
     Q(r) pseudized with  8 coefficients,  rinner =    0.800   0.800   0.800


     PseudoPot. # 5 for H  read from file:
     /storage/coda1/p-amedford6/0/shared/rich_project_chbe-medford/medford-share/data/pseudos_module/espresso/nninc/pbe/van/H.UPF
     MD5 check sum: b5ee9d7bfd3a09ee7748110bda690ff7
     Pseudo is Ultrasoft, Zval =  1.0
     Generated by new atomic code, or converted to UPF format
     Using radial grid of  615 points,  1 beta functions with: 
                l(1) =   0
     Q(r) pseudized with  8 coefficients,  rinner =    0.800

     atomic species   valence    mass     pseudopotential
        Ti1           12.00    47.86700     Ti( 1.00)
        O1             6.00    15.99900     O ( 1.00)
        N1             5.00    14.00700     N ( 1.00)
        C1             4.00    12.01100     C ( 1.00)
        H1             1.00     1.00800     H ( 1.00)

     No symmetry found



   Cartesian axes

     site n.     atom                  positions (alat units)
         1           Ti1 tau(   1) = (   0.0004258   2.9801865   6.0000000  )
         2           Ti1 tau(   2) = (   3.2906075   1.4906267   6.0002472  )
         3           O1  tau(   3) = (   0.0006271   0.0005054   7.9858123  )
         4           O1  tau(   4) = (   3.2906025   0.0005020   7.3038282  )
         5           O1  tau(   5) = (   4.5942328   1.4918067   9.2879030  )
         6           O1  tau(   6) = (   1.9868534   1.4903216   9.2879459  )
         7           Ti1 tau(   7) = (   3.2907910   2.8959150   9.1758416  )
         8           Ti1 tau(   8) = (   0.0015273   1.4827037   9.2680791  )
         9           O1  tau(   9) = (   3.3121109   0.0111249  11.3310253  )
        10           O1  tau(  10) = (   0.0116148   5.9584955  10.6183126  )
        11           O1  tau(  11) = (   1.3329579   1.5011098  12.6063046  )
        12           O1  tau(  12) = (   5.3158149   1.4916659  12.6245769  )
        13           Ti1 tau(  13) = (   6.5431557   2.9598450  12.6156978  )
        14           Ti1 tau(  14) = (   3.2273839   1.5049138  12.4779161  )
        15           O1  tau(  15) = (   0.0471551   0.0364395  14.6528705  )
        16           O1  tau(  16) = (   3.3160098   0.0207640  13.9215624  )
        17           O1  tau(  17) = (   4.5810600   1.5471256  16.0564497  )
        18           O1  tau(  18) = (   2.0947546   1.5446786  16.0656860  )
        19           Ti1 tau(  19) = (   3.3354243   3.0239694  15.7034691  )
        20           Ti1 tau(  20) = (   0.0419518   1.5622418  15.8401859  )
        21           O1  tau(  21) = (   3.2904802   0.0005063   4.7018136  )
        22           O1  tau(  22) = (   0.0415632   0.0558952  17.2248266  )
        23           O1  tau(  23) = (   1.3043587   1.4918075   6.0039043  )
        24           O1  tau(  24) = (   5.2767064   1.4903225   6.0039473  )
        25           Ti1 tau(  25) = (   0.0000382   5.9609847   6.0000000  )
        26           Ti1 tau(  26) = (   3.2902200   4.4714249   6.0002472  )
        27           O1  tau(  27) = (   0.0002396   2.9813036   7.9858123  )
        28           O1  tau(  28) = (   3.2902150   2.9813002   7.3038282  )
        29           O1  tau(  29) = (   4.5938453   4.4726049   9.2879030  )
        30           O1  tau(  30) = (   1.9864658   4.4711199   9.2879459  )
        31           Ti1 tau(  31) = (   3.2891106   5.8743827   9.1763621  )
        32           Ti1 tau(  32) = (   0.0006254   4.4649316   9.2693709  )
        33           O1  tau(  33) = (   3.3101407   2.9955762  11.3294870  )
        34           O1  tau(  34) = (   0.0092240   2.9805883  10.6323155  )
        35           O1  tau(  35) = (   1.3272401   4.4878838  12.6173354  )
        36           O1  tau(  36) = (   5.3164082   4.4812184  12.6342743  )
        37           Ti1 tau(  37) = (   6.5430856   5.9365306  12.5602028  )
        38           Ti1 tau(  38) = (   3.2246414   4.4845729  12.4831641  )
        39           O1  tau(  39) = (   0.0420920   2.9623338  14.6463429  )
        40           O1  tau(  40) = (   3.3182946   3.0055568  13.9055467  )
        41           O1  tau(  41) = (   4.5797692   4.5125808  16.0776662  )
        42           O1  tau(  42) = (   2.0972274   4.5146901  16.0918111  )
        43           Ti1 tau(  43) = (   3.3319946   0.0399457  15.7186693  )
        44           Ti1 tau(  44) = (   0.0407629   4.6953510  16.1098173  )
        45           O1  tau(  45) = (   3.2900926   2.9813045   4.7018136  )
        46           O1  tau(  46) = (   1.3039711   4.4726057   6.0039043  )
        47           O1  tau(  47) = (   5.2763189   4.4711207   6.0039473  )
        48           N1  tau(  48) = (   0.0554023   2.9932257  17.3910969  )
        49           C1  tau(  49) = (   0.1090839   2.9222626  18.6472186  )
        50           H1  tau(  50) = (   0.1225839   3.8204711  19.2773028  )
        51           H1  tau(  51) = (   0.1417253   1.9649180  19.1625725  )

     number of k points=    10  Fermi-Dirac smearing, width (Ry)=  0.0073
                       cart. coord. in units 2pi/alat
        k(    1) = (   0.0000000   0.0000000   0.0000000), wk =   0.1250000
        k(    2) = (   0.0000000   0.0419351   0.0000000), wk =   0.2500000
        k(    3) = (   0.0000000  -0.0838702   0.0000000), wk =   0.1250000
        k(    4) = (   0.0379955   0.0000049   0.0000000), wk =   0.2500000
        k(    5) = (   0.0379955   0.0419400   0.0000000), wk =   0.2500000
        k(    6) = (   0.0379955  -0.0838652   0.0000000), wk =   0.2500000
        k(    7) = (   0.0379955  -0.0419301   0.0000000), wk =   0.2500000
        k(    8) = (  -0.0759910  -0.0000099   0.0000000), wk =   0.1250000
        k(    9) = (  -0.0759910   0.0419252   0.0000000), wk =   0.2500000
        k(   10) = (  -0.0759910  -0.0838800   0.0000000), wk =   0.1250000

     Dense  grid:   566857 G-vectors     FFT dimensions: (  72,  64, 270)

     Smooth grid:   143421 G-vectors     FFT dimensions: (  45,  40, 180)

     Estimated max dynamical RAM per process >     362.26 MB

     Estimated total dynamical RAM >       3.54 GB
     Cannot read rho : file not found

     Initial potential from superposition of free atoms

     starting charge  372.99918, renormalised to  389.00000

     negative rho (up, down):  1.813E-02 0.000E+00


     %%%%%%%%%%%%%%%%%%%%%%%%%%%%%%%%%%%%%%%%%%%%%%%%%%%%%%%%%%%%%%%%%%%%%%%%
     %                                                                      %
     % You are using vdW-DF, which was implemented by the Thonhauser group. %
     % Please cite the following two papers that made this development      %
     % possible and the two reviews that describe the various versions:     %
     %                                                                      %
     %   T. Thonhauser et al., PRL 115, 136402 (2015).                      %
     %   T. Thonhauser et al., PRB 76, 125112 (2007).                       %
     %   K. Berland et al., Rep. Prog. Phys. 78, 066501 (2015).             %
     %   D.C. Langreth et al., J. Phys.: Condens. Matter 21, 084203 (2009). %
     %                                                                      %
     %                                                                      %
     % If you are calculating the stress with vdW-DF, please also cite:     %
     %                                                                      %
     %   R. Sabatini et al., J. Phys.: Condens. Matter 24, 424209 (2012).   %
     %                                                                      %
     %%%%%%%%%%%%%%%%%%%%%%%%%%%%%%%%%%%%%%%%%%%%%%%%%%%%%%%%%%%%%%%%%%%%%%%%


 
     Adding external electric field

     Computed dipole along edir(3) : 
        Dipole               -4.6856 Ry au,        -11.9097 Debye
        Dipole field         -0.0088 Ry au, 
 
        Potential amp.        0.8197 Ry
        Total length         46.3494 bohr
 
     Starting wfcs are  294 atomic wfcs
  @ DRIVER MODE: Message from server: STATUS
  @ DRIVER MODE: Message from server: POSDATA
  @ DRIVER MODE: Reading and sharing cell 
  @ DRIVER MODE: Reading and sharing positions 
  @ DRIVER MODE: Received positions 

     total cpu time spent up to now is       11.3 secs

     Self-consistent Calculation

     iteration #  1     ecut=    29.40 Ry     beta= 0.05
     Davidson diagonalization with overlap
     c_bands:  3 eigenvalues not converged
     c_bands:  1 eigenvalues not converged
     c_bands:  1 eigenvalues not converged
     c_bands:  3 eigenvalues not converged
     c_bands:  3 eigenvalues not converged
     c_bands:  2 eigenvalues not converged
     c_bands:  2 eigenvalues not converged
     ethr =  1.00E-05,  avg # of iterations = 19.8

     negative rho (up, down):  1.771E-02 0.000E+00
 
     Adding external electric field

     Computed dipole along edir(3) : 
        Dipole               14.3126 Ry au,         36.3791 Debye
        Dipole field          0.0270 Ry au, 
 
        Potential amp.       -2.5038 Ry
        Total length         46.3494 bohr
 

     total cpu time spent up to now is       48.8 secs

     total energy              =   -2866.23670981 Ry
     estimated scf accuracy    <     589.59324600 Ry

     iteration #  2     ecut=    29.40 Ry     beta= 0.05
     Davidson diagonalization with overlap
     ethr =  1.00E-02,  avg # of iterations = 14.5

     negative rho (up, down):  7.836E-03 0.000E+00
 
     Adding external electric field

     Computed dipole along edir(3) : 
        Dipole               -2.1883 Ry au,         -5.5620 Debye
        Dipole field         -0.0041 Ry au, 
 
        Potential amp.        0.3828 Ry
        Total length         46.3494 bohr
 

     total cpu time spent up to now is       79.8 secs

     total energy              =   -2806.23089324 Ry
     estimated scf accuracy    <   13349.66480768 Ry

     iteration #  3     ecut=    29.40 Ry     beta= 0.05
     Davidson diagonalization with overlap
     c_bands:  2 eigenvalues not converged
     c_bands:  1 eigenvalues not converged
     c_bands:  2 eigenvalues not converged
     c_bands:  1 eigenvalues not converged
     c_bands:  1 eigenvalues not converged
     c_bands:  1 eigenvalues not converged
     c_bands:  4 eigenvalues not converged
     ethr =  1.00E-02,  avg # of iterations = 19.7

     negative rho (up, down):  7.781E-03 0.000E+00
 
     Adding external electric field

     Computed dipole along edir(3) : 
        Dipole               -2.4110 Ry au,         -6.1282 Debye
        Dipole field         -0.0045 Ry au, 
 
        Potential amp.        0.4218 Ry
        Total length         46.3494 bohr
 

     total cpu time spent up to now is      110.8 secs

     total energy              =   -2919.37744317 Ry
     estimated scf accuracy    <      15.98272652 Ry

     iteration #  4     ecut=    29.40 Ry     beta= 0.05
     Davidson diagonalization with overlap
     ethr =  4.11E-03,  avg # of iterations =  6.5

     negative rho (up, down):  7.728E-03 0.000E+00
 
     Adding external electric field

     Computed dipole along edir(3) : 
        Dipole               -2.3853 Ry au,         -6.0629 Debye
        Dipole field         -0.0045 Ry au, 
 
        Potential amp.        0.4173 Ry
        Total length         46.3494 bohr
 

     total cpu time spent up to now is      122.4 secs

     total energy              =   -2919.66756956 Ry
     estimated scf accuracy    <      10.80674150 Ry

     iteration #  5     ecut=    29.40 Ry     beta= 0.05
     Davidson diagonalization with overlap
     ethr =  2.78E-03,  avg # of iterations =  1.4

     negative rho (up, down):  8.043E-03 0.000E+00
 
     Adding external electric field

     Computed dipole along edir(3) : 
        Dipole               -1.9566 Ry au,         -4.9732 Debye
        Dipole field         -0.0037 Ry au, 
 
        Potential amp.        0.3423 Ry
        Total length         46.3494 bohr
 

     total cpu time spent up to now is      132.3 secs

     total energy              =   -2916.36031628 Ry
     estimated scf accuracy    <       9.73302195 Ry

     iteration #  6     ecut=    29.40 Ry     beta= 0.05
     Davidson diagonalization with overlap
     ethr =  2.50E-03,  avg # of iterations =  5.0

     negative rho (up, down):  8.122E-03 0.000E+00
 
     Adding external electric field

     Computed dipole along edir(3) : 
        Dipole               -1.7002 Ry au,         -4.3215 Debye
        Dipole field         -0.0032 Ry au, 
 
        Potential amp.        0.2974 Ry
        Total length         46.3494 bohr
 

     total cpu time spent up to now is      144.7 secs

     total energy              =   -2917.02364298 Ry
     estimated scf accuracy    <       4.33134215 Ry

     iteration #  7     ecut=    29.40 Ry     beta= 0.05
     Davidson diagonalization with overlap
     ethr =  1.11E-03,  avg # of iterations = 12.1

     negative rho (up, down):  7.938E-03 0.000E+00
 
     Adding external electric field

     Computed dipole along edir(3) : 
        Dipole               -1.6684 Ry au,         -4.2406 Debye
        Dipole field         -0.0031 Ry au, 
 
        Potential amp.        0.2919 Ry
        Total length         46.3494 bohr
 

     total cpu time spent up to now is      164.3 secs

     total energy              =   -2918.09629909 Ry
     estimated scf accuracy    <      34.40808386 Ry

     iteration #  8     ecut=    29.40 Ry     beta= 0.05
     Davidson diagonalization with overlap
     ethr =  1.11E-03,  avg # of iterations =  1.1

     negative rho (up, down):  7.817E-03 0.000E+00
 
     Adding external electric field

     Computed dipole along edir(3) : 
        Dipole               -1.6647 Ry au,         -4.2312 Debye
        Dipole field         -0.0031 Ry au, 
 
        Potential amp.        0.2912 Ry
        Total length         46.3494 bohr
 

     total cpu time spent up to now is      173.9 secs

     total energy              =   -2918.00542305 Ry
     estimated scf accuracy    <      14.43907442 Ry

     iteration #  9     ecut=    29.40 Ry     beta= 0.05
     Davidson diagonalization with overlap
     ethr =  1.11E-03,  avg # of iterations =  1.3

     negative rho (up, down):  7.821E-03 0.000E+00
 
     Adding external electric field

     Computed dipole along edir(3) : 
        Dipole               -1.6699 Ry au,         -4.2446 Debye
        Dipole field         -0.0032 Ry au, 
 
        Potential amp.        0.2921 Ry
        Total length         46.3494 bohr
 

     total cpu time spent up to now is      183.7 secs

     total energy              =   -2918.12407620 Ry
     estimated scf accuracy    <       4.74242063 Ry

     iteration # 10     ecut=    29.40 Ry     beta= 0.05
     Davidson diagonalization with overlap
     ethr =  1.11E-03,  avg # of iterations =  1.0

     negative rho (up, down):  8.140E-03 0.000E+00
 
     Adding external electric field

     Computed dipole along edir(3) : 
        Dipole               -1.2564 Ry au,         -3.1935 Debye
        Dipole field         -0.0024 Ry au, 
 
        Potential amp.        0.2198 Ry
        Total length         46.3494 bohr
 

     total cpu time spent up to now is      193.2 secs

     total energy              =   -2917.87309385 Ry
     estimated scf accuracy    <      13.66905445 Ry

     iteration # 11     ecut=    29.40 Ry     beta= 0.05
     Davidson diagonalization with overlap
     ethr =  1.11E-03,  avg # of iterations =  3.7

     negative rho (up, down):  8.611E-03 0.000E+00
 
     Adding external electric field

     Computed dipole along edir(3) : 
        Dipole               -0.7527 Ry au,         -1.9133 Debye
        Dipole field         -0.0014 Ry au, 
 
        Potential amp.        0.1317 Ry
        Total length         46.3494 bohr
 

     total cpu time spent up to now is      204.0 secs

     total energy              =   -2917.90722394 Ry
     estimated scf accuracy    <      12.41194075 Ry

     iteration # 12     ecut=    29.40 Ry     beta= 0.05
     Davidson diagonalization with overlap
     ethr =  1.11E-03,  avg # of iterations =  2.8

     negative rho (up, down):  8.524E-03 0.000E+00
 
     Adding external electric field

     Computed dipole along edir(3) : 
        Dipole               -0.6321 Ry au,         -1.6067 Debye
        Dipole field         -0.0012 Ry au, 
 
        Potential amp.        0.1106 Ry
        Total length         46.3494 bohr
 

     total cpu time spent up to now is      214.6 secs

     total energy              =   -2917.91993915 Ry
     estimated scf accuracy    <       9.03854330 Ry

     iteration # 13     ecut=    29.40 Ry     beta= 0.05
     Davidson diagonalization with overlap
     ethr =  1.11E-03,  avg # of iterations =  1.2

     negative rho (up, down):  8.459E-03 0.000E+00
 
     Adding external electric field

     Computed dipole along edir(3) : 
        Dipole               -0.5690 Ry au,         -1.4463 Debye
        Dipole field         -0.0011 Ry au, 
 
        Potential amp.        0.0995 Ry
        Total length         46.3494 bohr
 

     total cpu time spent up to now is      224.2 secs

     total energy              =   -2917.94189280 Ry
     estimated scf accuracy    <       2.17975877 Ry

     iteration # 14     ecut=    29.40 Ry     beta= 0.05
     Davidson diagonalization with overlap
     ethr =  5.60E-04,  avg # of iterations =  1.1

     negative rho (up, down):  8.560E-03 0.000E+00
 
     Adding external electric field

     Computed dipole along edir(3) : 
        Dipole               -0.3956 Ry au,         -1.0055 Debye
        Dipole field         -0.0007 Ry au, 
 
        Potential amp.        0.0692 Ry
        Total length         46.3494 bohr
 

     total cpu time spent up to now is      233.8 secs

     total energy              =   -2917.89766241 Ry
     estimated scf accuracy    <       1.41703736 Ry

     iteration # 15     ecut=    29.40 Ry     beta= 0.05
     Davidson diagonalization with overlap
     ethr =  3.64E-04,  avg # of iterations =  5.2

     negative rho (up, down):  8.542E-03 0.000E+00
 
     Adding external electric field

     Computed dipole along edir(3) : 
        Dipole               -0.3414 Ry au,         -0.8678 Debye
        Dipole field         -0.0006 Ry au, 
 
        Potential amp.        0.0597 Ry
        Total length         46.3494 bohr
 

     total cpu time spent up to now is      244.9 secs

     total energy              =   -2917.92179663 Ry
     estimated scf accuracy    <       0.38081235 Ry

     iteration # 16     ecut=    29.40 Ry     beta= 0.05
     Davidson diagonalization with overlap
     ethr =  9.79E-05,  avg # of iterations = 10.3

     negative rho (up, down):  8.647E-03 0.000E+00
 
     Adding external electric field

     Computed dipole along edir(3) : 
        Dipole               -0.1964 Ry au,         -0.4992 Debye
        Dipole field         -0.0004 Ry au, 
 
        Potential amp.        0.0344 Ry
        Total length         46.3494 bohr
 

     total cpu time spent up to now is      257.8 secs

     total energy              =   -2917.92299896 Ry
     estimated scf accuracy    <       0.33153523 Ry

     iteration # 17     ecut=    29.40 Ry     beta= 0.05
     Davidson diagonalization with overlap
     c_bands:  1 eigenvalues not converged
     ethr =  8.52E-05,  avg # of iterations = 10.6

     negative rho (up, down):  8.485E-03 0.000E+00
 
     Adding external electric field

     Computed dipole along edir(3) : 
        Dipole               -0.2766 Ry au,         -0.7030 Debye
        Dipole field         -0.0005 Ry au, 
 
        Potential amp.        0.0484 Ry
        Total length         46.3494 bohr
 

     total cpu time spent up to now is      273.3 secs

     total energy              =   -2917.95179372 Ry
     estimated scf accuracy    <       0.44910757 Ry

     iteration # 18     ecut=    29.40 Ry     beta= 0.05
     Davidson diagonalization with overlap
     ethr =  8.52E-05,  avg # of iterations =  1.2

     negative rho (up, down):  8.777E-03 0.000E+00
 
     Adding external electric field

     Computed dipole along edir(3) : 
        Dipole               -0.0097 Ry au,         -0.0247 Debye
        Dipole field         -0.0000 Ry au, 
 
        Potential amp.        0.0017 Ry
        Total length         46.3494 bohr
 

     total cpu time spent up to now is      283.0 secs

     total energy              =   -2917.94948355 Ry
     estimated scf accuracy    <       0.43058783 Ry

     iteration # 19     ecut=    29.40 Ry     beta= 0.05
     Davidson diagonalization with overlap
     ethr =  8.52E-05,  avg # of iterations =  1.8

     negative rho (up, down):  9.516E-03 0.000E+00
 
     Adding external electric field

     Computed dipole along edir(3) : 
        Dipole                0.5032 Ry au,          1.2791 Debye
        Dipole field          0.0009 Ry au, 
 
        Potential amp.       -0.0880 Ry
        Total length         46.3494 bohr
 

     total cpu time spent up to now is      293.2 secs

     total energy              =   -2917.92477396 Ry
     estimated scf accuracy    <       0.39621956 Ry

     iteration # 20     ecut=    29.40 Ry     beta= 0.05
     Davidson diagonalization with overlap
     c_bands:  2 eigenvalues not converged
     c_bands:  2 eigenvalues not converged
     c_bands:  3 eigenvalues not converged
     c_bands:  2 eigenvalues not converged
     ethr =  8.52E-05,  avg # of iterations = 14.0

     negative rho (up, down):  9.478E-03 0.000E+00
 
     Adding external electric field

     Computed dipole along edir(3) : 
        Dipole                0.4899 Ry au,          1.2453 Debye
        Dipole field          0.0009 Ry au, 
 
        Potential amp.       -0.0857 Ry
        Total length         46.3494 bohr
 

     total cpu time spent up to now is      307.3 secs

     total energy              =   -2917.94833154 Ry
     estimated scf accuracy    <       0.21026781 Ry

     iteration # 21     ecut=    29.40 Ry     beta= 0.05
     Davidson diagonalization with overlap
     c_bands:  1 eigenvalues not converged
     ethr =  5.41E-05,  avg # of iterations =  9.2

     negative rho (up, down):  9.361E-03 0.000E+00
 
     Adding external electric field

     Computed dipole along edir(3) : 
        Dipole                0.6497 Ry au,          1.6514 Debye
        Dipole field          0.0012 Ry au, 
 
        Potential amp.       -0.1137 Ry
        Total length         46.3494 bohr
 

     total cpu time spent up to now is      319.3 secs

     total energy              =   -2917.91412781 Ry
     estimated scf accuracy    <       0.25828705 Ry

     iteration # 22     ecut=    29.40 Ry     beta= 0.05
     Davidson diagonalization with overlap
     c_bands:  1 eigenvalues not converged
     c_bands:  2 eigenvalues not converged
     c_bands:  5 eigenvalues not converged
     c_bands:  2 eigenvalues not converged
     c_bands:  3 eigenvalues not converged
     c_bands:  5 eigenvalues not converged
     c_bands:  3 eigenvalues not converged
     c_bands:  1 eigenvalues not converged
     c_bands:  4 eigenvalues not converged
     ethr =  5.41E-05,  avg # of iterations = 20.0

     negative rho (up, down):  9.089E-03 0.000E+00
 
     Adding external electric field

     Computed dipole along edir(3) : 
        Dipole                0.5882 Ry au,          1.4950 Debye
        Dipole field          0.0011 Ry au, 
 
        Potential amp.       -0.1029 Ry
        Total length         46.3494 bohr
 

     total cpu time spent up to now is      337.1 secs

     total energy              =   -2917.93057355 Ry
     estimated scf accuracy    <       0.16722042 Ry

     iteration # 23     ecut=    29.40 Ry     beta= 0.05
     Davidson diagonalization with overlap
     ethr =  4.30E-05,  avg # of iterations =  5.4

     negative rho (up, down):  9.138E-03 0.000E+00
 
     Adding external electric field

     Computed dipole along edir(3) : 
        Dipole                0.6560 Ry au,          1.6674 Debye
        Dipole field          0.0012 Ry au, 
 
        Potential amp.       -0.1148 Ry
        Total length         46.3494 bohr
 

     total cpu time spent up to now is      348.3 secs

     total energy              =   -2917.93129172 Ry
     estimated scf accuracy    <       0.13462749 Ry

     iteration # 24     ecut=    29.40 Ry     beta= 0.05
     Davidson diagonalization with overlap
     ethr =  3.46E-05,  avg # of iterations =  7.6

     negative rho (up, down):  9.052E-03 0.000E+00
 
     Adding external electric field

     Computed dipole along edir(3) : 
        Dipole                0.6195 Ry au,          1.5747 Debye
        Dipole field          0.0012 Ry au, 
 
        Potential amp.       -0.1084 Ry
        Total length         46.3494 bohr
 

     total cpu time spent up to now is      360.2 secs

     total energy              =   -2917.93399010 Ry
     estimated scf accuracy    <       0.17547873 Ry

     iteration # 25     ecut=    29.40 Ry     beta= 0.05
     Davidson diagonalization with overlap
     ethr =  3.46E-05,  avg # of iterations =  1.3

     negative rho (up, down):  9.250E-03 0.000E+00
 
     Adding external electric field

     Computed dipole along edir(3) : 
        Dipole                0.5540 Ry au,          1.4082 Debye
        Dipole field          0.0010 Ry au, 
 
        Potential amp.       -0.0969 Ry
        Total length         46.3494 bohr
 

     total cpu time spent up to now is      370.0 secs

     total energy              =   -2917.90323376 Ry
     estimated scf accuracy    <       0.13485913 Ry

     iteration # 26     ecut=    29.40 Ry     beta= 0.05
     Davidson diagonalization with overlap
     c_bands:  4 eigenvalues not converged
     ethr =  3.46E-05,  avg # of iterations =  9.5

     negative rho (up, down):  9.303E-03 0.000E+00
 
     Adding external electric field

     Computed dipole along edir(3) : 
        Dipole                0.4682 Ry au,          1.1900 Debye
        Dipole field          0.0009 Ry au, 
 
        Potential amp.       -0.0819 Ry
        Total length         46.3494 bohr
 

     total cpu time spent up to now is      383.7 secs

     total energy              =   -2917.91393689 Ry
     estimated scf accuracy    <       0.03564450 Ry

     iteration # 27     ecut=    29.40 Ry     beta= 0.05
     Davidson diagonalization with overlap
     c_bands:  2 eigenvalues not converged
     c_bands:  1 eigenvalues not converged
     c_bands:  4 eigenvalues not converged
     c_bands:  5 eigenvalues not converged
     ethr =  9.16E-06,  avg # of iterations = 15.2

     negative rho (up, down):  9.339E-03 0.000E+00
 
     Adding external electric field

     Computed dipole along edir(3) : 
        Dipole                0.5480 Ry au,          1.3928 Debye
        Dipole field          0.0010 Ry au, 
 
        Potential amp.       -0.0959 Ry
        Total length         46.3494 bohr
 

     total cpu time spent up to now is      402.7 secs

     total energy              =   -2917.91819101 Ry
     estimated scf accuracy    <       0.03203943 Ry

     iteration # 28     ecut=    29.40 Ry     beta= 0.05
     Davidson diagonalization with overlap
     c_bands:  1 eigenvalues not converged
     ethr =  8.24E-06,  avg # of iterations =  8.5

     negative rho (up, down):  1.045E-02 0.000E+00
 
     Adding external electric field

     Computed dipole along edir(3) : 
        Dipole                0.7353 Ry au,          1.8689 Debye
        Dipole field          0.0014 Ry au, 
 
        Potential amp.       -0.1286 Ry
        Total length         46.3494 bohr
 

     total cpu time spent up to now is      414.9 secs

     total energy              =   -2917.92015232 Ry
     estimated scf accuracy    <       0.01422419 Ry

     iteration # 29     ecut=    29.40 Ry     beta= 0.05
     Davidson diagonalization with overlap
     c_bands:  2 eigenvalues not converged
     c_bands:  4 eigenvalues not converged
     ethr =  3.66E-06,  avg # of iterations = 15.8

     negative rho (up, down):  1.122E-02 0.000E+00
 
     Adding external electric field

     Computed dipole along edir(3) : 
        Dipole                0.7008 Ry au,          1.7813 Debye
        Dipole field          0.0013 Ry au, 
 
        Potential amp.       -0.1226 Ry
        Total length         46.3494 bohr
 

     total cpu time spent up to now is      434.6 secs

     total energy              =   -2917.92083155 Ry
     estimated scf accuracy    <       0.03384497 Ry

     iteration # 30     ecut=    29.40 Ry     beta= 0.05
     Davidson diagonalization with overlap
     c_bands:  3 eigenvalues not converged
     ethr =  3.66E-06,  avg # of iterations = 12.7

     negative rho (up, down):  1.191E-02 0.000E+00
 
     Adding external electric field

     Computed dipole along edir(3) : 
        Dipole                0.7056 Ry au,          1.7934 Debye
        Dipole field          0.0013 Ry au, 
 
        Potential amp.       -0.1234 Ry
        Total length         46.3494 bohr
 

     total cpu time spent up to now is      448.4 secs

     total energy              =   -2917.92148959 Ry
     estimated scf accuracy    <       0.00564389 Ry

     iteration # 31     ecut=    29.40 Ry     beta= 0.05
     Davidson diagonalization with overlap
     c_bands:  2 eigenvalues not converged
     c_bands:  2 eigenvalues not converged
     c_bands:  1 eigenvalues not converged
     ethr =  1.45E-06,  avg # of iterations = 14.7

     negative rho (up, down):  1.235E-02 0.000E+00
 
     Adding external electric field

     Computed dipole along edir(3) : 
        Dipole                0.6862 Ry au,          1.7441 Debye
        Dipole field          0.0013 Ry au, 
 
        Potential amp.       -0.1200 Ry
        Total length         46.3494 bohr
 

     total cpu time spent up to now is      464.2 secs

     total energy              =   -2917.92171744 Ry
     estimated scf accuracy    <       0.00445332 Ry

     iteration # 32     ecut=    29.40 Ry     beta= 0.05
     Davidson diagonalization with overlap
     c_bands:  1 eigenvalues not converged
     ethr =  1.14E-06,  avg # of iterations =  8.9

     negative rho (up, down):  1.354E-02 0.000E+00
 
     Adding external electric field

     Computed dipole along edir(3) : 
        Dipole                0.6820 Ry au,          1.7335 Debye
        Dipole field          0.0013 Ry au, 
 
        Potential amp.       -0.1193 Ry
        Total length         46.3494 bohr
 

     total cpu time spent up to now is      476.6 secs

     total energy              =   -2917.92190280 Ry
     estimated scf accuracy    <       0.00261917 Ry

     iteration # 33     ecut=    29.40 Ry     beta= 0.05
     Davidson diagonalization with overlap
     c_bands:  3 eigenvalues not converged
     ethr =  6.73E-07,  avg # of iterations = 13.8

     negative rho (up, down):  1.429E-02 0.000E+00
 
     Adding external electric field

     Computed dipole along edir(3) : 
        Dipole                0.7247 Ry au,          1.8420 Debye
        Dipole field          0.0014 Ry au, 
 
        Potential amp.       -0.1268 Ry
        Total length         46.3494 bohr
 

     total cpu time spent up to now is      491.8 secs

     total energy              =   -2917.92204596 Ry
     estimated scf accuracy    <       0.00154370 Ry

     iteration # 34     ecut=    29.40 Ry     beta= 0.05
     Davidson diagonalization with overlap
     ethr =  3.97E-07,  avg # of iterations =  8.3

     negative rho (up, down):  1.479E-02 0.000E+00
 
     Adding external electric field

     Computed dipole along edir(3) : 
        Dipole                0.7220 Ry au,          1.8350 Debye
        Dipole field          0.0014 Ry au, 
 
        Potential amp.       -0.1263 Ry
        Total length         46.3494 bohr
 

     total cpu time spent up to now is      508.0 secs

     total energy              =   -2917.92231318 Ry
     estimated scf accuracy    <       0.00155841 Ry

     iteration # 35     ecut=    29.40 Ry     beta= 0.05
     Davidson diagonalization with overlap
     ethr =  3.97E-07,  avg # of iterations =  3.8

     negative rho (up, down):  1.578E-02 0.000E+00
 
     Adding external electric field

     Computed dipole along edir(3) : 
        Dipole                0.7305 Ry au,          1.8569 Debye
        Dipole field          0.0014 Ry au, 
 
        Potential amp.       -0.1278 Ry
        Total length         46.3494 bohr
 

     total cpu time spent up to now is      518.8 secs

     total energy              =   -2917.92216235 Ry
     estimated scf accuracy    <       0.00106506 Ry

     iteration # 36     ecut=    29.40 Ry     beta= 0.05
     Davidson diagonalization with overlap
     ethr =  2.74E-07,  avg # of iterations =  9.3

     negative rho (up, down):  1.646E-02 0.000E+00
 
     Adding external electric field

     Computed dipole along edir(3) : 
        Dipole                0.7477 Ry au,          1.9004 Debye
        Dipole field          0.0014 Ry au, 
 
        Potential amp.       -0.1308 Ry
        Total length         46.3494 bohr
 

     total cpu time spent up to now is      535.1 secs

     total energy              =   -2917.92243463 Ry
     estimated scf accuracy    <       0.00033781 Ry

     iteration # 37     ecut=    29.40 Ry     beta= 0.05
     Davidson diagonalization with overlap
     ethr =  8.68E-08,  avg # of iterations = 10.7

     negative rho (up, down):  1.690E-02 0.000E+00
 
     Adding external electric field

     Computed dipole along edir(3) : 
        Dipole                0.7474 Ry au,          1.8996 Debye
        Dipole field          0.0014 Ry au, 
 
        Potential amp.       -0.1307 Ry
        Total length         46.3494 bohr
 

     total cpu time spent up to now is      549.3 secs

     total energy              =   -2917.92249880 Ry
     estimated scf accuracy    <       0.00020203 Ry

     iteration # 38     ecut=    29.40 Ry     beta= 0.05
     Davidson diagonalization with overlap
     ethr =  5.19E-08,  avg # of iterations = 10.5

     negative rho (up, down):  1.734E-02 0.000E+00
 
     Adding external electric field

     Computed dipole along edir(3) : 
        Dipole                0.7535 Ry au,          1.9152 Debye
        Dipole field          0.0014 Ry au, 
 
        Potential amp.       -0.1318 Ry
        Total length         46.3494 bohr
 

     total cpu time spent up to now is      563.3 secs

     total energy              =   -2917.92255507 Ry
     estimated scf accuracy    <       0.00011633 Ry

     iteration # 39     ecut=    29.40 Ry     beta= 0.05
     Davidson diagonalization with overlap
     ethr =  2.99E-08,  avg # of iterations = 12.0

     negative rho (up, down):  1.772E-02 0.000E+00
 
     Adding external electric field

     Computed dipole along edir(3) : 
        Dipole                0.7619 Ry au,          1.9367 Debye
        Dipole field          0.0014 Ry au, 
 
        Potential amp.       -0.1333 Ry
        Total length         46.3494 bohr
 

     total cpu time spent up to now is      580.6 secs

     total energy              =   -2917.92258931 Ry
     estimated scf accuracy    <       0.00013549 Ry

     iteration # 40     ecut=    29.40 Ry     beta= 0.05
     Davidson diagonalization with overlap
     ethr =  2.99E-08,  avg # of iterations =  8.9

     negative rho (up, down):  1.804E-02 0.000E+00
 
     Adding external electric field

     Computed dipole along edir(3) : 
        Dipole                0.7685 Ry au,          1.9532 Debye
        Dipole field          0.0015 Ry au, 
 
        Potential amp.       -0.1344 Ry
        Total length         46.3494 bohr
 

     total cpu time spent up to now is      593.9 secs

     total energy              =   -2917.92263014 Ry
     estimated scf accuracy    <       0.00003143 Ry

     iteration # 41     ecut=    29.40 Ry     beta= 0.05
     Davidson diagonalization with overlap
     ethr =  8.08E-09,  avg # of iterations = 12.5

     negative rho (up, down):  1.807E-02 0.000E+00
 
     Adding external electric field

     Computed dipole along edir(3) : 
        Dipole                0.7689 Ry au,          1.9542 Debye
        Dipole field          0.0015 Ry au, 
 
        Potential amp.       -0.1345 Ry
        Total length         46.3494 bohr
 

     total cpu time spent up to now is      610.4 secs

     total energy              =   -2917.92265935 Ry
     estimated scf accuracy    <       0.00001760 Ry

     iteration # 42     ecut=    29.40 Ry     beta= 0.05
     Davidson diagonalization with overlap
     ethr =  4.52E-09,  avg # of iterations =  2.4

     negative rho (up, down):  1.806E-02 0.000E+00
 
     Adding external electric field

     Computed dipole along edir(3) : 
        Dipole                0.7695 Ry au,          1.9558 Debye
        Dipole field          0.0015 Ry au, 
 
        Potential amp.       -0.1346 Ry
        Total length         46.3494 bohr
 

     total cpu time spent up to now is      620.8 secs

     total energy              =   -2917.92268070 Ry
     estimated scf accuracy    <       0.00001449 Ry

     iteration # 43     ecut=    29.40 Ry     beta= 0.05
     Davidson diagonalization with overlap
     ethr =  3.72E-09,  avg # of iterations = 13.4

     negative rho (up, down):  1.821E-02 0.000E+00
 
     Adding external electric field

     Computed dipole along edir(3) : 
        Dipole                0.7717 Ry au,          1.9614 Debye
        Dipole field          0.0015 Ry au, 
 
        Potential amp.       -0.1350 Ry
        Total length         46.3494 bohr
 

     total cpu time spent up to now is      635.1 secs

     total energy              =   -2917.92270251 Ry
     estimated scf accuracy    <       0.00000842 Ry

     iteration # 44     ecut=    29.40 Ry     beta= 0.05
     Davidson diagonalization with overlap
     ethr =  2.17E-09,  avg # of iterations = 10.2

     negative rho (up, down):  1.828E-02 0.000E+00
 
     Adding external electric field

     Computed dipole along edir(3) : 
        Dipole                0.7731 Ry au,          1.9650 Debye
        Dipole field          0.0015 Ry au, 
 
        Potential amp.       -0.1352 Ry
        Total length         46.3494 bohr
 

     total cpu time spent up to now is      649.1 secs

     total energy              =   -2917.92272189 Ry
     estimated scf accuracy    <       0.00000449 Ry

     iteration # 45     ecut=    29.40 Ry     beta= 0.05
     Davidson diagonalization with overlap
     ethr =  1.15E-09,  avg # of iterations =  9.8

     negative rho (up, down):  1.827E-02 0.000E+00
 
     Adding external electric field

     Computed dipole along edir(3) : 
        Dipole                0.7724 Ry au,          1.9632 Debye
        Dipole field          0.0015 Ry au, 
 
        Potential amp.       -0.1351 Ry
        Total length         46.3494 bohr
 

     total cpu time spent up to now is      661.9 secs

     total energy              =   -2917.92273858 Ry
     estimated scf accuracy    <       0.00000297 Ry

     iteration # 46     ecut=    29.40 Ry     beta= 0.05
     Davidson diagonalization with overlap
     ethr =  7.64E-10,  avg # of iterations = 11.0

     negative rho (up, down):  1.840E-02 0.000E+00
 
     Adding external electric field

     Computed dipole along edir(3) : 
        Dipole                0.7726 Ry au,          1.9638 Debye
        Dipole field          0.0015 Ry au, 
 
        Potential amp.       -0.1352 Ry
        Total length         46.3494 bohr
 

     total cpu time spent up to now is      676.9 secs

     total energy              =   -2917.92275396 Ry
     estimated scf accuracy    <       0.00000175 Ry

     iteration # 47     ecut=    29.40 Ry     beta= 0.05
     Davidson diagonalization with overlap
     c_bands:  1 eigenvalues not converged
     ethr =  4.51E-10,  avg # of iterations = 13.1

     negative rho (up, down):  1.841E-02 0.000E+00
 
     Adding external electric field

     Computed dipole along edir(3) : 
        Dipole                0.7728 Ry au,          1.9642 Debye
        Dipole field          0.0015 Ry au, 
 
        Potential amp.       -0.1352 Ry
        Total length         46.3494 bohr
 

     total cpu time spent up to now is      695.0 secs

     total energy              =   -2917.92276783 Ry
     estimated scf accuracy    <       0.00000083 Ry

     iteration # 48     ecut=    29.40 Ry     beta= 0.05
     Davidson diagonalization with overlap
     ethr =  2.12E-10,  avg # of iterations = 11.0

     negative rho (up, down):  1.841E-02 0.000E+00
 
     Adding external electric field

     Computed dipole along edir(3) : 
        Dipole                0.7729 Ry au,          1.9644 Debye
        Dipole field          0.0015 Ry au, 
 
        Potential amp.       -0.1352 Ry
        Total length         46.3494 bohr
 

     total cpu time spent up to now is      711.1 secs

     total energy              =   -2917.92278019 Ry
     estimated scf accuracy    <       0.00000037 Ry

     iteration # 49     ecut=    29.40 Ry     beta= 0.05
     Davidson diagonalization with overlap
     c_bands:  1 eigenvalues not converged
     ethr =  9.54E-11,  avg # of iterations =  9.3

     negative rho (up, down):  1.843E-02 0.000E+00
 
     Adding external electric field

     Computed dipole along edir(3) : 
        Dipole                0.7727 Ry au,          1.9640 Debye
        Dipole field          0.0015 Ry au, 
 
        Potential amp.       -0.1352 Ry
        Total length         46.3494 bohr
 

     total cpu time spent up to now is      723.7 secs

     total energy              =   -2917.92279134 Ry
     estimated scf accuracy    <       0.00000025 Ry

     iteration # 50     ecut=    29.40 Ry     beta= 0.05
     Davidson diagonalization with overlap
     c_bands:  3 eigenvalues not converged
     ethr =  6.38E-11,  avg # of iterations = 13.5

     negative rho (up, down):  1.842E-02 0.000E+00
 
     Adding external electric field

     Computed dipole along edir(3) : 
        Dipole                0.7727 Ry au,          1.9640 Debye
        Dipole field          0.0015 Ry au, 
 
        Potential amp.       -0.1352 Ry
        Total length         46.3494 bohr
 

     total cpu time spent up to now is      742.0 secs

     total energy              =   -2917.92280142 Ry
     estimated scf accuracy    <       0.00000037 Ry

     iteration # 51     ecut=    29.40 Ry     beta= 0.05
     Davidson diagonalization with overlap
     ethr =  6.38E-11,  avg # of iterations =  7.6

     negative rho (up, down):  1.842E-02 0.000E+00
 
     Adding external electric field

     Computed dipole along edir(3) : 
        Dipole                0.7727 Ry au,          1.9639 Debye
        Dipole field          0.0015 Ry au, 
 
        Potential amp.       -0.1352 Ry
        Total length         46.3494 bohr
 

     total cpu time spent up to now is      754.3 secs

     total energy              =   -2917.92281042 Ry
     estimated scf accuracy    <       0.00000015 Ry

     iteration # 52     ecut=    29.40 Ry     beta= 0.05
     Davidson diagonalization with overlap
     ethr =  3.87E-11,  avg # of iterations = 13.2

     negative rho (up, down):  1.841E-02 0.000E+00
 
     Adding external electric field

     Computed dipole along edir(3) : 
        Dipole                0.7726 Ry au,          1.9637 Debye
        Dipole field          0.0015 Ry au, 
 
        Potential amp.       -0.1352 Ry
        Total length         46.3494 bohr
 

     total cpu time spent up to now is      771.7 secs

     total energy              =   -2917.92281864 Ry
     estimated scf accuracy    <       0.00000010 Ry

     iteration # 53     ecut=    29.40 Ry     beta= 0.05
     Davidson diagonalization with overlap
     ethr =  2.60E-11,  avg # of iterations =  8.7

     negative rho (up, down):  1.844E-02 0.000E+00
 
     Adding external electric field

     Computed dipole along edir(3) : 
        Dipole                0.7713 Ry au,          1.9605 Debye
        Dipole field          0.0015 Ry au, 
 
        Potential amp.       -0.1349 Ry
        Total length         46.3494 bohr
 

     total cpu time spent up to now is      786.3 secs

     End of self-consistent calculation

          k = 0.0000 0.0000 0.0000 ( 18029 PWs)   bands (ev):

   -55.9933 -55.9840 -55.9592 -55.9476 -55.8706 -55.8408 -55.8207 -55.8064
   -55.8021 -55.7682 -55.7653 -55.7317 -55.5190 -55.2452 -54.9704 -54.9363
   -32.5384 -32.4758 -32.3420 -32.3227 -32.3009 -32.2958 -32.2861 -32.2560
   -32.2358 -32.2107 -32.2038 -32.1817 -32.1642 -32.1455 -32.1371 -32.1238
   -32.1030 -32.0977 -32.0827 -32.0504 -32.0496 -32.0466 -32.0004 -31.9991
   -31.9977 -31.9959 -31.9900 -31.9822 -31.9677 -31.9557 -31.9475 -31.9411
   -31.9325 -31.9321 -31.9185 -31.9096 -31.8776 -31.7687 -31.7008 -31.5343
   -31.4999 -31.4574 -31.3775 -31.2892 -31.2668 -31.1942 -31.1077 -30.9967
   -16.7353 -16.4670 -16.2418 -16.1450 -16.1139 -15.9975 -15.8317 -15.7133
   -15.6622 -15.5642 -15.5505 -15.5291 -15.4952 -15.4644 -15.4621 -15.4362
   -15.4327 -15.4135 -15.4001 -15.3523 -15.3300 -15.2953 -15.1977 -15.1668
   -15.1272 -15.0988 -15.0578 -15.0486 -14.9250 -14.5594 -13.4727 -13.3563
    -7.5900  -4.3458  -4.1132  -4.0048  -3.9479  -3.8986  -3.8397  -3.6337
    -3.5423  -3.5203  -3.2233  -3.1768  -3.1593  -3.1468  -3.1084  -2.8928
    -2.8392  -2.8078  -2.7866  -2.7724  -2.7612  -2.7534  -2.7331  -2.7065
    -2.5929  -2.5373  -2.5340  -2.4110  -2.3832  -2.3263  -2.3052  -2.2581
    -2.2425  -2.2337  -2.2067  -2.1959  -2.1827  -2.1519  -2.0743  -1.9606
    -1.8099  -1.7909  -1.7552  -1.6294  -1.6001  -1.5384  -1.4485  -1.4329
    -1.4184  -1.3843  -1.3669  -1.2956  -1.1698  -1.1455  -1.1357  -1.0352
    -0.9886  -0.9701  -0.8736  -0.8381  -0.7680  -0.7569  -0.7456  -0.7081
    -0.5478  -0.4908  -0.4614  -0.3946  -0.3647  -0.3060  -0.2932  -0.2643
    -0.1818  -0.1297  -0.1095  -0.1032  -0.0544  -0.0182  -0.0014   0.0083
     0.0194   0.0335   0.2060   0.2790   0.2860   0.3649   0.3748   0.5358
     0.5969   0.6642   0.7724   0.9773   1.0518   1.1411   1.2442   1.4384
     1.6230   1.6686   3.1432   3.2268   3.2751   3.2847   3.3860   3.4229
     3.5964   3.6029   3.6171   3.6912

          k = 0.0000 0.0419 0.0000 ( 17933 PWs)   bands (ev):

   -55.9882 -55.9787 -55.9641 -55.9527 -55.8673 -55.8357 -55.8238 -55.8114
   -55.7971 -55.7731 -55.7603 -55.7365 -55.5184 -55.2456 -54.9653 -54.9412
   -32.4810 -32.4218 -32.2873 -32.2826 -32.2814 -32.2736 -32.2683 -32.2187
   -32.2149 -32.2076 -32.1996 -32.1957 -32.1670 -32.1603 -32.1543 -32.1463
   -32.1316 -32.0906 -32.0694 -32.0643 -32.0441 -32.0386 -32.0131 -32.0121
   -32.0064 -32.0038 -31.9954 -31.9919 -31.9892 -31.9799 -31.9712 -31.9622
   -31.9398 -31.9374 -31.9336 -31.9212 -31.9206 -31.7680 -31.6981 -31.5620
   -31.4998 -31.4691 -31.3234 -31.2858 -31.2698 -31.1816 -31.1203 -31.0538
   -16.5992 -16.3468 -16.1319 -16.0355 -16.0122 -15.9624 -15.8578 -15.7702
   -15.7489 -15.5889 -15.5415 -15.5233 -15.5125 -15.4931 -15.4701 -15.4546
   -15.4495 -15.4107 -15.4008 -15.3784 -15.3366 -15.2741 -15.2224 -15.2067
   -15.1856 -15.1516 -15.1053 -15.0702 -14.9355 -14.6349 -13.4768 -13.3958
    -7.5883  -4.3379  -3.9208  -3.8761  -3.7837  -3.7225  -3.6822  -3.4929
    -3.4058  -3.3069  -3.2106  -3.1622  -3.0668  -3.0457  -3.0289  -2.9676
    -2.9457  -2.9378  -2.8793  -2.8609  -2.8085  -2.7665  -2.7454  -2.7229
    -2.6828  -2.6731  -2.6550  -2.6179  -2.5140  -2.4952  -2.4814  -2.4560
    -2.4113  -2.2805  -2.2358  -2.2319  -2.1302  -2.0167  -1.9366  -1.8817
    -1.7548  -1.6884  -1.6733  -1.6467  -1.5820  -1.3859  -1.3501  -1.3109
    -1.2952  -1.2652  -1.2288  -1.1998  -1.0752  -1.0045  -0.9865  -0.9438
    -0.9026  -0.8915  -0.8738  -0.8445  -0.8099  -0.8001  -0.7461  -0.6806
    -0.6127  -0.5638  -0.5167  -0.4852  -0.4766  -0.4547  -0.3780  -0.2956
    -0.2517  -0.2254  -0.1883  -0.1793  -0.1523  -0.1145  -0.1024  -0.0232
     0.0362   0.0705   0.1420   0.1946   0.2205   0.2858   0.3391   0.3484
     0.3975   0.5358   0.6704   0.7050   1.0165   1.2409   1.3232   1.3311
     1.5770   1.5805   3.3345   3.3778   3.3931   3.4537   3.4965   3.5423
     3.5848   3.6278   3.6630   3.7040

          k = 0.0000-0.0839 0.0000 ( 17884 PWs)   bands (ev):

   -55.9766 -55.9757 -55.9684 -55.9630 -55.8636 -55.8275 -55.8238 -55.8231
   -55.7858 -55.7843 -55.7492 -55.7476 -55.5179 -55.2460 -54.9533 -54.9532
   -32.3436 -32.3384 -32.2899 -32.2892 -32.2718 -32.2709 -32.2535 -32.2415
   -32.1821 -32.1758 -32.1721 -32.1674 -32.1558 -32.1501 -32.1359 -32.1114
   -32.1033 -32.0984 -32.0976 -32.0973 -32.0711 -32.0705 -32.0675 -32.0372
   -32.0369 -32.0329 -32.0252 -32.0220 -32.0185 -32.0055 -31.9816 -31.9801
   -31.9597 -31.9568 -31.9290 -31.9285 -31.8819 -31.7673 -31.6971 -31.5999
   -31.4997 -31.4781 -31.2776 -31.2775 -31.1904 -31.1903 -31.1510 -31.1510
   -16.2553 -16.2511 -16.0619 -16.0615 -15.9021 -15.8918 -15.7852 -15.7787
   -15.7697 -15.7495 -15.7084 -15.7059 -15.5542 -15.5501 -15.3984 -15.3719
   -15.3685 -15.3625 -15.3477 -15.3283 -15.3266 -15.2942 -15.2792 -15.2665
   -15.2479 -15.2362 -15.2159 -15.0547 -14.9472 -14.7350 -13.4586 -13.4585
    -7.5867  -4.3340  -3.7160  -3.4613  -3.4481  -3.3916  -3.3838  -3.3635
    -3.3571  -3.2839  -3.2836  -3.2099  -3.1191  -3.1070  -3.1036  -3.1003
    -3.0708  -3.0410  -2.9853  -2.9430  -2.9375  -2.8410  -2.8013  -2.7707
    -2.7461  -2.7394  -2.6929  -2.6707  -2.5885  -2.5776  -2.5541  -2.4373
    -2.3608  -2.3572  -2.3215  -2.0599  -1.9880  -1.8886  -1.8607  -1.7822
    -1.6881  -1.6752  -1.6120  -1.4918  -1.4449  -1.4224  -1.4110  -1.3749
    -1.3576  -1.3216  -1.2560  -1.2084  -1.1785  -1.1100  -1.0616  -1.0486
    -0.9781  -0.8733  -0.7655  -0.7001  -0.6305  -0.6284  -0.6073  -0.5988
    -0.5670  -0.5244  -0.5149  -0.4694  -0.4393  -0.4218  -0.3987  -0.3504
    -0.3154  -0.2954  -0.2698  -0.2597  -0.2338  -0.2020  -0.1841  -0.1790
    -0.1306  -0.0982  -0.0853  -0.0113   0.1011   0.2480   0.2510   0.2639
     0.2894   0.6225   0.6452   0.7193   0.7400   1.2681   1.3842   1.3846
     1.5140   1.5145   3.4552   3.4711   3.4828   3.5083   3.5702   3.5853
     3.6207   3.6956   3.7296   3.7355

          k = 0.0380 0.0000 0.0000 ( 17913 PWs)   bands (ev):

   -55.9932 -55.9838 -55.9591 -55.9475 -55.8704 -55.8407 -55.8206 -55.8063
   -55.8018 -55.7681 -55.7654 -55.7316 -55.5189 -55.2451 -54.9703 -54.9362
   -32.5385 -32.4766 -32.3480 -32.3240 -32.3011 -32.2956 -32.2859 -32.2607
   -32.2358 -32.2068 -32.1916 -32.1811 -32.1641 -32.1426 -32.1300 -32.1234
   -32.0985 -32.0974 -32.0651 -32.0622 -32.0502 -32.0478 -32.0063 -31.9982
   -31.9958 -31.9927 -31.9830 -31.9821 -31.9675 -31.9621 -31.9555 -31.9457
   -31.9324 -31.9319 -31.9187 -31.9086 -31.8779 -31.7709 -31.7007 -31.5341
   -31.5003 -31.4572 -31.3770 -31.2926 -31.2648 -31.1940 -31.1076 -30.9965
   -16.6628 -16.3821 -16.1619 -16.1283 -16.0418 -15.9968 -15.8764 -15.7111
   -15.6979 -15.6847 -15.6590 -15.6112 -15.5847 -15.5605 -15.5416 -15.5155
   -15.3545 -15.3163 -15.2978 -15.2596 -15.2470 -15.2379 -15.2069 -15.1830
   -15.1714 -15.1439 -15.1328 -15.0382 -14.9188 -14.5578 -13.4695 -13.3560
    -7.5882  -4.3454  -4.0292  -3.8951  -3.7130  -3.6768  -3.6203  -3.5360
    -3.5228  -3.4741  -3.4565  -3.2359  -3.2216  -3.1008  -3.0791  -3.0663
    -2.9861  -2.8581  -2.7868  -2.7549  -2.7095  -2.7033  -2.6080  -2.5985
    -2.5619  -2.5065  -2.4440  -2.4251  -2.3808  -2.3402  -2.3200  -2.2653
    -2.2088  -2.1771  -2.1678  -2.0289  -1.9833  -1.9709  -1.9437  -1.8769
    -1.8491  -1.8390  -1.7571  -1.6482  -1.5992  -1.5662  -1.5371  -1.4972
    -1.4271  -1.4137  -1.3409  -1.2802  -1.2719  -1.2626  -1.2469  -1.1291
    -1.0526  -0.9462  -0.8449  -0.8281  -0.8097  -0.7831  -0.7496  -0.7075
    -0.5727  -0.5307  -0.4949  -0.4347  -0.4101  -0.3824  -0.3351  -0.2755
    -0.2603  -0.2342  -0.1935  -0.1655  -0.1464  -0.1321  -0.1140  -0.1022
    -0.0463   0.0875   0.1248   0.1838   0.2023   0.3035   0.3889   0.4087
     0.4204   0.6496   0.6983   0.9802   1.0050   1.0636   1.2137   1.4400
     1.5115   1.5857   3.1776   3.1998   3.4863   3.5058   3.5236   3.5539
     3.5707   3.5955   3.6231   3.6524

          k = 0.0380 0.0419 0.0000 ( 17878 PWs)   bands (ev):

   -55.9882 -55.9786 -55.9641 -55.9527 -55.8672 -55.8356 -55.8237 -55.8113
   -55.7969 -55.7730 -55.7604 -55.7365 -55.5184 -55.2455 -54.9652 -54.9412
   -32.4811 -32.4226 -32.2946 -32.2824 -32.2812 -32.2738 -32.2696 -32.2187
   -32.2152 -32.2099 -32.2019 -32.1833 -32.1669 -32.1603 -32.1544 -32.1359
   -32.1291 -32.0869 -32.0640 -32.0587 -32.0520 -32.0386 -32.0136 -32.0108
   -32.0082 -31.9949 -31.9927 -31.9916 -31.9895 -31.9800 -31.9712 -31.9633
   -31.9584 -31.9395 -31.9291 -31.9259 -31.9196 -31.7700 -31.6981 -31.5619
   -31.5004 -31.4689 -31.3230 -31.2884 -31.2688 -31.1815 -31.1203 -31.0537
   -16.5335 -16.2687 -16.0597 -16.0212 -15.9604 -15.9378 -15.8592 -15.8073
   -15.7503 -15.6489 -15.6073 -15.5885 -15.5820 -15.5708 -15.4889 -15.4704
   -15.4078 -15.3788 -15.3735 -15.3189 -15.3060 -15.2820 -15.2421 -15.2332
   -15.2214 -15.1846 -15.1603 -15.0531 -14.9311 -14.6335 -13.4745 -13.3961
    -7.5872  -4.3364  -3.8516  -3.8006  -3.5522  -3.5132  -3.4473  -3.3774
    -3.3384  -3.3093  -3.2837  -3.1369  -3.0856  -3.0220  -2.9873  -2.9744
    -2.8924  -2.8787  -2.8601  -2.8229  -2.7876  -2.7597  -2.7221  -2.7044
    -2.6821  -2.6447  -2.6155  -2.5868  -2.5271  -2.4777  -2.4471  -2.4191
    -2.3304  -2.2664  -2.1995  -2.1381  -2.0270  -1.9854  -1.9585  -1.9133
    -1.7526  -1.7111  -1.7032  -1.5695  -1.4718  -1.4530  -1.4250  -1.4047
    -1.3693  -1.3108  -1.2646  -1.2392  -1.2016  -1.1380  -1.0980  -1.0564
    -1.0226  -0.9587  -0.9230  -0.8844  -0.8445  -0.7977  -0.7588  -0.7140
    -0.6901  -0.6599  -0.6257  -0.6056  -0.5634  -0.5193  -0.4605  -0.4333
    -0.3924  -0.3258  -0.3034  -0.2807  -0.2409  -0.2009  -0.1035  -0.0489
    -0.0299   0.0894   0.1332   0.2101   0.2334   0.3120   0.3541   0.3969
     0.4377   0.4515   0.6014   0.6689   0.9495   1.2517   1.3289   1.3498
     1.4995   1.5613   3.3230   3.3887   3.4431   3.5039   3.5650   3.5894
     3.6366   3.6801   3.7156   3.7275

          k = 0.0380-0.0839 0.0000 ( 17916 PWs)   bands (ev):

   -55.9766 -55.9757 -55.9684 -55.9630 -55.8636 -55.8275 -55.8239 -55.8232
   -55.7857 -55.7843 -55.7493 -55.7477 -55.5179 -55.2460 -54.9533 -54.9532
   -32.3438 -32.3387 -32.2906 -32.2899 -32.2718 -32.2709 -32.2536 -32.2416
   -32.1872 -32.1829 -32.1791 -32.1739 -32.1372 -32.1352 -32.1297 -32.1127
   -32.1039 -32.0980 -32.0973 -32.0964 -32.0813 -32.0786 -32.0690 -32.0331
   -32.0308 -32.0296 -32.0192 -32.0140 -32.0137 -32.0056 -31.9815 -31.9800
   -31.9597 -31.9568 -31.9408 -31.9404 -31.8816 -31.7693 -31.6970 -31.5998
   -31.5006 -31.4781 -31.2786 -31.2785 -31.1903 -31.1902 -31.1510 -31.1510
   -16.2141 -16.2068 -16.0118 -16.0102 -15.8729 -15.8647 -15.7893 -15.7519
   -15.7278 -15.7095 -15.6903 -15.6823 -15.5673 -15.5628 -15.4525 -15.4343
   -15.4096 -15.4058 -15.3846 -15.3618 -15.3594 -15.3483 -15.3183 -15.2956
   -15.2874 -15.2511 -15.1897 -15.0438 -14.9446 -14.7309 -13.4583 -13.4583
    -7.5864  -4.3312  -3.7002  -3.4564  -3.4352  -3.2374  -3.2211  -3.1788
    -3.1654  -3.1291  -3.0966  -3.0736  -3.0604  -3.0128  -2.9924  -2.9793
    -2.9615  -2.9334  -2.9231  -2.8342  -2.8294  -2.8203  -2.7980  -2.7605
    -2.7092  -2.6957  -2.6711  -2.6411  -2.6241  -2.5733  -2.5454  -2.5056
    -2.4493  -2.1150  -2.1004  -2.0798  -1.9591  -1.9001  -1.8802  -1.8303
    -1.8149  -1.7677  -1.7397  -1.6959  -1.6668  -1.6277  -1.6165  -1.5291
    -1.4654  -1.4456  -1.3611  -1.2548  -1.1872  -1.1213  -1.1023  -1.0446
    -1.0255  -0.9800  -0.8940  -0.8047  -0.7827  -0.7783  -0.7503  -0.7400
    -0.7033  -0.6781  -0.6126  -0.5989  -0.5889  -0.5528  -0.5414  -0.5328
    -0.4567  -0.4099  -0.3718  -0.3577  -0.2439  -0.1844  -0.1368  -0.0771
     0.0289   0.0897   0.1047   0.1312   0.1635   0.1856   0.2415   0.3584
     0.3844   0.5576   0.5738   0.6841   0.7386   1.3028   1.3974   1.3979
     1.5031   1.5038   3.4222   3.4323   3.5055   3.5263   3.5570   3.5720
     3.6622   3.7440   3.7654   3.7734

          k = 0.0380-0.0419 0.0000 ( 17876 PWs)   bands (ev):

   -55.9882 -55.9786 -55.9641 -55.9527 -55.8672 -55.8356 -55.8237 -55.8113
   -55.7969 -55.7730 -55.7604 -55.7365 -55.5184 -55.2455 -54.9652 -54.9412
   -32.4811 -32.4226 -32.2946 -32.2824 -32.2812 -32.2738 -32.2696 -32.2187
   -32.2152 -32.2099 -32.2019 -32.1835 -32.1668 -32.1602 -32.1544 -32.1360
   -32.1292 -32.0869 -32.0640 -32.0584 -32.0520 -32.0386 -32.0136 -32.0109
   -32.0082 -31.9949 -31.9926 -31.9916 -31.9895 -31.9800 -31.9712 -31.9630
   -31.9586 -31.9395 -31.9292 -31.9258 -31.9196 -31.7700 -31.6981 -31.5619
   -31.5004 -31.4689 -31.3230 -31.2884 -31.2688 -31.1815 -31.1203 -31.0537
   -16.5333 -16.2686 -16.0597 -16.0206 -15.9604 -15.9374 -15.8607 -15.8072
   -15.7509 -15.6493 -15.6082 -15.5888 -15.5818 -15.5707 -15.4888 -15.4696
   -15.4057 -15.3784 -15.3735 -15.3186 -15.3070 -15.2817 -15.2423 -15.2336
   -15.2212 -15.1847 -15.1605 -15.0532 -14.9311 -14.6335 -13.4745 -13.3961
    -7.5872  -4.3365  -3.8519  -3.8008  -3.5484  -3.5128  -3.4465  -3.3774
    -3.3375  -3.3079  -3.2878  -3.1372  -3.0906  -3.0252  -2.9876  -2.9735
    -2.8941  -2.8769  -2.8587  -2.8249  -2.7869  -2.7583  -2.7192  -2.7019
    -2.6848  -2.6438  -2.6138  -2.5903  -2.5276  -2.4796  -2.4445  -2.4185
    -2.3272  -2.2630  -2.1982  -2.1363  -2.0190  -1.9862  -1.9525  -1.9043
    -1.7558  -1.7284  -1.7030  -1.5721  -1.4772  -1.4526  -1.4261  -1.4013
    -1.3723  -1.3085  -1.2594  -1.2451  -1.1992  -1.1414  -1.1030  -1.0563
    -1.0252  -0.9765  -0.9194  -0.8895  -0.8438  -0.8010  -0.7745  -0.7203
    -0.6976  -0.6424  -0.6288  -0.6015  -0.5677  -0.5054  -0.4585  -0.4246
    -0.3839  -0.3281  -0.3088  -0.2909  -0.2308  -0.2013  -0.1035  -0.0445
    -0.0211   0.0997   0.1309   0.2039   0.2422   0.3176   0.3475   0.3976
     0.4342   0.4515   0.6033   0.6689   0.9505   1.2517   1.3289   1.3488
     1.4992   1.5619   3.3233   3.3882   3.4443   3.5188   3.5409   3.5818
     3.6360   3.6804   3.7104   3.7300

          k =-0.0760-0.0000 0.0000 ( 17886 PWs)   bands (ev):

   -55.9931 -55.9837 -55.9591 -55.9475 -55.8704 -55.8407 -55.8206 -55.8063
   -55.8016 -55.7681 -55.7655 -55.7316 -55.5188 -55.2450 -54.9702 -54.9362
   -32.5386 -32.4775 -32.3536 -32.3254 -32.3012 -32.2954 -32.2857 -32.2652
   -32.2358 -32.2064 -32.1824 -32.1681 -32.1640 -32.1397 -32.1240 -32.1231
   -32.0973 -32.0940 -32.0879 -32.0506 -32.0477 -32.0170 -32.0096 -32.0087
   -31.9981 -31.9946 -31.9910 -31.9821 -31.9768 -31.9674 -31.9556 -31.9441
   -31.9323 -31.9320 -31.9196 -31.9079 -31.8785 -31.7734 -31.7007 -31.5341
   -31.5009 -31.4571 -31.3766 -31.2958 -31.2635 -31.1940 -31.1075 -30.9965
   -16.5678 -16.2986 -16.0946 -16.0845 -15.9964 -15.9547 -15.8506 -15.7784
   -15.7678 -15.7079 -15.6939 -15.6725 -15.6558 -15.6547 -15.6271 -15.5344
   -15.3569 -15.3320 -15.3282 -15.2732 -15.2404 -15.2404 -15.1766 -15.1720
   -15.1518 -15.1485 -15.0832 -15.0346 -14.9147 -14.5565 -13.4665 -13.3557
    -7.5864  -4.3453  -4.0079  -3.8187  -3.6105  -3.5853  -3.5064  -3.3954
    -3.3766  -3.3301  -3.2538  -3.2405  -3.2258  -3.2172  -3.2122  -3.0147
    -2.8511  -2.7929  -2.7683  -2.7170  -2.6500  -2.6302  -2.5630  -2.5450
    -2.4932  -2.4692  -2.3997  -2.3680  -2.3158  -2.2966  -2.2722  -2.2283
    -2.2232  -2.2146  -2.1960  -2.1694  -2.0904  -2.0753  -1.9816  -1.8012
    -1.7669  -1.7050  -1.6374  -1.6058  -1.5948  -1.5882  -1.5775  -1.5611
    -1.4848  -1.4571  -1.4408  -1.3538  -1.2830  -1.2540  -1.2020  -1.1635
    -1.1571  -1.1480  -1.0244  -0.9302  -0.8383  -0.8134  -0.7682  -0.7022
    -0.6648  -0.6171  -0.6074  -0.5211  -0.5099  -0.4695  -0.4308  -0.3904
    -0.3173  -0.2801  -0.2572  -0.2494  -0.1866  -0.1754  -0.1373  -0.0877
     0.0039   0.0391   0.0638   0.1345   0.2461   0.2636   0.3423   0.4842
     0.4849   0.6087   0.6996   0.7331   0.9918   1.0848   1.1894   1.3821
     1.4382   1.5301   3.1800   3.1833   3.3133   3.4257   3.4783   3.5486
     3.5949   3.6147   3.6702   3.6961

          k =-0.0760 0.0419 0.0000 ( 17914 PWs)   bands (ev):

   -55.9882 -55.9786 -55.9641 -55.9527 -55.8673 -55.8357 -55.8238 -55.8114
   -55.7968 -55.7730 -55.7605 -55.7366 -55.5184 -55.2455 -54.9652 -54.9412
   -32.4814 -32.4236 -32.3014 -32.2825 -32.2812 -32.2740 -32.2712 -32.2191
   -32.2153 -32.2136 -32.2029 -32.1681 -32.1662 -32.1603 -32.1547 -32.1270
   -32.1263 -32.0834 -32.0763 -32.0639 -32.0387 -32.0186 -32.0142 -32.0113
   -32.0099 -31.9984 -31.9941 -31.9913 -31.9897 -31.9803 -31.9788 -31.9711
   -31.9600 -31.9393 -31.9326 -31.9291 -31.9187 -31.7723 -31.6981 -31.5619
   -31.5013 -31.4690 -31.3228 -31.2912 -31.2681 -31.1815 -31.1204 -31.0537
   -16.4487 -16.1850 -16.0087 -15.9785 -15.9570 -15.8640 -15.8568 -15.7528
   -15.7451 -15.7295 -15.6439 -15.6399 -15.6363 -15.6128 -15.5727 -15.5422
   -15.4146 -15.3846 -15.3767 -15.3486 -15.3260 -15.2780 -15.2600 -15.2443
   -15.2080 -15.1742 -15.1539 -15.0480 -14.9281 -14.6323 -13.4724 -13.3964
    -7.5862  -4.3353  -3.8370  -3.7534  -3.4695  -3.3284  -3.2942  -3.1961
    -3.1381  -3.1129  -3.1015  -3.0750  -3.0392  -3.0138  -2.9983  -2.9417
    -2.9394  -2.8793  -2.8572  -2.7861  -2.7735  -2.7162  -2.7070  -2.6828
    -2.6504  -2.5943  -2.5703  -2.4881  -2.4727  -2.4702  -2.4115  -2.3465
    -2.2535  -2.2014  -2.1147  -2.1014  -2.0542  -1.9815  -1.9680  -1.9142
    -1.7790  -1.6773  -1.6137  -1.6022  -1.5553  -1.5441  -1.4923  -1.4328
    -1.4178  -1.3813  -1.3275  -1.2953  -1.2530  -1.2388  -1.2157  -1.1941
    -1.1791  -1.1500  -1.0890  -1.0446  -0.9950  -0.9838  -0.9253  -0.9041
    -0.8012  -0.7517  -0.7278  -0.7165  -0.6325  -0.6069  -0.5881  -0.5278
    -0.4525  -0.3993  -0.3766  -0.3090  -0.2794  -0.1619  -0.1093  -0.0138
     0.0352   0.0979   0.2155   0.2694   0.3031   0.3577   0.3958   0.4550
     0.4607   0.5253   0.5731   0.6025   0.7897   1.2666   1.3323   1.3662
     1.4229   1.5506   3.3093   3.3736   3.3858   3.4643   3.4890   3.5058
     3.6198   3.6422   3.7267   3.7687

          k =-0.0760-0.0839 0.0000 ( 17948 PWs)   bands (ev):

   -55.9766 -55.9757 -55.9684 -55.9630 -55.8636 -55.8275 -55.8239 -55.8232
   -55.7856 -55.7842 -55.7494 -55.7478 -55.5180 -55.2460 -54.9533 -54.9532
   -32.3441 -32.3390 -32.2914 -32.2907 -32.2719 -32.2710 -32.2538 -32.2417
   -32.1937 -32.1875 -32.1813 -32.1745 -32.1376 -32.1194 -32.1143 -32.1130
   -32.1038 -32.0979 -32.0961 -32.0952 -32.0885 -32.0859 -32.0669 -32.0429
   -32.0394 -32.0288 -32.0193 -32.0056 -31.9845 -31.9841 -31.9811 -31.9796
   -31.9641 -31.9632 -31.9599 -31.9568 -31.8813 -31.7713 -31.6970 -31.5997
   -31.5015 -31.4781 -31.2795 -31.2795 -31.1903 -31.1902 -31.1510 -31.1510
   -16.1676 -16.1483 -15.9366 -15.9094 -15.9044 -15.8930 -15.7645 -15.7041
   -15.6878 -15.6858 -15.6068 -15.5850 -15.5637 -15.5363 -15.5246 -15.5123
   -15.5061 -15.4975 -15.4545 -15.4484 -15.4290 -15.4218 -15.3188 -15.3094
   -15.3053 -15.2492 -15.1757 -15.0369 -14.9422 -14.7272 -13.4581 -13.4581
    -7.5861  -4.3288  -3.6926  -3.4580  -3.4353  -3.1668  -3.1498  -3.1408
    -3.0808  -2.9080  -2.8921  -2.8690  -2.8481  -2.8195  -2.8177  -2.7965
    -2.7944  -2.7836  -2.7392  -2.7320  -2.7065  -2.6697  -2.6596  -2.6481
    -2.6394  -2.6157  -2.6054  -2.5636  -2.5340  -2.5267  -2.5119  -2.4882
    -2.3029  -2.2199  -2.1936  -2.1304  -2.1230  -2.0880  -2.0569  -2.0448
    -2.0286  -1.9782  -1.9002  -1.7258  -1.6930  -1.6749  -1.6172  -1.5883
    -1.5475  -1.4613  -1.3934  -1.3688  -1.3626  -1.3142  -1.2054  -1.1839
    -1.1699  -1.0962  -1.0609  -1.0430  -1.0011  -0.9862  -0.9533  -0.9479
    -0.8542  -0.8048  -0.7583  -0.7560  -0.7104  -0.6441  -0.6311  -0.6036
    -0.4946  -0.4757  -0.4053  -0.3766  -0.2750  -0.2069  -0.0089   0.0534
     0.0788   0.1373   0.2175   0.2982   0.3127   0.3267   0.3270   0.3745
     0.4438   0.5396   0.5490   0.6026   0.7073   1.3336   1.4156   1.4162
     1.4884   1.4884   3.4291   3.4390   3.4782   3.5000   3.6361   3.6517
     3.6746   3.6757   3.7312   3.8136

     the Fermi energy is     3.1410 ev

!    total energy              =   -2917.92289373 Ry
     estimated scf accuracy    <       0.00000007 Ry
     smearing contrib. (-TS)   =      -0.02180932 Ry
     internal energy E=F+TS    =   -2917.90108440 Ry

     The total energy is F=E-TS. E is the sum of the following terms:
     one-electron contribution =  -24778.28468594 Ry
     hartree contribution      =   12472.81400746 Ry
     xc contribution           =    -479.19104385 Ry
     ewald contribution        =    9866.75951523 Ry
     electric field correction =       0.00112270 Ry

     convergence has been achieved in  53 iterations

     Forces acting on atoms (cartesian axes, Ry/au):

     atom    1 type  1   force =     0.00017193   -0.00024062    0.09671497
     atom    2 type  1   force =     0.00006946   -0.00054170   -0.17538323
     atom    3 type  2   force =     0.00017966    0.00000145   -0.02478539
     atom    4 type  2   force =     0.00005664   -0.00133369    0.05290962
     atom    5 type  2   force =    -0.01179252    0.00012707    0.00258388
     atom    6 type  2   force =     0.01396063    0.00051390    0.00338701
     atom    7 type  1   force =     0.00129464    0.00071389   -0.01176383
     atom    8 type  1   force =    -0.00005360    0.00766458    0.02820553
     atom    9 type  2   force =    -0.00024390   -0.00023947   -0.00010595
     atom   10 type  2   force =    -0.00220650    0.00206886   -0.01528309
     atom   11 type  2   force =     0.00000834   -0.00009366    0.00022413
     atom   12 type  2   force =    -0.00003438    0.00014261   -0.00006925
     atom   13 type  1   force =    -0.00104593   -0.00025735    0.00001133
     atom   14 type  1   force =    -0.00023441   -0.00026419    0.00058948
     atom   15 type  2   force =    -0.00030571   -0.00002492   -0.00024209
     atom   16 type  2   force =     0.00025462    0.00007422   -0.00056043
     atom   17 type  2   force =     0.00005540    0.00007091   -0.00021570
     atom   18 type  2   force =    -0.00012073    0.00031525   -0.00052747
     atom   19 type  1   force =    -0.00062895    0.00010637   -0.00036071
     atom   20 type  1   force =     0.00014627   -0.00098976    0.00025730
     atom   21 type  2   force =     0.00009132   -0.00005022    0.10326811
     atom   22 type  2   force =     0.00043872   -0.00032184   -0.00003939
     atom   23 type  2   force =    -0.07150418   -0.00016342   -0.02768723
     atom   24 type  2   force =     0.07149508    0.00032759   -0.02777454
     atom   25 type  1   force =     0.00018944   -0.00022018    0.09622142
     atom   26 type  1   force =     0.00011050   -0.00028349   -0.17551897
     atom   27 type  2   force =     0.00022209   -0.00011692   -0.02386427
     atom   28 type  2   force =     0.00008917   -0.00110211    0.05285506
     atom   29 type  2   force =    -0.01199547    0.00068225    0.00233473
     atom   30 type  2   force =     0.01402761    0.00103265    0.00318552
     atom   31 type  1   force =     0.00114090    0.00335564   -0.01208395
     atom   32 type  1   force =    -0.00024428   -0.00974597    0.02864460
     atom   33 type  2   force =    -0.00017729    0.00031224   -0.00007967
     atom   34 type  2   force =    -0.00172965    0.00175709   -0.02357138
     atom   35 type  2   force =     0.00000874    0.00009223    0.00022002
     atom   36 type  2   force =     0.00055703    0.00012551    0.00020665
     atom   37 type  1   force =    -0.00098790   -0.00038410    0.00029362
     atom   38 type  1   force =     0.00022454   -0.00011986    0.00052289
     atom   39 type  2   force =    -0.00005874   -0.00054234   -0.00077458
     atom   40 type  2   force =    -0.00004459    0.00025438    0.00044019
     atom   41 type  2   force =    -0.00067749   -0.00046222   -0.00017407
     atom   42 type  2   force =    -0.00011550   -0.00074308   -0.00073281
     atom   43 type  1   force =    -0.00047602    0.00001475   -0.00011880
     atom   44 type  1   force =     0.00013402    0.00029904    0.00045577
     atom   45 type  2   force =     0.00006826   -0.00006803    0.10327405
     atom   46 type  2   force =    -0.07150965   -0.00007868   -0.02770056
     atom   47 type  2   force =     0.07152254    0.00034187   -0.02777908
     atom   48 type  3   force =     0.00097677   -0.00080539   -0.00028661
     atom   49 type  4   force =    -0.00171359    0.00889440   -0.00370420
     atom   50 type  5   force =     0.00030568    0.00046667   -0.00022292
     atom   51 type  5   force =     0.00010098   -0.01056221    0.00460432

     Total force =     0.368299     Total SCF correction =     0.000919
  @ DRIVER MODE: Message from server: STATUS
  @ DRIVER MODE: Message from server: GETFORCE
  @ DRIVER MODE: Returning v,forces,stress,ensemble 

     Writing output data file ./calc.save/
  @ DRIVER MODE: Message from server: EXIT
  @ DRIVE MODE: Exiting  
 
     init_run     :     10.76s CPU     11.00s WALL (       1 calls)
     electrons    :    763.01s CPU    774.97s WALL (       1 calls)
     forces       :      2.33s CPU      2.40s WALL (       1 calls)

     Called by init_run:
     wfcinit      :      4.76s CPU      4.85s WALL (       1 calls)
     potinit      :      5.34s CPU      5.41s WALL (       1 calls)
     hinit0       :      0.32s CPU      0.33s WALL (       1 calls)

     Called by electrons:
     c_bands      :    640.33s CPU    645.32s WALL (      53 calls)
     sum_band     :     82.21s CPU     85.04s WALL (      53 calls)
     v_of_rho     :     31.34s CPU     32.83s WALL (      54 calls)
     newd         :     12.23s CPU     14.88s WALL (      54 calls)
     mix_rho      :      1.32s CPU      1.34s WALL (      53 calls)
     vdW_kernel   :      4.55s CPU      4.56s WALL (       1 calls)

     Called by c_bands:
     init_us_2    :      4.78s CPU      4.82s WALL (    1080 calls)
     cegterg      :    626.20s CPU    630.96s WALL (     530 calls)

     Called by *egterg:
     cdiaghg      :    109.96s CPU    110.77s WALL (    5291 calls)
     h_psi        :    336.11s CPU    339.20s WALL (    5301 calls)
     s_psi        :     44.62s CPU     44.76s WALL (    5301 calls)
     g_psi        :      1.17s CPU      1.17s WALL (    4761 calls)

     Called by h_psi:
     h_psi:calbec :     41.78s CPU     41.99s WALL (    5301 calls)
     vloc_psi     :    247.19s CPU    249.64s WALL (    5301 calls)
     add_vuspsi   :     44.95s CPU     45.22s WALL (    5301 calls)

     General routines
     calbec       :     56.33s CPU     56.58s WALL (    5871 calls)
     fft          :     15.50s CPU     15.63s WALL (    3402 calls)
     ffts         :      0.13s CPU      0.13s WALL (     107 calls)
     fftw         :    280.39s CPU    283.17s WALL (  665258 calls)
     interpolate  :      0.40s CPU      0.41s WALL (      54 calls)
     davcio       :      0.00s CPU      0.09s WALL (      10 calls)
 
     Parallel routines
 
     PWSCF        :  12m56.47s CPU  13m 8.97s WALL

 
   This run was terminated on:   3:50:36   9Sep2021            

=------------------------------------------------------------------------------=
   JOB DONE.
=------------------------------------------------------------------------------=
