
     Program PWSCF v.6.7GPU starts on 16Sep2021 at  7:28:22 

     This program is part of the open-source Quantum ESPRESSO suite
     for quantum simulation of materials; please cite
         "P. Giannozzi et al., J. Phys.:Condens. Matter 21 395502 (2009);
         "P. Giannozzi et al., J. Phys.:Condens. Matter 29 465901 (2017);
         "P. Giannozzi et al., J. Chem. Phys. 152 154105 (2020);
          URL http://www.quantum-espresso.org", 
     in publications or presentations arising from this work. More details at
     http://www.quantum-espresso.org/quote

     Parallel version (MPI), running on    10 processors

     MPI processes distributed on     1 nodes
     R & G space division:  proc/nbgrp/npool/nimage =      10
     Reading input from /storage/home/hcoda1/3/ntian30/research/carbon/CxH_vib/H2O_calc/ads_slab/CH3NHNH2H2O_a/out_0045/pw.inp
Warning: card &CELL ignored
Warning: card   CELL_DYNAMICS='IPI', ignored
Warning: card / ignored

     Current dimensions of program PWSCF are:
     Max number of different atomic species (ntypx) = 10
     Max number of k-points (npk) =  40000
     Max angular momentum in pseudopotentials (lmaxx) =  3
     Presently no symmetry can be used with electric field

     Message from routine cell_base_init:
     DEPRECATED: use true lattice parameter, not A to a.u. conversion factor

     **************************************************************************
     Initializing libbeef V0.1.2 with the BEEF-vdW functional.
     Citation: Wellendorff et al., PRB 85, 235149 (2012).
     **************************************************************************


     IMPORTANT: XC functional enforced from input :
     Exchange-correlation= BEEF-VDW
                           (   1   4  43  14   2   0   0)
     Any further DFT definition will be discarded
     Please, verify this is what you really want


     Subspace diagonalization in iterative solution of the eigenvalue problem:
     one sub-group per band group will be used
     scalapack distributed-memory algorithm (size of sub-group:  3*  3 procs)

  @ DRIVER MODE: Connecting to 
 qe_1139763_2852619.sched-torque.pace.gatech.edu24mr49h3_scratch
  using UNIX socket
  @ DRIVER MODE: Message from server: STATUS
  @ DRIVER MODE: Message from server: INIT
  @ DRIVER MODE: Receiving replica           0          -1
  @ DRIVER MODE: Receiving encoded integer          25
  @ DRIVER MODE:  SCF:  T  FORCE:  T  STRESS:  F  VC:  F  ENSEMBLE:  F
  @ DRIVER MODE:  SCF:  T  FORCE:  T  STRESS:  F  VC:  F  ENSEMBLE:  F
 
     Parallelization info
     --------------------
     sticks:   dense  smooth     PW     G-vecs:    dense   smooth      PW
     Min         327     131     37                56683    14340    2191
     Max         328     133     38                56694    14346    2206
     Sum        3275    1317    379               566857   143421   21985
 
     Using Slab Decomposition
 


     bravais-lattice index     =            0
     lattice parameter (alat)  =       1.8897  a.u.
     unit-cell volume          =    6658.9804 (a.u.)^3
     number of atoms/cell      =           59
     number of atomic types    =            5
     number of electrons       =       406.00
     number of Kohn-Sham states=          213
     kinetic-energy cutoff     =      29.3995  Ry
     charge density cutoff     =     293.9946  Ry
     scf convergence threshold =      7.3E-08
     mixing beta               =       0.0500
     number of iterations used =            8  plain     mixing
     Exchange-correlation= BEEF-VDW
                           (   1   4  43  14   2   0   0)

     celldm(1)=   1.889726  celldm(2)=   0.000000  celldm(3)=   0.000000
     celldm(4)=   0.000000  celldm(5)=   0.000000  celldm(6)=   0.000000

     crystal axes: (cart. coord. in units of alat)
               a(1) = (   6.579727   0.000000   0.000000 )  
               a(2) = (  -0.000775   5.961596   0.000000 )  
               a(3) = (   0.000000   0.000000  25.155947 )  

     reciprocal axes: (cart. coord. in units 2 pi/alat)
               b(1) = (  0.151982  0.000020  0.000000 )  
               b(2) = (  0.000000  0.167740  0.000000 )  
               b(3) = (  0.000000  0.000000  0.039752 )  


     PseudoPot. # 1 for Ti read from file:
     /storage/coda1/p-amedford6/0/shared/rich_project_chbe-medford/medford-share/data/pseudos_module/espresso/nninc/pbe/van/Ti.UPF
     MD5 check sum: 8e4df49b7f0d34bbd5052bf3f5ea0213
     Pseudo is Ultrasoft, Zval = 12.0
     Generated by new atomic code, or converted to UPF format
     Using radial grid of  851 points,  6 beta functions with: 
                l(1) =   0
                l(2) =   0
                l(3) =   1
                l(4) =   1
                l(5) =   2
                l(6) =   2
     Q(r) pseudized with  8 coefficients,  rinner =    1.000   1.000   1.000
                                                       1.000   1.000

     PseudoPot. # 2 for O  read from file:
     /storage/coda1/p-amedford6/0/shared/rich_project_chbe-medford/medford-share/data/pseudos_module/espresso/nninc/pbe/van/O.UPF
     MD5 check sum: 78c19812648e8988a0fe644b0f25305e
     Pseudo is Ultrasoft, Zval =  6.0
     Generated by new atomic code, or converted to UPF format
     Using radial grid of  737 points,  4 beta functions with: 
                l(1) =   0
                l(2) =   0
                l(3) =   1
                l(4) =   1
     Q(r) pseudized with  8 coefficients,  rinner =    0.800   0.800   0.800


     PseudoPot. # 3 for N  read from file:
     /storage/coda1/p-amedford6/0/shared/rich_project_chbe-medford/medford-share/data/pseudos_module/espresso/nninc/pbe/van/N.UPF
     MD5 check sum: 90d10febe142ad51ac9d5be1deb811c4
     Pseudo is Ultrasoft, Zval =  5.0
     Generated by new atomic code, or converted to UPF format
     Using radial grid of  729 points,  4 beta functions with: 
                l(1) =   0
                l(2) =   0
                l(3) =   1
                l(4) =   1
     Q(r) pseudized with  8 coefficients,  rinner =    0.800   0.800   0.800


     PseudoPot. # 4 for C  read from file:
     /storage/coda1/p-amedford6/0/shared/rich_project_chbe-medford/medford-share/data/pseudos_module/espresso/nninc/pbe/van/C.UPF
     MD5 check sum: 1a69bf6b8db32088f5b2163dbdb77a27
     Pseudo is Ultrasoft, Zval =  4.0
     Generated by new atomic code, or converted to UPF format
     Using radial grid of  721 points,  4 beta functions with: 
                l(1) =   0
                l(2) =   0
                l(3) =   1
                l(4) =   1
     Q(r) pseudized with  8 coefficients,  rinner =    0.800   0.800   0.800


     PseudoPot. # 5 for H  read from file:
     /storage/coda1/p-amedford6/0/shared/rich_project_chbe-medford/medford-share/data/pseudos_module/espresso/nninc/pbe/van/H.UPF
     MD5 check sum: b5ee9d7bfd3a09ee7748110bda690ff7
     Pseudo is Ultrasoft, Zval =  1.0
     Generated by new atomic code, or converted to UPF format
     Using radial grid of  615 points,  1 beta functions with: 
                l(1) =   0
     Q(r) pseudized with  8 coefficients,  rinner =    0.800

     atomic species   valence    mass     pseudopotential
        Ti1           12.00    47.86700     Ti( 1.00)
        O1             6.00    15.99900     O ( 1.00)
        N1             5.00    14.00700     N ( 1.00)
        C1             4.00    12.01100     C ( 1.00)
        H1             1.00     1.00800     H ( 1.00)

     No symmetry found



   Cartesian axes

     site n.     atom                  positions (alat units)
         1           Ti1 tau(   1) = (   0.0004258   2.9801865   6.0000000  )
         2           Ti1 tau(   2) = (   3.2906075   1.4906267   6.0002472  )
         3           O1  tau(   3) = (   0.0006271   0.0005054   7.9858123  )
         4           O1  tau(   4) = (   3.2906025   0.0005020   7.3038282  )
         5           O1  tau(   5) = (   4.5942328   1.4918067   9.2879030  )
         6           O1  tau(   6) = (   1.9868534   1.4903216   9.2879459  )
         7           Ti1 tau(   7) = (   3.2907910   2.8959150   9.1758416  )
         8           Ti1 tau(   8) = (   0.0015273   1.4827037   9.2680791  )
         9           O1  tau(   9) = (   3.2683845   0.0132936  11.3796717  )
        10           O1  tau(  10) = (   0.0116148   5.9584955  10.6183126  )
        11           O1  tau(  11) = (   1.2681313   1.5011218  12.7194972  )
        12           O1  tau(  12) = (   5.2787963   1.4993765  12.6897032  )
        13           Ti1 tau(  13) = (   6.5560253   2.9823375  12.4990790  )
        14           Ti1 tau(  14) = (   3.2673924   1.4925278  12.5394213  )
        15           O1  tau(  15) = (   6.5345332   5.8735037  14.6996474  )
        16           O1  tau(  16) = (   3.2898196   5.9462848  13.9939205  )
        17           O1  tau(  17) = (   4.4957945   1.5291507  16.1605787  )
        18           O1  tau(  18) = (   1.9883785   1.5110281  16.0762771  )
        19           Ti1 tau(  19) = (   3.2526948   3.0056396  15.7740191  )
        20           Ti1 tau(  20) = (   0.0000763   1.3299063  15.8143521  )
        21           O1  tau(  21) = (   3.2904802   0.0005063   4.7018136  )
        22           O1  tau(  22) = (   6.5205728   0.2065101  17.2442985  )
        23           O1  tau(  23) = (   1.3043587   1.4918075   6.0039043  )
        24           O1  tau(  24) = (   5.2767064   1.4903225   6.0039473  )
        25           Ti1 tau(  25) = (   0.0000382   5.9609847   6.0000000  )
        26           Ti1 tau(  26) = (   3.2902200   4.4714249   6.0002472  )
        27           O1  tau(  27) = (   0.0002396   2.9813036   7.9858123  )
        28           O1  tau(  28) = (   3.2902150   2.9813002   7.3038282  )
        29           O1  tau(  29) = (   4.5938453   4.4726049   9.2879030  )
        30           O1  tau(  30) = (   1.9864658   4.4711199   9.2879459  )
        31           Ti1 tau(  31) = (   3.2891106   5.8743827   9.1763621  )
        32           Ti1 tau(  32) = (   0.0006254   4.4649316   9.2693709  )
        33           O1  tau(  33) = (   3.2688559   2.9716192  11.3757022  )
        34           O1  tau(  34) = (   0.0092240   2.9805883  10.6323155  )
        35           O1  tau(  35) = (   1.2711362   4.4646907  12.6658965  )
        36           O1  tau(  36) = (   5.2748280   4.4660984  12.6332574  )
        37           Ti1 tau(  37) = (   6.5627654   5.9477838  12.5072267  )
        38           Ti1 tau(  38) = (   3.2667511   4.4702655  12.5260729  )
        39           O1  tau(  39) = (   6.5087961   3.0586107  15.0099536  )
        40           O1  tau(  40) = (   3.2849776   3.0149387  13.9815115  )
        41           O1  tau(  41) = (   4.4906635   4.4862850  16.2792570  )
        42           O1  tau(  42) = (   1.9756856   4.4939852  16.2100911  )
        43           Ti1 tau(  43) = (   3.2747729   0.0241646  15.7895078  )
        44           Ti1 tau(  44) = (   6.5697470   4.5456975  16.1185117  )
        45           O1  tau(  45) = (   3.2900926   2.9813045   4.7018136  )
        46           O1  tau(  46) = (   1.3039711   4.4726057   6.0039043  )
        47           O1  tau(  47) = (   5.2763189   4.4711207   6.0039473  )
        48           N1  tau(  48) = (   0.9980056   3.0961469  19.0053282  )
        49           N1  tau(  49) = (   6.4063515   3.4839273  18.2229180  )
        50           C1  tau(  50) = (   1.6570833   4.2684698  19.5811903  )
        51           H1  tau(  51) = (   0.9936588   4.8902639  20.1979557  )
        52           H1  tau(  52) = (   2.4789334   3.9063689  20.1993048  )
        53           H1  tau(  53) = (   2.0598354   4.8861676  18.7819781  )
        54           H1  tau(  54) = (   0.6510520   2.5058952  19.7602174  )
        55           H1  tau(  55) = (   5.8507131   4.1635594  18.7414995  )
        56           H1  tau(  56) = (   5.8147758   2.6545292  18.1916272  )
        57           O1  tau(  57) = (   5.1718451   0.7889162  19.5681371  )
        58           H1  tau(  58) = (   5.5516362   0.5215711  18.6954158  )
        59           H1  tau(  59) = (   4.2099197   0.7512590  19.4668632  )

     number of k points=    10  Fermi-Dirac smearing, width (Ry)=  0.0073
                       cart. coord. in units 2pi/alat
        k(    1) = (   0.0000000   0.0000000   0.0000000), wk =   0.1250000
        k(    2) = (   0.0000000   0.0419351   0.0000000), wk =   0.2500000
        k(    3) = (   0.0000000  -0.0838702   0.0000000), wk =   0.1250000
        k(    4) = (   0.0379955   0.0000049   0.0000000), wk =   0.2500000
        k(    5) = (   0.0379955   0.0419400   0.0000000), wk =   0.2500000
        k(    6) = (   0.0379955  -0.0838652   0.0000000), wk =   0.2500000
        k(    7) = (   0.0379955  -0.0419301   0.0000000), wk =   0.2500000
        k(    8) = (  -0.0759910  -0.0000099   0.0000000), wk =   0.1250000
        k(    9) = (  -0.0759910   0.0419252   0.0000000), wk =   0.2500000
        k(   10) = (  -0.0759910  -0.0838800   0.0000000), wk =   0.1250000

     Dense  grid:   566857 G-vectors     FFT dimensions: (  72,  64, 270)

     Smooth grid:   143421 G-vectors     FFT dimensions: (  45,  40, 180)

     Estimated max dynamical RAM per process >     368.16 MB

     Estimated total dynamical RAM >       3.60 GB
     Cannot read rho : file not found

     Initial potential from superposition of free atoms

     starting charge  389.99912, renormalised to  406.00000

     negative rho (up, down):  1.389E-02 0.000E+00


     %%%%%%%%%%%%%%%%%%%%%%%%%%%%%%%%%%%%%%%%%%%%%%%%%%%%%%%%%%%%%%%%%%%%%%%%
     %                                                                      %
     % You are using vdW-DF, which was implemented by the Thonhauser group. %
     % Please cite the following two papers that made this development      %
     % possible and the two reviews that describe the various versions:     %
     %                                                                      %
     %   T. Thonhauser et al., PRL 115, 136402 (2015).                      %
     %   T. Thonhauser et al., PRB 76, 125112 (2007).                       %
     %   K. Berland et al., Rep. Prog. Phys. 78, 066501 (2015).             %
     %   D.C. Langreth et al., J. Phys.: Condens. Matter 21, 084203 (2009). %
     %                                                                      %
     %                                                                      %
     % If you are calculating the stress with vdW-DF, please also cite:     %
     %                                                                      %
     %   R. Sabatini et al., J. Phys.: Condens. Matter 24, 424209 (2012).   %
     %                                                                      %
     %%%%%%%%%%%%%%%%%%%%%%%%%%%%%%%%%%%%%%%%%%%%%%%%%%%%%%%%%%%%%%%%%%%%%%%%


 
     Adding external electric field

     Computed dipole along edir(3) : 
        Dipole              -16.7176 Ry au,        -42.4920 Debye
        Dipole field         -0.0315 Ry au, 
 
        Potential amp.        2.9245 Ry
        Total length         46.3494 bohr
 
     Starting wfcs are  308 atomic wfcs
  @ DRIVER MODE: Message from server: STATUS
  @ DRIVER MODE: Message from server: POSDATA
  @ DRIVER MODE: Reading and sharing cell 
  @ DRIVER MODE: Reading and sharing positions 
  @ DRIVER MODE: Received positions 

     total cpu time spent up to now is       11.4 secs

     Self-consistent Calculation

     iteration #  1     ecut=    29.40 Ry     beta= 0.05
     Davidson diagonalization with overlap
     c_bands:  2 eigenvalues not converged
     c_bands:  3 eigenvalues not converged
     c_bands:  2 eigenvalues not converged
     c_bands:  4 eigenvalues not converged
     c_bands:  1 eigenvalues not converged
     c_bands:  4 eigenvalues not converged
     c_bands:  3 eigenvalues not converged
     c_bands:  5 eigenvalues not converged
     c_bands:  3 eigenvalues not converged
     ethr =  1.00E-05,  avg # of iterations = 24.9

     negative rho (up, down):  7.397E-03 0.000E+00
 
     Adding external electric field

     Computed dipole along edir(3) : 
        Dipole               63.5339 Ry au,        161.4871 Debye
        Dipole field          0.1199 Ry au, 
 
        Potential amp.      -11.1143 Ry
        Total length         46.3494 bohr
 

     total cpu time spent up to now is       60.1 secs

     total energy              =   -2136.62948129 Ry
     estimated scf accuracy    <    9692.89796601 Ry

     iteration #  2     ecut=    29.40 Ry     beta= 0.05
     Davidson diagonalization with overlap
     ethr =  1.00E-02,  avg # of iterations = 32.3

     negative rho (up, down):  2.207E-04 0.000E+00
 
     Adding external electric field

     Computed dipole along edir(3) : 
        Dipole                0.5566 Ry au,          1.4147 Debye
        Dipole field          0.0011 Ry au, 
 
        Potential amp.       -0.0974 Ry
        Total length         46.3494 bohr
 

     total cpu time spent up to now is      160.2 secs

     total energy              =   -2438.54394218 Ry
     estimated scf accuracy    <   80174.98223179 Ry

     iteration #  3     ecut=    29.40 Ry     beta= 0.05
     Davidson diagonalization with overlap
     ethr =  1.00E-02,  avg # of iterations = 16.7

     negative rho (up, down):  2.579E-04 0.000E+00
 
     Adding external electric field

     Computed dipole along edir(3) : 
        Dipole               -3.0342 Ry au,         -7.7122 Debye
        Dipole field         -0.0057 Ry au, 
 
        Potential amp.        0.5308 Ry
        Total length         46.3494 bohr
 

     total cpu time spent up to now is      210.9 secs

     total energy              =   -2970.39036282 Ry
     estimated scf accuracy    <    8246.10707215 Ry

     iteration #  4     ecut=    29.40 Ry     beta= 0.05
     Davidson diagonalization with overlap
     ethr =  1.00E-02,  avg # of iterations = 10.9

     negative rho (up, down):  2.730E-04 0.000E+00
 
     Adding external electric field

     Computed dipole along edir(3) : 
        Dipole               -4.8230 Ry au,        -12.2590 Debye
        Dipole field         -0.0091 Ry au, 
 
        Potential amp.        0.8437 Ry
        Total length         46.3494 bohr
 

     total cpu time spent up to now is      234.1 secs

     total energy              =   -2971.32908910 Ry
     estimated scf accuracy    <    2720.90535624 Ry

     iteration #  5     ecut=    29.40 Ry     beta= 0.05
     Davidson diagonalization with overlap
     c_bands:  4 eigenvalues not converged
     ethr =  1.00E-02,  avg # of iterations = 10.1

     negative rho (up, down):  3.158E-04 0.000E+00
 
     Adding external electric field

     Computed dipole along edir(3) : 
        Dipole               -7.6008 Ry au,        -19.3194 Debye
        Dipole field         -0.0143 Ry au, 
 
        Potential amp.        1.3297 Ry
        Total length         46.3494 bohr
 

     total cpu time spent up to now is      249.1 secs

     total energy              =   -2944.42168938 Ry
     estimated scf accuracy    <    1837.17241374 Ry

     iteration #  6     ecut=    29.40 Ry     beta= 0.05
     Davidson diagonalization with overlap
     ethr =  1.00E-02,  avg # of iterations = 13.1

     negative rho (up, down):  3.069E-04 0.000E+00
 
     Adding external electric field

     Computed dipole along edir(3) : 
        Dipole               -5.9675 Ry au,        -15.1678 Debye
        Dipole field         -0.0113 Ry au, 
 
        Potential amp.        1.0439 Ry
        Total length         46.3494 bohr
 

     total cpu time spent up to now is      275.3 secs

     total energy              =   -2982.15116724 Ry
     estimated scf accuracy    <      63.36341578 Ry

     iteration #  7     ecut=    29.40 Ry     beta= 0.05
     Davidson diagonalization with overlap
     ethr =  1.00E-02,  avg # of iterations =  2.6

     negative rho (up, down):  3.062E-04 0.000E+00
 
     Adding external electric field

     Computed dipole along edir(3) : 
        Dipole               -5.2481 Ry au,        -13.3394 Debye
        Dipole field         -0.0099 Ry au, 
 
        Potential amp.        0.9181 Ry
        Total length         46.3494 bohr
 

     total cpu time spent up to now is      286.3 secs

     total energy              =   -2981.88344204 Ry
     estimated scf accuracy    <      27.75863097 Ry

     iteration #  8     ecut=    29.40 Ry     beta= 0.05
     Davidson diagonalization with overlap
     ethr =  6.84E-03,  avg # of iterations =  1.7

     negative rho (up, down):  3.115E-04 0.000E+00
 
     Adding external electric field

     Computed dipole along edir(3) : 
        Dipole               -4.1444 Ry au,        -10.5340 Debye
        Dipole field         -0.0078 Ry au, 
 
        Potential amp.        0.7250 Ry
        Total length         46.3494 bohr
 

     total cpu time spent up to now is      296.8 secs

     total energy              =   -2981.16990670 Ry
     estimated scf accuracy    <      24.64744224 Ry

     iteration #  9     ecut=    29.40 Ry     beta= 0.05
     Davidson diagonalization with overlap
     ethr =  6.07E-03,  avg # of iterations =  2.3

     negative rho (up, down):  3.460E-04 0.000E+00
 
     Adding external electric field

     Computed dipole along edir(3) : 
        Dipole               -0.0129 Ry au,         -0.0327 Debye
        Dipole field         -0.0000 Ry au, 
 
        Potential amp.        0.0023 Ry
        Total length         46.3494 bohr
 

     total cpu time spent up to now is      307.4 secs

     total energy              =   -2979.16057475 Ry
     estimated scf accuracy    <      20.39110134 Ry

     iteration # 10     ecut=    29.40 Ry     beta= 0.05
     Davidson diagonalization with overlap
     c_bands:  2 eigenvalues not converged
     c_bands:  1 eigenvalues not converged
     c_bands:  3 eigenvalues not converged
     c_bands:  2 eigenvalues not converged
     c_bands:  2 eigenvalues not converged
     c_bands:  4 eigenvalues not converged
     c_bands:  1 eigenvalues not converged
     ethr =  5.02E-03,  avg # of iterations = 20.0

     negative rho (up, down):  3.853E-04 0.000E+00
 
     Adding external electric field

     Computed dipole along edir(3) : 
        Dipole               -1.5050 Ry au,         -3.8254 Debye
        Dipole field         -0.0028 Ry au, 
 
        Potential amp.        0.2633 Ry
        Total length         46.3494 bohr
 

     total cpu time spent up to now is      330.3 secs

     total energy              =   -2980.40812957 Ry
     estimated scf accuracy    <    2577.87911556 Ry

     iteration # 11     ecut=    29.40 Ry     beta= 0.05
     Davidson diagonalization with overlap
     ethr =  5.02E-03,  avg # of iterations =  2.0

     negative rho (up, down):  4.058E-04 0.000E+00
 
     Adding external electric field

     Computed dipole along edir(3) : 
        Dipole               -2.3520 Ry au,         -5.9782 Debye
        Dipole field         -0.0044 Ry au, 
 
        Potential amp.        0.4114 Ry
        Total length         46.3494 bohr
 

     total cpu time spent up to now is      341.4 secs

     total energy              =   -2974.31281047 Ry
     estimated scf accuracy    <    1666.01474447 Ry

     iteration # 12     ecut=    29.40 Ry     beta= 0.05
     Davidson diagonalization with overlap
     ethr =  5.02E-03,  avg # of iterations =  2.1

     negative rho (up, down):  4.690E-04 0.000E+00
 
     Adding external electric field

     Computed dipole along edir(3) : 
        Dipole               -4.5128 Ry au,        -11.4705 Debye
        Dipole field         -0.0085 Ry au, 
 
        Potential amp.        0.7895 Ry
        Total length         46.3494 bohr
 

     total cpu time spent up to now is      352.2 secs

     total energy              =   -2953.93957183 Ry
     estimated scf accuracy    <    1610.62055885 Ry

     iteration # 13     ecut=    29.40 Ry     beta= 0.05
     Davidson diagonalization with overlap
     ethr =  5.02E-03,  avg # of iterations = 15.5

     negative rho (up, down):  5.095E-04 0.000E+00
 
     Adding external electric field

     Computed dipole along edir(3) : 
        Dipole               -1.6808 Ry au,         -4.2723 Debye
        Dipole field         -0.0032 Ry au, 
 
        Potential amp.        0.2940 Ry
        Total length         46.3494 bohr
 

     total cpu time spent up to now is      380.9 secs

     total energy              =   -2975.94397160 Ry
     estimated scf accuracy    <      53.52045230 Ry

     iteration # 14     ecut=    29.40 Ry     beta= 0.05
     Davidson diagonalization with overlap
     ethr =  5.02E-03,  avg # of iterations =  2.4

     negative rho (up, down):  6.141E-04 0.000E+00
 
     Adding external electric field

     Computed dipole along edir(3) : 
        Dipole               -1.0051 Ry au,         -2.5546 Debye
        Dipole field         -0.0019 Ry au, 
 
        Potential amp.        0.1758 Ry
        Total length         46.3494 bohr
 

     total cpu time spent up to now is      392.1 secs

     total energy              =   -2977.75851251 Ry
     estimated scf accuracy    <       3.12587023 Ry

     iteration # 15     ecut=    29.40 Ry     beta= 0.05
     Davidson diagonalization with overlap
     c_bands:  1 eigenvalues not converged
     c_bands:  3 eigenvalues not converged
     c_bands:  1 eigenvalues not converged
     c_bands:  1 eigenvalues not converged
     c_bands:  2 eigenvalues not converged
     ethr =  7.70E-04,  avg # of iterations = 18.3

     negative rho (up, down):  6.084E-04 0.000E+00
 
     Adding external electric field

     Computed dipole along edir(3) : 
        Dipole               -1.1450 Ry au,         -2.9103 Debye
        Dipole field         -0.0022 Ry au, 
 
        Potential amp.        0.2003 Ry
        Total length         46.3494 bohr
 

     total cpu time spent up to now is      414.1 secs

     total energy              =   -2978.27411681 Ry
     estimated scf accuracy    <      37.07709178 Ry

     iteration # 16     ecut=    29.40 Ry     beta= 0.05
     Davidson diagonalization with overlap
     c_bands:  1 eigenvalues not converged
     ethr =  7.70E-04,  avg # of iterations =  9.8

     negative rho (up, down):  5.784E-04 0.000E+00
 
     Adding external electric field

     Computed dipole along edir(3) : 
        Dipole               -2.4937 Ry au,         -6.3383 Debye
        Dipole field         -0.0047 Ry au, 
 
        Potential amp.        0.4362 Ry
        Total length         46.3494 bohr
 

     total cpu time spent up to now is      427.7 secs

     total energy              =   -2977.08419893 Ry
     estimated scf accuracy    <      22.27800340 Ry

     iteration # 17     ecut=    29.40 Ry     beta= 0.05
     Davidson diagonalization with overlap
     c_bands:  1 eigenvalues not converged
     c_bands:  3 eigenvalues not converged
     ethr =  7.70E-04,  avg # of iterations = 14.3

     negative rho (up, down):  6.216E-04 0.000E+00
 
     Adding external electric field

     Computed dipole along edir(3) : 
        Dipole               -3.1644 Ry au,         -8.0430 Debye
        Dipole field         -0.0060 Ry au, 
 
        Potential amp.        0.5536 Ry
        Total length         46.3494 bohr
 

     total cpu time spent up to now is      445.6 secs

     total energy              =   -2978.33018013 Ry
     estimated scf accuracy    <       5.57061951 Ry

     iteration # 18     ecut=    29.40 Ry     beta= 0.05
     Davidson diagonalization with overlap
     ethr =  7.70E-04,  avg # of iterations =  6.6

     negative rho (up, down):  7.032E-04 0.000E+00
 
     Adding external electric field

     Computed dipole along edir(3) : 
        Dipole               -2.9201 Ry au,         -7.4222 Debye
        Dipole field         -0.0055 Ry au, 
 
        Potential amp.        0.5108 Ry
        Total length         46.3494 bohr
 

     total cpu time spent up to now is      458.5 secs

     total energy              =   -2978.36158523 Ry
     estimated scf accuracy    <      10.68208039 Ry

     iteration # 19     ecut=    29.40 Ry     beta= 0.05
     Davidson diagonalization with overlap
     ethr =  7.70E-04,  avg # of iterations =  2.5

     negative rho (up, down):  8.771E-04 0.000E+00
 
     Adding external electric field

     Computed dipole along edir(3) : 
        Dipole               -1.7917 Ry au,         -4.5541 Debye
        Dipole field         -0.0034 Ry au, 
 
        Potential amp.        0.3134 Ry
        Total length         46.3494 bohr
 

     total cpu time spent up to now is      469.0 secs

     total energy              =   -2977.82340728 Ry
     estimated scf accuracy    <      12.88948082 Ry

     iteration # 20     ecut=    29.40 Ry     beta= 0.05
     Davidson diagonalization with overlap
     ethr =  7.70E-04,  avg # of iterations =  1.9

     negative rho (up, down):  1.155E-03 0.000E+00
 
     Adding external electric field

     Computed dipole along edir(3) : 
        Dipole               -0.5685 Ry au,         -1.4450 Debye
        Dipole field         -0.0011 Ry au, 
 
        Potential amp.        0.0994 Ry
        Total length         46.3494 bohr
 

     total cpu time spent up to now is      479.6 secs

     total energy              =   -2977.56614416 Ry
     estimated scf accuracy    <       4.32885976 Ry

     iteration # 21     ecut=    29.40 Ry     beta= 0.05
     Davidson diagonalization with overlap
     c_bands:  1 eigenvalues not converged
     c_bands:  1 eigenvalues not converged
     ethr =  7.70E-04,  avg # of iterations = 14.3

     negative rho (up, down):  1.142E-03 0.000E+00
 
     Adding external electric field

     Computed dipole along edir(3) : 
        Dipole               -0.3058 Ry au,         -0.7773 Debye
        Dipole field         -0.0006 Ry au, 
 
        Potential amp.        0.0535 Ry
        Total length         46.3494 bohr
 

     total cpu time spent up to now is      495.1 secs

     total energy              =   -2977.82972383 Ry
     estimated scf accuracy    <       1.67057865 Ry

     iteration # 22     ecut=    29.40 Ry     beta= 0.05
     Davidson diagonalization with overlap
     c_bands:  1 eigenvalues not converged
     c_bands:  3 eigenvalues not converged
     c_bands:  2 eigenvalues not converged
     c_bands:  1 eigenvalues not converged
     c_bands:  1 eigenvalues not converged
     ethr =  4.11E-04,  avg # of iterations = 14.7

     negative rho (up, down):  1.016E-03 0.000E+00
 
     Adding external electric field

     Computed dipole along edir(3) : 
        Dipole               -0.7121 Ry au,         -1.8100 Debye
        Dipole field         -0.0013 Ry au, 
 
        Potential amp.        0.1246 Ry
        Total length         46.3494 bohr
 

     total cpu time spent up to now is      510.7 secs

     total energy              =   -2977.84089361 Ry
     estimated scf accuracy    <       1.85237553 Ry

     iteration # 23     ecut=    29.40 Ry     beta= 0.05
     Davidson diagonalization with overlap
     ethr =  4.11E-04,  avg # of iterations =  1.5

     negative rho (up, down):  1.679E-03 0.000E+00
 
     Adding external electric field

     Computed dipole along edir(3) : 
        Dipole               -0.2083 Ry au,         -0.5294 Debye
        Dipole field         -0.0004 Ry au, 
 
        Potential amp.        0.0364 Ry
        Total length         46.3494 bohr
 

     total cpu time spent up to now is      521.3 secs

     total energy              =   -2977.94186631 Ry
     estimated scf accuracy    <       1.78351558 Ry

     iteration # 24     ecut=    29.40 Ry     beta= 0.05
     Davidson diagonalization with overlap
     c_bands:  1 eigenvalues not converged
     c_bands:  1 eigenvalues not converged
     ethr =  4.11E-04,  avg # of iterations = 10.4

     negative rho (up, down):  1.514E-03 0.000E+00
 
     Adding external electric field

     Computed dipole along edir(3) : 
        Dipole                0.5542 Ry au,          1.4087 Debye
        Dipole field          0.0010 Ry au, 
 
        Potential amp.       -0.0970 Ry
        Total length         46.3494 bohr
 

     total cpu time spent up to now is      535.1 secs

     total energy              =   -2977.97463398 Ry
     estimated scf accuracy    <       2.76442282 Ry

     iteration # 25     ecut=    29.40 Ry     beta= 0.05
     Davidson diagonalization with overlap
     c_bands:  1 eigenvalues not converged
     ethr =  4.11E-04,  avg # of iterations =  9.6

     negative rho (up, down):  1.367E-03 0.000E+00
 
     Adding external electric field

     Computed dipole along edir(3) : 
        Dipole                0.9610 Ry au,          2.4426 Debye
        Dipole field          0.0018 Ry au, 
 
        Potential amp.       -0.1681 Ry
        Total length         46.3494 bohr
 

     total cpu time spent up to now is      548.9 secs

     total energy              =   -2978.52954983 Ry
     estimated scf accuracy    <      25.24761772 Ry

     iteration # 26     ecut=    29.40 Ry     beta= 0.05
     Davidson diagonalization with overlap
     c_bands:  1 eigenvalues not converged
     c_bands:  3 eigenvalues not converged
     c_bands:  4 eigenvalues not converged
     c_bands:  2 eigenvalues not converged
     c_bands:  3 eigenvalues not converged
     c_bands:  2 eigenvalues not converged
     c_bands:  4 eigenvalues not converged
     ethr =  4.11E-04,  avg # of iterations = 20.5

     negative rho (up, down):  1.599E-03 0.000E+00
 
     Adding external electric field

     Computed dipole along edir(3) : 
        Dipole                0.2312 Ry au,          0.5876 Debye
        Dipole field          0.0004 Ry au, 
 
        Potential amp.       -0.0404 Ry
        Total length         46.3494 bohr
 

     total cpu time spent up to now is      570.4 secs

     total energy              =   -2977.02721960 Ry
     estimated scf accuracy    <     125.82510014 Ry

     iteration # 27     ecut=    29.40 Ry     beta= 0.05
     Davidson diagonalization with overlap
     c_bands:  1 eigenvalues not converged
     c_bands:  1 eigenvalues not converged
     ethr =  4.11E-04,  avg # of iterations = 17.1

     negative rho (up, down):  1.430E-03 0.000E+00
 
     Adding external electric field

     Computed dipole along edir(3) : 
        Dipole               -0.1413 Ry au,         -0.3591 Debye
        Dipole field         -0.0003 Ry au, 
 
        Potential amp.        0.0247 Ry
        Total length         46.3494 bohr
 

     total cpu time spent up to now is      589.8 secs

     total energy              =   -2977.81532107 Ry
     estimated scf accuracy    <       4.98659531 Ry

     iteration # 28     ecut=    29.40 Ry     beta= 0.05
     Davidson diagonalization with overlap
     ethr =  4.11E-04,  avg # of iterations =  1.0

     negative rho (up, down):  1.400E-03 0.000E+00
 
     Adding external electric field

     Computed dipole along edir(3) : 
        Dipole               -0.1435 Ry au,         -0.3647 Debye
        Dipole field         -0.0003 Ry au, 
 
        Potential amp.        0.0251 Ry
        Total length         46.3494 bohr
 

     total cpu time spent up to now is      599.9 secs

     total energy              =   -2977.84613724 Ry
     estimated scf accuracy    <       2.94146265 Ry

     iteration # 29     ecut=    29.40 Ry     beta= 0.05
     Davidson diagonalization with overlap
     ethr =  4.11E-04,  avg # of iterations =  1.0

     negative rho (up, down):  1.614E-03 0.000E+00
 
     Adding external electric field

     Computed dipole along edir(3) : 
        Dipole               -0.0421 Ry au,         -0.1069 Debye
        Dipole field         -0.0001 Ry au, 
 
        Potential amp.        0.0074 Ry
        Total length         46.3494 bohr
 

     total cpu time spent up to now is      610.0 secs

     total energy              =   -2977.84483313 Ry
     estimated scf accuracy    <       2.87592812 Ry

     iteration # 30     ecut=    29.40 Ry     beta= 0.05
     Davidson diagonalization with overlap
     ethr =  4.11E-04,  avg # of iterations =  3.2

     negative rho (up, down):  1.486E-03 0.000E+00
 
     Adding external electric field

     Computed dipole along edir(3) : 
        Dipole               -0.9978 Ry au,         -2.5360 Debye
        Dipole field         -0.0019 Ry au, 
 
        Potential amp.        0.1745 Ry
        Total length         46.3494 bohr
 

     total cpu time spent up to now is      621.4 secs

     total energy              =   -2977.55817339 Ry
     estimated scf accuracy    <       6.14480253 Ry

     iteration # 31     ecut=    29.40 Ry     beta= 0.05
     Davidson diagonalization with overlap
     c_bands:  2 eigenvalues not converged
     c_bands:  1 eigenvalues not converged
     c_bands:  1 eigenvalues not converged
     c_bands:  1 eigenvalues not converged
     c_bands:  1 eigenvalues not converged
     ethr =  4.11E-04,  avg # of iterations = 18.9

     negative rho (up, down):  1.399E-03 0.000E+00
 
     Adding external electric field

     Computed dipole along edir(3) : 
        Dipole               -1.4475 Ry au,         -3.6791 Debye
        Dipole field         -0.0027 Ry au, 
 
        Potential amp.        0.2532 Ry
        Total length         46.3494 bohr
 

     total cpu time spent up to now is      641.6 secs

     total energy              =   -2978.23086713 Ry
     estimated scf accuracy    <      22.02545297 Ry

     iteration # 32     ecut=    29.40 Ry     beta= 0.05
     Davidson diagonalization with overlap
     ethr =  4.11E-04,  avg # of iterations =  3.5

     negative rho (up, down):  1.405E-03 0.000E+00
 
     Adding external electric field

     Computed dipole along edir(3) : 
        Dipole               -1.4135 Ry au,         -3.5929 Debye
        Dipole field         -0.0027 Ry au, 
 
        Potential amp.        0.2473 Ry
        Total length         46.3494 bohr
 

     total cpu time spent up to now is      652.9 secs

     total energy              =   -2978.29891239 Ry
     estimated scf accuracy    <      62.25574533 Ry

     iteration # 33     ecut=    29.40 Ry     beta= 0.05
     Davidson diagonalization with overlap
     ethr =  4.11E-04,  avg # of iterations =  1.0

     negative rho (up, down):  1.202E-03 0.000E+00
 
     Adding external electric field

     Computed dipole along edir(3) : 
        Dipole               -0.6583 Ry au,         -1.6733 Debye
        Dipole field         -0.0012 Ry au, 
 
        Potential amp.        0.1152 Ry
        Total length         46.3494 bohr
 

     total cpu time spent up to now is      663.0 secs

     total energy              =   -2976.82575786 Ry
     estimated scf accuracy    <      62.72628872 Ry

     iteration # 34     ecut=    29.40 Ry     beta= 0.05
     Davidson diagonalization with overlap
     ethr =  4.11E-04,  avg # of iterations =  8.5

     negative rho (up, down):  1.255E-03 0.000E+00
 
     Adding external electric field

     Computed dipole along edir(3) : 
        Dipole               -0.4897 Ry au,         -1.2446 Debye
        Dipole field         -0.0009 Ry au, 
 
        Potential amp.        0.0857 Ry
        Total length         46.3494 bohr
 

     total cpu time spent up to now is      676.2 secs

     total energy              =   -2977.69823374 Ry
     estimated scf accuracy    <       1.13262616 Ry

     iteration # 35     ecut=    29.40 Ry     beta= 0.05
     Davidson diagonalization with overlap
     c_bands:  1 eigenvalues not converged
     ethr =  2.79E-04,  avg # of iterations = 12.6

     negative rho (up, down):  1.392E-03 0.000E+00
 
     Adding external electric field

     Computed dipole along edir(3) : 
        Dipole               -0.2288 Ry au,         -0.5816 Debye
        Dipole field         -0.0004 Ry au, 
 
        Potential amp.        0.0400 Ry
        Total length         46.3494 bohr
 

     total cpu time spent up to now is      691.4 secs

     total energy              =   -2977.82617218 Ry
     estimated scf accuracy    <       1.39815661 Ry

     iteration # 36     ecut=    29.40 Ry     beta= 0.05
     Davidson diagonalization with overlap
     ethr =  2.79E-04,  avg # of iterations =  1.5

     negative rho (up, down):  1.627E-03 0.000E+00
 
     Adding external electric field

     Computed dipole along edir(3) : 
        Dipole               -0.1130 Ry au,         -0.2872 Debye
        Dipole field         -0.0002 Ry au, 
 
        Potential amp.        0.0198 Ry
        Total length         46.3494 bohr
 

     total cpu time spent up to now is      701.9 secs

     total energy              =   -2977.86318862 Ry
     estimated scf accuracy    <       1.61571676 Ry

     iteration # 37     ecut=    29.40 Ry     beta= 0.05
     Davidson diagonalization with overlap
     ethr =  2.79E-04,  avg # of iterations =  4.3

     negative rho (up, down):  1.513E-03 0.000E+00
 
     Adding external electric field

     Computed dipole along edir(3) : 
        Dipole               -0.0452 Ry au,         -0.1150 Debye
        Dipole field         -0.0001 Ry au, 
 
        Potential amp.        0.0079 Ry
        Total length         46.3494 bohr
 

     total cpu time spent up to now is      713.6 secs

     total energy              =   -2977.86259881 Ry
     estimated scf accuracy    <       1.85501178 Ry

     iteration # 38     ecut=    29.40 Ry     beta= 0.05
     Davidson diagonalization with overlap
     ethr =  2.79E-04,  avg # of iterations =  1.6

     negative rho (up, down):  1.421E-03 0.000E+00
 
     Adding external electric field

     Computed dipole along edir(3) : 
        Dipole               -0.1212 Ry au,         -0.3080 Debye
        Dipole field         -0.0002 Ry au, 
 
        Potential amp.        0.0212 Ry
        Total length         46.3494 bohr
 

     total cpu time spent up to now is      724.3 secs

     total energy              =   -2977.81840900 Ry
     estimated scf accuracy    <       1.59928802 Ry

     iteration # 39     ecut=    29.40 Ry     beta= 0.05
     Davidson diagonalization with overlap
     ethr =  2.79E-04,  avg # of iterations =  4.0

     negative rho (up, down):  1.409E-03 0.000E+00
 
     Adding external electric field

     Computed dipole along edir(3) : 
        Dipole               -0.2768 Ry au,         -0.7036 Debye
        Dipole field         -0.0005 Ry au, 
 
        Potential amp.        0.0484 Ry
        Total length         46.3494 bohr
 

     total cpu time spent up to now is      735.4 secs

     total energy              =   -2977.74985668 Ry
     estimated scf accuracy    <       1.48556189 Ry

     iteration # 40     ecut=    29.40 Ry     beta= 0.05
     Davidson diagonalization with overlap
     ethr =  2.79E-04,  avg # of iterations =  6.5

     negative rho (up, down):  1.262E-03 0.000E+00
 
     Adding external electric field

     Computed dipole along edir(3) : 
        Dipole               -0.2707 Ry au,         -0.6881 Debye
        Dipole field         -0.0005 Ry au, 
 
        Potential amp.        0.0474 Ry
        Total length         46.3494 bohr
 

     total cpu time spent up to now is      747.8 secs

     total energy              =   -2977.64092897 Ry
     estimated scf accuracy    <       1.03752475 Ry

     iteration # 41     ecut=    29.40 Ry     beta= 0.05
     Davidson diagonalization with overlap
     c_bands:  5 eigenvalues not converged
     c_bands:  3 eigenvalues not converged
     c_bands:  4 eigenvalues not converged
     c_bands:  1 eigenvalues not converged
     c_bands:  4 eigenvalues not converged
     c_bands:  2 eigenvalues not converged
     ethr =  2.56E-04,  avg # of iterations = 22.8

     negative rho (up, down):  1.249E-03 0.000E+00
 
     Adding external electric field

     Computed dipole along edir(3) : 
        Dipole               -0.2992 Ry au,         -0.7606 Debye
        Dipole field         -0.0006 Ry au, 
 
        Potential amp.        0.0523 Ry
        Total length         46.3494 bohr
 

     total cpu time spent up to now is      770.6 secs

     total energy              =   -2977.74162203 Ry
     estimated scf accuracy    <       1.53693296 Ry

     iteration # 42     ecut=    29.40 Ry     beta= 0.05
     Davidson diagonalization with overlap
     ethr =  2.56E-04,  avg # of iterations =  1.5

     negative rho (up, down):  1.407E-03 0.000E+00
 
     Adding external electric field

     Computed dipole along edir(3) : 
        Dipole               -0.2755 Ry au,         -0.7003 Debye
        Dipole field         -0.0005 Ry au, 
 
        Potential amp.        0.0482 Ry
        Total length         46.3494 bohr
 

     total cpu time spent up to now is      781.2 secs

     total energy              =   -2977.61499479 Ry
     estimated scf accuracy    <       1.15398984 Ry

     iteration # 43     ecut=    29.40 Ry     beta= 0.05
     Davidson diagonalization with overlap
     c_bands:  4 eigenvalues not converged
     c_bands:  2 eigenvalues not converged
     c_bands:  3 eigenvalues not converged
     c_bands:  3 eigenvalues not converged
     c_bands:  1 eigenvalues not converged
     ethr =  2.56E-04,  avg # of iterations = 16.1

     negative rho (up, down):  1.644E-03 0.000E+00
 
     Adding external electric field

     Computed dipole along edir(3) : 
        Dipole               -0.3219 Ry au,         -0.8181 Debye
        Dipole field         -0.0006 Ry au, 
 
        Potential amp.        0.0563 Ry
        Total length         46.3494 bohr
 

     total cpu time spent up to now is      798.2 secs

     total energy              =   -2977.71497140 Ry
     estimated scf accuracy    <       1.01454298 Ry

     iteration # 44     ecut=    29.40 Ry     beta= 0.05
     Davidson diagonalization with overlap
     ethr =  2.50E-04,  avg # of iterations =  2.1

     negative rho (up, down):  2.069E-03 0.000E+00
 
     Adding external electric field

     Computed dipole along edir(3) : 
        Dipole                0.1584 Ry au,          0.4026 Debye
        Dipole field          0.0003 Ry au, 
 
        Potential amp.       -0.0277 Ry
        Total length         46.3494 bohr
 

     total cpu time spent up to now is      809.3 secs

     total energy              =   -2977.68980098 Ry
     estimated scf accuracy    <       1.04356611 Ry

     iteration # 45     ecut=    29.40 Ry     beta= 0.05
     Davidson diagonalization with overlap
     ethr =  2.50E-04,  avg # of iterations =  3.6

     negative rho (up, down):  2.810E-03 0.000E+00
 
     Adding external electric field

     Computed dipole along edir(3) : 
        Dipole                0.5618 Ry au,          1.4279 Debye
        Dipole field          0.0011 Ry au, 
 
        Potential amp.       -0.0983 Ry
        Total length         46.3494 bohr
 

     total cpu time spent up to now is      820.6 secs

     total energy              =   -2977.67802209 Ry
     estimated scf accuracy    <       0.56735159 Ry

     iteration # 46     ecut=    29.40 Ry     beta= 0.05
     Davidson diagonalization with overlap
     ethr =  1.40E-04,  avg # of iterations =  6.2

     negative rho (up, down):  3.258E-03 0.000E+00
 
     Adding external electric field

     Computed dipole along edir(3) : 
        Dipole                0.5870 Ry au,          1.4920 Debye
        Dipole field          0.0011 Ry au, 
 
        Potential amp.       -0.1027 Ry
        Total length         46.3494 bohr
 

     total cpu time spent up to now is      832.7 secs

     total energy              =   -2977.67706296 Ry
     estimated scf accuracy    <       0.20636942 Ry

     iteration # 47     ecut=    29.40 Ry     beta= 0.05
     Davidson diagonalization with overlap
     c_bands:  1 eigenvalues not converged
     ethr =  5.08E-05,  avg # of iterations = 15.6

     negative rho (up, down):  3.512E-03 0.000E+00
 
     Adding external electric field

     Computed dipole along edir(3) : 
        Dipole                0.7089 Ry au,          1.8018 Debye
        Dipole field          0.0013 Ry au, 
 
        Potential amp.       -0.1240 Ry
        Total length         46.3494 bohr
 

     total cpu time spent up to now is      849.3 secs

     total energy              =   -2977.68137811 Ry
     estimated scf accuracy    <       0.21034650 Ry

     iteration # 48     ecut=    29.40 Ry     beta= 0.05
     Davidson diagonalization with overlap
     c_bands:  1 eigenvalues not converged
     c_bands:  3 eigenvalues not converged
     c_bands:  4 eigenvalues not converged
     ethr =  5.08E-05,  avg # of iterations = 10.0

     negative rho (up, down):  3.514E-03 0.000E+00
 
     Adding external electric field

     Computed dipole along edir(3) : 
        Dipole                0.7255 Ry au,          1.8441 Debye
        Dipole field          0.0014 Ry au, 
 
        Potential amp.       -0.1269 Ry
        Total length         46.3494 bohr
 

     total cpu time spent up to now is      862.2 secs

     total energy              =   -2977.68540987 Ry
     estimated scf accuracy    <       0.05611510 Ry

     iteration # 49     ecut=    29.40 Ry     beta= 0.05
     Davidson diagonalization with overlap
     c_bands:  3 eigenvalues not converged
     c_bands:  1 eigenvalues not converged
     c_bands:  1 eigenvalues not converged
     c_bands:  1 eigenvalues not converged
     c_bands:  2 eigenvalues not converged
     c_bands:  3 eigenvalues not converged
     ethr =  1.38E-05,  avg # of iterations = 18.2

     negative rho (up, down):  4.080E-03 0.000E+00
 
     Adding external electric field

     Computed dipole along edir(3) : 
        Dipole                0.8767 Ry au,          2.2284 Debye
        Dipole field          0.0017 Ry au, 
 
        Potential amp.       -0.1534 Ry
        Total length         46.3494 bohr
 

     total cpu time spent up to now is      880.4 secs

     total energy              =   -2977.68219463 Ry
     estimated scf accuracy    <       0.08747625 Ry

     iteration # 50     ecut=    29.40 Ry     beta= 0.05
     Davidson diagonalization with overlap
     c_bands:  1 eigenvalues not converged
     c_bands:  4 eigenvalues not converged
     c_bands:  1 eigenvalues not converged
     c_bands:  4 eigenvalues not converged
     c_bands:  1 eigenvalues not converged
     c_bands:  1 eigenvalues not converged
     c_bands:  5 eigenvalues not converged
     c_bands:  1 eigenvalues not converged
     ethr =  1.38E-05,  avg # of iterations = 19.6

     negative rho (up, down):  4.771E-03 0.000E+00
 
     Adding external electric field

     Computed dipole along edir(3) : 
        Dipole                0.8952 Ry au,          2.2754 Debye
        Dipole field          0.0017 Ry au, 
 
        Potential amp.       -0.1566 Ry
        Total length         46.3494 bohr
 

     total cpu time spent up to now is      898.8 secs

     total energy              =   -2977.68108784 Ry
     estimated scf accuracy    <       0.28112930 Ry

     iteration # 51     ecut=    29.40 Ry     beta= 0.05
     Davidson diagonalization with overlap
     c_bands:  1 eigenvalues not converged
     c_bands:  3 eigenvalues not converged
     ethr =  1.38E-05,  avg # of iterations =  8.8

     negative rho (up, down):  6.168E-03 0.000E+00
 
     Adding external electric field

     Computed dipole along edir(3) : 
        Dipole                0.9991 Ry au,          2.5394 Debye
        Dipole field          0.0019 Ry au, 
 
        Potential amp.       -0.1748 Ry
        Total length         46.3494 bohr
 

     total cpu time spent up to now is      911.8 secs

     total energy              =   -2977.68340712 Ry
     estimated scf accuracy    <       0.02530343 Ry

     iteration # 52     ecut=    29.40 Ry     beta= 0.05
     Davidson diagonalization with overlap
     c_bands:  3 eigenvalues not converged
     c_bands:  2 eigenvalues not converged
     c_bands:  2 eigenvalues not converged
     c_bands:  2 eigenvalues not converged
     c_bands:  1 eigenvalues not converged
     c_bands:  2 eigenvalues not converged
     c_bands:  1 eigenvalues not converged
     ethr =  6.23E-06,  avg # of iterations = 16.6

     negative rho (up, down):  7.955E-03 0.000E+00
 
     Adding external electric field

     Computed dipole along edir(3) : 
        Dipole                1.0981 Ry au,          2.7912 Debye
        Dipole field          0.0021 Ry au, 
 
        Potential amp.       -0.1921 Ry
        Total length         46.3494 bohr
 

     total cpu time spent up to now is      928.5 secs

     total energy              =   -2977.68320738 Ry
     estimated scf accuracy    <       0.02077653 Ry

     iteration # 53     ecut=    29.40 Ry     beta= 0.05
     Davidson diagonalization with overlap
     c_bands:  1 eigenvalues not converged
     c_bands:  1 eigenvalues not converged
     c_bands:  1 eigenvalues not converged
     ethr =  5.12E-06,  avg # of iterations = 15.5

     negative rho (up, down):  8.164E-03 0.000E+00
 
     Adding external electric field

     Computed dipole along edir(3) : 
        Dipole                1.0495 Ry au,          2.6675 Debye
        Dipole field          0.0020 Ry au, 
 
        Potential amp.       -0.1836 Ry
        Total length         46.3494 bohr
 

     total cpu time spent up to now is      944.0 secs

     total energy              =   -2977.68277146 Ry
     estimated scf accuracy    <       0.09349576 Ry

     iteration # 54     ecut=    29.40 Ry     beta= 0.05
     Davidson diagonalization with overlap
     c_bands:  2 eigenvalues not converged
     ethr =  5.12E-06,  avg # of iterations = 14.4

     negative rho (up, down):  8.794E-03 0.000E+00
 
     Adding external electric field

     Computed dipole along edir(3) : 
        Dipole                1.0199 Ry au,          2.5924 Debye
        Dipole field          0.0019 Ry au, 
 
        Potential amp.       -0.1784 Ry
        Total length         46.3494 bohr
 

     total cpu time spent up to now is      958.6 secs

     total energy              =   -2977.68228910 Ry
     estimated scf accuracy    <       0.00998984 Ry

     iteration # 55     ecut=    29.40 Ry     beta= 0.05
     Davidson diagonalization with overlap
     c_bands:  1 eigenvalues not converged
     c_bands:  1 eigenvalues not converged
     c_bands:  3 eigenvalues not converged
     ethr =  2.46E-06,  avg # of iterations = 14.1

     negative rho (up, down):  1.005E-02 0.000E+00
 
     Adding external electric field

     Computed dipole along edir(3) : 
        Dipole                1.0086 Ry au,          2.5635 Debye
        Dipole field          0.0019 Ry au, 
 
        Potential amp.       -0.1764 Ry
        Total length         46.3494 bohr
 

     total cpu time spent up to now is      976.1 secs

     total energy              =   -2977.68332626 Ry
     estimated scf accuracy    <       0.00501503 Ry

     iteration # 56     ecut=    29.40 Ry     beta= 0.05
     Davidson diagonalization with overlap
     c_bands:  1 eigenvalues not converged
     c_bands:  1 eigenvalues not converged
     c_bands:  1 eigenvalues not converged
     c_bands:  4 eigenvalues not converged
     ethr =  1.24E-06,  avg # of iterations = 14.1

     negative rho (up, down):  1.075E-02 0.000E+00
 
     Adding external electric field

     Computed dipole along edir(3) : 
        Dipole                1.0215 Ry au,          2.5964 Debye
        Dipole field          0.0019 Ry au, 
 
        Potential amp.       -0.1787 Ry
        Total length         46.3494 bohr
 

     total cpu time spent up to now is      991.1 secs

     total energy              =   -2977.68352471 Ry
     estimated scf accuracy    <       0.00591208 Ry

     iteration # 57     ecut=    29.40 Ry     beta= 0.05
     Davidson diagonalization with overlap
     c_bands:  2 eigenvalues not converged
     ethr =  1.24E-06,  avg # of iterations =  8.0

     negative rho (up, down):  1.168E-02 0.000E+00
 
     Adding external electric field

     Computed dipole along edir(3) : 
        Dipole                1.0411 Ry au,          2.6461 Debye
        Dipole field          0.0020 Ry au, 
 
        Potential amp.       -0.1821 Ry
        Total length         46.3494 bohr
 

     total cpu time spent up to now is     1004.2 secs

     total energy              =   -2977.68346123 Ry
     estimated scf accuracy    <       0.00147575 Ry

     iteration # 58     ecut=    29.40 Ry     beta= 0.05
     Davidson diagonalization with overlap
     c_bands:  1 eigenvalues not converged
     c_bands:  1 eigenvalues not converged
     c_bands:  2 eigenvalues not converged
     ethr =  3.63E-07,  avg # of iterations = 17.2

     negative rho (up, down):  1.216E-02 0.000E+00
 
     Adding external electric field

     Computed dipole along edir(3) : 
        Dipole                1.0119 Ry au,          2.5720 Debye
        Dipole field          0.0019 Ry au, 
 
        Potential amp.       -0.1770 Ry
        Total length         46.3494 bohr
 

     total cpu time spent up to now is     1023.0 secs

     total energy              =   -2977.68357209 Ry
     estimated scf accuracy    <       0.00141945 Ry

     iteration # 59     ecut=    29.40 Ry     beta= 0.05
     Davidson diagonalization with overlap
     ethr =  3.50E-07,  avg # of iterations =  4.4

     negative rho (up, down):  1.322E-02 0.000E+00
 
     Adding external electric field

     Computed dipole along edir(3) : 
        Dipole                1.0076 Ry au,          2.5610 Debye
        Dipole field          0.0019 Ry au, 
 
        Potential amp.       -0.1763 Ry
        Total length         46.3494 bohr
 

     total cpu time spent up to now is     1034.8 secs

     total energy              =   -2977.68363890 Ry
     estimated scf accuracy    <       0.00039882 Ry

     iteration # 60     ecut=    29.40 Ry     beta= 0.05
     Davidson diagonalization with overlap
     c_bands:  1 eigenvalues not converged
     c_bands:  2 eigenvalues not converged
     ethr =  9.82E-08,  avg # of iterations = 16.9

     negative rho (up, down):  1.383E-02 0.000E+00
 
     Adding external electric field

     Computed dipole along edir(3) : 
        Dipole                1.0280 Ry au,          2.6130 Debye
        Dipole field          0.0019 Ry au, 
 
        Potential amp.       -0.1798 Ry
        Total length         46.3494 bohr
 

     total cpu time spent up to now is     1056.3 secs

     total energy              =   -2977.68368350 Ry
     estimated scf accuracy    <       0.00047410 Ry

     iteration # 61     ecut=    29.40 Ry     beta= 0.05
     Davidson diagonalization with overlap
     ethr =  9.82E-08,  avg # of iterations =  9.4

     negative rho (up, down):  1.391E-02 0.000E+00
 
     Adding external electric field

     Computed dipole along edir(3) : 
        Dipole                1.0212 Ry au,          2.5957 Debye
        Dipole field          0.0019 Ry au, 
 
        Potential amp.       -0.1786 Ry
        Total length         46.3494 bohr
 

     total cpu time spent up to now is     1070.6 secs

     total energy              =   -2977.68370390 Ry
     estimated scf accuracy    <       0.00040172 Ry

     iteration # 62     ecut=    29.40 Ry     beta= 0.05
     Davidson diagonalization with overlap
     ethr =  9.82E-08,  avg # of iterations =  2.6

     negative rho (up, down):  1.408E-02 0.000E+00
 
     Adding external electric field

     Computed dipole along edir(3) : 
        Dipole                1.0177 Ry au,          2.5868 Debye
        Dipole field          0.0019 Ry au, 
 
        Potential amp.       -0.1780 Ry
        Total length         46.3494 bohr
 

     total cpu time spent up to now is     1081.8 secs

     total energy              =   -2977.68370187 Ry
     estimated scf accuracy    <       0.00017420 Ry

     iteration # 63     ecut=    29.40 Ry     beta= 0.05
     Davidson diagonalization with overlap
     ethr =  4.29E-08,  avg # of iterations = 13.9

     negative rho (up, down):  1.432E-02 0.000E+00
 
     Adding external electric field

     Computed dipole along edir(3) : 
        Dipole                1.0227 Ry au,          2.5996 Debye
        Dipole field          0.0019 Ry au, 
 
        Potential amp.       -0.1789 Ry
        Total length         46.3494 bohr
 

     total cpu time spent up to now is     1100.3 secs

     total energy              =   -2977.68373213 Ry
     estimated scf accuracy    <       0.00005342 Ry

     iteration # 64     ecut=    29.40 Ry     beta= 0.05
     Davidson diagonalization with overlap
     ethr =  1.32E-08,  avg # of iterations =  8.9

     negative rho (up, down):  1.454E-02 0.000E+00
 
     Adding external electric field

     Computed dipole along edir(3) : 
        Dipole                1.0260 Ry au,          2.6078 Debye
        Dipole field          0.0019 Ry au, 
 
        Potential amp.       -0.1795 Ry
        Total length         46.3494 bohr
 

     total cpu time spent up to now is     1113.5 secs

     total energy              =   -2977.68373854 Ry
     estimated scf accuracy    <       0.00003998 Ry

     iteration # 65     ecut=    29.40 Ry     beta= 0.05
     Davidson diagonalization with overlap
     ethr =  9.85E-09,  avg # of iterations =  9.9

     negative rho (up, down):  1.466E-02 0.000E+00
 
     Adding external electric field

     Computed dipole along edir(3) : 
        Dipole                1.0245 Ry au,          2.6040 Debye
        Dipole field          0.0019 Ry au, 
 
        Potential amp.       -0.1792 Ry
        Total length         46.3494 bohr
 

     total cpu time spent up to now is     1129.0 secs

     total energy              =   -2977.68374419 Ry
     estimated scf accuracy    <       0.00003517 Ry

     iteration # 66     ecut=    29.40 Ry     beta= 0.05
     Davidson diagonalization with overlap
     ethr =  8.66E-09,  avg # of iterations =  6.4

     negative rho (up, down):  1.462E-02 0.000E+00
 
     Adding external electric field

     Computed dipole along edir(3) : 
        Dipole                1.0200 Ry au,          2.5927 Debye
        Dipole field          0.0019 Ry au, 
 
        Potential amp.       -0.1784 Ry
        Total length         46.3494 bohr
 

     total cpu time spent up to now is     1141.8 secs

     total energy              =   -2977.68374439 Ry
     estimated scf accuracy    <       0.00002012 Ry

     iteration # 67     ecut=    29.40 Ry     beta= 0.05
     Davidson diagonalization with overlap
     ethr =  4.96E-09,  avg # of iterations = 12.8

     negative rho (up, down):  1.465E-02 0.000E+00
 
     Adding external electric field

     Computed dipole along edir(3) : 
        Dipole                1.0216 Ry au,          2.5966 Debye
        Dipole field          0.0019 Ry au, 
 
        Potential amp.       -0.1787 Ry
        Total length         46.3494 bohr
 

     total cpu time spent up to now is     1161.8 secs

     total energy              =   -2977.68375245 Ry
     estimated scf accuracy    <       0.00002115 Ry

     iteration # 68     ecut=    29.40 Ry     beta= 0.05
     Davidson diagonalization with overlap
     ethr =  4.96E-09,  avg # of iterations =  1.8

     negative rho (up, down):  1.461E-02 0.000E+00
 
     Adding external electric field

     Computed dipole along edir(3) : 
        Dipole                1.0206 Ry au,          2.5941 Debye
        Dipole field          0.0019 Ry au, 
 
        Potential amp.       -0.1785 Ry
        Total length         46.3494 bohr
 

     total cpu time spent up to now is     1172.6 secs

     total energy              =   -2977.68375558 Ry
     estimated scf accuracy    <       0.00001629 Ry

     iteration # 69     ecut=    29.40 Ry     beta= 0.05
     Davidson diagonalization with overlap
     ethr =  4.01E-09,  avg # of iterations =  1.4

     negative rho (up, down):  1.465E-02 0.000E+00
 
     Adding external electric field

     Computed dipole along edir(3) : 
        Dipole                1.0235 Ry au,          2.6014 Debye
        Dipole field          0.0019 Ry au, 
 
        Potential amp.       -0.1790 Ry
        Total length         46.3494 bohr
 

     total cpu time spent up to now is     1183.1 secs

     total energy              =   -2977.68375472 Ry
     estimated scf accuracy    <       0.00001487 Ry

     iteration # 70     ecut=    29.40 Ry     beta= 0.05
     Davidson diagonalization with overlap
     ethr =  3.66E-09,  avg # of iterations = 13.0

     negative rho (up, down):  1.459E-02 0.000E+00
 
     Adding external electric field

     Computed dipole along edir(3) : 
        Dipole                1.0217 Ry au,          2.5969 Debye
        Dipole field          0.0019 Ry au, 
 
        Potential amp.       -0.1787 Ry
        Total length         46.3494 bohr
 

     total cpu time spent up to now is     1200.7 secs

     total energy              =   -2977.68375912 Ry
     estimated scf accuracy    <       0.00000707 Ry

     iteration # 71     ecut=    29.40 Ry     beta= 0.05
     Davidson diagonalization with overlap
     ethr =  1.74E-09,  avg # of iterations =  7.9

     negative rho (up, down):  1.447E-02 0.000E+00
 
     Adding external electric field

     Computed dipole along edir(3) : 
        Dipole                1.0204 Ry au,          2.5936 Debye
        Dipole field          0.0019 Ry au, 
 
        Potential amp.       -0.1785 Ry
        Total length         46.3494 bohr
 

     total cpu time spent up to now is     1214.4 secs

     total energy              =   -2977.68376165 Ry
     estimated scf accuracy    <       0.00000188 Ry

     iteration # 72     ecut=    29.40 Ry     beta= 0.05
     Davidson diagonalization with overlap
     ethr =  4.63E-10,  avg # of iterations = 13.1

     negative rho (up, down):  1.449E-02 0.000E+00
 
     Adding external electric field

     Computed dipole along edir(3) : 
        Dipole                1.0208 Ry au,          2.5947 Debye
        Dipole field          0.0019 Ry au, 
 
        Potential amp.       -0.1786 Ry
        Total length         46.3494 bohr
 

     total cpu time spent up to now is     1233.6 secs

     total energy              =   -2977.68376377 Ry
     estimated scf accuracy    <       0.00000126 Ry

     iteration # 73     ecut=    29.40 Ry     beta= 0.05
     Davidson diagonalization with overlap
     ethr =  3.10E-10,  avg # of iterations =  2.8

     negative rho (up, down):  1.448E-02 0.000E+00
 
     Adding external electric field

     Computed dipole along edir(3) : 
        Dipole                1.0216 Ry au,          2.5967 Debye
        Dipole field          0.0019 Ry au, 
 
        Potential amp.       -0.1787 Ry
        Total length         46.3494 bohr
 

     total cpu time spent up to now is     1244.9 secs

     total energy              =   -2977.68376538 Ry
     estimated scf accuracy    <       0.00000074 Ry

     iteration # 74     ecut=    29.40 Ry     beta= 0.05
     Davidson diagonalization with overlap
     c_bands:  1 eigenvalues not converged
     ethr =  1.83E-10,  avg # of iterations = 10.8

     negative rho (up, down):  1.443E-02 0.000E+00
 
     Adding external electric field

     Computed dipole along edir(3) : 
        Dipole                1.0207 Ry au,          2.5942 Debye
        Dipole field          0.0019 Ry au, 
 
        Potential amp.       -0.1785 Ry
        Total length         46.3494 bohr
 

     total cpu time spent up to now is     1263.5 secs

     total energy              =   -2977.68376705 Ry
     estimated scf accuracy    <       0.00000095 Ry

     iteration # 75     ecut=    29.40 Ry     beta= 0.05
     Davidson diagonalization with overlap
     ethr =  1.83E-10,  avg # of iterations =  6.6

     negative rho (up, down):  1.442E-02 0.000E+00
 
     Adding external electric field

     Computed dipole along edir(3) : 
        Dipole                1.0207 Ry au,          2.5943 Debye
        Dipole field          0.0019 Ry au, 
 
        Potential amp.       -0.1786 Ry
        Total length         46.3494 bohr
 

     total cpu time spent up to now is     1278.1 secs

     total energy              =   -2977.68376857 Ry
     estimated scf accuracy    <       0.00000030 Ry

     iteration # 76     ecut=    29.40 Ry     beta= 0.05
     Davidson diagonalization with overlap
     ethr =  7.46E-11,  avg # of iterations =  9.1

     negative rho (up, down):  1.440E-02 0.000E+00
 
     Adding external electric field

     Computed dipole along edir(3) : 
        Dipole                1.0206 Ry au,          2.5941 Debye
        Dipole field          0.0019 Ry au, 
 
        Potential amp.       -0.1785 Ry
        Total length         46.3494 bohr
 

     total cpu time spent up to now is     1293.1 secs

     total energy              =   -2977.68376989 Ry
     estimated scf accuracy    <       0.00000017 Ry

     iteration # 77     ecut=    29.40 Ry     beta= 0.05
     Davidson diagonalization with overlap
     ethr =  4.17E-11,  avg # of iterations = 13.3

     negative rho (up, down):  1.439E-02 0.000E+00
 
     Adding external electric field

     Computed dipole along edir(3) : 
        Dipole                1.0201 Ry au,          2.5928 Debye
        Dipole field          0.0019 Ry au, 
 
        Potential amp.       -0.1784 Ry
        Total length         46.3494 bohr
 

     total cpu time spent up to now is     1310.8 secs

     total energy              =   -2977.68377108 Ry
     estimated scf accuracy    <       0.00000015 Ry

     iteration # 78     ecut=    29.40 Ry     beta= 0.05
     Davidson diagonalization with overlap
     ethr =  3.65E-11,  avg # of iterations = 10.8

     negative rho (up, down):  1.437E-02 0.000E+00
 
     Adding external electric field

     Computed dipole along edir(3) : 
        Dipole                1.0199 Ry au,          2.5923 Debye
        Dipole field          0.0019 Ry au, 
 
        Potential amp.       -0.1784 Ry
        Total length         46.3494 bohr
 

     total cpu time spent up to now is     1327.8 secs

     total energy              =   -2977.68377216 Ry
     estimated scf accuracy    <       0.00000010 Ry

     iteration # 79     ecut=    29.40 Ry     beta= 0.05
     Davidson diagonalization with overlap
     ethr =  2.49E-11,  avg # of iterations = 10.4

     negative rho (up, down):  1.437E-02 0.000E+00
 
     Adding external electric field

     Computed dipole along edir(3) : 
        Dipole                1.0199 Ry au,          2.5923 Debye
        Dipole field          0.0019 Ry au, 
 
        Potential amp.       -0.1784 Ry
        Total length         46.3494 bohr
 

     total cpu time spent up to now is     1342.4 secs

     total energy              =   -2977.68377313 Ry
     estimated scf accuracy    <       0.00000011 Ry

     iteration # 80     ecut=    29.40 Ry     beta= 0.05
     Davidson diagonalization with overlap
     ethr =  2.49E-11,  avg # of iterations =  6.8

     negative rho (up, down):  1.439E-02 0.000E+00
 
     Adding external electric field

     Computed dipole along edir(3) : 
        Dipole                1.0207 Ry au,          2.5943 Debye
        Dipole field          0.0019 Ry au, 
 
        Potential amp.       -0.1786 Ry
        Total length         46.3494 bohr
 

     total cpu time spent up to now is     1355.0 secs

     End of self-consistent calculation

          k = 0.0000 0.0000 0.0000 ( 18029 PWs)   bands (ev):

   -55.3596 -55.3223 -55.3102 -55.2927 -55.2761 -55.2405 -55.2387 -55.2040
   -55.1828 -55.1815 -55.1484 -55.1424 -55.1087 -55.0177 -54.3423 -54.3082
   -31.9259 -31.8084 -31.8032 -31.7275 -31.6759 -31.6720 -31.6719 -31.6489
   -31.5991 -31.5949 -31.5719 -31.5693 -31.5552 -31.5389 -31.5300 -31.5266
   -31.5141 -31.5070 -31.4966 -31.4790 -31.4641 -31.4629 -31.4350 -31.4245
   -31.4173 -31.4134 -31.3925 -31.3854 -31.3691 -31.3674 -31.3626 -31.3539
   -31.3416 -31.3407 -31.3318 -31.3294 -31.2964 -31.2932 -31.2708 -31.2536
   -31.2299 -31.2277 -30.7518 -30.6572 -30.6352 -30.5681 -30.4813 -30.3704
   -18.0028 -17.6486 -16.1933 -15.9325 -15.7871 -15.6586 -15.5611 -15.4328
   -15.4135 -15.2916 -15.2213 -15.1172 -15.0664 -15.0481 -15.0123 -15.0021
   -14.9788 -14.9083 -14.9021 -14.8882 -14.8642 -14.8554 -14.8092 -14.8015
   -14.7603 -14.7359 -14.7116 -14.6128 -14.5227 -14.4479 -14.3396 -13.1709
   -12.8449 -12.7274  -9.4141  -6.3147  -5.8755  -5.7619  -4.2525  -3.5318
    -3.3831  -3.3144  -3.2781  -3.2528  -3.1193  -2.9620  -2.9232  -2.8065
    -2.7891  -2.6897  -2.6445  -2.5733  -2.5565  -2.5414  -2.3954  -2.3729
    -2.3472  -2.2811  -2.2536  -2.1876  -2.1653  -2.1547  -2.1449  -2.1218
    -2.0940  -2.0505  -1.9919  -1.9335  -1.8402  -1.8160  -1.7641  -1.7353
    -1.7137  -1.6967  -1.6511  -1.6400  -1.6007  -1.5861  -1.5672  -1.5518
    -1.3892  -1.3672  -1.2645  -1.2030  -1.1037  -1.0000  -0.9642  -0.9497
    -0.8527  -0.8341  -0.7815  -0.7404  -0.7379  -0.7033  -0.5914  -0.5288
    -0.4765  -0.4130  -0.3900  -0.3501  -0.2822  -0.1989  -0.1430  -0.1291
    -0.1121  -0.0955   0.0134   0.0257   0.0776   0.1522   0.1618   0.1680
     0.2419   0.2981   0.3684   0.3936   0.4111   0.5161   0.5318   0.5640
     0.5698   0.5997   0.6204   0.6456   0.7056   0.7359   0.8191   0.9408
     1.1332   1.2218   1.2493   1.3590   1.5723   1.5849   1.6805   1.8637
     2.2569   2.3052   3.7374   3.8085   3.8833   3.8872   3.9101   3.9737
     4.2106   4.2278   4.2424   4.2460   4.2701

          k = 0.0000 0.0419 0.0000 ( 17933 PWs)   bands (ev):

   -55.3545 -55.3273 -55.3052 -55.2921 -55.2810 -55.2360 -55.2358 -55.2086
   -55.1841 -55.1777 -55.1534 -55.1374 -55.1136 -55.0181 -54.3372 -54.3131
   -31.8689 -31.7700 -31.7492 -31.6729 -31.6603 -31.6243 -31.6189 -31.6056
   -31.6041 -31.5941 -31.5907 -31.5581 -31.5515 -31.5510 -31.5345 -31.5310
   -31.5237 -31.5063 -31.5031 -31.4812 -31.4677 -31.4643 -31.4489 -31.4339
   -31.4114 -31.4091 -31.4021 -31.3976 -31.3889 -31.3854 -31.3813 -31.3761
   -31.3622 -31.3523 -31.3485 -31.3326 -31.3284 -31.3244 -31.3083 -31.2807
   -31.2640 -31.2281 -30.6976 -30.6538 -30.6382 -30.5555 -30.4939 -30.4276
   -17.9968 -17.6536 -16.0625 -15.8149 -15.6836 -15.5878 -15.4552 -15.4054
   -15.3735 -15.2720 -15.2221 -15.1775 -15.1147 -15.0591 -15.0406 -15.0095
   -14.9753 -14.9424 -14.9383 -14.8787 -14.8613 -14.8467 -14.8450 -14.8189
   -14.7959 -14.7524 -14.7319 -14.6684 -14.5777 -14.5077 -14.4545 -13.1719
   -12.8484 -12.7666  -9.4197  -6.3281  -5.9160  -5.6867  -4.2456  -3.3413
    -3.2155  -3.1596  -3.1188  -3.0764  -2.9759  -2.9229  -2.7780  -2.7172
    -2.6934  -2.6431  -2.6032  -2.5435  -2.5057  -2.4635  -2.4403  -2.4095
    -2.3806  -2.3461  -2.3350  -2.3181  -2.2747  -2.2580  -2.1613  -2.1488
    -2.1338  -2.0933  -2.0777  -2.0040  -1.9703  -1.9268  -1.9079  -1.8806
    -1.8566  -1.8102  -1.7853  -1.6651  -1.6579  -1.5193  -1.4793  -1.3443
    -1.3090  -1.2797  -1.1833  -1.1248  -1.0901  -1.0389  -0.9413  -0.8204
    -0.7506  -0.7103  -0.6971  -0.6860  -0.5957  -0.5670  -0.5387  -0.5289
    -0.3876  -0.3677  -0.3604  -0.2927  -0.2851  -0.2188  -0.2030  -0.1847
    -0.1750  -0.1487  -0.0696   0.0159   0.0338   0.0355   0.1269   0.1363
     0.1866   0.2379   0.2793   0.3574   0.3744   0.3864   0.4079   0.4447
     0.4684   0.5663   0.5845   0.6213   0.6674   0.7388   0.8137   0.9341
     0.9428   0.9832   1.0992   1.2878   1.3665   1.4470   1.8637   1.9391
     2.2118   2.2155   3.9306   3.9401   3.9732   4.0287   4.1070   4.1117
     4.1525   4.1652   4.2190   4.2387   4.3088

          k = 0.0000-0.0839 0.0000 ( 17884 PWs)   bands (ev):

   -55.3458 -55.3359 -55.2934 -55.2928 -55.2915 -55.2331 -55.2283 -55.2161
   -55.1870 -55.1669 -55.1641 -55.1256 -55.1253 -55.0187 -54.3253 -54.3249
   -31.7334 -31.7256 -31.7235 -31.6392 -31.6194 -31.6169 -31.6165 -31.5843
   -31.5841 -31.5581 -31.5495 -31.5469 -31.5337 -31.5325 -31.5302 -31.5264
   -31.5169 -31.5038 -31.5023 -31.4915 -31.4878 -31.4837 -31.4627 -31.4363
   -31.4330 -31.4326 -31.4287 -31.4258 -31.4154 -31.4151 -31.4149 -31.4008
   -31.3996 -31.3973 -31.3880 -31.3710 -31.3251 -31.3226 -31.3070 -31.3062
   -31.3008 -31.2268 -30.6459 -30.6456 -30.5645 -30.5643 -30.5248 -30.5246
   -17.9906 -17.6587 -15.7900 -15.6971 -15.5551 -15.5089 -15.4588 -15.3726
   -15.3666 -15.2650 -15.2319 -15.2213 -15.1785 -15.1490 -15.1170 -14.9897
   -14.9704 -14.9556 -14.9544 -14.9057 -14.8411 -14.8198 -14.8069 -14.7878
   -14.7695 -14.7677 -14.7199 -14.7039 -14.6621 -14.6539 -14.6495 -13.1729
   -12.8293 -12.8292  -9.4254  -6.3416  -5.9389  -5.6294  -4.2389  -2.9662
    -2.9190  -2.8870  -2.8506  -2.8051  -2.7959  -2.7811  -2.7740  -2.7230
    -2.7131  -2.6710  -2.6340  -2.6320  -2.5751  -2.5642  -2.5163  -2.5111
    -2.4855  -2.4458  -2.3993  -2.3677  -2.3343  -2.2510  -2.2387  -2.2231
    -2.1900  -2.1812  -2.1494  -2.0826  -2.0023  -1.9951  -1.9193  -1.9132
    -1.7850  -1.7632  -1.7323  -1.7147  -1.5403  -1.4612  -1.4054  -1.3131
    -1.2789  -1.1797  -1.1372  -1.1241  -0.9934  -0.8834  -0.8710  -0.8632
    -0.8275  -0.8186  -0.7862  -0.7513  -0.7376  -0.6606  -0.6044  -0.5723
    -0.5286  -0.4517  -0.4138  -0.2104  -0.2016  -0.1490  -0.1086  -0.0863
    -0.0700  -0.0094   0.0140   0.0269   0.0341   0.0829   0.1231   0.1583
     0.1633   0.1950   0.2325   0.2521   0.2682   0.2824   0.3210   0.3599
     0.3953   0.4270   0.4276   0.4541   0.4618   0.7718   0.8293   0.8480
     0.8531   0.9918   1.0144   1.1915   1.2018   1.3791   2.0056   2.0061
     2.1473   2.1476   3.9930   3.9975   4.0493   4.0621   4.1232   4.1710
     4.2196   4.2226   4.3109   4.3260   4.3356

          k = 0.0380 0.0000 0.0000 ( 17913 PWs)   bands (ev):

   -55.3594 -55.3222 -55.3101 -55.2926 -55.2760 -55.2405 -55.2387 -55.2039
   -55.1826 -55.1814 -55.1483 -55.1424 -55.1086 -55.0176 -54.3422 -54.3081
   -31.9260 -31.8084 -31.8041 -31.7329 -31.6796 -31.6761 -31.6718 -31.6492
   -31.5989 -31.5948 -31.5718 -31.5552 -31.5523 -31.5387 -31.5265 -31.5148
   -31.5137 -31.5068 -31.4902 -31.4640 -31.4614 -31.4578 -31.4425 -31.4347
   -31.4242 -31.4131 -31.3924 -31.3853 -31.3685 -31.3672 -31.3552 -31.3535
   -31.3509 -31.3414 -31.3406 -31.3318 -31.2951 -31.2928 -31.2707 -31.2539
   -31.2321 -31.2280 -30.7513 -30.6608 -30.6332 -30.5679 -30.4812 -30.3702
   -18.0022 -17.6486 -16.1136 -15.8460 -15.7701 -15.6330 -15.4639 -15.4439
   -15.4177 -15.3085 -15.2299 -15.1682 -15.1474 -15.1304 -15.0681 -15.0591
   -15.0290 -15.0002 -14.9589 -14.8811 -14.8632 -14.8048 -14.7656 -14.7481
   -14.7345 -14.6872 -14.6208 -14.5976 -14.5810 -14.5339 -14.3383 -13.1729
   -12.8415 -12.7270  -9.4096  -6.3210  -5.8639  -5.7736  -4.2457  -3.4118
    -3.2590  -3.1529  -3.0949  -3.0129  -2.9678  -2.9409  -2.9285  -2.8913
    -2.8206  -2.7871  -2.7547  -2.6974  -2.6029  -2.5096  -2.4356  -2.4282
    -2.3387  -2.3058  -2.1766  -2.1512  -2.1355  -2.1285  -2.0803  -2.0395
    -2.0063  -1.9636  -1.9486  -1.8889  -1.8057  -1.7507  -1.7280  -1.7185
    -1.7021  -1.6746  -1.6612  -1.6018  -1.5641  -1.4831  -1.4449  -1.4185
    -1.3411  -1.3033  -1.2928  -1.1661  -1.1375  -1.0286  -0.9948  -0.9718
    -0.9123  -0.8730  -0.8175  -0.7740  -0.7694  -0.7159  -0.7104  -0.6821
    -0.4585  -0.4251  -0.3823  -0.3058  -0.2633  -0.2461  -0.2247  -0.1962
    -0.1037  -0.0590  -0.0478  -0.0086   0.0289   0.0576   0.1269   0.1650
     0.1805   0.2344   0.2869   0.3250   0.3530   0.3729   0.3953   0.4557
     0.4914   0.5437   0.5827   0.6008   0.6407   0.6547   0.7350   0.8214
     0.8852   1.0554   1.3015   1.3540   1.4333   1.5902   1.6924   1.8325
     2.1442   2.2224   3.7531   3.8433   4.0169   4.0311   4.0711   4.1287
     4.1768   4.1877   4.2275   4.2336   4.2458

          k = 0.0380 0.0419 0.0000 ( 17878 PWs)   bands (ev):

   -55.3544 -55.3272 -55.3051 -55.2920 -55.2810 -55.2360 -55.2358 -55.2086
   -55.1841 -55.1775 -55.1533 -55.1374 -55.1136 -55.0181 -54.3371 -54.3131
   -31.8690 -31.7702 -31.7500 -31.6792 -31.6602 -31.6285 -31.6232 -31.6060
   -31.6043 -31.5939 -31.5908 -31.5518 -31.5517 -31.5439 -31.5343 -31.5311
   -31.5103 -31.5029 -31.4968 -31.4813 -31.4678 -31.4483 -31.4451 -31.4384
   -31.4278 -31.4088 -31.4017 -31.3954 -31.3891 -31.3810 -31.3787 -31.3730
   -31.3628 -31.3615 -31.3483 -31.3371 -31.3321 -31.3308 -31.3081 -31.2807
   -31.2638 -31.2309 -30.6972 -30.6566 -30.6372 -30.5553 -30.4940 -30.4275
   -17.9963 -17.6535 -15.9894 -15.7352 -15.6884 -15.5394 -15.4080 -15.3825
   -15.3506 -15.2851 -15.2377 -15.1766 -15.1457 -15.1154 -15.0751 -15.0411
   -15.0228 -15.0070 -14.9447 -14.9234 -14.8947 -14.8391 -14.8169 -14.7831
   -14.7756 -14.7395 -14.6870 -14.6532 -14.6453 -14.5879 -14.4534 -13.1740
   -12.8461 -12.7669  -9.4152  -6.3358  -5.9082  -5.6932  -4.2399  -3.2353
    -3.1010  -2.9861  -2.9681  -2.9006  -2.8535  -2.7937  -2.7695  -2.7487
    -2.7015  -2.6624  -2.6180  -2.5566  -2.4933  -2.4489  -2.4158  -2.3931
    -2.3628  -2.3196  -2.2824  -2.2390  -2.2099  -2.1784  -2.1641  -2.1378
    -2.1001  -2.0686  -2.0570  -1.9970  -1.9660  -1.9488  -1.8756  -1.8597
    -1.8109  -1.7618  -1.7452  -1.6509  -1.5784  -1.4597  -1.4157  -1.3685
    -1.3545  -1.2180  -1.1731  -1.1514  -1.0900  -0.9685  -0.9258  -0.8633
    -0.8436  -0.7986  -0.7636  -0.7139  -0.6907  -0.6566  -0.6205  -0.5477
    -0.5066  -0.4817  -0.4479  -0.3395  -0.3175  -0.3055  -0.2705  -0.2007
    -0.1662  -0.1385  -0.1015  -0.0779  -0.0566  -0.0244   0.0090   0.0217
     0.0511   0.1100   0.1843   0.2013   0.2428   0.2866   0.3534   0.3724
     0.4373   0.5099   0.5761   0.6121   0.6985   0.7371   0.7855   0.8538
     0.9059   1.0452   1.0588   1.2315   1.3592   1.4052   1.8746   1.9425
     2.1339   2.1972   3.9241   3.9360   3.9663   4.0749   4.0979   4.1431
     4.1707   4.2515   4.2766   4.3127   4.3330

          k = 0.0380-0.0839 0.0000 ( 17916 PWs)   bands (ev):

   -55.3458 -55.3359 -55.2934 -55.2928 -55.2915 -55.2331 -55.2284 -55.2161
   -55.1870 -55.1669 -55.1641 -55.1257 -55.1254 -55.0187 -54.3254 -54.3250
   -31.7337 -31.7258 -31.7238 -31.6394 -31.6197 -31.6177 -31.6173 -31.5844
   -31.5841 -31.5653 -31.5583 -31.5511 -31.5492 -31.5308 -31.5184 -31.5084
   -31.5065 -31.4987 -31.4983 -31.4944 -31.4917 -31.4893 -31.4574 -31.4381
   -31.4350 -31.4316 -31.4164 -31.4146 -31.4140 -31.4101 -31.4079 -31.4055
   -31.3995 -31.3972 -31.3964 -31.3733 -31.3368 -31.3343 -31.3069 -31.3062
   -31.3004 -31.2302 -30.6470 -30.6467 -30.5644 -30.5642 -30.5248 -30.5246
   -17.9906 -17.6583 -15.7443 -15.6492 -15.5361 -15.4617 -15.4512 -15.3325
   -15.3107 -15.2575 -15.2252 -15.2159 -15.1716 -15.1109 -15.0750 -14.9930
   -14.9888 -14.9831 -14.9646 -14.9468 -14.9260 -14.8712 -14.8415 -14.8002
   -14.7925 -14.7777 -14.7386 -14.7247 -14.7039 -14.7029 -14.6460 -13.1750
   -12.8290 -12.8290  -9.4222  -6.3394  -5.9262  -5.6497  -4.2347  -2.9450
    -2.8624  -2.8422  -2.8334  -2.7106  -2.6624  -2.6191  -2.6148  -2.5728
    -2.5575  -2.5430  -2.5203  -2.4932  -2.4750  -2.4450  -2.4376  -2.4195
    -2.4104  -2.3838  -2.3421  -2.3220  -2.2873  -2.2683  -2.2479  -2.1963
    -2.1688  -2.1155  -2.0932  -2.0788  -2.0306  -2.0069  -1.9515  -1.9103
    -1.8303  -1.7424  -1.6250  -1.5641  -1.5568  -1.4376  -1.3973  -1.3248
    -1.3004  -1.2861  -1.2271  -1.2080  -1.1294  -1.1018  -1.0490  -1.0410
    -1.0190  -0.9273  -0.8529  -0.8003  -0.7342  -0.7090  -0.6802  -0.6520
    -0.6015  -0.4459  -0.4099  -0.3863  -0.3298  -0.2952  -0.2185  -0.1958
    -0.1674  -0.1589  -0.1276  -0.1119  -0.0625  -0.0085  -0.0029   0.0217
     0.0580   0.1065   0.1115   0.1477   0.1665   0.2805   0.3569   0.3713
     0.3869   0.4988   0.5288   0.6957   0.6985   0.7209   0.7649   0.8547
     0.8757   0.9513   0.9564   1.1830   1.1917   1.3712   2.0191   2.0195
     2.1379   2.1386   3.9046   4.0016   4.0257   4.0523   4.1353   4.1711
     4.1959   4.2253   4.3213   4.3413   4.3886

          k = 0.0380-0.0419 0.0000 ( 17876 PWs)   bands (ev):

   -55.3544 -55.3272 -55.3051 -55.2920 -55.2810 -55.2360 -55.2358 -55.2086
   -55.1841 -55.1775 -55.1533 -55.1374 -55.1135 -55.0181 -54.3371 -54.3131
   -31.8690 -31.7702 -31.7500 -31.6792 -31.6602 -31.6286 -31.6232 -31.6060
   -31.6043 -31.5939 -31.5908 -31.5518 -31.5517 -31.5439 -31.5343 -31.5311
   -31.5099 -31.5029 -31.4967 -31.4813 -31.4678 -31.4483 -31.4451 -31.4386
   -31.4278 -31.4088 -31.4018 -31.3954 -31.3891 -31.3810 -31.3787 -31.3729
   -31.3633 -31.3617 -31.3480 -31.3369 -31.3322 -31.3308 -31.3081 -31.2807
   -31.2638 -31.2307 -30.6972 -30.6566 -30.6371 -30.5553 -30.4940 -30.4275
   -17.9966 -17.6532 -15.9893 -15.7349 -15.6881 -15.5393 -15.4089 -15.3820
   -15.3504 -15.2849 -15.2376 -15.1772 -15.1463 -15.1172 -15.0763 -15.0404
   -15.0233 -15.0075 -14.9416 -14.9232 -14.8948 -14.8390 -14.8168 -14.7831
   -14.7759 -14.7394 -14.6864 -14.6530 -14.6457 -14.5882 -14.4535 -13.1740
   -12.8461 -12.7669  -9.4165  -6.3241  -5.8994  -5.7123  -4.2402  -3.2351
    -3.1017  -2.9863  -2.9682  -2.8766  -2.8543  -2.7998  -2.7825  -2.7313
    -2.6994  -2.6576  -2.6298  -2.5570  -2.4976  -2.4500  -2.4061  -2.3992
    -2.3608  -2.3131  -2.2779  -2.2493  -2.2093  -2.1939  -2.1710  -2.1428
    -2.1099  -2.0658  -2.0567  -2.0063  -1.9620  -1.9443  -1.8712  -1.8399
    -1.7992  -1.7739  -1.7419  -1.6486  -1.5820  -1.4776  -1.4286  -1.3673
    -1.3483  -1.2178  -1.1664  -1.1463  -1.0872  -0.9822  -0.9351  -0.8505
    -0.8298  -0.7890  -0.7626  -0.7168  -0.7008  -0.6715  -0.6265  -0.5474
    -0.5150  -0.4693  -0.4418  -0.3394  -0.3236  -0.3068  -0.2713  -0.1982
    -0.1719  -0.1397  -0.0960  -0.0706  -0.0549  -0.0223   0.0104   0.0198
     0.0535   0.1066   0.1898   0.2042   0.2450   0.2838   0.3522   0.3694
     0.4410   0.5064   0.5822   0.6020   0.6948   0.7331   0.7847   0.8587
     0.9063   1.0457   1.0585   1.2317   1.3653   1.4057   1.8746   1.9424
     2.1337   2.1979   3.9268   3.9346   3.9658   4.0754   4.1003   4.1437
     4.1677   4.2490   4.2892   4.3094   4.3411

          k =-0.0760-0.0000 0.0000 ( 17886 PWs)   bands (ev):

   -55.3593 -55.3222 -55.3101 -55.2925 -55.2760 -55.2405 -55.2386 -55.2039
   -55.1824 -55.1814 -55.1483 -55.1425 -55.1086 -55.0175 -54.3421 -54.3081
   -31.9262 -31.8087 -31.8050 -31.7379 -31.6833 -31.6800 -31.6716 -31.6495
   -31.5987 -31.5948 -31.5720 -31.5551 -31.5394 -31.5265 -31.5264 -31.5136
   -31.5063 -31.4929 -31.4847 -31.4641 -31.4606 -31.4573 -31.4570 -31.4252
   -31.4242 -31.4134 -31.3924 -31.3853 -31.3850 -31.3685 -31.3675 -31.3536
   -31.3466 -31.3416 -31.3407 -31.3356 -31.2942 -31.2926 -31.2706 -31.2546
   -31.2346 -31.2282 -30.7509 -30.6642 -30.6318 -30.5679 -30.4811 -30.3703
   -18.0016 -17.6487 -15.9782 -15.8631 -15.6907 -15.5754 -15.4287 -15.4164
   -15.4033 -15.2760 -15.2669 -15.2242 -15.2034 -15.1765 -15.1423 -15.1123
   -15.0772 -15.0674 -14.9828 -14.8632 -14.8264 -14.7964 -14.7828 -14.7723
   -14.7704 -14.6950 -14.6535 -14.6056 -14.5303 -14.4926 -14.3374 -13.1750
   -12.8384 -12.7267  -9.4052  -6.3272  -5.8483  -5.7896  -4.2394  -3.3758
    -3.2363  -3.0077  -2.9690  -2.9316  -2.9164  -2.8683  -2.8600  -2.8508
    -2.7868  -2.7442  -2.6789  -2.6436  -2.6064  -2.5905  -2.4293  -2.3025
    -2.2982  -2.2084  -2.1670  -2.1283  -2.0863  -2.0096  -1.9673  -1.9488
    -1.9193  -1.9034  -1.8467  -1.8406  -1.8337  -1.7874  -1.7274  -1.7134
    -1.6971  -1.6786  -1.6637  -1.6519  -1.5837  -1.5634  -1.5311  -1.4343
    -1.3159  -1.1921  -1.1720  -1.0715  -1.0574  -1.0091  -1.0019  -0.9763
    -0.9682  -0.9249  -0.8942  -0.8720  -0.8001  -0.7745  -0.7115  -0.6839
    -0.6559  -0.6338  -0.5615  -0.3682  -0.2985  -0.2891  -0.2649  -0.2328
    -0.1484  -0.1157  -0.0810  -0.0589  -0.0222   0.0344   0.0570   0.0806
     0.1324   0.1381   0.1990   0.2177   0.2927   0.3217   0.3788   0.4244
     0.4355   0.4716   0.4793   0.4939   0.5619   0.6034   0.7595   0.8635
     0.8684   1.1178   1.1596   1.3283   1.3534   1.5948   1.7138   1.8075
     2.0139   2.1674   3.7530   3.8003   3.8829   4.0080   4.0818   4.1228
     4.1792   4.2014   4.2267   4.2481   4.3209

          k =-0.0760 0.0419 0.0000 ( 17914 PWs)   bands (ev):

   -55.3544 -55.3272 -55.3051 -55.2920 -55.2810 -55.2360 -55.2358 -55.2086
   -55.1841 -55.1774 -55.1533 -55.1376 -55.1136 -55.0181 -54.3372 -54.3131
   -31.8693 -31.7704 -31.7511 -31.6852 -31.6604 -31.6327 -31.6275 -31.6065
   -31.6044 -31.5939 -31.5909 -31.5519 -31.5515 -31.5353 -31.5312 -31.5256
   -31.5027 -31.4926 -31.4876 -31.4816 -31.4678 -31.4486 -31.4476 -31.4443
   -31.4133 -31.4095 -31.4019 -31.3947 -31.3921 -31.3891 -31.3817 -31.3807
   -31.3632 -31.3504 -31.3486 -31.3482 -31.3390 -31.3325 -31.3087 -31.2807
   -31.2638 -31.2338 -30.6969 -30.6596 -30.6365 -30.5553 -30.4940 -30.4275
   -17.9962 -17.6532 -15.8614 -15.7739 -15.6068 -15.4831 -15.3888 -15.3374
   -15.3221 -15.2793 -15.2354 -15.1760 -15.1647 -15.1544 -15.1322 -15.0925
   -15.0623 -15.0533 -14.9804 -14.9225 -14.9174 -14.8360 -14.8267 -14.8021
   -14.7899 -14.7526 -14.7428 -14.6498 -14.6179 -14.5998 -14.4529 -13.1761
   -12.8439 -12.7672  -9.4120  -6.3318  -5.8908  -5.7200  -4.2348  -3.2096
    -3.0813  -2.9444  -2.7999  -2.7798  -2.7233  -2.6954  -2.6682  -2.6294
    -2.5851  -2.5747  -2.5612  -2.5108  -2.4692  -2.3916  -2.3715  -2.3502
    -2.3240  -2.3078  -2.2551  -2.2236  -2.1813  -2.1600  -2.0827  -2.0774
    -2.0431  -2.0356  -1.9611  -1.9476  -1.9212  -1.9072  -1.8775  -1.8317
    -1.8126  -1.7817  -1.5980  -1.5772  -1.5353  -1.5180  -1.4394  -1.4162
    -1.3359  -1.1654  -1.1310  -1.1132  -1.1013  -1.0044  -0.9919  -0.9542
    -0.9323  -0.8624  -0.8014  -0.7746  -0.7623  -0.7271  -0.7003  -0.6560
    -0.6344  -0.6103  -0.5669  -0.5486  -0.5204  -0.4576  -0.4279  -0.3599
    -0.3452  -0.2538  -0.1720  -0.1597  -0.1400  -0.1224  -0.0924  -0.0654
    -0.0369   0.0835   0.0952   0.1763   0.1919   0.2567   0.3614   0.3891
     0.4578   0.5144   0.5299   0.5908   0.6977   0.7952   0.8545   0.9059
     0.9566   1.0482   1.1358   1.1492   1.2902   1.3581   1.8899   1.9446
     2.0560   2.1864   3.9125   3.9361   3.9598   3.9783   4.0534   4.0934
     4.1404   4.2011   4.2745   4.3261   4.3688

          k =-0.0760-0.0839 0.0000 ( 17948 PWs)   bands (ev):

   -55.3458 -55.3359 -55.2934 -55.2928 -55.2915 -55.2331 -55.2284 -55.2161
   -55.1871 -55.1668 -55.1640 -55.1258 -55.1255 -55.0187 -54.3254 -54.3250
   -31.7340 -31.7261 -31.7240 -31.6396 -31.6200 -31.6185 -31.6181 -31.5844
   -31.5842 -31.5732 -31.5591 -31.5579 -31.5511 -31.5311 -31.5195 -31.5061
   -31.4997 -31.4965 -31.4949 -31.4934 -31.4867 -31.4793 -31.4471 -31.4394
   -31.4363 -31.4360 -31.4221 -31.4173 -31.4131 -31.4126 -31.4073 -31.3996
   -31.3972 -31.3799 -31.3768 -31.3747 -31.3596 -31.3567 -31.3069 -31.3063
   -31.3001 -31.2337 -30.6480 -30.6477 -30.5644 -30.5641 -30.5248 -30.5246
   -17.9906 -17.6579 -15.6738 -15.5889 -15.5679 -15.4128 -15.3611 -15.3347
   -15.3237 -15.2083 -15.1658 -15.1468 -15.1321 -15.1103 -15.0720 -15.0625
   -15.0556 -14.9925 -14.9722 -14.9633 -14.9374 -14.8835 -14.8760 -14.8679
   -14.8602 -14.8102 -14.8064 -14.7667 -14.7157 -14.7122 -14.6355 -13.1771
   -12.8288 -12.8288  -9.4190  -6.3369  -5.9122  -5.6714  -4.2303  -2.9356
    -2.8469  -2.8362  -2.8295  -2.6997  -2.6261  -2.5508  -2.5287  -2.5070
    -2.4211  -2.4092  -2.3784  -2.3533  -2.3234  -2.2846  -2.2468  -2.2404
    -2.2043  -2.1958  -2.1799  -2.1633  -2.1418  -2.1264  -2.0924  -2.0817
    -2.0684  -2.0245  -1.9983  -1.9845  -1.9631  -1.9429  -1.9348  -1.9163
    -1.8412  -1.7513  -1.7267  -1.6419  -1.5735  -1.5703  -1.5646  -1.5025
    -1.4590  -1.4208  -1.3957  -1.3788  -1.2396  -1.1679  -1.1237  -1.1096
    -1.0949  -0.9641  -0.9578  -0.8817  -0.8592  -0.8528  -0.7595  -0.7150
    -0.6762  -0.6693  -0.5827  -0.5705  -0.4945  -0.3962  -0.3743  -0.3605
    -0.3153  -0.3135  -0.2760  -0.2631  -0.1667  -0.1312  -0.1071  -0.0973
    -0.0803  -0.0391   0.1120   0.1609   0.1674   0.3007   0.3323   0.4708
     0.5007   0.5650   0.6447   0.6934   0.7459   0.7787   0.8659   0.9400
     0.9431   1.0064   1.0221   1.0881   1.1003   1.3638   2.0367   2.0373
     2.1251   2.1254   3.8854   4.0006   4.0042   4.0333   4.1557   4.1789
     4.2551   4.2827   4.3220   4.3254   4.3834

     the Fermi energy is     3.8015 ev

!    total energy              =   -2977.68378165 Ry
     estimated scf accuracy    <       0.00000004 Ry
     smearing contrib. (-TS)   =      -0.03717378 Ry
     internal energy E=F+TS    =   -2977.64660788 Ry

     The total energy is F=E-TS. E is the sum of the following terms:
     one-electron contribution =  -22681.92887587 Ry
     hartree contribution      =   11438.32934066 Ry
     xc contribution           =    -496.62062576 Ry
     ewald contribution        =    8762.57158705 Ry
     electric field correction =       0.00196604 Ry

     convergence has been achieved in  80 iterations

     Forces acting on atoms (cartesian axes, Ry/au):

     atom    1 type  1   force =     0.00023974   -0.00037774    0.09321705
     atom    2 type  1   force =     0.00002095   -0.00038346   -0.17819496
     atom    3 type  2   force =     0.00004940   -0.00041473   -0.02001043
     atom    4 type  2   force =     0.00001248   -0.00190228    0.05912098
     atom    5 type  2   force =    -0.01034423   -0.00059489    0.00861877
     atom    6 type  2   force =     0.01129388    0.00009430    0.00628979
     atom    7 type  1   force =    -0.00096265    0.00198052   -0.01427719
     atom    8 type  1   force =     0.00097410   -0.00255728   -0.00599109
     atom    9 type  2   force =     0.00016896   -0.00001504    0.00009922
     atom   10 type  2   force =    -0.00230784    0.00309564    0.00263000
     atom   11 type  2   force =     0.00041504   -0.00043369   -0.00056248
     atom   12 type  2   force =     0.00004114   -0.00041315   -0.00056843
     atom   13 type  1   force =     0.00033115   -0.00027470   -0.00019905
     atom   14 type  1   force =     0.00005468   -0.00009082   -0.00006089
     atom   15 type  2   force =    -0.00000125    0.00057386   -0.00003443
     atom   16 type  2   force =     0.00030787    0.00027295   -0.00011873
     atom   17 type  2   force =     0.00035796    0.00023922    0.00035834
     atom   18 type  2   force =    -0.00048800    0.00020091   -0.00010626
     atom   19 type  1   force =    -0.00013459    0.00006004    0.00031858
     atom   20 type  1   force =    -0.00010435   -0.00021038    0.00066157
     atom   21 type  2   force =     0.00012047   -0.00011129    0.10400776
     atom   22 type  2   force =     0.00017070   -0.00026295    0.00043481
     atom   23 type  2   force =    -0.07027914   -0.00019167   -0.02687016
     atom   24 type  2   force =     0.07026495    0.00025206   -0.02687053
     atom   25 type  1   force =     0.00017183   -0.00030271    0.09240756
     atom   26 type  1   force =     0.00005747   -0.00054664   -0.17851930
     atom   27 type  2   force =     0.00008237   -0.00021414   -0.01907531
     atom   28 type  2   force =     0.00005989   -0.00173235    0.05853572
     atom   29 type  2   force =    -0.01101295   -0.00114375    0.00945558
     atom   30 type  2   force =     0.01187161   -0.00070017    0.00723789
     atom   31 type  1   force =    -0.00087733    0.00645904   -0.01493350
     atom   32 type  1   force =     0.00102002    0.00220146   -0.00639296
     atom   33 type  2   force =     0.00025835    0.00009442    0.00002906
     atom   34 type  2   force =    -0.00214485   -0.00243734   -0.00030065
     atom   35 type  2   force =     0.00027408    0.00013245   -0.00000258
     atom   36 type  2   force =     0.00026235    0.00004212    0.00051426
     atom   37 type  1   force =    -0.00010412    0.00002244   -0.00005039
     atom   38 type  1   force =     0.00015739   -0.00006953    0.00000456
     atom   39 type  2   force =    -0.00010264   -0.00020329    0.00042890
     atom   40 type  2   force =    -0.00014119    0.00008781    0.00005740
     atom   41 type  2   force =    -0.00045122    0.00013421    0.00028031
     atom   42 type  2   force =     0.00025597   -0.00009961   -0.00015728
     atom   43 type  1   force =     0.00039070    0.00031518   -0.00002988
     atom   44 type  1   force =    -0.00007196    0.00001956    0.00008847
     atom   45 type  2   force =     0.00012649   -0.00011024    0.10394810
     atom   46 type  2   force =    -0.07024631   -0.00013366   -0.02681067
     atom   47 type  2   force =     0.07023740    0.00027381   -0.02687472
     atom   48 type  3   force =     0.00007698   -0.00023928   -0.00026022
     atom   49 type  3   force =     0.00412869   -0.00706766   -0.00510595
     atom   50 type  4   force =    -0.00043239    0.00004855   -0.00021417
     atom   51 type  5   force =    -0.00062588    0.00037952    0.00039344
     atom   52 type  5   force =     0.00041222   -0.00004985    0.00036790
     atom   53 type  5   force =    -0.00002724    0.00019186   -0.00046435
     atom   54 type  5   force =     0.00009999   -0.00018853   -0.00004969
     atom   55 type  5   force =    -0.00442587    0.00845089    0.00460606
     atom   56 type  5   force =     0.00033345   -0.00168429   -0.00019308
     atom   57 type  2   force =    -0.00105086   -0.00058544    0.00079458
     atom   58 type  5   force =     0.00010284   -0.00038257   -0.00015814
     atom   59 type  5   force =     0.00113330    0.00050230   -0.00144918

     Total force =     0.366564     Total SCF correction =     0.000636
  @ DRIVER MODE: Message from server: STATUS
  @ DRIVER MODE: Message from server: GETFORCE
  @ DRIVER MODE: Returning v,forces,stress,ensemble 

     Writing output data file ./calc.save/
  @ DRIVER MODE: Message from server: EXIT
  @ DRIVE MODE: Exiting  
 
     init_run     :     10.98s CPU     11.18s WALL (       1 calls)
     electrons    :   1324.80s CPU   1343.64s WALL (       1 calls)
     forces       :      2.46s CPU      2.56s WALL (       1 calls)

     Called by init_run:
     wfcinit      :      4.96s CPU      5.02s WALL (       1 calls)
     potinit      :      5.34s CPU      5.40s WALL (       1 calls)
     hinit0       :      0.30s CPU      0.31s WALL (       1 calls)

     Called by electrons:
     c_bands      :   1130.41s CPU   1138.26s WALL (      80 calls)
     sum_band     :    131.32s CPU    135.74s WALL (      80 calls)
     v_of_rho     :     46.42s CPU     48.67s WALL (      81 calls)
     newd         :     19.28s CPU     23.56s WALL (      81 calls)
     mix_rho      :      1.73s CPU      1.77s WALL (      80 calls)
     vdW_kernel   :      4.54s CPU      4.56s WALL (       1 calls)

     Called by c_bands:
     init_us_2    :      9.06s CPU      9.10s WALL (    1620 calls)
     cegterg      :   1107.26s CPU   1114.75s WALL (     818 calls)

     Called by *egterg:
     cdiaghg      :    182.55s CPU    183.38s WALL (    8646 calls)
     h_psi        :    578.67s CPU    583.81s WALL (    8659 calls)
     s_psi        :     80.70s CPU     80.95s WALL (    8659 calls)
     g_psi        :      2.27s CPU      2.29s WALL (    7831 calls)

     Called by h_psi:
     h_psi:calbec :     75.97s CPU     76.32s WALL (    8659 calls)
     vloc_psi     :    416.56s CPU    420.61s WALL (    8659 calls)
     add_vuspsi   :     81.62s CPU     82.10s WALL (    8659 calls)

     General routines
     calbec       :     99.29s CPU     99.72s WALL (    9499 calls)
     fft          :     24.26s CPU     24.43s WALL (    5103 calls)
     ffts         :      0.17s CPU      0.17s WALL (     161 calls)
     fftw         :    466.29s CPU    470.83s WALL ( 1121960 calls)
     interpolate  :      0.50s CPU      0.50s WALL (      81 calls)
     davcio       :      0.00s CPU      0.24s WALL (      10 calls)
 
     Parallel routines
 
     PWSCF        :  22m18.47s CPU  22m38.06s WALL

 
   This run was terminated on:   7:51: 0  16Sep2021            

=------------------------------------------------------------------------------=
   JOB DONE.
=------------------------------------------------------------------------------=
