
     Program PWSCF v.6.7GPU starts on 23Aug2021 at 16:11:51 

     This program is part of the open-source Quantum ESPRESSO suite
     for quantum simulation of materials; please cite
         "P. Giannozzi et al., J. Phys.:Condens. Matter 21 395502 (2009);
         "P. Giannozzi et al., J. Phys.:Condens. Matter 29 465901 (2017);
         "P. Giannozzi et al., J. Chem. Phys. 152 154105 (2020);
          URL http://www.quantum-espresso.org", 
     in publications or presentations arising from this work. More details at
     http://www.quantum-espresso.org/quote

     Parallel version (MPI), running on     6 processors

     MPI processes distributed on     1 nodes
     R & G space division:  proc/nbgrp/npool/nimage =       6
     Reading input from /storage/home/hcoda1/3/ntian30/research/carbon/CH_vib/ads_slab/CHN2_b/out_0007/pw.inp
Warning: card &CELL ignored
Warning: card   CELL_DYNAMICS='IPI', ignored
Warning: card / ignored

     Current dimensions of program PWSCF are:
     Max number of different atomic species (ntypx) = 10
     Max number of k-points (npk) =  40000
     Max angular momentum in pseudopotentials (lmaxx) =  3
     Presently no symmetry can be used with electric field

     Message from routine cell_base_init:
     DEPRECATED: use true lattice parameter, not A to a.u. conversion factor

     **************************************************************************
     Initializing libbeef V0.1.2 with the BEEF-vdW functional.
     Citation: Wellendorff et al., PRB 85, 235149 (2012).
     **************************************************************************


     IMPORTANT: XC functional enforced from input :
     Exchange-correlation= BEEF-VDW
                           (   1   4  43  14   2   0   0)
     Any further DFT definition will be discarded
     Please, verify this is what you really want


     Subspace diagonalization in iterative solution of the eigenvalue problem:
     one sub-group per band group will be used
     scalapack distributed-memory algorithm (size of sub-group:  2*  2 procs)

  @ DRIVER MODE: Connecting to 
 qe_1139763_2632794.sched-torque.pace.gatech.edu453g8lqe_scratch
  using UNIX socket
  @ DRIVER MODE: Message from server: STATUS
  @ DRIVER MODE: Message from server: INIT
  @ DRIVER MODE: Receiving replica           0          -1
  @ DRIVER MODE: Receiving encoded integer          25
  @ DRIVER MODE:  SCF:  T  FORCE:  T  STRESS:  F  VC:  F  ENSEMBLE:  F
  @ DRIVER MODE:  SCF:  T  FORCE:  T  STRESS:  F  VC:  F  ENSEMBLE:  F
 
     Parallelization info
     --------------------
     sticks:   dense  smooth     PW     G-vecs:    dense   smooth      PW
     Min         545     219     63                94473    23902    3663
     Max         546     222     64                94484    23905    3665
     Sum        3275    1317    379               566857   143421   21985
 
     Using Slab Decomposition
 


     bravais-lattice index     =            0
     lattice parameter (alat)  =       1.8897  a.u.
     unit-cell volume          =    6658.9804 (a.u.)^3
     number of atoms/cell      =           51
     number of atomic types    =            5
     number of electrons       =       393.00
     number of Kohn-Sham states=          206
     kinetic-energy cutoff     =      29.3995  Ry
     charge density cutoff     =     293.9946  Ry
     scf convergence threshold =      7.3E-08
     mixing beta               =       0.0500
     number of iterations used =            8  plain     mixing
     Exchange-correlation= BEEF-VDW
                           (   1   4  43  14   2   0   0)

     celldm(1)=   1.889726  celldm(2)=   0.000000  celldm(3)=   0.000000
     celldm(4)=   0.000000  celldm(5)=   0.000000  celldm(6)=   0.000000

     crystal axes: (cart. coord. in units of alat)
               a(1) = (   6.579727   0.000000   0.000000 )  
               a(2) = (  -0.000775   5.961596   0.000000 )  
               a(3) = (   0.000000   0.000000  25.155947 )  

     reciprocal axes: (cart. coord. in units 2 pi/alat)
               b(1) = (  0.151982  0.000020  0.000000 )  
               b(2) = (  0.000000  0.167740  0.000000 )  
               b(3) = (  0.000000  0.000000  0.039752 )  


     PseudoPot. # 1 for Ti read from file:
     /storage/coda1/p-amedford6/0/shared/rich_project_chbe-medford/medford-share/data/pseudos_module/espresso/nninc/pbe/van/Ti.UPF
     MD5 check sum: 8e4df49b7f0d34bbd5052bf3f5ea0213
     Pseudo is Ultrasoft, Zval = 12.0
     Generated by new atomic code, or converted to UPF format
     Using radial grid of  851 points,  6 beta functions with: 
                l(1) =   0
                l(2) =   0
                l(3) =   1
                l(4) =   1
                l(5) =   2
                l(6) =   2
     Q(r) pseudized with  8 coefficients,  rinner =    1.000   1.000   1.000
                                                       1.000   1.000

     PseudoPot. # 2 for O  read from file:
     /storage/coda1/p-amedford6/0/shared/rich_project_chbe-medford/medford-share/data/pseudos_module/espresso/nninc/pbe/van/O.UPF
     MD5 check sum: 78c19812648e8988a0fe644b0f25305e
     Pseudo is Ultrasoft, Zval =  6.0
     Generated by new atomic code, or converted to UPF format
     Using radial grid of  737 points,  4 beta functions with: 
                l(1) =   0
                l(2) =   0
                l(3) =   1
                l(4) =   1
     Q(r) pseudized with  8 coefficients,  rinner =    0.800   0.800   0.800


     PseudoPot. # 3 for N  read from file:
     /storage/coda1/p-amedford6/0/shared/rich_project_chbe-medford/medford-share/data/pseudos_module/espresso/nninc/pbe/van/N.UPF
     MD5 check sum: 90d10febe142ad51ac9d5be1deb811c4
     Pseudo is Ultrasoft, Zval =  5.0
     Generated by new atomic code, or converted to UPF format
     Using radial grid of  729 points,  4 beta functions with: 
                l(1) =   0
                l(2) =   0
                l(3) =   1
                l(4) =   1
     Q(r) pseudized with  8 coefficients,  rinner =    0.800   0.800   0.800


     PseudoPot. # 4 for C  read from file:
     /storage/coda1/p-amedford6/0/shared/rich_project_chbe-medford/medford-share/data/pseudos_module/espresso/nninc/pbe/van/C.UPF
     MD5 check sum: 1a69bf6b8db32088f5b2163dbdb77a27
     Pseudo is Ultrasoft, Zval =  4.0
     Generated by new atomic code, or converted to UPF format
     Using radial grid of  721 points,  4 beta functions with: 
                l(1) =   0
                l(2) =   0
                l(3) =   1
                l(4) =   1
     Q(r) pseudized with  8 coefficients,  rinner =    0.800   0.800   0.800


     PseudoPot. # 5 for H  read from file:
     /storage/coda1/p-amedford6/0/shared/rich_project_chbe-medford/medford-share/data/pseudos_module/espresso/nninc/pbe/van/H.UPF
     MD5 check sum: b5ee9d7bfd3a09ee7748110bda690ff7
     Pseudo is Ultrasoft, Zval =  1.0
     Generated by new atomic code, or converted to UPF format
     Using radial grid of  615 points,  1 beta functions with: 
                l(1) =   0
     Q(r) pseudized with  8 coefficients,  rinner =    0.800

     atomic species   valence    mass     pseudopotential
        Ti1           12.00    47.86700     Ti( 1.00)
        O1             6.00    15.99900     O ( 1.00)
        N1             5.00    14.00700     N ( 1.00)
        C1             4.00    12.01100     C ( 1.00)
        H1             1.00     1.00800     H ( 1.00)

     No symmetry found



   Cartesian axes

     site n.     atom                  positions (alat units)
         1           Ti1 tau(   1) = (   0.0004258   2.9801865   6.0000000  )
         2           Ti1 tau(   2) = (   3.2906075   1.4906267   6.0002472  )
         3           O1  tau(   3) = (   0.0006271   0.0005054   7.9858123  )
         4           O1  tau(   4) = (   3.2906025   0.0005020   7.3038282  )
         5           O1  tau(   5) = (   4.5942328   1.4918067   9.2879030  )
         6           O1  tau(   6) = (   1.9868534   1.4903216   9.2879459  )
         7           Ti1 tau(   7) = (   3.2907910   2.8959150   9.1758416  )
         8           Ti1 tau(   8) = (   0.0015273   1.4827037   9.2680791  )
         9           O1  tau(   9) = (   3.2950996   0.0139504  11.3317891  )
        10           O1  tau(  10) = (   0.0116148   5.9584955  10.6183126  )
        11           O1  tau(  11) = (   1.2919129   1.4990403  12.6236220  )
        12           O1  tau(  12) = (   5.2764399   1.5074276  12.6212280  )
        13           Ti1 tau(  13) = (   0.0528816   2.9532107  12.6238214  )
        14           Ti1 tau(  14) = (   3.3640876   1.5054642  12.4823551  )
        15           O1  tau(  15) = (   0.0126464   0.0517330  14.6735668  )
        16           O1  tau(  16) = (   3.2893787   0.0313947  13.9162352  )
        17           O1  tau(  17) = (   4.5455072   1.5470193  16.0571763  )
        18           O1  tau(  18) = (   2.0683839   1.5479149  16.0688871  )
        19           Ti1 tau(  19) = (   3.3004933   3.0285056  15.7062229  )
        20           Ti1 tau(  20) = (   6.5748692   1.5544668  15.8636821  )
        21           O1  tau(  21) = (   3.2904802   0.0005063   4.7018136  )
        22           O1  tau(  22) = (   0.0156978   0.0568370  17.2307755  )
        23           O1  tau(  23) = (   1.3043587   1.4918075   6.0039043  )
        24           O1  tau(  24) = (   5.2767064   1.4903225   6.0039473  )
        25           Ti1 tau(  25) = (   0.0000382   5.9609847   6.0000000  )
        26           Ti1 tau(  26) = (   3.2902200   4.4714249   6.0002472  )
        27           O1  tau(  27) = (   0.0002396   2.9813036   7.9858123  )
        28           O1  tau(  28) = (   3.2902150   2.9813002   7.3038282  )
        29           O1  tau(  29) = (   4.5938453   4.4726049   9.2879030  )
        30           O1  tau(  30) = (   1.9864658   4.4711199   9.2879459  )
        31           Ti1 tau(  31) = (   3.2891106   5.8743827   9.1763621  )
        32           Ti1 tau(  32) = (   0.0006254   4.4649316   9.2693709  )
        33           O1  tau(  33) = (   3.2930415   3.0011583  11.3325650  )
        34           O1  tau(  34) = (   0.0092240   2.9805883  10.6323155  )
        35           O1  tau(  35) = (   1.2898468   4.4882246  12.6384491  )
        36           O1  tau(  36) = (   5.2806636   4.4975927  12.6358184  )
        37           Ti1 tau(  37) = (   0.0525728   5.9296047  12.5528222  )
        38           Ti1 tau(  38) = (   3.3636738   4.4864912  12.4891182  )
        39           O1  tau(  39) = (   0.0107234   2.9627607  14.6747216  )
        40           O1  tau(  40) = (   3.2927234   3.0099296  13.9079960  )
        41           O1  tau(  41) = (   4.5395255   4.5218754  16.0742521  )
        42           O1  tau(  42) = (   2.0629885   4.5199598  16.0715304  )
        43           Ti1 tau(  43) = (   3.2878121   0.0461507  15.7166771  )
        44           Ti1 tau(  44) = (   0.0020781   4.6962996  16.1098215  )
        45           O1  tau(  45) = (   3.2900926   2.9813045   4.7018136  )
        46           O1  tau(  46) = (   1.3039711   4.4726057   6.0039043  )
        47           O1  tau(  47) = (   5.2763189   4.4711207   6.0039473  )
        48           N1  tau(  48) = (   0.1203982   2.9607606  18.6152809  )
        49           N1  tau(  49) = (   0.0057770   3.0106383  17.4001577  )
        50           C1  tau(  50) = (   0.0651646   2.9076078  19.8026698  )
        51           H1  tau(  51) = (   0.7310076   2.8879977  20.6380856  )

     number of k points=    10  Fermi-Dirac smearing, width (Ry)=  0.0073
                       cart. coord. in units 2pi/alat
        k(    1) = (   0.0000000   0.0000000   0.0000000), wk =   0.1250000
        k(    2) = (   0.0000000   0.0419351   0.0000000), wk =   0.2500000
        k(    3) = (   0.0000000  -0.0838702   0.0000000), wk =   0.1250000
        k(    4) = (   0.0379955   0.0000049   0.0000000), wk =   0.2500000
        k(    5) = (   0.0379955   0.0419400   0.0000000), wk =   0.2500000
        k(    6) = (   0.0379955  -0.0838652   0.0000000), wk =   0.2500000
        k(    7) = (   0.0379955  -0.0419301   0.0000000), wk =   0.2500000
        k(    8) = (  -0.0759910  -0.0000099   0.0000000), wk =   0.1250000
        k(    9) = (  -0.0759910   0.0419252   0.0000000), wk =   0.2500000
        k(   10) = (  -0.0759910  -0.0838800   0.0000000), wk =   0.1250000

     Dense  grid:   566857 G-vectors     FFT dimensions: (  72,  64, 270)

     Smooth grid:   143421 G-vectors     FFT dimensions: (  45,  40, 180)

     Estimated max dynamical RAM per process >     600.39 MB

     Estimated total dynamical RAM >       3.52 GB
     Cannot read rho : file not found

     Initial potential from superposition of free atoms

     starting charge  376.99918, renormalised to  393.00000

     negative rho (up, down):  1.565E-02 0.000E+00


     %%%%%%%%%%%%%%%%%%%%%%%%%%%%%%%%%%%%%%%%%%%%%%%%%%%%%%%%%%%%%%%%%%%%%%%%
     %                                                                      %
     % You are using vdW-DF, which was implemented by the Thonhauser group. %
     % Please cite the following two papers that made this development      %
     % possible and the two reviews that describe the various versions:     %
     %                                                                      %
     %   T. Thonhauser et al., PRL 115, 136402 (2015).                      %
     %   T. Thonhauser et al., PRB 76, 125112 (2007).                       %
     %   K. Berland et al., Rep. Prog. Phys. 78, 066501 (2015).             %
     %   D.C. Langreth et al., J. Phys.: Condens. Matter 21, 084203 (2009). %
     %                                                                      %
     %                                                                      %
     % If you are calculating the stress with vdW-DF, please also cite:     %
     %                                                                      %
     %   R. Sabatini et al., J. Phys.: Condens. Matter 24, 424209 (2012).   %
     %                                                                      %
     %%%%%%%%%%%%%%%%%%%%%%%%%%%%%%%%%%%%%%%%%%%%%%%%%%%%%%%%%%%%%%%%%%%%%%%%


 
     Adding external electric field

     Computed dipole along edir(3) : 
        Dipole               -7.5501 Ry au,        -19.1904 Debye
        Dipole field         -0.0142 Ry au, 
 
        Potential amp.        1.3208 Ry
        Total length         46.3494 bohr
 
     Starting wfcs are  297 atomic wfcs
  @ DRIVER MODE: Message from server: STATUS
  @ DRIVER MODE: Message from server: POSDATA
  @ DRIVER MODE: Reading and sharing cell 
  @ DRIVER MODE: Reading and sharing positions 
  @ DRIVER MODE: Received positions 

     total cpu time spent up to now is       18.7 secs

     Self-consistent Calculation

     iteration #  1     ecut=    29.40 Ry     beta= 0.05
     Davidson diagonalization with overlap
     c_bands:  1 eigenvalues not converged
     c_bands:  1 eigenvalues not converged
     c_bands:  1 eigenvalues not converged
     ethr =  1.00E-05,  avg # of iterations = 18.4

     negative rho (up, down):  1.484E-02 0.000E+00
 
     Adding external electric field

     Computed dipole along edir(3) : 
        Dipole               32.0891 Ry au,         81.5624 Debye
        Dipole field          0.0606 Ry au, 
 
        Potential amp.       -5.6135 Ry
        Total length         46.3494 bohr
 

     total cpu time spent up to now is       82.4 secs

     total energy              =   -2707.50614979 Ry
     estimated scf accuracy    <    2541.63600929 Ry

     iteration #  2     ecut=    29.40 Ry     beta= 0.05
     Davidson diagonalization with overlap
     c_bands:  1 eigenvalues not converged
     ethr =  1.00E-02,  avg # of iterations = 21.5

     negative rho (up, down):  4.840E-03 0.000E+00
 
     Adding external electric field

     Computed dipole along edir(3) : 
        Dipole               -3.3962 Ry au,         -8.6322 Debye
        Dipole field         -0.0064 Ry au, 
 
        Potential amp.        0.5941 Ry
        Total length         46.3494 bohr
 

     total cpu time spent up to now is      189.5 secs

     total energy              =   -2520.90619120 Ry
     estimated scf accuracy    <   54207.77373279 Ry

     iteration #  3     ecut=    29.40 Ry     beta= 0.05
     Davidson diagonalization with overlap
     ethr =  1.00E-02,  avg # of iterations = 15.9

     negative rho (up, down):  4.911E-03 0.000E+00
 
     Adding external electric field

     Computed dipole along edir(3) : 
        Dipole               -4.8169 Ry au,        -12.2434 Debye
        Dipole field         -0.0091 Ry au, 
 
        Potential amp.        0.8427 Ry
        Total length         46.3494 bohr
 

     total cpu time spent up to now is      260.7 secs

     total energy              =   -2918.76127143 Ry
     estimated scf accuracy    <    2441.10068500 Ry

     iteration #  4     ecut=    29.40 Ry     beta= 0.05
     Davidson diagonalization with overlap
     c_bands:  4 eigenvalues not converged
     ethr =  1.00E-02,  avg # of iterations = 12.9

     negative rho (up, down):  4.982E-03 0.000E+00
 
     Adding external electric field

     Computed dipole along edir(3) : 
        Dipole               -5.7604 Ry au,        -14.6414 Debye
        Dipole field         -0.0109 Ry au, 
 
        Potential amp.        1.0077 Ry
        Total length         46.3494 bohr
 

     total cpu time spent up to now is      288.5 secs

     total energy              =   -2924.09448458 Ry
     estimated scf accuracy    <     634.79700310 Ry

     iteration #  5     ecut=    29.40 Ry     beta= 0.05
     Davidson diagonalization with overlap
     ethr =  1.00E-02,  avg # of iterations =  9.7

     negative rho (up, down):  4.920E-03 0.000E+00
 
     Adding external electric field

     Computed dipole along edir(3) : 
        Dipole               -5.5092 Ry au,        -14.0031 Debye
        Dipole field         -0.0104 Ry au, 
 
        Potential amp.        0.9638 Ry
        Total length         46.3494 bohr
 

     total cpu time spent up to now is      314.7 secs

     total energy              =   -2937.52329049 Ry
     estimated scf accuracy    <      20.04970099 Ry

     iteration #  6     ecut=    29.40 Ry     beta= 0.05
     Davidson diagonalization with overlap
     ethr =  5.10E-03,  avg # of iterations =  3.0

     negative rho (up, down):  4.872E-03 0.000E+00
 
     Adding external electric field

     Computed dipole along edir(3) : 
        Dipole               -4.7600 Ry au,        -12.0987 Debye
        Dipole field         -0.0090 Ry au, 
 
        Potential amp.        0.8327 Ry
        Total length         46.3494 bohr
 

     total cpu time spent up to now is      333.7 secs

     total energy              =   -2937.95008061 Ry
     estimated scf accuracy    <      13.84004441 Ry

     iteration #  7     ecut=    29.40 Ry     beta= 0.05
     Davidson diagonalization with overlap
     ethr =  3.52E-03,  avg # of iterations =  1.1

     negative rho (up, down):  4.956E-03 0.000E+00
 
     Adding external electric field

     Computed dipole along edir(3) : 
        Dipole               -1.6332 Ry au,         -4.1512 Debye
        Dipole field         -0.0031 Ry au, 
 
        Potential amp.        0.2857 Ry
        Total length         46.3494 bohr
 

     total cpu time spent up to now is      351.0 secs

     total energy              =   -2936.57267687 Ry
     estimated scf accuracy    <      13.14511553 Ry

     iteration #  8     ecut=    29.40 Ry     beta= 0.05
     Davidson diagonalization with overlap
     c_bands:  1 eigenvalues not converged
     ethr =  3.34E-03,  avg # of iterations = 10.6

     negative rho (up, down):  5.005E-03 0.000E+00
 
     Adding external electric field

     Computed dipole along edir(3) : 
        Dipole               -1.5572 Ry au,         -3.9579 Debye
        Dipole field         -0.0029 Ry au, 
 
        Potential amp.        0.2724 Ry
        Total length         46.3494 bohr
 

     total cpu time spent up to now is      374.5 secs

     total energy              =   -2940.25465883 Ry
     estimated scf accuracy    <     453.20882340 Ry

     iteration #  9     ecut=    29.40 Ry     beta= 0.05
     Davidson diagonalization with overlap
     ethr =  3.34E-03,  avg # of iterations =  2.1

     negative rho (up, down):  5.089E-03 0.000E+00
 
     Adding external electric field

     Computed dipole along edir(3) : 
        Dipole               -2.9727 Ry au,         -7.5559 Debye
        Dipole field         -0.0056 Ry au, 
 
        Potential amp.        0.5200 Ry
        Total length         46.3494 bohr
 

     total cpu time spent up to now is      393.0 secs

     total energy              =   -2932.01825072 Ry
     estimated scf accuracy    <     521.85266386 Ry

     iteration # 10     ecut=    29.40 Ry     beta= 0.05
     Davidson diagonalization with overlap
     ethr =  3.34E-03,  avg # of iterations =  6.9

     negative rho (up, down):  5.086E-03 0.000E+00
 
     Adding external electric field

     Computed dipole along edir(3) : 
        Dipole               -3.4424 Ry au,         -8.7497 Debye
        Dipole field         -0.0065 Ry au, 
 
        Potential amp.        0.6022 Ry
        Total length         46.3494 bohr
 

     total cpu time spent up to now is      415.2 secs

     total energy              =   -2936.03321823 Ry
     estimated scf accuracy    <      24.48189232 Ry

     iteration # 11     ecut=    29.40 Ry     beta= 0.05
     Davidson diagonalization with overlap
     ethr =  3.34E-03,  avg # of iterations =  3.5

     negative rho (up, down):  5.065E-03 0.000E+00
 
     Adding external electric field

     Computed dipole along edir(3) : 
        Dipole               -3.5013 Ry au,         -8.8993 Debye
        Dipole field         -0.0066 Ry au, 
 
        Potential amp.        0.6125 Ry
        Total length         46.3494 bohr
 

     total cpu time spent up to now is      434.1 secs

     total energy              =   -2936.11486022 Ry
     estimated scf accuracy    <      12.11303768 Ry

     iteration # 12     ecut=    29.40 Ry     beta= 0.05
     Davidson diagonalization with overlap
     ethr =  3.08E-03,  avg # of iterations =  5.8

     negative rho (up, down):  5.105E-03 0.000E+00
 
     Adding external electric field

     Computed dipole along edir(3) : 
        Dipole               -4.4236 Ry au,        -11.2437 Debye
        Dipole field         -0.0083 Ry au, 
 
        Potential amp.        0.7738 Ry
        Total length         46.3494 bohr
 

     total cpu time spent up to now is      454.4 secs

     total energy              =   -2936.95862480 Ry
     estimated scf accuracy    <       3.51339039 Ry

     iteration # 13     ecut=    29.40 Ry     beta= 0.05
     Davidson diagonalization with overlap
     ethr =  8.94E-04,  avg # of iterations = 16.1

     negative rho (up, down):  5.077E-03 0.000E+00
 
     Adding external electric field

     Computed dipole along edir(3) : 
        Dipole               -4.0473 Ry au,        -10.2873 Debye
        Dipole field         -0.0076 Ry au, 
 
        Potential amp.        0.7080 Ry
        Total length         46.3494 bohr
 

     total cpu time spent up to now is      491.3 secs

     total energy              =   -2937.35761430 Ry
     estimated scf accuracy    <     328.62491362 Ry

     iteration # 14     ecut=    29.40 Ry     beta= 0.05
     Davidson diagonalization with overlap
     ethr =  8.94E-04,  avg # of iterations =  3.0

     negative rho (up, down):  5.154E-03 0.000E+00
 
     Adding external electric field

     Computed dipole along edir(3) : 
        Dipole               -4.4484 Ry au,        -11.3066 Debye
        Dipole field         -0.0084 Ry au, 
 
        Potential amp.        0.7782 Ry
        Total length         46.3494 bohr
 

     total cpu time spent up to now is      510.1 secs

     total energy              =   -2938.76391822 Ry
     estimated scf accuracy    <     106.18412909 Ry

     iteration # 15     ecut=    29.40 Ry     beta= 0.05
     Davidson diagonalization with overlap
     ethr =  8.94E-04,  avg # of iterations =  2.2

     negative rho (up, down):  5.051E-03 0.000E+00
 
     Adding external electric field

     Computed dipole along edir(3) : 
        Dipole               -3.9846 Ry au,        -10.1278 Debye
        Dipole field         -0.0075 Ry au, 
 
        Potential amp.        0.6970 Ry
        Total length         46.3494 bohr
 

     total cpu time spent up to now is      528.4 secs

     total energy              =   -2937.44061453 Ry
     estimated scf accuracy    <     444.64291225 Ry

     iteration # 16     ecut=    29.40 Ry     beta= 0.05
     Davidson diagonalization with overlap
     ethr =  8.94E-04,  avg # of iterations =  1.3

     negative rho (up, down):  5.002E-03 0.000E+00
 
     Adding external electric field

     Computed dipole along edir(3) : 
        Dipole               -3.9957 Ry au,        -10.1559 Debye
        Dipole field         -0.0075 Ry au, 
 
        Potential amp.        0.6990 Ry
        Total length         46.3494 bohr
 

     total cpu time spent up to now is      546.0 secs

     total energy              =   -2937.81559010 Ry
     estimated scf accuracy    <     108.53200459 Ry

     iteration # 17     ecut=    29.40 Ry     beta= 0.05
     Davidson diagonalization with overlap
     ethr =  8.94E-04,  avg # of iterations =  1.0

     negative rho (up, down):  4.499E-03 0.000E+00
 
     Adding external electric field

     Computed dipole along edir(3) : 
        Dipole               -3.7661 Ry au,         -9.5725 Debye
        Dipole field         -0.0071 Ry au, 
 
        Potential amp.        0.6588 Ry
        Total length         46.3494 bohr
 

     total cpu time spent up to now is      563.0 secs

     total energy              =   -2938.04091665 Ry
     estimated scf accuracy    <      88.32277238 Ry

     iteration # 18     ecut=    29.40 Ry     beta= 0.05
     Davidson diagonalization with overlap
     ethr =  8.94E-04,  avg # of iterations =  1.0

     negative rho (up, down):  4.312E-03 0.000E+00
 
     Adding external electric field

     Computed dipole along edir(3) : 
        Dipole               -2.8953 Ry au,         -7.3590 Debye
        Dipole field         -0.0055 Ry au, 
 
        Potential amp.        0.5065 Ry
        Total length         46.3494 bohr
 

     total cpu time spent up to now is      580.3 secs

     total energy              =   -2936.82500988 Ry
     estimated scf accuracy    <     143.37099717 Ry

     iteration # 19     ecut=    29.40 Ry     beta= 0.05
     Davidson diagonalization with overlap
     ethr =  8.94E-04,  avg # of iterations =  2.9

     negative rho (up, down):  3.555E-03 0.000E+00
 
     Adding external electric field

     Computed dipole along edir(3) : 
        Dipole               -1.1808 Ry au,         -3.0014 Debye
        Dipole field         -0.0022 Ry au, 
 
        Potential amp.        0.2066 Ry
        Total length         46.3494 bohr
 

     total cpu time spent up to now is      598.9 secs

     total energy              =   -2936.15116959 Ry
     estimated scf accuracy    <      55.51648048 Ry

     iteration # 20     ecut=    29.40 Ry     beta= 0.05
     Davidson diagonalization with overlap
     ethr =  8.94E-04,  avg # of iterations = 10.0

     negative rho (up, down):  3.660E-03 0.000E+00
 
     Adding external electric field

     Computed dipole along edir(3) : 
        Dipole               -1.4250 Ry au,         -3.6220 Debye
        Dipole field         -0.0027 Ry au, 
 
        Potential amp.        0.2493 Ry
        Total length         46.3494 bohr
 

     total cpu time spent up to now is      622.9 secs

     total energy              =   -2936.99554667 Ry
     estimated scf accuracy    <       7.42412966 Ry

     iteration # 21     ecut=    29.40 Ry     beta= 0.05
     Davidson diagonalization with overlap
     ethr =  8.94E-04,  avg # of iterations =  1.0

     negative rho (up, down):  4.996E-03 0.000E+00
 
     Adding external electric field

     Computed dipole along edir(3) : 
        Dipole               -2.3483 Ry au,         -5.9689 Debye
        Dipole field         -0.0044 Ry au, 
 
        Potential amp.        0.4108 Ry
        Total length         46.3494 bohr
 

     total cpu time spent up to now is      640.3 secs

     total energy              =   -2936.45095733 Ry
     estimated scf accuracy    <       6.63907773 Ry

     iteration # 22     ecut=    29.40 Ry     beta= 0.05
     Davidson diagonalization with overlap
     ethr =  8.94E-04,  avg # of iterations =  6.3

     negative rho (up, down):  4.122E-03 0.000E+00
 
     Adding external electric field

     Computed dipole along edir(3) : 
        Dipole               -0.6974 Ry au,         -1.7726 Debye
        Dipole field         -0.0013 Ry au, 
 
        Potential amp.        0.1220 Ry
        Total length         46.3494 bohr
 

     total cpu time spent up to now is      661.3 secs

     total energy              =   -2936.27981226 Ry
     estimated scf accuracy    <      13.12257425 Ry

     iteration # 23     ecut=    29.40 Ry     beta= 0.05
     Davidson diagonalization with overlap
     c_bands:  3 eigenvalues not converged
     ethr =  8.94E-04,  avg # of iterations =  7.9

     negative rho (up, down):  4.081E-03 0.000E+00
 
     Adding external electric field

     Computed dipole along edir(3) : 
        Dipole               -0.2130 Ry au,         -0.5415 Debye
        Dipole field         -0.0004 Ry au, 
 
        Potential amp.        0.0373 Ry
        Total length         46.3494 bohr
 

     total cpu time spent up to now is      682.5 secs

     total energy              =   -2936.59931420 Ry
     estimated scf accuracy    <       1.18808320 Ry

     iteration # 24     ecut=    29.40 Ry     beta= 0.05
     Davidson diagonalization with overlap
     c_bands:  5 eigenvalues not converged
     c_bands:  1 eigenvalues not converged
     c_bands:  3 eigenvalues not converged
     c_bands:  3 eigenvalues not converged
     c_bands:  1 eigenvalues not converged
     c_bands:  4 eigenvalues not converged
     c_bands:  5 eigenvalues not converged
     c_bands:  5 eigenvalues not converged
     c_bands:  2 eigenvalues not converged
     ethr =  3.02E-04,  avg # of iterations = 23.7

     negative rho (up, down):  4.036E-03 0.000E+00
 
     Adding external electric field

     Computed dipole along edir(3) : 
        Dipole               -0.2469 Ry au,         -0.6275 Debye
        Dipole field         -0.0005 Ry au, 
 
        Potential amp.        0.0432 Ry
        Total length         46.3494 bohr
 

     total cpu time spent up to now is      716.2 secs

     total energy              =   -2936.76247920 Ry
     estimated scf accuracy    <       1.66676403 Ry

     iteration # 25     ecut=    29.40 Ry     beta= 0.05
     Davidson diagonalization with overlap
     c_bands:  1 eigenvalues not converged
     ethr =  3.02E-04,  avg # of iterations =  7.5

     negative rho (up, down):  4.245E-03 0.000E+00
 
     Adding external electric field

     Computed dipole along edir(3) : 
        Dipole                0.1414 Ry au,          0.3594 Debye
        Dipole field          0.0003 Ry au, 
 
        Potential amp.       -0.0247 Ry
        Total length         46.3494 bohr
 

     total cpu time spent up to now is      737.1 secs

     total energy              =   -2936.60399207 Ry
     estimated scf accuracy    <       1.85437566 Ry

     iteration # 26     ecut=    29.40 Ry     beta= 0.05
     Davidson diagonalization with overlap
     ethr =  3.02E-04,  avg # of iterations =  4.1

     negative rho (up, down):  4.431E-03 0.000E+00
 
     Adding external electric field

     Computed dipole along edir(3) : 
        Dipole                0.4462 Ry au,          1.1341 Debye
        Dipole field          0.0008 Ry au, 
 
        Potential amp.       -0.0781 Ry
        Total length         46.3494 bohr
 

     total cpu time spent up to now is      756.9 secs

     total energy              =   -2936.67432026 Ry
     estimated scf accuracy    <       0.41639910 Ry

     iteration # 27     ecut=    29.40 Ry     beta= 0.05
     Davidson diagonalization with overlap
     c_bands:  3 eigenvalues not converged
     c_bands:  1 eigenvalues not converged
     c_bands:  1 eigenvalues not converged
     c_bands:  3 eigenvalues not converged
     c_bands:  3 eigenvalues not converged
     c_bands:  1 eigenvalues not converged
     c_bands:  1 eigenvalues not converged
     c_bands:  1 eigenvalues not converged
     c_bands:  1 eigenvalues not converged
     ethr =  1.06E-04,  avg # of iterations = 19.9

     negative rho (up, down):  4.751E-03 0.000E+00
 
     Adding external electric field

     Computed dipole along edir(3) : 
        Dipole                0.3571 Ry au,          0.9077 Debye
        Dipole field          0.0007 Ry au, 
 
        Potential amp.       -0.0625 Ry
        Total length         46.3494 bohr
 

     total cpu time spent up to now is      789.6 secs

     total energy              =   -2936.68489874 Ry
     estimated scf accuracy    <       0.54488733 Ry

     iteration # 28     ecut=    29.40 Ry     beta= 0.05
     Davidson diagonalization with overlap
     ethr =  1.06E-04,  avg # of iterations =  3.7

     negative rho (up, down):  5.249E-03 0.000E+00
 
     Adding external electric field

     Computed dipole along edir(3) : 
        Dipole                0.0876 Ry au,          0.2227 Debye
        Dipole field          0.0002 Ry au, 
 
        Potential amp.       -0.0153 Ry
        Total length         46.3494 bohr
 

     total cpu time spent up to now is      808.9 secs

     total energy              =   -2936.62286895 Ry
     estimated scf accuracy    <       0.37492340 Ry

     iteration # 29     ecut=    29.40 Ry     beta= 0.05
     Davidson diagonalization with overlap
     c_bands:  1 eigenvalues not converged
     c_bands:  2 eigenvalues not converged
     ethr =  9.54E-05,  avg # of iterations = 12.2

     negative rho (up, down):  5.441E-03 0.000E+00
 
     Adding external electric field

     Computed dipole along edir(3) : 
        Dipole               -0.2099 Ry au,         -0.5336 Debye
        Dipole field         -0.0004 Ry au, 
 
        Potential amp.        0.0367 Ry
        Total length         46.3494 bohr
 

     total cpu time spent up to now is      833.0 secs

     total energy              =   -2936.64744432 Ry
     estimated scf accuracy    <       0.22689606 Ry

     iteration # 30     ecut=    29.40 Ry     beta= 0.05
     Davidson diagonalization with overlap
     c_bands:  1 eigenvalues not converged
     c_bands:  1 eigenvalues not converged
     c_bands:  1 eigenvalues not converged
     ethr =  5.77E-05,  avg # of iterations = 17.2

     negative rho (up, down):  5.484E-03 0.000E+00
 
     Adding external electric field

     Computed dipole along edir(3) : 
        Dipole               -0.2334 Ry au,         -0.5933 Debye
        Dipole field         -0.0004 Ry au, 
 
        Potential amp.        0.0408 Ry
        Total length         46.3494 bohr
 

     total cpu time spent up to now is      860.1 secs

     total energy              =   -2936.66773519 Ry
     estimated scf accuracy    <       0.38662273 Ry

     iteration # 31     ecut=    29.40 Ry     beta= 0.05
     Davidson diagonalization with overlap
     ethr =  5.77E-05,  avg # of iterations =  1.1

     negative rho (up, down):  5.741E-03 0.000E+00
 
     Adding external electric field

     Computed dipole along edir(3) : 
        Dipole               -0.3824 Ry au,         -0.9721 Debye
        Dipole field         -0.0007 Ry au, 
 
        Potential amp.        0.0669 Ry
        Total length         46.3494 bohr
 

     total cpu time spent up to now is      877.5 secs

     total energy              =   -2936.63311590 Ry
     estimated scf accuracy    <       0.37881978 Ry

     iteration # 32     ecut=    29.40 Ry     beta= 0.05
     Davidson diagonalization with overlap
     c_bands:  1 eigenvalues not converged
     ethr =  5.77E-05,  avg # of iterations =  7.7

     negative rho (up, down):  5.715E-03 0.000E+00
 
     Adding external electric field

     Computed dipole along edir(3) : 
        Dipole               -0.3832 Ry au,         -0.9741 Debye
        Dipole field         -0.0007 Ry au, 
 
        Potential amp.        0.0670 Ry
        Total length         46.3494 bohr
 

     total cpu time spent up to now is      898.9 secs

     total energy              =   -2936.62902385 Ry
     estimated scf accuracy    <       0.16037110 Ry

     iteration # 33     ecut=    29.40 Ry     beta= 0.05
     Davidson diagonalization with overlap
     c_bands:  2 eigenvalues not converged
     c_bands:  1 eigenvalues not converged
     ethr =  4.08E-05,  avg # of iterations = 10.8

     negative rho (up, down):  5.557E-03 0.000E+00
 
     Adding external electric field

     Computed dipole along edir(3) : 
        Dipole               -0.0326 Ry au,         -0.0828 Debye
        Dipole field         -0.0001 Ry au, 
 
        Potential amp.        0.0057 Ry
        Total length         46.3494 bohr
 

     total cpu time spent up to now is      922.8 secs

     total energy              =   -2936.63236122 Ry
     estimated scf accuracy    <       0.13996242 Ry

     iteration # 34     ecut=    29.40 Ry     beta= 0.05
     Davidson diagonalization with overlap
     c_bands:  1 eigenvalues not converged
     ethr =  3.56E-05,  avg # of iterations = 14.1

     negative rho (up, down):  5.786E-03 0.000E+00
 
     Adding external electric field

     Computed dipole along edir(3) : 
        Dipole                0.2120 Ry au,          0.5389 Debye
        Dipole field          0.0004 Ry au, 
 
        Potential amp.       -0.0371 Ry
        Total length         46.3494 bohr
 

     total cpu time spent up to now is      947.7 secs

     total energy              =   -2936.63138574 Ry
     estimated scf accuracy    <       0.10323879 Ry

     iteration # 35     ecut=    29.40 Ry     beta= 0.05
     Davidson diagonalization with overlap
     ethr =  2.63E-05,  avg # of iterations =  5.0

     negative rho (up, down):  7.810E-03 0.000E+00
 
     Adding external electric field

     Computed dipole along edir(3) : 
        Dipole                0.3510 Ry au,          0.8921 Debye
        Dipole field          0.0007 Ry au, 
 
        Potential amp.       -0.0614 Ry
        Total length         46.3494 bohr
 

     total cpu time spent up to now is      967.5 secs

     total energy              =   -2936.63340963 Ry
     estimated scf accuracy    <       0.04618117 Ry

     iteration # 36     ecut=    29.40 Ry     beta= 0.05
     Davidson diagonalization with overlap
     c_bands:  1 eigenvalues not converged
     ethr =  1.18E-05,  avg # of iterations = 14.2

     negative rho (up, down):  7.736E-03 0.000E+00
 
     Adding external electric field

     Computed dipole along edir(3) : 
        Dipole                0.4443 Ry au,          1.1292 Debye
        Dipole field          0.0008 Ry au, 
 
        Potential amp.       -0.0777 Ry
        Total length         46.3494 bohr
 

     total cpu time spent up to now is      999.9 secs

     total energy              =   -2936.63606075 Ry
     estimated scf accuracy    <       0.04397135 Ry

     iteration # 37     ecut=    29.40 Ry     beta= 0.05
     Davidson diagonalization with overlap
     ethr =  1.12E-05,  avg # of iterations =  5.9

     negative rho (up, down):  7.157E-03 0.000E+00
 
     Adding external electric field

     Computed dipole along edir(3) : 
        Dipole                0.5636 Ry au,          1.4325 Debye
        Dipole field          0.0011 Ry au, 
 
        Potential amp.       -0.0986 Ry
        Total length         46.3494 bohr
 

     total cpu time spent up to now is     1020.1 secs

     total energy              =   -2936.63382043 Ry
     estimated scf accuracy    <       0.02646966 Ry

     iteration # 38     ecut=    29.40 Ry     beta= 0.05
     Davidson diagonalization with overlap
     c_bands:  1 eigenvalues not converged
     ethr =  6.74E-06,  avg # of iterations = 11.8

     negative rho (up, down):  7.597E-03 0.000E+00
 
     Adding external electric field

     Computed dipole along edir(3) : 
        Dipole                0.5522 Ry au,          1.4035 Debye
        Dipole field          0.0010 Ry au, 
 
        Potential amp.       -0.0966 Ry
        Total length         46.3494 bohr
 

     total cpu time spent up to now is     1047.0 secs

     total energy              =   -2936.63705195 Ry
     estimated scf accuracy    <       0.01315704 Ry

     iteration # 39     ecut=    29.40 Ry     beta= 0.05
     Davidson diagonalization with overlap
     ethr =  3.35E-06,  avg # of iterations =  3.4

     negative rho (up, down):  1.064E-02 0.000E+00
 
     Adding external electric field

     Computed dipole along edir(3) : 
        Dipole                0.6209 Ry au,          1.5782 Debye
        Dipole field          0.0012 Ry au, 
 
        Potential amp.       -0.1086 Ry
        Total length         46.3494 bohr
 

     total cpu time spent up to now is     1066.3 secs

     total energy              =   -2936.63741503 Ry
     estimated scf accuracy    <       0.00882679 Ry

     iteration # 40     ecut=    29.40 Ry     beta= 0.05
     Davidson diagonalization with overlap
     c_bands:  2 eigenvalues not converged
     c_bands:  4 eigenvalues not converged
     c_bands:  2 eigenvalues not converged
     c_bands:  3 eigenvalues not converged
     c_bands:  2 eigenvalues not converged
     ethr =  2.25E-06,  avg # of iterations = 15.5

     negative rho (up, down):  1.029E-02 0.000E+00
 
     Adding external electric field

     Computed dipole along edir(3) : 
        Dipole                0.6774 Ry au,          1.7218 Debye
        Dipole field          0.0013 Ry au, 
 
        Potential amp.       -0.1185 Ry
        Total length         46.3494 bohr
 

     total cpu time spent up to now is     1099.3 secs

     total energy              =   -2936.63855141 Ry
     estimated scf accuracy    <       0.01830529 Ry

     iteration # 41     ecut=    29.40 Ry     beta= 0.05
     Davidson diagonalization with overlap
     c_bands:  3 eigenvalues not converged
     c_bands:  4 eigenvalues not converged
     c_bands:  1 eigenvalues not converged
     ethr =  2.25E-06,  avg # of iterations = 13.7

     negative rho (up, down):  1.108E-02 0.000E+00
 
     Adding external electric field

     Computed dipole along edir(3) : 
        Dipole                0.6608 Ry au,          1.6797 Debye
        Dipole field          0.0012 Ry au, 
 
        Potential amp.       -0.1156 Ry
        Total length         46.3494 bohr
 

     total cpu time spent up to now is     1123.5 secs

     total energy              =   -2936.63863230 Ry
     estimated scf accuracy    <       0.00960696 Ry

     iteration # 42     ecut=    29.40 Ry     beta= 0.05
     Davidson diagonalization with overlap
     c_bands:  2 eigenvalues not converged
     ethr =  2.25E-06,  avg # of iterations = 11.6

     negative rho (up, down):  1.105E-02 0.000E+00
 
     Adding external electric field

     Computed dipole along edir(3) : 
        Dipole                0.6840 Ry au,          1.7386 Debye
        Dipole field          0.0013 Ry au, 
 
        Potential amp.       -0.1197 Ry
        Total length         46.3494 bohr
 

     total cpu time spent up to now is     1146.3 secs

     total energy              =   -2936.63839864 Ry
     estimated scf accuracy    <       0.00508014 Ry

     iteration # 43     ecut=    29.40 Ry     beta= 0.05
     Davidson diagonalization with overlap
     c_bands:  2 eigenvalues not converged
     ethr =  1.29E-06,  avg # of iterations =  7.8

     negative rho (up, down):  1.089E-02 0.000E+00
 
     Adding external electric field

     Computed dipole along edir(3) : 
        Dipole                0.6744 Ry au,          1.7143 Debye
        Dipole field          0.0013 Ry au, 
 
        Potential amp.       -0.1180 Ry
        Total length         46.3494 bohr
 

     total cpu time spent up to now is     1168.9 secs

     total energy              =   -2936.63868624 Ry
     estimated scf accuracy    <       0.00200987 Ry

     iteration # 44     ecut=    29.40 Ry     beta= 0.05
     Davidson diagonalization with overlap
     ethr =  5.11E-07,  avg # of iterations = 11.6

     negative rho (up, down):  1.165E-02 0.000E+00
 
     Adding external electric field

     Computed dipole along edir(3) : 
        Dipole                0.6574 Ry au,          1.6710 Debye
        Dipole field          0.0012 Ry au, 
 
        Potential amp.       -0.1150 Ry
        Total length         46.3494 bohr
 

     total cpu time spent up to now is     1192.6 secs

     total energy              =   -2936.63892768 Ry
     estimated scf accuracy    <       0.00125963 Ry

     iteration # 45     ecut=    29.40 Ry     beta= 0.05
     Davidson diagonalization with overlap
     c_bands:  3 eigenvalues not converged
     ethr =  3.21E-07,  avg # of iterations = 10.7

     negative rho (up, down):  1.292E-02 0.000E+00
 
     Adding external electric field

     Computed dipole along edir(3) : 
        Dipole                0.6938 Ry au,          1.7633 Debye
        Dipole field          0.0013 Ry au, 
 
        Potential amp.       -0.1214 Ry
        Total length         46.3494 bohr
 

     total cpu time spent up to now is     1217.6 secs

     total energy              =   -2936.63908964 Ry
     estimated scf accuracy    <       0.00115132 Ry

     iteration # 46     ecut=    29.40 Ry     beta= 0.05
     Davidson diagonalization with overlap
     ethr =  2.93E-07,  avg # of iterations =  5.2

     negative rho (up, down):  1.489E-02 0.000E+00
 
     Adding external electric field

     Computed dipole along edir(3) : 
        Dipole                0.7556 Ry au,          1.9206 Debye
        Dipole field          0.0014 Ry au, 
 
        Potential amp.       -0.1322 Ry
        Total length         46.3494 bohr
 

     total cpu time spent up to now is     1238.0 secs

     total energy              =   -2936.63922980 Ry
     estimated scf accuracy    <       0.00037966 Ry

     iteration # 47     ecut=    29.40 Ry     beta= 0.05
     Davidson diagonalization with overlap
     c_bands:  1 eigenvalues not converged
     ethr =  9.66E-08,  avg # of iterations = 12.5

     negative rho (up, down):  1.483E-02 0.000E+00
 
     Adding external electric field

     Computed dipole along edir(3) : 
        Dipole                0.7614 Ry au,          1.9352 Debye
        Dipole field          0.0014 Ry au, 
 
        Potential amp.       -0.1332 Ry
        Total length         46.3494 bohr
 

     total cpu time spent up to now is     1268.8 secs

     total energy              =   -2936.63939169 Ry
     estimated scf accuracy    <       0.00028729 Ry

     iteration # 48     ecut=    29.40 Ry     beta= 0.05
     Davidson diagonalization with overlap
     ethr =  7.31E-08,  avg # of iterations =  2.6

     negative rho (up, down):  1.442E-02 0.000E+00
 
     Adding external electric field

     Computed dipole along edir(3) : 
        Dipole                0.7451 Ry au,          1.8940 Debye
        Dipole field          0.0014 Ry au, 
 
        Potential amp.       -0.1304 Ry
        Total length         46.3494 bohr
 

     total cpu time spent up to now is     1287.9 secs

     total energy              =   -2936.63932665 Ry
     estimated scf accuracy    <       0.00045672 Ry

     iteration # 49     ecut=    29.40 Ry     beta= 0.05
     Davidson diagonalization with overlap
     ethr =  7.31E-08,  avg # of iterations =  5.2

     negative rho (up, down):  1.440E-02 0.000E+00
 
     Adding external electric field

     Computed dipole along edir(3) : 
        Dipole                0.7428 Ry au,          1.8880 Debye
        Dipole field          0.0014 Ry au, 
 
        Potential amp.       -0.1299 Ry
        Total length         46.3494 bohr
 

     total cpu time spent up to now is     1308.0 secs

     total energy              =   -2936.63935074 Ry
     estimated scf accuracy    <       0.00023322 Ry

     iteration # 50     ecut=    29.40 Ry     beta= 0.05
     Davidson diagonalization with overlap
     ethr =  5.93E-08,  avg # of iterations =  1.3

     negative rho (up, down):  1.438E-02 0.000E+00
 
     Adding external electric field

     Computed dipole along edir(3) : 
        Dipole                0.7343 Ry au,          1.8665 Debye
        Dipole field          0.0014 Ry au, 
 
        Potential amp.       -0.1285 Ry
        Total length         46.3494 bohr
 

     total cpu time spent up to now is     1325.6 secs

     total energy              =   -2936.63935360 Ry
     estimated scf accuracy    <       0.00019701 Ry

     iteration # 51     ecut=    29.40 Ry     beta= 0.05
     Davidson diagonalization with overlap
     ethr =  5.01E-08,  avg # of iterations =  5.7

     negative rho (up, down):  1.522E-02 0.000E+00
 
     Adding external electric field

     Computed dipole along edir(3) : 
        Dipole                0.7453 Ry au,          1.8943 Debye
        Dipole field          0.0014 Ry au, 
 
        Potential amp.       -0.1304 Ry
        Total length         46.3494 bohr
 

     total cpu time spent up to now is     1345.9 secs

     total energy              =   -2936.63940191 Ry
     estimated scf accuracy    <       0.00013048 Ry

     iteration # 52     ecut=    29.40 Ry     beta= 0.05
     Davidson diagonalization with overlap
     ethr =  3.32E-08,  avg # of iterations =  9.1

     negative rho (up, down):  1.567E-02 0.000E+00
 
     Adding external electric field

     Computed dipole along edir(3) : 
        Dipole                0.7499 Ry au,          1.9059 Debye
        Dipole field          0.0014 Ry au, 
 
        Potential amp.       -0.1312 Ry
        Total length         46.3494 bohr
 

     total cpu time spent up to now is     1368.2 secs

     total energy              =   -2936.63942823 Ry
     estimated scf accuracy    <       0.00008365 Ry

     iteration # 53     ecut=    29.40 Ry     beta= 0.05
     Davidson diagonalization with overlap
     ethr =  2.13E-08,  avg # of iterations =  5.1

     negative rho (up, down):  1.582E-02 0.000E+00
 
     Adding external electric field

     Computed dipole along edir(3) : 
        Dipole                0.7503 Ry au,          1.9071 Debye
        Dipole field          0.0014 Ry au, 
 
        Potential amp.       -0.1313 Ry
        Total length         46.3494 bohr
 

     total cpu time spent up to now is     1388.1 secs

     total energy              =   -2936.63943707 Ry
     estimated scf accuracy    <       0.00005211 Ry

     iteration # 54     ecut=    29.40 Ry     beta= 0.05
     Davidson diagonalization with overlap
     ethr =  1.33E-08,  avg # of iterations =  9.6

     negative rho (up, down):  1.585E-02 0.000E+00
 
     Adding external electric field

     Computed dipole along edir(3) : 
        Dipole                0.7518 Ry au,          1.9108 Debye
        Dipole field          0.0014 Ry au, 
 
        Potential amp.       -0.1315 Ry
        Total length         46.3494 bohr
 

     total cpu time spent up to now is     1412.9 secs

     total energy              =   -2936.63945296 Ry
     estimated scf accuracy    <       0.00002978 Ry

     iteration # 55     ecut=    29.40 Ry     beta= 0.05
     Davidson diagonalization with overlap
     ethr =  7.58E-09,  avg # of iterations =  2.1

     negative rho (up, down):  1.603E-02 0.000E+00
 
     Adding external electric field

     Computed dipole along edir(3) : 
        Dipole                0.7533 Ry au,          1.9147 Debye
        Dipole field          0.0014 Ry au, 
 
        Potential amp.       -0.1318 Ry
        Total length         46.3494 bohr
 

     total cpu time spent up to now is     1431.0 secs

     total energy              =   -2936.63946349 Ry
     estimated scf accuracy    <       0.00002679 Ry

     iteration # 56     ecut=    29.40 Ry     beta= 0.05
     Davidson diagonalization with overlap
     ethr =  6.82E-09,  avg # of iterations =  1.5

     negative rho (up, down):  1.614E-02 0.000E+00
 
     Adding external electric field

     Computed dipole along edir(3) : 
        Dipole                0.7529 Ry au,          1.9138 Debye
        Dipole field          0.0014 Ry au, 
 
        Potential amp.       -0.1317 Ry
        Total length         46.3494 bohr
 

     total cpu time spent up to now is     1448.8 secs

     total energy              =   -2936.63947061 Ry
     estimated scf accuracy    <       0.00002375 Ry

     iteration # 57     ecut=    29.40 Ry     beta= 0.05
     Davidson diagonalization with overlap
     ethr =  6.04E-09,  avg # of iterations =  5.2

     negative rho (up, down):  1.596E-02 0.000E+00
 
     Adding external electric field

     Computed dipole along edir(3) : 
        Dipole                0.7499 Ry au,          1.9060 Debye
        Dipole field          0.0014 Ry au, 
 
        Potential amp.       -0.1312 Ry
        Total length         46.3494 bohr
 

     total cpu time spent up to now is     1469.0 secs

     total energy              =   -2936.63947452 Ry
     estimated scf accuracy    <       0.00001504 Ry

     iteration # 58     ecut=    29.40 Ry     beta= 0.05
     Davidson diagonalization with overlap
     ethr =  3.83E-09,  avg # of iterations = 10.1

     negative rho (up, down):  1.598E-02 0.000E+00
 
     Adding external electric field

     Computed dipole along edir(3) : 
        Dipole                0.7515 Ry au,          1.9102 Debye
        Dipole field          0.0014 Ry au, 
 
        Potential amp.       -0.1315 Ry
        Total length         46.3494 bohr
 

     total cpu time spent up to now is     1497.9 secs

     total energy              =   -2936.63948200 Ry
     estimated scf accuracy    <       0.00001591 Ry

     iteration # 59     ecut=    29.40 Ry     beta= 0.05
     Davidson diagonalization with overlap
     ethr =  3.83E-09,  avg # of iterations =  4.7

     negative rho (up, down):  1.598E-02 0.000E+00
 
     Adding external electric field

     Computed dipole along edir(3) : 
        Dipole                0.7534 Ry au,          1.9150 Debye
        Dipole field          0.0014 Ry au, 
 
        Potential amp.       -0.1318 Ry
        Total length         46.3494 bohr
 

     total cpu time spent up to now is     1517.6 secs

     total energy              =   -2936.63948698 Ry
     estimated scf accuracy    <       0.00000809 Ry

     iteration # 60     ecut=    29.40 Ry     beta= 0.05
     Davidson diagonalization with overlap
     ethr =  2.06E-09,  avg # of iterations =  9.6

     negative rho (up, down):  1.600E-02 0.000E+00
 
     Adding external electric field

     Computed dipole along edir(3) : 
        Dipole                0.7523 Ry au,          1.9121 Debye
        Dipole field          0.0014 Ry au, 
 
        Potential amp.       -0.1316 Ry
        Total length         46.3494 bohr
 

     total cpu time spent up to now is     1543.2 secs

     total energy              =   -2936.63949333 Ry
     estimated scf accuracy    <       0.00000419 Ry

     iteration # 61     ecut=    29.40 Ry     beta= 0.05
     Davidson diagonalization with overlap
     ethr =  1.07E-09,  avg # of iterations =  6.8

     negative rho (up, down):  1.600E-02 0.000E+00
 
     Adding external electric field

     Computed dipole along edir(3) : 
        Dipole                0.7518 Ry au,          1.9108 Debye
        Dipole field          0.0014 Ry au, 
 
        Potential amp.       -0.1315 Ry
        Total length         46.3494 bohr
 

     total cpu time spent up to now is     1565.4 secs

     total energy              =   -2936.63949834 Ry
     estimated scf accuracy    <       0.00000384 Ry

     iteration # 62     ecut=    29.40 Ry     beta= 0.05
     Davidson diagonalization with overlap
     ethr =  9.78E-10,  avg # of iterations = 10.4

     negative rho (up, down):  1.600E-02 0.000E+00
 
     Adding external electric field

     Computed dipole along edir(3) : 
        Dipole                0.7520 Ry au,          1.9115 Debye
        Dipole field          0.0014 Ry au, 
 
        Potential amp.       -0.1316 Ry
        Total length         46.3494 bohr
 

     total cpu time spent up to now is     1588.8 secs

     total energy              =   -2936.63950289 Ry
     estimated scf accuracy    <       0.00000140 Ry

     iteration # 63     ecut=    29.40 Ry     beta= 0.05
     Davidson diagonalization with overlap
     ethr =  3.57E-10,  avg # of iterations = 10.2

     negative rho (up, down):  1.600E-02 0.000E+00
 
     Adding external electric field

     Computed dipole along edir(3) : 
        Dipole                0.7522 Ry au,          1.9119 Debye
        Dipole field          0.0014 Ry au, 
 
        Potential amp.       -0.1316 Ry
        Total length         46.3494 bohr
 

     total cpu time spent up to now is     1614.0 secs

     total energy              =   -2936.63950683 Ry
     estimated scf accuracy    <       0.00000076 Ry

     iteration # 64     ecut=    29.40 Ry     beta= 0.05
     Davidson diagonalization with overlap
     ethr =  1.93E-10,  avg # of iterations =  7.9

     negative rho (up, down):  1.600E-02 0.000E+00
 
     Adding external electric field

     Computed dipole along edir(3) : 
        Dipole                0.7515 Ry au,          1.9100 Debye
        Dipole field          0.0014 Ry au, 
 
        Potential amp.       -0.1315 Ry
        Total length         46.3494 bohr
 

     total cpu time spent up to now is     1635.7 secs

     total energy              =   -2936.63951052 Ry
     estimated scf accuracy    <       0.00000060 Ry

     iteration # 65     ecut=    29.40 Ry     beta= 0.05
     Davidson diagonalization with overlap
     ethr =  1.52E-10,  avg # of iterations =  9.3

     negative rho (up, down):  1.602E-02 0.000E+00
 
     Adding external electric field

     Computed dipole along edir(3) : 
        Dipole                0.7515 Ry au,          1.9102 Debye
        Dipole field          0.0014 Ry au, 
 
        Potential amp.       -0.1315 Ry
        Total length         46.3494 bohr
 

     total cpu time spent up to now is     1659.9 secs

     total energy              =   -2936.63951379 Ry
     estimated scf accuracy    <       0.00000026 Ry

     iteration # 66     ecut=    29.40 Ry     beta= 0.05
     Davidson diagonalization with overlap
     ethr =  6.61E-11,  avg # of iterations =  4.2

     negative rho (up, down):  1.603E-02 0.000E+00
 
     Adding external electric field

     Computed dipole along edir(3) : 
        Dipole                0.7516 Ry au,          1.9105 Debye
        Dipole field          0.0014 Ry au, 
 
        Potential amp.       -0.1315 Ry
        Total length         46.3494 bohr
 

     total cpu time spent up to now is     1679.7 secs

     total energy              =   -2936.63951662 Ry
     estimated scf accuracy    <       0.00000014 Ry

     iteration # 67     ecut=    29.40 Ry     beta= 0.05
     Davidson diagonalization with overlap
     ethr =  3.61E-11,  avg # of iterations =  9.0

     negative rho (up, down):  1.604E-02 0.000E+00
 
     Adding external electric field

     Computed dipole along edir(3) : 
        Dipole                0.7518 Ry au,          1.9109 Debye
        Dipole field          0.0014 Ry au, 
 
        Potential amp.       -0.1315 Ry
        Total length         46.3494 bohr
 

     total cpu time spent up to now is     1705.7 secs

     total energy              =   -2936.63951920 Ry
     estimated scf accuracy    <       0.00000020 Ry

     iteration # 68     ecut=    29.40 Ry     beta= 0.05
     Davidson diagonalization with overlap
     ethr =  3.61E-11,  avg # of iterations =  6.8

     negative rho (up, down):  1.607E-02 0.000E+00
 
     Adding external electric field

     Computed dipole along edir(3) : 
        Dipole                0.7511 Ry au,          1.9090 Debye
        Dipole field          0.0014 Ry au, 
 
        Potential amp.       -0.1314 Ry
        Total length         46.3494 bohr
 

     total cpu time spent up to now is     1728.3 secs

     End of self-consistent calculation

          k = 0.0000 0.0000 0.0000 ( 18029 PWs)   bands (ev):

   -55.9078 -55.9068 -55.8737 -55.8702 -55.7670 -55.7540 -55.7318 -55.7172
   -55.7163 -55.6834 -55.6831 -55.6496 -55.4666 -55.2222 -54.8866 -54.8525
   -32.4608 -32.3903 -32.2643 -32.2163 -32.2144 -32.2079 -32.2005 -32.1738
   -32.1506 -32.1255 -32.0949 -32.0852 -32.0804 -32.0600 -32.0530 -32.0466
   -32.0122 -31.9999 -31.9925 -31.9711 -31.9687 -31.9650 -31.9463 -31.9209
   -31.9142 -31.9064 -31.9035 -31.8945 -31.8928 -31.8852 -31.8797 -31.8584
   -31.8481 -31.8365 -31.8239 -31.8215 -31.7953 -31.6877 -31.6805 -31.4999
   -31.4522 -31.4512 -31.2937 -31.2053 -31.1829 -31.1105 -31.0240 -30.9129
   -19.2598 -16.6477 -16.3825 -16.1370 -16.0557 -16.0265 -15.9110 -15.7490
   -15.6318 -15.5710 -15.4707 -15.4646 -15.4443 -15.4116 -15.3814 -15.3569
   -15.3520 -15.3419 -15.3251 -15.2934 -15.2692 -15.2478 -15.2238 -15.1347
   -15.0776 -15.0421 -14.9826 -14.9746 -14.9651 -14.5037 -13.9290 -13.3889
   -13.2725  -6.6626  -5.3120  -4.2177  -4.0221  -3.9208  -3.8631  -3.8142
    -3.7595  -3.6561  -3.5184  -3.4493  -3.1357  -3.0835  -3.0715  -3.0469
    -3.0224  -2.8092  -2.7437  -2.7206  -2.6871  -2.6820  -2.6793  -2.6707
    -2.6539  -2.6213  -2.5000  -2.4436  -2.3697  -2.3338  -2.3026  -2.2950
    -2.2200  -2.1813  -2.1698  -2.1455  -2.1437  -2.1202  -2.1106  -2.0933
    -1.9561  -1.8892  -1.7671  -1.7023  -1.6685  -1.5168  -1.4898  -1.3859
    -1.3603  -1.3369  -1.3005  -1.2698  -1.2109  -1.0767  -1.0693  -1.0583
    -1.0262  -0.9275  -0.8749  -0.8018  -0.7461  -0.7276  -0.6769  -0.6651
    -0.6613  -0.6175  -0.4585  -0.3825  -0.3232  -0.3139  -0.2692  -0.2085
    -0.1785  -0.1003  -0.0579  -0.0280  -0.0144   0.0288   0.0661   0.0898
     0.1001   0.1096   0.1235   0.3089   0.3513   0.3694   0.4275   0.4450
     0.6171   0.6627   0.7476   0.8425   1.0610   1.1357   1.2191   1.3276
     1.3341   1.5823   1.7070   1.7527   3.2235   3.3131   3.3496   3.3583
     3.4655   3.5375   3.6802   3.6921   3.7126   3.7556

          k = 0.0000 0.0419 0.0000 ( 17933 PWs)   bands (ev):

   -55.9027 -55.9017 -55.8786 -55.8752 -55.7622 -55.7494 -55.7365 -55.7208
   -55.7122 -55.6881 -55.6784 -55.6544 -55.4660 -55.2227 -54.8815 -54.8574
   -32.4033 -32.3363 -32.2098 -32.1959 -32.1943 -32.1885 -32.1597 -32.1304
   -32.1241 -32.1224 -32.1133 -32.1099 -32.0763 -32.0692 -32.0688 -32.0622
   -32.0462 -31.9866 -31.9790 -31.9789 -31.9653 -31.9621 -31.9373 -31.9279
   -31.9262 -31.9205 -31.9096 -31.9069 -31.8988 -31.8888 -31.8850 -31.8794
   -31.8782 -31.8547 -31.8535 -31.8500 -31.8390 -31.6869 -31.6774 -31.5284
   -31.4646 -31.4520 -31.2396 -31.2018 -31.1859 -31.0979 -31.0365 -30.9700
   -19.2585 -16.5115 -16.2621 -16.0280 -15.9462 -15.9250 -15.8748 -15.7679
   -15.6852 -15.6652 -15.4979 -15.4553 -15.4303 -15.4154 -15.4077 -15.3851
   -15.3731 -15.3667 -15.3228 -15.3018 -15.2955 -15.2557 -15.2071 -15.1335
   -15.1257 -15.1005 -15.0369 -15.0222 -14.9881 -14.5816 -13.9322 -13.3930
   -13.3120  -6.6622  -5.2968  -4.2001  -3.9209  -3.8300  -3.6973  -3.6379
    -3.6015  -3.4943  -3.3598  -3.2186  -3.1240  -3.0723  -2.9801  -2.9525
    -2.9454  -2.8752  -2.8628  -2.8547  -2.7932  -2.7676  -2.7268  -2.6675
    -2.6592  -2.6404  -2.6018  -2.5798  -2.5560  -2.5189  -2.4153  -2.3995
    -2.3776  -2.3272  -2.2665  -2.2216  -2.1598  -2.1422  -2.0501  -1.9542
    -1.8560  -1.7937  -1.6602  -1.6266  -1.5693  -1.5576  -1.5026  -1.3262
    -1.2514  -1.2197  -1.1837  -1.1502  -1.1319  -0.9931  -0.9178  -0.9037
    -0.8621  -0.8533  -0.8246  -0.8061  -0.7725  -0.7397  -0.7213  -0.6653
    -0.5950  -0.5280  -0.4808  -0.4640  -0.4195  -0.3897  -0.3680  -0.3583
    -0.2182  -0.1601  -0.1391  -0.1214  -0.1071  -0.0807  -0.0551  -0.0340
     0.0569   0.1218   0.1533   0.2205   0.2770   0.2935   0.3505   0.4230
     0.4285   0.4774   0.6358   0.7537   0.7668   1.0905   1.2411   1.3246
     1.4083   1.5060   1.6610   1.6646   3.4210   3.4678   3.4796   3.5560
     3.5815   3.6252   3.6790   3.7049   3.7619   3.7809

          k = 0.0000-0.0839 0.0000 ( 17884 PWs)   bands (ev):

   -55.8921 -55.8912 -55.8901 -55.8847 -55.7536 -55.7451 -55.7425 -55.7276
   -55.7012 -55.6990 -55.6679 -55.6648 -55.4654 -55.2232 -54.8695 -54.8694
   -32.2664 -32.2594 -32.2044 -32.2037 -32.1863 -32.1854 -32.1579 -32.1535
   -32.0916 -32.0846 -32.0803 -32.0790 -32.0774 -32.0718 -32.0211 -32.0201
   -32.0131 -32.0128 -32.0120 -32.0107 -31.9888 -31.9850 -31.9543 -31.9542
   -31.9537 -31.9502 -31.9445 -31.9401 -31.9320 -31.9291 -31.9000 -31.8971
   -31.8768 -31.8747 -31.8469 -31.8456 -31.8448 -31.6861 -31.6760 -31.5704
   -31.4733 -31.4519 -31.1937 -31.1936 -31.1067 -31.1065 -31.0672 -31.0672
   -19.2573 -16.1701 -16.1598 -15.9779 -15.9747 -15.8076 -15.7976 -15.7056
   -15.6806 -15.6694 -15.6562 -15.6222 -15.6129 -15.4701 -15.4657 -15.3337
   -15.2893 -15.2884 -15.2842 -15.2571 -15.2437 -15.2409 -15.2316 -15.1769
   -15.1670 -15.1579 -15.1541 -15.1158 -14.9578 -14.6930 -13.9355 -13.3747
   -13.3746  -6.6619  -5.2815  -4.1871  -3.9226  -3.3741  -3.3628  -3.3030
    -3.2941  -3.2747  -3.2696  -3.1990  -3.1988  -3.1078  -3.0659  -3.0413
    -3.0207  -3.0094  -2.9874  -2.9572  -2.9022  -2.8622  -2.8546  -2.7600
    -2.7170  -2.6906  -2.6507  -2.6080  -2.5975  -2.5098  -2.4955  -2.4633
    -2.3892  -2.3509  -2.2760  -2.2566  -2.2399  -1.9734  -1.9125  -1.8025
    -1.7581  -1.7061  -1.6073  -1.5909  -1.5163  -1.4050  -1.3520  -1.3315
    -1.3237  -1.2924  -1.2764  -1.2381  -1.1456  -1.1205  -1.0898  -1.0160
    -0.9871  -0.9339  -0.8063  -0.6841  -0.6192  -0.5543  -0.5407  -0.5237
    -0.5182  -0.4767  -0.4558  -0.4288  -0.3818  -0.3586  -0.3387  -0.3183
    -0.2968  -0.2439  -0.2214  -0.1832  -0.1703  -0.1534  -0.1147  -0.1033
    -0.0850  -0.0545  -0.0240  -0.0104   0.0638   0.1675   0.3313   0.3336
     0.3452   0.3712   0.6628   0.7229   0.8065   0.8295   1.1986   1.4234
     1.4677   1.4683   1.5978   1.5987   3.5460   3.5710   3.5778   3.5975
     3.6628   3.6692   3.7716   3.7953   3.8163   3.8241

          k = 0.0380 0.0000 0.0000 ( 17913 PWs)   bands (ev):

   -55.9077 -55.9067 -55.8736 -55.8701 -55.7670 -55.7539 -55.7317 -55.7169
   -55.7162 -55.6834 -55.6831 -55.6495 -55.4665 -55.2221 -54.8864 -54.8524
   -32.4609 -32.3912 -32.2700 -32.2165 -32.2158 -32.2078 -32.2003 -32.1785
   -32.1506 -32.1089 -32.0944 -32.0852 -32.0803 -32.0571 -32.0463 -32.0459
   -32.0119 -31.9878 -31.9861 -31.9794 -31.9702 -31.9648 -31.9480 -31.9204
   -31.9136 -31.9043 -31.8994 -31.8973 -31.8869 -31.8850 -31.8795 -31.8793
   -31.8479 -31.8367 -31.8229 -31.8212 -31.7957 -31.6901 -31.6804 -31.4998
   -31.4526 -31.4510 -31.2932 -31.2086 -31.1808 -31.1103 -31.0239 -30.9127
   -19.2597 -16.5754 -16.2986 -16.0607 -16.0383 -15.9540 -15.9103 -15.7929
   -15.6298 -15.6111 -15.5997 -15.5677 -15.5292 -15.4740 -15.4642 -15.4582
   -15.4212 -15.2715 -15.2470 -15.1857 -15.1739 -15.1615 -15.1530 -15.1338
   -15.1001 -15.0896 -15.0659 -15.0238 -14.9507 -14.5017 -13.9281 -13.3857
   -13.2721  -6.6610  -5.2963  -4.2173  -3.9557  -3.9417  -3.6438  -3.6030
    -3.5361  -3.4508  -3.4373  -3.4180  -3.3669  -3.1536  -3.1347  -3.0117
    -2.9861  -2.9164  -2.9004  -2.7464  -2.6915  -2.6808  -2.6313  -2.6170
    -2.5797  -2.5063  -2.4693  -2.4285  -2.3702  -2.3372  -2.2940  -2.2538
    -2.2453  -2.1802  -2.1243  -2.0934  -2.0846  -1.9407  -1.9129  -1.8914
    -1.8330  -1.7749  -1.7552  -1.7120  -1.6873  -1.6206  -1.5137  -1.4519
    -1.4046  -1.3485  -1.3414  -1.3166  -1.2096  -1.1976  -1.1846  -1.1699
    -1.0832  -1.0325  -0.9381  -0.8016  -0.7390  -0.7288  -0.7097  -0.6900
    -0.6267  -0.6111  -0.4650  -0.4102  -0.3399  -0.3200  -0.3003  -0.2439
    -0.1909  -0.1798  -0.1423  -0.1106  -0.0853  -0.0563  -0.0488  -0.0289
    -0.0194   0.0409   0.1675   0.1943   0.2644   0.2882   0.3800   0.4728
     0.4885   0.4972   0.7235   0.7817   1.0630   1.0841   1.1475   1.2974
     1.3331   1.4740   1.5955   1.6698   3.2551   3.2860   3.5548   3.5761
     3.6010   3.6453   3.6782   3.6954   3.7165   3.7402

          k = 0.0380 0.0419 0.0000 ( 17878 PWs)   bands (ev):

   -55.9026 -55.9016 -55.8786 -55.8752 -55.7621 -55.7493 -55.7365 -55.7207
   -55.7120 -55.6880 -55.6784 -55.6544 -55.4659 -55.2226 -54.8814 -54.8574
   -32.4035 -32.3372 -32.2168 -32.1957 -32.1940 -32.1886 -32.1612 -32.1308
   -32.1276 -32.1224 -32.1113 -32.1001 -32.0761 -32.0690 -32.0689 -32.0523
   -32.0437 -31.9800 -31.9785 -31.9747 -31.9692 -31.9622 -31.9362 -31.9301
   -31.9275 -31.9093 -31.9091 -31.9075 -31.8985 -31.8887 -31.8831 -31.8804
   -31.8782 -31.8756 -31.8521 -31.8467 -31.8437 -31.6891 -31.6774 -31.5282
   -31.4645 -31.4528 -31.2392 -31.2044 -31.1849 -31.0977 -31.0366 -30.9699
   -19.2584 -16.4456 -16.1850 -15.9599 -15.9315 -15.8729 -15.8488 -15.7709
   -15.7221 -15.6670 -15.5645 -15.5202 -15.5029 -15.4911 -15.4672 -15.4057
   -15.3827 -15.3152 -15.2948 -15.2648 -15.2356 -15.2290 -15.1984 -15.1585
   -15.1504 -15.1402 -15.1087 -15.0591 -14.9674 -14.5797 -13.9316 -13.3907
   -13.3122  -6.6613  -5.2885  -4.1977  -3.9379  -3.7648  -3.4733  -3.4357
    -3.3628  -3.2960  -3.2590  -3.2170  -3.1990  -3.0507  -3.0069  -2.9313
    -2.9022  -2.8879  -2.8034  -2.7977  -2.7645  -2.7165  -2.6875  -2.6616
    -2.6311  -2.6150  -2.6009  -2.5566  -2.5329  -2.4910  -2.4585  -2.3932
    -2.3752  -2.2639  -2.2258  -2.1822  -2.1016  -2.0495  -1.9455  -1.9057
    -1.8685  -1.8096  -1.6858  -1.6414  -1.6092  -1.4915  -1.4243  -1.3574
    -1.3280  -1.3082  -1.2277  -1.1990  -1.1652  -1.1368  -1.0602  -1.0352
    -0.9748  -0.9558  -0.9019  -0.8447  -0.8288  -0.7676  -0.7258  -0.7112
    -0.6585  -0.6229  -0.5745  -0.5517  -0.5272  -0.4956  -0.4621  -0.3824
    -0.3584  -0.3280  -0.2477  -0.2267  -0.2042  -0.1573  -0.1212  -0.0245
     0.0326   0.0603   0.1698   0.2139   0.2896   0.3248   0.3864   0.4262
     0.4821   0.5214   0.5383   0.6813   0.7447   1.0290   1.2563   1.3355
     1.4124   1.4649   1.5835   1.6454   3.4062   3.4678   3.5418   3.5882
     3.6400   3.6629   3.7463   3.7833   3.8054   3.8254

          k = 0.0380-0.0839 0.0000 ( 17916 PWs)   bands (ev):

   -55.8921 -55.8912 -55.8901 -55.8847 -55.7536 -55.7451 -55.7425 -55.7276
   -55.7012 -55.6989 -55.6680 -55.6649 -55.4654 -55.2232 -54.8695 -54.8694
   -32.2666 -32.2597 -32.2052 -32.2044 -32.1864 -32.1854 -32.1580 -32.1536
   -32.1066 -32.0994 -32.0801 -32.0780 -32.0559 -32.0491 -32.0222 -32.0208
   -32.0136 -32.0121 -32.0119 -32.0109 -31.9992 -31.9959 -31.9587 -31.9521
   -31.9485 -31.9443 -31.9312 -31.9308 -31.9307 -31.9283 -31.8999 -31.8970
   -31.8769 -31.8748 -31.8587 -31.8575 -31.8442 -31.6883 -31.6760 -31.5702
   -31.4733 -31.4530 -31.1947 -31.1945 -31.1066 -31.1064 -31.0673 -31.0672
   -19.2573 -16.1246 -16.1195 -15.9279 -15.9239 -15.7825 -15.7724 -15.7108
   -15.6607 -15.6238 -15.6094 -15.6026 -15.5924 -15.4830 -15.4774 -15.3715
   -15.3439 -15.3275 -15.3218 -15.2964 -15.2788 -15.2648 -15.2507 -15.2383
   -15.2127 -15.2054 -15.1842 -15.0914 -14.9488 -14.6882 -13.9352 -13.3745
   -13.3744  -6.6617  -5.2808  -4.1837  -3.9222  -3.3650  -3.3487  -3.1538
    -3.1345  -3.0928  -3.0764  -3.0462  -3.0131  -2.9897  -2.9759  -2.9238
    -2.9018  -2.8881  -2.8761  -2.8458  -2.8248  -2.7534  -2.7471  -2.7374
    -2.7132  -2.6828  -2.6257  -2.6131  -2.5806  -2.5441  -2.5204  -2.4702
    -2.4196  -2.3636  -2.3138  -2.0320  -2.0193  -1.9899  -1.8742  -1.8161
    -1.7950  -1.7436  -1.7313  -1.6752  -1.6455  -1.6046  -1.5816  -1.5441
    -1.5324  -1.4470  -1.3778  -1.3460  -1.2010  -1.1165  -1.0579  -1.0261
    -1.0009  -0.9548  -0.9222  -0.8121  -0.8012  -0.7094  -0.6941  -0.6672
    -0.6600  -0.6275  -0.6066  -0.5658  -0.5135  -0.5017  -0.4776  -0.4585
    -0.4457  -0.4391  -0.3210  -0.3040  -0.2853  -0.1595  -0.1121  -0.0583
     0.0007   0.0982   0.1676   0.1856   0.2097   0.2435   0.2639   0.3177
     0.4359   0.4653   0.6275   0.6566   0.7634   0.8273   1.2291   1.4423
     1.4810   1.4816   1.5870   1.5879   3.5157   3.5329   3.5997   3.6133
     3.6492   3.6586   3.8185   3.8311   3.8547   3.8565

          k = 0.0380-0.0419 0.0000 ( 17876 PWs)   bands (ev):

   -55.9026 -55.9016 -55.8786 -55.8752 -55.7621 -55.7493 -55.7365 -55.7207
   -55.7120 -55.6880 -55.6784 -55.6544 -55.4659 -55.2226 -54.8814 -54.8574
   -32.4035 -32.3371 -32.2168 -32.1957 -32.1940 -32.1886 -32.1612 -32.1308
   -32.1276 -32.1224 -32.1113 -32.1000 -32.0763 -32.0691 -32.0689 -32.0520
   -32.0437 -31.9805 -31.9785 -31.9747 -31.9691 -31.9622 -31.9360 -31.9302
   -31.9274 -31.9092 -31.9091 -31.9075 -31.8986 -31.8887 -31.8824 -31.8802
   -31.8790 -31.8758 -31.8521 -31.8465 -31.8437 -31.6891 -31.6774 -31.5282
   -31.4646 -31.4527 -31.2392 -31.2044 -31.1849 -31.0977 -31.0366 -30.9699
   -19.2584 -16.4459 -16.1849 -15.9599 -15.9319 -15.8727 -15.8489 -15.7692
   -15.7219 -15.6670 -15.5649 -15.5204 -15.5027 -15.4910 -15.4709 -15.4055
   -15.3796 -15.3177 -15.2945 -15.2631 -15.2348 -15.2274 -15.2006 -15.1581
   -15.1507 -15.1401 -15.1095 -15.0586 -14.9674 -14.5799 -13.9316 -13.3907
   -13.3122  -6.6613  -5.2887  -4.1979  -3.9363  -3.7641  -3.4771  -3.4372
    -3.3622  -3.2957  -3.2596  -3.2189  -3.1947  -3.0503  -3.0037  -2.9301
    -2.9006  -2.8891  -2.8017  -2.7981  -2.7717  -2.7075  -2.6915  -2.6650
    -2.6339  -2.6191  -2.5994  -2.5572  -2.5354  -2.4936  -2.4576  -2.3928
    -2.3742  -2.2610  -2.2307  -2.1854  -2.1041  -2.0520  -1.9513  -1.9051
    -1.8745  -1.8116  -1.6754  -1.6303  -1.6051  -1.4851  -1.4186  -1.3550
    -1.3307  -1.3071  -1.2288  -1.2016  -1.1670  -1.1340  -1.0584  -1.0284
    -0.9819  -0.9518  -0.8837  -0.8438  -0.8191  -0.7666  -0.7247  -0.7066
    -0.6398  -0.6213  -0.5849  -0.5556  -0.5313  -0.4893  -0.4656  -0.3928
    -0.3624  -0.3407  -0.2455  -0.2235  -0.1987  -0.1623  -0.1247  -0.0261
     0.0236   0.0431   0.1605   0.2124   0.2931   0.3196   0.3854   0.4305
     0.4834   0.5262   0.5383   0.6805   0.7435   1.0287   1.2559   1.3355
     1.4125   1.4630   1.5833   1.6460   3.4065   3.4686   3.5464   3.5787
     3.6514   3.6750   3.7606   3.7783   3.8028   3.8191

          k =-0.0760-0.0000 0.0000 ( 17886 PWs)   bands (ev):

   -55.9076 -55.9066 -55.8736 -55.8701 -55.7670 -55.7538 -55.7317 -55.7167
   -55.7162 -55.6835 -55.6831 -55.6495 -55.4665 -55.2221 -54.8864 -54.8524
   -32.4611 -32.3921 -32.2755 -32.2172 -32.2167 -32.2076 -32.2002 -32.1830
   -32.1506 -32.0960 -32.0854 -32.0832 -32.0801 -32.0542 -32.0461 -32.0397
   -32.0119 -32.0110 -31.9822 -31.9701 -31.9652 -31.9497 -31.9335 -31.9267
   -31.9204 -31.9123 -31.9052 -31.8982 -31.8932 -31.8849 -31.8838 -31.8795
   -31.8478 -31.8376 -31.8221 -31.8212 -31.7964 -31.6930 -31.6803 -31.4997
   -31.4533 -31.4510 -31.2929 -31.2119 -31.1795 -31.1102 -31.0237 -30.9127
   -19.2595 -16.4807 -16.2162 -16.0023 -15.9977 -15.9095 -15.8609 -15.7689
   -15.6914 -15.6828 -15.6262 -15.6121 -15.5882 -15.5639 -15.5361 -15.5172
   -15.4411 -15.2736 -15.2631 -15.2408 -15.1933 -15.1562 -15.1283 -15.1193
   -15.0851 -15.0635 -15.0438 -15.0014 -14.9476 -14.5001 -13.9273 -13.3826
   -13.2718  -6.6595  -5.2818  -4.2170  -3.9788  -3.9202  -3.5789  -3.4977
    -3.4202  -3.3144  -3.2984  -3.1693  -3.1691  -3.1561  -3.1395  -3.1330
    -2.9790  -2.9278  -2.7478  -2.7109  -2.6903  -2.6679  -2.6359  -2.5328
    -2.4811  -2.4583  -2.4077  -2.3787  -2.3183  -2.3003  -2.2393  -2.2146
    -2.1816  -2.1469  -2.1376  -2.1012  -2.0933  -2.0457  -2.0171  -1.9839
    -1.8862  -1.7095  -1.6783  -1.6536  -1.5484  -1.5220  -1.5125  -1.5074
    -1.4919  -1.4610  -1.3725  -1.3553  -1.2729  -1.2680  -1.1929  -1.1702
    -1.1238  -1.0898  -1.0810  -1.0546  -0.9596  -0.7454  -0.7300  -0.6615
    -0.6099  -0.5785  -0.5470  -0.5362  -0.4343  -0.4183  -0.3747  -0.3394
    -0.2988  -0.2374  -0.1954  -0.1781  -0.1691  -0.0994  -0.0890  -0.0460
    -0.0361   0.0836   0.1232   0.1730   0.2126   0.3219   0.3383   0.4316
     0.5661   0.5680   0.6904   0.7834   0.8108   1.0749   1.1687   1.2730
     1.3294   1.3833   1.4660   1.6142   3.2601   3.2655   3.3709   3.5056
     3.5588   3.6412   3.6786   3.7367   3.7544   3.7620

          k =-0.0760 0.0419 0.0000 ( 17914 PWs)   bands (ev):

   -55.9026 -55.9015 -55.8786 -55.8752 -55.7622 -55.7493 -55.7365 -55.7207
   -55.7118 -55.6880 -55.6786 -55.6545 -55.4659 -55.2227 -54.8814 -54.8574
   -32.4038 -32.3382 -32.2234 -32.1957 -32.1941 -32.1888 -32.1628 -32.1325
   -32.1307 -32.1223 -32.1120 -32.0829 -32.0763 -32.0692 -32.0691 -32.0424
   -32.0416 -31.9991 -31.9784 -31.9707 -31.9622 -31.9360 -31.9352 -31.9328
   -31.9286 -31.9162 -31.9082 -31.9081 -31.8975 -31.8966 -31.8886 -31.8809
   -31.8790 -31.8761 -31.8517 -31.8506 -31.8469 -31.6916 -31.6775 -31.5283
   -31.4646 -31.4537 -31.2390 -31.2072 -31.1842 -31.0977 -31.0366 -30.9699
   -19.2584 -16.3609 -16.1031 -15.9172 -15.8921 -15.8697 -15.7735 -15.7613
   -15.6711 -15.6621 -15.6445 -15.5565 -15.5544 -15.5494 -15.5113 -15.4551
   -15.4527 -15.3345 -15.2951 -15.2928 -15.2453 -15.2377 -15.1941 -15.1795
   -15.1640 -15.1440 -15.0923 -15.0557 -14.9621 -14.5784 -13.9312 -13.3886
   -13.3126  -6.6605  -5.2812  -4.1959  -3.9483  -3.7491  -3.4154  -3.2347
    -3.2068  -3.1180  -3.0297  -3.0133  -2.9925  -2.9642  -2.9550  -2.9179
    -2.8956  -2.8588  -2.8560  -2.7766  -2.7377  -2.7059  -2.6893  -2.6480
    -2.6132  -2.5898  -2.5763  -2.5038  -2.4823  -2.4111  -2.3953  -2.3856
    -2.3249  -2.2671  -2.1361  -2.1065  -2.0255  -2.0169  -1.9790  -1.9083
    -1.8538  -1.8324  -1.6946  -1.6340  -1.5319  -1.5037  -1.4659  -1.4519
    -1.3820  -1.3525  -1.3078  -1.2649  -1.2118  -1.1913  -1.1688  -1.1304
    -1.1109  -1.0832  -1.0628  -0.9985  -0.9609  -0.9334  -0.9160  -0.8739
    -0.8354  -0.7205  -0.6726  -0.6481  -0.6356  -0.6134  -0.5584  -0.5256
    -0.4853  -0.4302  -0.3232  -0.3026  -0.2260  -0.2006  -0.0785  -0.0345
     0.0724   0.0975   0.1843   0.3005   0.3581   0.3854   0.4423   0.4742
     0.5369   0.5435   0.6081   0.6598   0.6808   0.8708   1.2717   1.3502
     1.4140   1.4321   1.5068   1.6347   3.3919   3.4399   3.4646   3.5501
     3.5840   3.5879   3.7160   3.7721   3.8240   3.8835

          k =-0.0760-0.0839 0.0000 ( 17948 PWs)   bands (ev):

   -55.8921 -55.8912 -55.8901 -55.8847 -55.7536 -55.7451 -55.7425 -55.7276
   -55.7011 -55.6988 -55.6681 -55.6650 -55.4654 -55.2233 -54.8695 -54.8694
   -32.2669 -32.2600 -32.2059 -32.2052 -32.1864 -32.1855 -32.1582 -32.1537
   -32.1137 -32.1062 -32.0804 -32.0782 -32.0387 -32.0314 -32.0232 -32.0207
   -32.0135 -32.0133 -32.0108 -32.0097 -32.0063 -32.0033 -31.9698 -31.9588
   -31.9504 -31.9441 -31.9301 -31.9268 -31.9015 -31.9008 -31.8990 -31.8965
   -31.8827 -31.8808 -31.8770 -31.8747 -31.8436 -31.6905 -31.6760 -31.5701
   -31.4733 -31.4540 -31.1956 -31.1955 -31.1066 -31.1064 -31.0673 -31.0672
   -19.2573 -16.0757 -16.0623 -15.8583 -15.8246 -15.8122 -15.8049 -15.6884
   -15.6093 -15.6009 -15.5998 -15.4985 -15.4869 -15.4780 -15.4459 -15.4362
   -15.4167 -15.4150 -15.3769 -15.3699 -15.3639 -15.3465 -15.3389 -15.2532
   -15.2268 -15.2226 -15.1913 -15.0779 -14.9430 -14.6840 -13.9348 -13.3743
   -13.3742  -6.6615  -5.2802  -4.1807  -3.9211  -3.3652  -3.3488  -3.0938
    -3.0625  -3.0534  -2.9980  -2.8258  -2.8084  -2.7847  -2.7627  -2.7321
    -2.7256  -2.7182  -2.7112  -2.6923  -2.6483  -2.6240  -2.5934  -2.5792
    -2.5647  -2.5643  -2.5335  -2.5206  -2.4793  -2.4650  -2.4544  -2.4320
    -2.4075  -2.3972  -2.2450  -2.1510  -2.1197  -2.0473  -2.0406  -1.9992
    -1.9727  -1.9577  -1.9348  -1.8990  -1.7573  -1.6426  -1.6068  -1.5921
    -1.5121  -1.4683  -1.3917  -1.3326  -1.2886  -1.2819  -1.2256  -1.1764
    -1.1156  -1.1044  -1.0410  -1.0080  -0.9704  -0.9377  -0.8973  -0.8667
    -0.8614  -0.7763  -0.7258  -0.7173  -0.6660  -0.6621  -0.6323  -0.5753
    -0.5562  -0.5281  -0.4053  -0.3854  -0.2783  -0.1961  -0.1349   0.0596
     0.1408   0.1658   0.2193   0.2898   0.3793   0.3932   0.4087   0.4144
     0.4629   0.5143   0.6209   0.6318   0.6702   0.8006   1.2540   1.4652
     1.4992   1.5000   1.5723   1.5726   3.5367   3.5462   3.5643   3.5807
     3.7364   3.7392   3.7591   3.7605   3.8945   3.9066

     the Fermi energy is     3.2249 ev

!    total energy              =   -2936.63954253 Ry
     estimated scf accuracy    <       0.00000005 Ry
     smearing contrib. (-TS)   =      -0.02146793 Ry
     internal energy E=F+TS    =   -2936.61807461 Ry

     The total energy is F=E-TS. E is the sum of the following terms:
     one-electron contribution =  -24291.82144621 Ry
     hartree contribution      =   12231.49678192 Ry
     xc contribution           =    -483.56510475 Ry
     ewald contribution        =    9607.27062987 Ry
     electric field correction =       0.00106456 Ry

     convergence has been achieved in  68 iterations

     Forces acting on atoms (cartesian axes, Ry/au):

     atom    1 type  1   force =     0.00009436   -0.00014366    0.09653713
     atom    2 type  1   force =    -0.00014553   -0.00057274   -0.17553194
     atom    3 type  2   force =    -0.00000048    0.00006167   -0.02460725
     atom    4 type  2   force =     0.00005328   -0.00130368    0.05297784
     atom    5 type  2   force =    -0.01199013    0.00009959    0.00367058
     atom    6 type  2   force =     0.01364161    0.00068995    0.00267692
     atom    7 type  1   force =    -0.00091928    0.00089455   -0.01123527
     atom    8 type  1   force =     0.00035851    0.00992558    0.02718657
     atom    9 type  2   force =    -0.00018510   -0.00023250    0.00016921
     atom   10 type  2   force =    -0.00142586    0.00227658   -0.01251531
     atom   11 type  2   force =    -0.00012525    0.00025129   -0.00024480
     atom   12 type  2   force =     0.00033023    0.00000129   -0.00055801
     atom   13 type  1   force =     0.00035075   -0.00122895   -0.00056396
     atom   14 type  1   force =     0.00042443    0.00001768    0.00000204
     atom   15 type  2   force =    -0.00012519   -0.00080458   -0.00040041
     atom   16 type  2   force =     0.00007754   -0.00047813    0.00007143
     atom   17 type  2   force =    -0.00085004   -0.00077285   -0.00019461
     atom   18 type  2   force =    -0.00065081   -0.00047401    0.00006656
     atom   19 type  1   force =     0.00028236   -0.00030952   -0.00001047
     atom   20 type  1   force =    -0.00003352   -0.00008318   -0.00010890
     atom   21 type  2   force =     0.00003623   -0.00004045    0.10326454
     atom   22 type  2   force =    -0.00022287   -0.00083457   -0.00097762
     atom   23 type  2   force =    -0.07147536   -0.00010337   -0.02767734
     atom   24 type  2   force =     0.07138888    0.00031863   -0.02768542
     atom   25 type  1   force =     0.00006214   -0.00012923    0.09605669
     atom   26 type  1   force =    -0.00022815   -0.00022084   -0.17569654
     atom   27 type  2   force =     0.00006322   -0.00012801   -0.02362816
     atom   28 type  2   force =     0.00005786   -0.00109144    0.05316096
     atom   29 type  2   force =    -0.01211486    0.00086705    0.00327480
     atom   30 type  2   force =     0.01367407    0.00133745    0.00233216
     atom   31 type  1   force =    -0.00082253    0.00332354   -0.01193139
     atom   32 type  1   force =     0.00043320   -0.01207448    0.02751411
     atom   33 type  2   force =     0.00021883    0.00015717    0.00012143
     atom   34 type  2   force =    -0.00106820    0.00252835   -0.02034903
     atom   35 type  2   force =     0.00016231   -0.00086659   -0.00028017
     atom   36 type  2   force =     0.00038801   -0.00059029   -0.00057849
     atom   37 type  1   force =     0.00004478    0.00116440   -0.00028924
     atom   38 type  1   force =     0.00033166    0.00031656   -0.00011220
     atom   39 type  2   force =    -0.00001054    0.00038937   -0.00081518
     atom   40 type  2   force =    -0.00002316    0.00005795   -0.00053613
     atom   41 type  2   force =     0.00008376    0.00014251   -0.00036390
     atom   42 type  2   force =    -0.00085684   -0.00008167    0.00107552
     atom   43 type  1   force =     0.00011305   -0.00035923    0.00019747
     atom   44 type  1   force =    -0.00024896   -0.00025709    0.00001488
     atom   45 type  2   force =     0.00004933   -0.00005537    0.10326864
     atom   46 type  2   force =    -0.07147199   -0.00006505   -0.02768008
     atom   47 type  2   force =     0.07140213    0.00034298   -0.02768883
     atom   48 type  3   force =    -0.00181011   -0.00054086   -0.00403710
     atom   49 type  3   force =     0.00248492   -0.00053956    0.00222814
     atom   50 type  4   force =    -0.00040669   -0.00036297    0.00053055
     atom   51 type  5   force =     0.00060400   -0.00041929   -0.00010041

     Total force =     0.367683     Total SCF correction =     0.000623
  @ DRIVER MODE: Message from server: STATUS
  @ DRIVER MODE: Message from server: GETFORCE
  @ DRIVER MODE: Returning v,forces,stress,ensemble 

     Writing output data file ./calc.save/
  @ DRIVER MODE: Message from server: EXIT
  @ DRIVE MODE: Exiting  
 
     init_run     :     18.07s CPU     18.42s WALL (       1 calls)
     electrons    :   1671.55s CPU   1709.58s WALL (       1 calls)
     forces       :      3.89s CPU      4.08s WALL (       1 calls)

     Called by init_run:
     wfcinit      :      8.06s CPU      8.17s WALL (       1 calls)
     potinit      :      8.99s CPU      9.09s WALL (       1 calls)
     hinit0       :      0.48s CPU      0.49s WALL (       1 calls)

     Called by electrons:
     c_bands      :   1385.51s CPU   1404.71s WALL (      68 calls)
     sum_band     :    192.18s CPU    201.29s WALL (      68 calls)
     v_of_rho     :     71.13s CPU     73.61s WALL (      69 calls)
     newd         :     27.98s CPU     35.31s WALL (      69 calls)
     mix_rho      :      2.68s CPU      2.71s WALL (      68 calls)
     vdW_kernel   :      7.61s CPU      7.63s WALL (       1 calls)

     Called by c_bands:
     init_us_2    :     10.33s CPU     10.38s WALL (    1380 calls)
     cegterg      :   1355.21s CPU   1373.94s WALL (     691 calls)

     Called by *egterg:
     cdiaghg      :    158.26s CPU    159.00s WALL (    6205 calls)
     h_psi        :    782.44s CPU    794.43s WALL (    6215 calls)
     s_psi        :    102.77s CPU    103.18s WALL (    6215 calls)
     g_psi        :      2.71s CPU      2.73s WALL (    5514 calls)

     Called by h_psi:
     h_psi:calbec :     96.64s CPU     97.88s WALL (    6215 calls)
     vloc_psi     :    579.16s CPU    584.51s WALL (    6215 calls)
     add_vuspsi   :    102.77s CPU    105.04s WALL (    6215 calls)

     General routines
     calbec       :    129.99s CPU    131.43s WALL (    6935 calls)
     fft          :     39.05s CPU     39.22s WALL (    4347 calls)
     ffts         :      0.23s CPU      0.23s WALL (     137 calls)
     fftw         :    641.79s CPU    647.70s WALL (  872826 calls)
     interpolate  :      0.74s CPU      0.75s WALL (      69 calls)
     davcio       :      0.00s CPU      0.19s WALL (      10 calls)
 
     Parallel routines
 
     PWSCF        :  28m13.76s CPU  28m52.69s WALL

 
   This run was terminated on:  16:40:44  23Aug2021            

=------------------------------------------------------------------------------=
   JOB DONE.
=------------------------------------------------------------------------------=
