
     Program PWSCF v.6.7GPU starts on 12Oct2021 at 19: 1:14 

     This program is part of the open-source Quantum ESPRESSO suite
     for quantum simulation of materials; please cite
         "P. Giannozzi et al., J. Phys.:Condens. Matter 21 395502 (2009);
         "P. Giannozzi et al., J. Phys.:Condens. Matter 29 465901 (2017);
         "P. Giannozzi et al., J. Chem. Phys. 152 154105 (2020);
          URL http://www.quantum-espresso.org", 
     in publications or presentations arising from this work. More details at
     http://www.quantum-espresso.org/quote

     Parallel version (MPI), running on     8 processors

     MPI processes distributed on     1 nodes
     R & G space division:  proc/nbgrp/npool/nimage =       8
     Reading input from /storage/home/hcoda1/3/ntian30/research/carbon/ACS_vib/ads_slab/HNNH2/out_0030/pw.inp
Warning: card &CELL ignored
Warning: card   CELL_DYNAMICS='IPI', ignored
Warning: card / ignored

     Current dimensions of program PWSCF are:
     Max number of different atomic species (ntypx) = 10
     Max number of k-points (npk) =  40000
     Max angular momentum in pseudopotentials (lmaxx) =  3
     Presently no symmetry can be used with electric field

     Message from routine cell_base_init:
     DEPRECATED: use true lattice parameter, not A to a.u. conversion factor

     **************************************************************************
     Initializing libbeef V0.1.2 with the BEEF-vdW functional.
     Citation: Wellendorff et al., PRB 85, 235149 (2012).
     **************************************************************************


     IMPORTANT: XC functional enforced from input :
     Exchange-correlation= BEEF-VDW
                           (   1   4  43  14   2   0   0)
     Any further DFT definition will be discarded
     Please, verify this is what you really want


     Subspace diagonalization in iterative solution of the eigenvalue problem:
     one sub-group per band group will be used
     scalapack distributed-memory algorithm (size of sub-group:  2*  2 procs)

  @ DRIVER MODE: Connecting to 
 qe_1139763_3181312.sched-torque.pace.gatech.eduayhaflt5_scratch
  using UNIX socket
  @ DRIVER MODE: Message from server: STATUS
  @ DRIVER MODE: Message from server: INIT
  @ DRIVER MODE: Receiving replica           0          -1
  @ DRIVER MODE: Receiving encoded integer          25
  @ DRIVER MODE:  SCF:  T  FORCE:  T  STRESS:  F  VC:  F  ENSEMBLE:  F
  @ DRIVER MODE:  SCF:  T  FORCE:  T  STRESS:  F  VC:  F  ENSEMBLE:  F
 
     Parallelization info
     --------------------
     sticks:   dense  smooth     PW     G-vecs:    dense   smooth      PW
     Min         409     164     47                70857    17926    2743
     Max         411     165     48                70858    17931    2751
     Sum        3275    1317    379               566857   143421   21985
 
     Using Slab Decomposition
 


     bravais-lattice index     =            0
     lattice parameter (alat)  =       1.8897  a.u.
     unit-cell volume          =    6658.9804 (a.u.)^3
     number of atoms/cell      =           52
     number of atomic types    =            4
     number of electrons       =       391.00
     number of Kohn-Sham states=          205
     kinetic-energy cutoff     =      29.3995  Ry
     charge density cutoff     =     293.9946  Ry
     scf convergence threshold =      7.3E-08
     mixing beta               =       0.0500
     number of iterations used =            8  plain     mixing
     Exchange-correlation= BEEF-VDW
                           (   1   4  43  14   2   0   0)

     celldm(1)=   1.889726  celldm(2)=   0.000000  celldm(3)=   0.000000
     celldm(4)=   0.000000  celldm(5)=   0.000000  celldm(6)=   0.000000

     crystal axes: (cart. coord. in units of alat)
               a(1) = (   6.579727   0.000000   0.000000 )  
               a(2) = (  -0.000775   5.961596   0.000000 )  
               a(3) = (   0.000000   0.000000  25.155947 )  

     reciprocal axes: (cart. coord. in units 2 pi/alat)
               b(1) = (  0.151982  0.000020  0.000000 )  
               b(2) = (  0.000000  0.167740  0.000000 )  
               b(3) = (  0.000000  0.000000  0.039752 )  


     PseudoPot. # 1 for Ti read from file:
     /storage/coda1/p-amedford6/0/shared/rich_project_chbe-medford/medford-share/data/pseudos_module/espresso/nninc/pbe/van/Ti.UPF
     MD5 check sum: 8e4df49b7f0d34bbd5052bf3f5ea0213
     Pseudo is Ultrasoft, Zval = 12.0
     Generated by new atomic code, or converted to UPF format
     Using radial grid of  851 points,  6 beta functions with: 
                l(1) =   0
                l(2) =   0
                l(3) =   1
                l(4) =   1
                l(5) =   2
                l(6) =   2
     Q(r) pseudized with  8 coefficients,  rinner =    1.000   1.000   1.000
                                                       1.000   1.000

     PseudoPot. # 2 for O  read from file:
     /storage/coda1/p-amedford6/0/shared/rich_project_chbe-medford/medford-share/data/pseudos_module/espresso/nninc/pbe/van/O.UPF
     MD5 check sum: 78c19812648e8988a0fe644b0f25305e
     Pseudo is Ultrasoft, Zval =  6.0
     Generated by new atomic code, or converted to UPF format
     Using radial grid of  737 points,  4 beta functions with: 
                l(1) =   0
                l(2) =   0
                l(3) =   1
                l(4) =   1
     Q(r) pseudized with  8 coefficients,  rinner =    0.800   0.800   0.800


     PseudoPot. # 3 for H  read from file:
     /storage/coda1/p-amedford6/0/shared/rich_project_chbe-medford/medford-share/data/pseudos_module/espresso/nninc/pbe/van/H.UPF
     MD5 check sum: b5ee9d7bfd3a09ee7748110bda690ff7
     Pseudo is Ultrasoft, Zval =  1.0
     Generated by new atomic code, or converted to UPF format
     Using radial grid of  615 points,  1 beta functions with: 
                l(1) =   0
     Q(r) pseudized with  8 coefficients,  rinner =    0.800

     PseudoPot. # 4 for N  read from file:
     /storage/coda1/p-amedford6/0/shared/rich_project_chbe-medford/medford-share/data/pseudos_module/espresso/nninc/pbe/van/N.UPF
     MD5 check sum: 90d10febe142ad51ac9d5be1deb811c4
     Pseudo is Ultrasoft, Zval =  5.0
     Generated by new atomic code, or converted to UPF format
     Using radial grid of  729 points,  4 beta functions with: 
                l(1) =   0
                l(2) =   0
                l(3) =   1
                l(4) =   1
     Q(r) pseudized with  8 coefficients,  rinner =    0.800   0.800   0.800


     atomic species   valence    mass     pseudopotential
        Ti1           12.00    47.86700     Ti( 1.00)
        O1             6.00    15.99900     O ( 1.00)
        H1             1.00     1.00800     H ( 1.00)
        N1             5.00    14.00700     N ( 1.00)

     No symmetry found



   Cartesian axes

     site n.     atom                  positions (alat units)
         1           Ti1 tau(   1) = (   0.0004258   2.9801865   6.0000000  )
         2           Ti1 tau(   2) = (   3.2906075   1.4906267   6.0002472  )
         3           O1  tau(   3) = (   0.0006271   0.0005054   7.9858123  )
         4           O1  tau(   4) = (   3.2906025   0.0005020   7.3038282  )
         5           O1  tau(   5) = (   4.5942328   1.4918067   9.2879030  )
         6           O1  tau(   6) = (   1.9868534   1.4903216   9.2879459  )
         7           Ti1 tau(   7) = (   3.2908112   2.9011704   9.1816539  )
         8           Ti1 tau(   8) = (   0.0015097   1.3932332   9.2931702  )
         9           O1  tau(   9) = (   3.2819087   5.9526348  11.3504271  )
        10           O1  tau(  10) = (   6.5772260   5.9545827  10.6088576  )
        11           O1  tau(  11) = (   1.2874804   1.4832564  12.6509691  )
        12           O1  tau(  12) = (   5.2781146   1.4858874  12.6440994  )
        13           Ti1 tau(  13) = (   6.5585775   2.9503744  12.8030734  )
        14           Ti1 tau(  14) = (   3.2696126   1.4733128  12.4944632  )
        15           O1  tau(  15) = (   6.5513721   5.9458199  14.6768215  )
        16           O1  tau(  16) = (   3.2879482   5.9481552  13.9547078  )
        17           O1  tau(  17) = (   4.5181657   1.4884665  16.1124167  )
        18           O1  tau(  18) = (   2.0188244   1.4835402  16.0984261  )
        19           Ti1 tau(  19) = (   3.2766105   2.9578040  15.7125626  )
        20           Ti1 tau(  20) = (   0.0270592   1.3580474  16.0627221  )
        21           O1  tau(  21) = (   3.2904802   0.0005063   4.7018136  )
        22           O1  tau(  22) = (   0.0072818   5.9434210  17.2237418  )
        23           O1  tau(  23) = (   1.3043587   1.4918075   6.0039043  )
        24           O1  tau(  24) = (   5.2767064   1.4903225   6.0039473  )
        25           Ti1 tau(  25) = (   0.0000382   5.9609847   6.0000000  )
        26           Ti1 tau(  26) = (   3.2902200   4.4714249   6.0002472  )
        27           O1  tau(  27) = (   0.0002396   2.9813036   7.9858123  )
        28           O1  tau(  28) = (   3.2902150   2.9813002   7.3038282  )
        29           O1  tau(  29) = (   4.5938453   4.4726049   9.2879030  )
        30           O1  tau(  30) = (   1.9864658   4.4711199   9.2879459  )
        31           Ti1 tau(  31) = (   3.2900885   5.8829342   9.1674613  )
        32           Ti1 tau(  32) = (   0.0009626   4.3321112   9.3579051  )
        33           O1  tau(  33) = (   3.2805539   2.9674959  11.3464436  )
        34           O1  tau(  34) = (   6.5791951   2.9642230  10.5753725  )
        35           O1  tau(  35) = (   1.2880645   4.4660911  12.6414962  )
        36           O1  tau(  36) = (   5.2770833   4.4616490  12.6331305  )
        37           Ti1 tau(  37) = (   6.5652171   5.9330851  12.5680926  )
        38           Ti1 tau(  38) = (   3.2703904   4.4534766  12.4879229  )
        39           O1  tau(  39) = (   6.5642693   2.9891374  14.6930774  )
        40           O1  tau(  40) = (   3.2814391   2.9717942  13.9260038  )
        41           O1  tau(  41) = (   4.5200678   4.4336085  16.1105754  )
        42           O1  tau(  42) = (   2.0169658   4.4359636  16.1171003  )
        43           Ti1 tau(  43) = (   3.3139371   5.9425984  15.7429620  )
        44           Ti1 tau(  44) = (   0.0173840   4.5100783  16.0001754  )
        45           O1  tau(  45) = (   3.2900926   2.9813045   4.7018136  )
        46           O1  tau(  46) = (   1.3039711   4.4726057   6.0039043  )
        47           O1  tau(  47) = (   5.2763189   4.4711207   6.0039473  )
        48           H1  tau(  48) = (   5.5810648   2.9993886  17.8866560  )
        49           N1  tau(  49) = (   6.5184219   2.9788514  17.4915934  )
        50           N1  tau(  50) = (   0.8269126   2.9775512  18.6276789  )
        51           H1  tau(  51) = (   1.2125983   2.0437984  18.7562651  )
        52           H1  tau(  52) = (   1.5963704   3.6133177  18.4501992  )

     number of k points=    10  Fermi-Dirac smearing, width (Ry)=  0.0073
                       cart. coord. in units 2pi/alat
        k(    1) = (   0.0000000   0.0000000   0.0000000), wk =   0.1250000
        k(    2) = (   0.0000000   0.0419351   0.0000000), wk =   0.2500000
        k(    3) = (   0.0000000  -0.0838702   0.0000000), wk =   0.1250000
        k(    4) = (   0.0379955   0.0000049   0.0000000), wk =   0.2500000
        k(    5) = (   0.0379955   0.0419400   0.0000000), wk =   0.2500000
        k(    6) = (   0.0379955  -0.0838652   0.0000000), wk =   0.2500000
        k(    7) = (   0.0379955  -0.0419301   0.0000000), wk =   0.2500000
        k(    8) = (  -0.0759910  -0.0000099   0.0000000), wk =   0.1250000
        k(    9) = (  -0.0759910   0.0419252   0.0000000), wk =   0.2500000
        k(   10) = (  -0.0759910  -0.0838800   0.0000000), wk =   0.1250000

     Dense  grid:   566857 G-vectors     FFT dimensions: (  72,  64, 270)

     Smooth grid:   143421 G-vectors     FFT dimensions: (  45,  40, 180)

     Estimated max dynamical RAM per process >     448.01 MB

     Estimated total dynamical RAM >       3.50 GB
     Cannot read rho : file not found

     Initial potential from superposition of free atoms

     starting charge  374.99920, renormalised to  391.00000

     negative rho (up, down):  1.965E-02 0.000E+00


     %%%%%%%%%%%%%%%%%%%%%%%%%%%%%%%%%%%%%%%%%%%%%%%%%%%%%%%%%%%%%%%%%%%%%%%%
     %                                                                      %
     % You are using vdW-DF, which was implemented by the Thonhauser group. %
     % Please cite the following two papers that made this development      %
     % possible and the two reviews that describe the various versions:     %
     %                                                                      %
     %   T. Thonhauser et al., PRL 115, 136402 (2015).                      %
     %   T. Thonhauser et al., PRB 76, 125112 (2007).                       %
     %   K. Berland et al., Rep. Prog. Phys. 78, 066501 (2015).             %
     %   D.C. Langreth et al., J. Phys.: Condens. Matter 21, 084203 (2009). %
     %                                                                      %
     %                                                                      %
     % If you are calculating the stress with vdW-DF, please also cite:     %
     %                                                                      %
     %   R. Sabatini et al., J. Phys.: Condens. Matter 24, 424209 (2012).   %
     %                                                                      %
     %%%%%%%%%%%%%%%%%%%%%%%%%%%%%%%%%%%%%%%%%%%%%%%%%%%%%%%%%%%%%%%%%%%%%%%%


 
     Adding external electric field

     Computed dipole along edir(3) : 
        Dipole               -5.4658 Ry au,        -13.8928 Debye
        Dipole field         -0.0103 Ry au, 
 
        Potential amp.        0.9562 Ry
        Total length         46.3494 bohr
 
     Starting wfcs are  295 atomic wfcs
  @ DRIVER MODE: Message from server: STATUS
  @ DRIVER MODE: Message from server: POSDATA
  @ DRIVER MODE: Reading and sharing cell 
  @ DRIVER MODE: Reading and sharing positions 
  @ DRIVER MODE: Received positions 

     total cpu time spent up to now is       13.8 secs

     Self-consistent Calculation

     iteration #  1     ecut=    29.40 Ry     beta= 0.05
     Davidson diagonalization with overlap
     c_bands:  3 eigenvalues not converged
     c_bands:  1 eigenvalues not converged
     c_bands:  2 eigenvalues not converged
     c_bands:  3 eigenvalues not converged
     c_bands:  4 eigenvalues not converged
     c_bands:  2 eigenvalues not converged
     c_bands:  1 eigenvalues not converged
     c_bands:  1 eigenvalues not converged
     c_bands:  2 eigenvalues not converged
     ethr =  1.00E-05,  avg # of iterations = 19.9

     negative rho (up, down):  1.893E-02 0.000E+00
 
     Adding external electric field

     Computed dipole along edir(3) : 
        Dipole               24.5366 Ry au,         62.3658 Debye
        Dipole field          0.0463 Ry au, 
 
        Potential amp.       -4.2923 Ry
        Total length         46.3494 bohr
 

     total cpu time spent up to now is       61.0 secs

     total energy              =   -2794.87782337 Ry
     estimated scf accuracy    <    1458.19117986 Ry

     iteration #  2     ecut=    29.40 Ry     beta= 0.05
     Davidson diagonalization with overlap
     ethr =  1.00E-02,  avg # of iterations = 16.9

     negative rho (up, down):  7.880E-03 0.000E+00
 
     Adding external electric field

     Computed dipole along edir(3) : 
        Dipole               -2.1789 Ry au,         -5.5381 Debye
        Dipole field         -0.0041 Ry au, 
 
        Potential amp.        0.3812 Ry
        Total length         46.3494 bohr
 

     total cpu time spent up to now is      113.2 secs

     total energy              =   -2655.67358929 Ry
     estimated scf accuracy    <   34980.81650921 Ry

     iteration #  3     ecut=    29.40 Ry     beta= 0.05
     Davidson diagonalization with overlap
     c_bands:  2 eigenvalues not converged
     ethr =  1.00E-02,  avg # of iterations = 15.4

     negative rho (up, down):  7.904E-03 0.000E+00
 
     Adding external electric field

     Computed dipole along edir(3) : 
        Dipole               -3.1825 Ry au,         -8.0891 Debye
        Dipole field         -0.0060 Ry au, 
 
        Potential amp.        0.5567 Ry
        Total length         46.3494 bohr
 

     total cpu time spent up to now is      157.3 secs

     total energy              =   -2915.93632588 Ry
     estimated scf accuracy    <    1140.84735618 Ry

     iteration #  4     ecut=    29.40 Ry     beta= 0.05
     Davidson diagonalization with overlap
     ethr =  1.00E-02,  avg # of iterations =  7.6

     negative rho (up, down):  7.963E-03 0.000E+00
 
     Adding external electric field

     Computed dipole along edir(3) : 
        Dipole               -4.0633 Ry au,        -10.3278 Debye
        Dipole field         -0.0077 Ry au, 
 
        Potential amp.        0.7108 Ry
        Total length         46.3494 bohr
 

     total cpu time spent up to now is      173.1 secs

     total energy              =   -2914.73204579 Ry
     estimated scf accuracy    <     586.45443730 Ry

     iteration #  5     ecut=    29.40 Ry     beta= 0.05
     Davidson diagonalization with overlap
     ethr =  1.00E-02,  avg # of iterations =  9.7

     negative rho (up, down):  7.868E-03 0.000E+00
 
     Adding external electric field

     Computed dipole along edir(3) : 
        Dipole               -3.8354 Ry au,         -9.7487 Debye
        Dipole field         -0.0072 Ry au, 
 
        Potential amp.        0.6709 Ry
        Total length         46.3494 bohr
 

     total cpu time spent up to now is      192.6 secs

     total energy              =   -2929.30302335 Ry
     estimated scf accuracy    <      11.44618567 Ry

     iteration #  6     ecut=    29.40 Ry     beta= 0.05
     Davidson diagonalization with overlap
     ethr =  2.93E-03,  avg # of iterations =  3.0

     negative rho (up, down):  7.847E-03 0.000E+00
 
     Adding external electric field

     Computed dipole along edir(3) : 
        Dipole               -2.9875 Ry au,         -7.5934 Debye
        Dipole field         -0.0056 Ry au, 
 
        Potential amp.        0.5226 Ry
        Total length         46.3494 bohr
 

     total cpu time spent up to now is      206.3 secs

     total energy              =   -2928.18584365 Ry
     estimated scf accuracy    <      10.42099185 Ry

     iteration #  7     ecut=    29.40 Ry     beta= 0.05
     Davidson diagonalization with overlap
     ethr =  2.67E-03,  avg # of iterations =  1.9

     negative rho (up, down):  8.093E-03 0.000E+00
 
     Adding external electric field

     Computed dipole along edir(3) : 
        Dipole               -0.8693 Ry au,         -2.2094 Debye
        Dipole field         -0.0016 Ry au, 
 
        Potential amp.        0.1521 Ry
        Total length         46.3494 bohr
 

     total cpu time spent up to now is      219.5 secs

     total energy              =   -2926.36767149 Ry
     estimated scf accuracy    <       6.05493899 Ry

     iteration #  8     ecut=    29.40 Ry     beta= 0.05
     Davidson diagonalization with overlap
     c_bands:  1 eigenvalues not converged
     c_bands:  1 eigenvalues not converged
     ethr =  1.55E-03,  avg # of iterations = 16.3

     negative rho (up, down):  8.025E-03 0.000E+00
 
     Adding external electric field

     Computed dipole along edir(3) : 
        Dipole               -0.9252 Ry au,         -2.3515 Debye
        Dipole field         -0.0017 Ry au, 
 
        Potential amp.        0.1618 Ry
        Total length         46.3494 bohr
 

     total cpu time spent up to now is      245.2 secs

     total energy              =   -2932.22502472 Ry
     estimated scf accuracy    <     318.10553398 Ry

     iteration #  9     ecut=    29.40 Ry     beta= 0.05
     Davidson diagonalization with overlap
     ethr =  1.55E-03,  avg # of iterations =  1.2

     negative rho (up, down):  7.970E-03 0.000E+00
 
     Adding external electric field

     Computed dipole along edir(3) : 
        Dipole               -0.9830 Ry au,         -2.4986 Debye
        Dipole field         -0.0019 Ry au, 
 
        Potential amp.        0.1720 Ry
        Total length         46.3494 bohr
 

     total cpu time spent up to now is      257.6 secs

     total energy              =   -2931.98660981 Ry
     estimated scf accuracy    <     302.24335209 Ry

     iteration # 10     ecut=    29.40 Ry     beta= 0.05
     Davidson diagonalization with overlap
     ethr =  1.55E-03,  avg # of iterations =  1.0

     negative rho (up, down):  8.032E-03 0.000E+00
 
     Adding external electric field

     Computed dipole along edir(3) : 
        Dipole               -0.7651 Ry au,         -1.9447 Debye
        Dipole field         -0.0014 Ry au, 
 
        Potential amp.        0.1338 Ry
        Total length         46.3494 bohr
 

     total cpu time spent up to now is      269.7 secs

     total energy              =   -2932.59767049 Ry
     estimated scf accuracy    <     284.30447761 Ry

     iteration # 11     ecut=    29.40 Ry     beta= 0.05
     Davidson diagonalization with overlap
     ethr =  1.55E-03,  avg # of iterations =  1.0

     negative rho (up, down):  8.123E-03 0.000E+00
 
     Adding external electric field

     Computed dipole along edir(3) : 
        Dipole               -1.6770 Ry au,         -4.2626 Debye
        Dipole field         -0.0032 Ry au, 
 
        Potential amp.        0.2934 Ry
        Total length         46.3494 bohr
 

     total cpu time spent up to now is      281.7 secs

     total energy              =   -2925.54992811 Ry
     estimated scf accuracy    <     278.75678447 Ry

     iteration # 12     ecut=    29.40 Ry     beta= 0.05
     Davidson diagonalization with overlap
     c_bands:  3 eigenvalues not converged
     c_bands:  2 eigenvalues not converged
     c_bands:  4 eigenvalues not converged
     c_bands:  2 eigenvalues not converged
     c_bands:  2 eigenvalues not converged
     c_bands:  1 eigenvalues not converged
     c_bands:  5 eigenvalues not converged
     ethr =  1.55E-03,  avg # of iterations = 19.6

     negative rho (up, down):  7.973E-03 0.000E+00
 
     Adding external electric field

     Computed dipole along edir(3) : 
        Dipole               -0.9115 Ry au,         -2.3169 Debye
        Dipole field         -0.0017 Ry au, 
 
        Potential amp.        0.1595 Ry
        Total length         46.3494 bohr
 

     total cpu time spent up to now is      308.6 secs

     total energy              =   -2928.45454250 Ry
     estimated scf accuracy    <      71.69341844 Ry

     iteration # 13     ecut=    29.40 Ry     beta= 0.05
     Davidson diagonalization with overlap
     c_bands:  3 eigenvalues not converged
     c_bands:  1 eigenvalues not converged
     ethr =  1.55E-03,  avg # of iterations = 17.0

     negative rho (up, down):  8.032E-03 0.000E+00
 
     Adding external electric field

     Computed dipole along edir(3) : 
        Dipole               -0.7261 Ry au,         -1.8454 Debye
        Dipole field         -0.0014 Ry au, 
 
        Potential amp.        0.1270 Ry
        Total length         46.3494 bohr
 

     total cpu time spent up to now is      329.6 secs

     total energy              =   -2932.32847622 Ry
     estimated scf accuracy    <     166.44621914 Ry

     iteration # 14     ecut=    29.40 Ry     beta= 0.05
     Davidson diagonalization with overlap
     ethr =  1.55E-03,  avg # of iterations =  6.1

     negative rho (up, down):  8.030E-03 0.000E+00
 
     Adding external electric field

     Computed dipole along edir(3) : 
        Dipole               -0.8306 Ry au,         -2.1112 Debye
        Dipole field         -0.0016 Ry au, 
 
        Potential amp.        0.1453 Ry
        Total length         46.3494 bohr
 

     total cpu time spent up to now is      344.0 secs

     total energy              =   -2931.98447867 Ry
     estimated scf accuracy    <     192.10832961 Ry

     iteration # 15     ecut=    29.40 Ry     beta= 0.05
     Davidson diagonalization with overlap
     ethr =  1.55E-03,  avg # of iterations =  1.3

     negative rho (up, down):  8.043E-03 0.000E+00
 
     Adding external electric field

     Computed dipole along edir(3) : 
        Dipole               -1.6023 Ry au,         -4.0728 Debye
        Dipole field         -0.0030 Ry au, 
 
        Potential amp.        0.2803 Ry
        Total length         46.3494 bohr
 

     total cpu time spent up to now is      356.3 secs

     total energy              =   -2928.39040084 Ry
     estimated scf accuracy    <     173.01322971 Ry

     iteration # 16     ecut=    29.40 Ry     beta= 0.05
     Davidson diagonalization with overlap
     c_bands:  1 eigenvalues not converged
     c_bands:  2 eigenvalues not converged
     ethr =  1.55E-03,  avg # of iterations = 17.6

     negative rho (up, down):  8.162E-03 0.000E+00
 
     Adding external electric field

     Computed dipole along edir(3) : 
        Dipole               -3.3079 Ry au,         -8.4078 Debye
        Dipole field         -0.0062 Ry au, 
 
        Potential amp.        0.5787 Ry
        Total length         46.3494 bohr
 

     total cpu time spent up to now is      378.6 secs

     total energy              =   -2913.69137204 Ry
     estimated scf accuracy    <      70.92284735 Ry

     iteration # 17     ecut=    29.40 Ry     beta= 0.05
     Davidson diagonalization with overlap
     c_bands:  3 eigenvalues not converged
     ethr =  1.55E-03,  avg # of iterations = 15.1

     negative rho (up, down):  8.046E-03 0.000E+00
 
     Adding external electric field

     Computed dipole along edir(3) : 
        Dipole               -3.3012 Ry au,         -8.3909 Debye
        Dipole field         -0.0062 Ry au, 
 
        Potential amp.        0.5775 Ry
        Total length         46.3494 bohr
 

     total cpu time spent up to now is      413.8 secs

     total energy              =   -2920.98561092 Ry
     estimated scf accuracy    <     310.36694544 Ry

     iteration # 18     ecut=    29.40 Ry     beta= 0.05
     Davidson diagonalization with overlap
     ethr =  1.55E-03,  avg # of iterations = 13.5

     negative rho (up, down):  8.051E-03 0.000E+00
 
     Adding external electric field

     Computed dipole along edir(3) : 
        Dipole               -2.1956 Ry au,         -5.5808 Debye
        Dipole field         -0.0041 Ry au, 
 
        Potential amp.        0.3841 Ry
        Total length         46.3494 bohr
 

     total cpu time spent up to now is      437.5 secs

     total energy              =   -2926.94510986 Ry
     estimated scf accuracy    <       9.35683735 Ry

     iteration # 19     ecut=    29.40 Ry     beta= 0.05
     Davidson diagonalization with overlap
     ethr =  1.55E-03,  avg # of iterations =  5.7

     negative rho (up, down):  8.108E-03 0.000E+00
 
     Adding external electric field

     Computed dipole along edir(3) : 
        Dipole               -1.7658 Ry au,         -4.4883 Debye
        Dipole field         -0.0033 Ry au, 
 
        Potential amp.        0.3089 Ry
        Total length         46.3494 bohr
 

     total cpu time spent up to now is      453.3 secs

     total energy              =   -2927.24933886 Ry
     estimated scf accuracy    <       3.12219644 Ry

     iteration # 20     ecut=    29.40 Ry     beta= 0.05
     Davidson diagonalization with overlap
     c_bands:  1 eigenvalues not converged
     ethr =  7.99E-04,  avg # of iterations = 14.1

     negative rho (up, down):  8.092E-03 0.000E+00
 
     Adding external electric field

     Computed dipole along edir(3) : 
        Dipole               -1.7385 Ry au,         -4.4189 Debye
        Dipole field         -0.0033 Ry au, 
 
        Potential amp.        0.3041 Ry
        Total length         46.3494 bohr
 

     total cpu time spent up to now is      476.8 secs

     total energy              =   -2927.93854345 Ry
     estimated scf accuracy    <       3.98921195 Ry

     iteration # 21     ecut=    29.40 Ry     beta= 0.05
     Davidson diagonalization with overlap
     ethr =  7.99E-04,  avg # of iterations =  1.9

     negative rho (up, down):  8.099E-03 0.000E+00
 
     Adding external electric field

     Computed dipole along edir(3) : 
        Dipole               -1.7773 Ry au,         -4.5174 Debye
        Dipole field         -0.0034 Ry au, 
 
        Potential amp.        0.3109 Ry
        Total length         46.3494 bohr
 

     total cpu time spent up to now is      489.3 secs

     total energy              =   -2927.97171069 Ry
     estimated scf accuracy    <       4.59746685 Ry

     iteration # 22     ecut=    29.40 Ry     beta= 0.05
     Davidson diagonalization with overlap
     ethr =  7.99E-04,  avg # of iterations =  1.0

     negative rho (up, down):  8.075E-03 0.000E+00
 
     Adding external electric field

     Computed dipole along edir(3) : 
        Dipole               -1.8227 Ry au,         -4.6329 Debye
        Dipole field         -0.0034 Ry au, 
 
        Potential amp.        0.3189 Ry
        Total length         46.3494 bohr
 

     total cpu time spent up to now is      501.3 secs

     total energy              =   -2927.86122376 Ry
     estimated scf accuracy    <       4.85448570 Ry

     iteration # 23     ecut=    29.40 Ry     beta= 0.05
     Davidson diagonalization with overlap
     ethr =  7.99E-04,  avg # of iterations =  1.0

     negative rho (up, down):  8.073E-03 0.000E+00
 
     Adding external electric field

     Computed dipole along edir(3) : 
        Dipole               -1.8041 Ry au,         -4.5855 Debye
        Dipole field         -0.0034 Ry au, 
 
        Potential amp.        0.3156 Ry
        Total length         46.3494 bohr
 

     total cpu time spent up to now is      513.3 secs

     total energy              =   -2927.88603251 Ry
     estimated scf accuracy    <       2.41383105 Ry

     iteration # 24     ecut=    29.40 Ry     beta= 0.05
     Davidson diagonalization with overlap
     ethr =  6.17E-04,  avg # of iterations =  1.0

     negative rho (up, down):  8.036E-03 0.000E+00
 
     Adding external electric field

     Computed dipole along edir(3) : 
        Dipole               -1.8081 Ry au,         -4.5956 Debye
        Dipole field         -0.0034 Ry au, 
 
        Potential amp.        0.3163 Ry
        Total length         46.3494 bohr
 

     total cpu time spent up to now is      525.3 secs

     total energy              =   -2927.83836010 Ry
     estimated scf accuracy    <       2.29888973 Ry

     iteration # 25     ecut=    29.40 Ry     beta= 0.05
     Davidson diagonalization with overlap
     ethr =  5.88E-04,  avg # of iterations =  1.0

     negative rho (up, down):  8.007E-03 0.000E+00
 
     Adding external electric field

     Computed dipole along edir(3) : 
        Dipole               -1.7331 Ry au,         -4.4052 Debye
        Dipole field         -0.0033 Ry au, 
 
        Potential amp.        0.3032 Ry
        Total length         46.3494 bohr
 

     total cpu time spent up to now is      537.3 secs

     total energy              =   -2927.94217182 Ry
     estimated scf accuracy    <       1.96885204 Ry

     iteration # 26     ecut=    29.40 Ry     beta= 0.05
     Davidson diagonalization with overlap
     ethr =  5.04E-04,  avg # of iterations =  4.1

     negative rho (up, down):  8.040E-03 0.000E+00
 
     Adding external electric field

     Computed dipole along edir(3) : 
        Dipole               -1.6380 Ry au,         -4.1634 Debye
        Dipole field         -0.0031 Ry au, 
 
        Potential amp.        0.2865 Ry
        Total length         46.3494 bohr
 

     total cpu time spent up to now is      551.1 secs

     total energy              =   -2928.19991360 Ry
     estimated scf accuracy    <      49.18577821 Ry

     iteration # 27     ecut=    29.40 Ry     beta= 0.05
     Davidson diagonalization with overlap
     ethr =  5.04E-04,  avg # of iterations =  1.1

     negative rho (up, down):  8.004E-03 0.000E+00
 
     Adding external electric field

     Computed dipole along edir(3) : 
        Dipole               -1.9620 Ry au,         -4.9869 Debye
        Dipole field         -0.0037 Ry au, 
 
        Potential amp.        0.3432 Ry
        Total length         46.3494 bohr
 

     total cpu time spent up to now is      563.2 secs

     total energy              =   -2927.61601559 Ry
     estimated scf accuracy    <      33.37073073 Ry

     iteration # 28     ecut=    29.40 Ry     beta= 0.05
     Davidson diagonalization with overlap
     ethr =  5.04E-04,  avg # of iterations =  2.0

     negative rho (up, down):  8.052E-03 0.000E+00
 
     Adding external electric field

     Computed dipole along edir(3) : 
        Dipole               -1.6615 Ry au,         -4.2231 Debye
        Dipole field         -0.0031 Ry au, 
 
        Potential amp.        0.2907 Ry
        Total length         46.3494 bohr
 

     total cpu time spent up to now is      576.2 secs

     total energy              =   -2927.89098931 Ry
     estimated scf accuracy    <      13.58597731 Ry

     iteration # 29     ecut=    29.40 Ry     beta= 0.05
     Davidson diagonalization with overlap
     ethr =  5.04E-04,  avg # of iterations =  1.2

     negative rho (up, down):  8.078E-03 0.000E+00
 
     Adding external electric field

     Computed dipole along edir(3) : 
        Dipole               -1.6620 Ry au,         -4.2243 Debye
        Dipole field         -0.0031 Ry au, 
 
        Potential amp.        0.2907 Ry
        Total length         46.3494 bohr
 

     total cpu time spent up to now is      588.4 secs

     total energy              =   -2927.95922283 Ry
     estimated scf accuracy    <      15.99049515 Ry

     iteration # 30     ecut=    29.40 Ry     beta= 0.05
     Davidson diagonalization with overlap
     ethr =  5.04E-04,  avg # of iterations =  1.0

     negative rho (up, down):  8.102E-03 0.000E+00
 
     Adding external electric field

     Computed dipole along edir(3) : 
        Dipole               -1.6593 Ry au,         -4.2175 Debye
        Dipole field         -0.0031 Ry au, 
 
        Potential amp.        0.2903 Ry
        Total length         46.3494 bohr
 

     total cpu time spent up to now is      600.4 secs

     total energy              =   -2927.93556296 Ry
     estimated scf accuracy    <      16.52966880 Ry

     iteration # 31     ecut=    29.40 Ry     beta= 0.05
     Davidson diagonalization with overlap
     ethr =  5.04E-04,  avg # of iterations =  1.0

     negative rho (up, down):  8.121E-03 0.000E+00
 
     Adding external electric field

     Computed dipole along edir(3) : 
        Dipole               -2.3934 Ry au,         -6.0833 Debye
        Dipole field         -0.0045 Ry au, 
 
        Potential amp.        0.4187 Ry
        Total length         46.3494 bohr
 

     total cpu time spent up to now is      612.4 secs

     total energy              =   -2928.56913171 Ry
     estimated scf accuracy    <      15.59889461 Ry

     iteration # 32     ecut=    29.40 Ry     beta= 0.05
     Davidson diagonalization with overlap
     c_bands:  1 eigenvalues not converged
     ethr =  5.04E-04,  avg # of iterations = 16.4

     negative rho (up, down):  8.078E-03 0.000E+00
 
     Adding external electric field

     Computed dipole along edir(3) : 
        Dipole               -1.8528 Ry au,         -4.7094 Debye
        Dipole field         -0.0035 Ry au, 
 
        Potential amp.        0.3241 Ry
        Total length         46.3494 bohr
 

     total cpu time spent up to now is      632.6 secs

     total energy              =   -2927.84804527 Ry
     estimated scf accuracy    <      42.68616302 Ry

     iteration # 33     ecut=    29.40 Ry     beta= 0.05
     Davidson diagonalization with overlap
     ethr =  5.04E-04,  avg # of iterations = 10.2

     negative rho (up, down):  8.167E-03 0.000E+00
 
     Adding external electric field

     Computed dipole along edir(3) : 
        Dipole               -1.9818 Ry au,         -5.0372 Debye
        Dipole field         -0.0037 Ry au, 
 
        Potential amp.        0.3467 Ry
        Total length         46.3494 bohr
 

     total cpu time spent up to now is      649.0 secs

     total energy              =   -2927.75734253 Ry
     estimated scf accuracy    <      17.91659487 Ry

     iteration # 34     ecut=    29.40 Ry     beta= 0.05
     Davidson diagonalization with overlap
     ethr =  5.04E-04,  avg # of iterations =  7.8

     negative rho (up, down):  8.602E-03 0.000E+00
 
     Adding external electric field

     Computed dipole along edir(3) : 
        Dipole               -1.1195 Ry au,         -2.8454 Debye
        Dipole field         -0.0021 Ry au, 
 
        Potential amp.        0.1958 Ry
        Total length         46.3494 bohr
 

     total cpu time spent up to now is      663.9 secs

     total energy              =   -2926.79837616 Ry
     estimated scf accuracy    <      19.41613840 Ry

     iteration # 35     ecut=    29.40 Ry     beta= 0.05
     Davidson diagonalization with overlap
     c_bands:  2 eigenvalues not converged
     c_bands:  2 eigenvalues not converged
     ethr =  5.04E-04,  avg # of iterations = 16.5

     negative rho (up, down):  8.362E-03 0.000E+00
 
     Adding external electric field

     Computed dipole along edir(3) : 
        Dipole               -0.8992 Ry au,         -2.2855 Debye
        Dipole field         -0.0017 Ry au, 
 
        Potential amp.        0.1573 Ry
        Total length         46.3494 bohr
 

     total cpu time spent up to now is      687.4 secs

     total energy              =   -2927.67891227 Ry
     estimated scf accuracy    <       0.89688867 Ry

     iteration # 36     ecut=    29.40 Ry     beta= 0.05
     Davidson diagonalization with overlap
     ethr =  2.29E-04,  avg # of iterations =  8.7

     negative rho (up, down):  8.290E-03 0.000E+00
 
     Adding external electric field

     Computed dipole along edir(3) : 
        Dipole               -0.6438 Ry au,         -1.6363 Debye
        Dipole field         -0.0012 Ry au, 
 
        Potential amp.        0.1126 Ry
        Total length         46.3494 bohr
 

     total cpu time spent up to now is      702.7 secs

     total energy              =   -2927.66779801 Ry
     estimated scf accuracy    <       1.00181390 Ry

     iteration # 37     ecut=    29.40 Ry     beta= 0.05
     Davidson diagonalization with overlap
     ethr =  2.29E-04,  avg # of iterations =  9.8

     negative rho (up, down):  8.281E-03 0.000E+00
 
     Adding external electric field

     Computed dipole along edir(3) : 
        Dipole               -0.5294 Ry au,         -1.3457 Debye
        Dipole field         -0.0010 Ry au, 
 
        Potential amp.        0.0926 Ry
        Total length         46.3494 bohr
 

     total cpu time spent up to now is      719.2 secs

     total energy              =   -2927.70095632 Ry
     estimated scf accuracy    <       0.44892596 Ry

     iteration # 38     ecut=    29.40 Ry     beta= 0.05
     Davidson diagonalization with overlap
     c_bands:  3 eigenvalues not converged
     c_bands:  1 eigenvalues not converged
     ethr =  1.15E-04,  avg # of iterations = 15.1

     negative rho (up, down):  8.319E-03 0.000E+00
 
     Adding external electric field

     Computed dipole along edir(3) : 
        Dipole               -0.4537 Ry au,         -1.1531 Debye
        Dipole field         -0.0009 Ry au, 
 
        Potential amp.        0.0794 Ry
        Total length         46.3494 bohr
 

     total cpu time spent up to now is      736.9 secs

     total energy              =   -2927.70763958 Ry
     estimated scf accuracy    <       0.21586033 Ry

     iteration # 39     ecut=    29.40 Ry     beta= 0.05
     Davidson diagonalization with overlap
     ethr =  5.52E-05,  avg # of iterations =  9.0

     negative rho (up, down):  8.321E-03 0.000E+00
 
     Adding external electric field

     Computed dipole along edir(3) : 
        Dipole               -0.5059 Ry au,         -1.2859 Debye
        Dipole field         -0.0010 Ry au, 
 
        Potential amp.        0.0885 Ry
        Total length         46.3494 bohr
 

     total cpu time spent up to now is      752.4 secs

     total energy              =   -2927.69724721 Ry
     estimated scf accuracy    <       0.20875157 Ry

     iteration # 40     ecut=    29.40 Ry     beta= 0.05
     Davidson diagonalization with overlap
     c_bands:  3 eigenvalues not converged
     c_bands:  1 eigenvalues not converged
     ethr =  5.34E-05,  avg # of iterations = 13.0

     negative rho (up, down):  8.389E-03 0.000E+00
 
     Adding external electric field

     Computed dipole along edir(3) : 
        Dipole               -0.4436 Ry au,         -1.1274 Debye
        Dipole field         -0.0008 Ry au, 
 
        Potential amp.        0.0776 Ry
        Total length         46.3494 bohr
 

     total cpu time spent up to now is      769.8 secs

     total energy              =   -2927.70078070 Ry
     estimated scf accuracy    <       0.14336249 Ry

     iteration # 41     ecut=    29.40 Ry     beta= 0.05
     Davidson diagonalization with overlap
     c_bands:  1 eigenvalues not converged
     c_bands:  1 eigenvalues not converged
     ethr =  3.67E-05,  avg # of iterations = 13.3

     negative rho (up, down):  8.729E-03 0.000E+00
 
     Adding external electric field

     Computed dipole along edir(3) : 
        Dipole               -0.2003 Ry au,         -0.5091 Debye
        Dipole field         -0.0004 Ry au, 
 
        Potential amp.        0.0350 Ry
        Total length         46.3494 bohr
 

     total cpu time spent up to now is      788.0 secs

     total energy              =   -2927.70387172 Ry
     estimated scf accuracy    <       0.22549274 Ry

     iteration # 42     ecut=    29.40 Ry     beta= 0.05
     Davidson diagonalization with overlap
     ethr =  3.67E-05,  avg # of iterations =  8.5

     negative rho (up, down):  9.782E-03 0.000E+00
 
     Adding external electric field

     Computed dipole along edir(3) : 
        Dipole                0.2347 Ry au,          0.5965 Debye
        Dipole field          0.0004 Ry au, 
 
        Potential amp.       -0.0411 Ry
        Total length         46.3494 bohr
 

     total cpu time spent up to now is      803.5 secs

     total energy              =   -2927.69429120 Ry
     estimated scf accuracy    <       0.18321934 Ry

     iteration # 43     ecut=    29.40 Ry     beta= 0.05
     Davidson diagonalization with overlap
     c_bands:  3 eigenvalues not converged
     ethr =  3.67E-05,  avg # of iterations = 15.8

     negative rho (up, down):  9.555E-03 0.000E+00
 
     Adding external electric field

     Computed dipole along edir(3) : 
        Dipole                0.2233 Ry au,          0.5676 Debye
        Dipole field          0.0004 Ry au, 
 
        Potential amp.       -0.0391 Ry
        Total length         46.3494 bohr
 

     total cpu time spent up to now is      824.3 secs

     total energy              =   -2927.70703284 Ry
     estimated scf accuracy    <       0.06896868 Ry

     iteration # 44     ecut=    29.40 Ry     beta= 0.05
     Davidson diagonalization with overlap
     ethr =  1.76E-05,  avg # of iterations =  8.0

     negative rho (up, down):  1.009E-02 0.000E+00
 
     Adding external electric field

     Computed dipole along edir(3) : 
        Dipole                0.2223 Ry au,          0.5650 Debye
        Dipole field          0.0004 Ry au, 
 
        Potential amp.       -0.0389 Ry
        Total length         46.3494 bohr
 

     total cpu time spent up to now is      839.6 secs

     total energy              =   -2927.70459138 Ry
     estimated scf accuracy    <       0.04503199 Ry

     iteration # 45     ecut=    29.40 Ry     beta= 0.05
     Davidson diagonalization with overlap
     c_bands:  1 eigenvalues not converged
     ethr =  1.15E-05,  avg # of iterations = 16.7

     negative rho (up, down):  1.116E-02 0.000E+00
 
     Adding external electric field

     Computed dipole along edir(3) : 
        Dipole                0.2734 Ry au,          0.6949 Debye
        Dipole field          0.0005 Ry au, 
 
        Potential amp.       -0.0478 Ry
        Total length         46.3494 bohr
 

     total cpu time spent up to now is      860.4 secs

     total energy              =   -2927.70990278 Ry
     estimated scf accuracy    <       0.02469420 Ry

     iteration # 46     ecut=    29.40 Ry     beta= 0.05
     Davidson diagonalization with overlap
     c_bands:  1 eigenvalues not converged
     ethr =  6.32E-06,  avg # of iterations = 10.0

     negative rho (up, down):  1.264E-02 0.000E+00
 
     Adding external electric field

     Computed dipole along edir(3) : 
        Dipole                0.3585 Ry au,          0.9112 Debye
        Dipole field          0.0007 Ry au, 
 
        Potential amp.       -0.0627 Ry
        Total length         46.3494 bohr
 

     total cpu time spent up to now is      875.9 secs

     total energy              =   -2927.71026454 Ry
     estimated scf accuracy    <       0.01857354 Ry

     iteration # 47     ecut=    29.40 Ry     beta= 0.05
     Davidson diagonalization with overlap
     ethr =  4.75E-06,  avg # of iterations =  6.7

     negative rho (up, down):  1.492E-02 0.000E+00
 
     Adding external electric field

     Computed dipole along edir(3) : 
        Dipole                0.4240 Ry au,          1.0778 Debye
        Dipole field          0.0008 Ry au, 
 
        Potential amp.       -0.0742 Ry
        Total length         46.3494 bohr
 

     total cpu time spent up to now is      890.4 secs

     total energy              =   -2927.70992483 Ry
     estimated scf accuracy    <       0.01212412 Ry

     iteration # 48     ecut=    29.40 Ry     beta= 0.05
     Davidson diagonalization with overlap
     c_bands:  3 eigenvalues not converged
     c_bands:  1 eigenvalues not converged
     ethr =  3.10E-06,  avg # of iterations = 14.5

     negative rho (up, down):  1.608E-02 0.000E+00
 
     Adding external electric field

     Computed dipole along edir(3) : 
        Dipole                0.4636 Ry au,          1.1785 Debye
        Dipole field          0.0009 Ry au, 
 
        Potential amp.       -0.0811 Ry
        Total length         46.3494 bohr
 

     total cpu time spent up to now is      909.8 secs

     total energy              =   -2927.71027735 Ry
     estimated scf accuracy    <       0.01255937 Ry

     iteration # 49     ecut=    29.40 Ry     beta= 0.05
     Davidson diagonalization with overlap
     c_bands:  2 eigenvalues not converged
     c_bands:  1 eigenvalues not converged
     ethr =  3.10E-06,  avg # of iterations = 16.3

     negative rho (up, down):  1.557E-02 0.000E+00
 
     Adding external electric field

     Computed dipole along edir(3) : 
        Dipole                0.4458 Ry au,          1.1330 Debye
        Dipole field          0.0008 Ry au, 
 
        Potential amp.       -0.0780 Ry
        Total length         46.3494 bohr
 

     total cpu time spent up to now is      929.4 secs

     total energy              =   -2927.71061210 Ry
     estimated scf accuracy    <       0.00543077 Ry

     iteration # 50     ecut=    29.40 Ry     beta= 0.05
     Davidson diagonalization with overlap
     ethr =  1.39E-06,  avg # of iterations =  6.2

     negative rho (up, down):  1.552E-02 0.000E+00
 
     Adding external electric field

     Computed dipole along edir(3) : 
        Dipole                0.4345 Ry au,          1.1044 Debye
        Dipole field          0.0008 Ry au, 
 
        Potential amp.       -0.0760 Ry
        Total length         46.3494 bohr
 

     total cpu time spent up to now is      943.8 secs

     total energy              =   -2927.71070545 Ry
     estimated scf accuracy    <       0.00248066 Ry

     iteration # 51     ecut=    29.40 Ry     beta= 0.05
     Davidson diagonalization with overlap
     ethr =  6.34E-07,  avg # of iterations = 14.0

     negative rho (up, down):  1.645E-02 0.000E+00
 
     Adding external electric field

     Computed dipole along edir(3) : 
        Dipole                0.4469 Ry au,          1.1359 Debye
        Dipole field          0.0008 Ry au, 
 
        Potential amp.       -0.0782 Ry
        Total length         46.3494 bohr
 

     total cpu time spent up to now is      961.9 secs

     total energy              =   -2927.71086786 Ry
     estimated scf accuracy    <       0.00143722 Ry

     iteration # 52     ecut=    29.40 Ry     beta= 0.05
     Davidson diagonalization with overlap
     ethr =  3.68E-07,  avg # of iterations = 10.1

     negative rho (up, down):  1.727E-02 0.000E+00
 
     Adding external electric field

     Computed dipole along edir(3) : 
        Dipole                0.4494 Ry au,          1.1424 Debye
        Dipole field          0.0008 Ry au, 
 
        Potential amp.       -0.0786 Ry
        Total length         46.3494 bohr
 

     total cpu time spent up to now is      980.9 secs

     total energy              =   -2927.71099664 Ry
     estimated scf accuracy    <       0.00263762 Ry

     iteration # 53     ecut=    29.40 Ry     beta= 0.05
     Davidson diagonalization with overlap
     ethr =  3.68E-07,  avg # of iterations = 10.0

     negative rho (up, down):  1.803E-02 0.000E+00
 
     Adding external electric field

     Computed dipole along edir(3) : 
        Dipole                0.4407 Ry au,          1.1201 Debye
        Dipole field          0.0008 Ry au, 
 
        Potential amp.       -0.0771 Ry
        Total length         46.3494 bohr
 

     total cpu time spent up to now is      997.6 secs

     total energy              =   -2927.71085673 Ry
     estimated scf accuracy    <       0.00119871 Ry

     iteration # 54     ecut=    29.40 Ry     beta= 0.05
     Davidson diagonalization with overlap
     ethr =  3.07E-07,  avg # of iterations = 14.6

     negative rho (up, down):  1.820E-02 0.000E+00
 
     Adding external electric field

     Computed dipole along edir(3) : 
        Dipole                0.4460 Ry au,          1.1336 Debye
        Dipole field          0.0008 Ry au, 
 
        Potential amp.       -0.0780 Ry
        Total length         46.3494 bohr
 

     total cpu time spent up to now is     1020.2 secs

     total energy              =   -2927.71108237 Ry
     estimated scf accuracy    <       0.00068531 Ry

     iteration # 55     ecut=    29.40 Ry     beta= 0.05
     Davidson diagonalization with overlap
     ethr =  1.75E-07,  avg # of iterations = 10.1

     negative rho (up, down):  1.841E-02 0.000E+00
 
     Adding external electric field

     Computed dipole along edir(3) : 
        Dipole                0.4511 Ry au,          1.1466 Debye
        Dipole field          0.0009 Ry au, 
 
        Potential amp.       -0.0789 Ry
        Total length         46.3494 bohr
 

     total cpu time spent up to now is     1036.8 secs

     total energy              =   -2927.71115323 Ry
     estimated scf accuracy    <       0.00018642 Ry

     iteration # 56     ecut=    29.40 Ry     beta= 0.05
     Davidson diagonalization with overlap
     ethr =  4.77E-08,  avg # of iterations = 11.1

     negative rho (up, down):  1.907E-02 0.000E+00
 
     Adding external electric field

     Computed dipole along edir(3) : 
        Dipole                0.4657 Ry au,          1.1838 Debye
        Dipole field          0.0009 Ry au, 
 
        Potential amp.       -0.0815 Ry
        Total length         46.3494 bohr
 

     total cpu time spent up to now is     1053.9 secs

     total energy              =   -2927.71116771 Ry
     estimated scf accuracy    <       0.00017150 Ry

     iteration # 57     ecut=    29.40 Ry     beta= 0.05
     Davidson diagonalization with overlap
     ethr =  4.39E-08,  avg # of iterations = 15.0

     negative rho (up, down):  1.916E-02 0.000E+00
 
     Adding external electric field

     Computed dipole along edir(3) : 
        Dipole                0.4636 Ry au,          1.1785 Debye
        Dipole field          0.0009 Ry au, 
 
        Potential amp.       -0.0811 Ry
        Total length         46.3494 bohr
 

     total cpu time spent up to now is     1076.5 secs

     total energy              =   -2927.71120378 Ry
     estimated scf accuracy    <       0.00010226 Ry

     iteration # 58     ecut=    29.40 Ry     beta= 0.05
     Davidson diagonalization with overlap
     ethr =  2.62E-08,  avg # of iterations = 11.3

     negative rho (up, down):  1.912E-02 0.000E+00
 
     Adding external electric field

     Computed dipole along edir(3) : 
        Dipole                0.4586 Ry au,          1.1658 Debye
        Dipole field          0.0009 Ry au, 
 
        Potential amp.       -0.0802 Ry
        Total length         46.3494 bohr
 

     total cpu time spent up to now is     1092.8 secs

     total energy              =   -2927.71120147 Ry
     estimated scf accuracy    <       0.00006429 Ry

     iteration # 59     ecut=    29.40 Ry     beta= 0.05
     Davidson diagonalization with overlap
     ethr =  1.64E-08,  avg # of iterations = 15.4

     negative rho (up, down):  1.933E-02 0.000E+00
 
     Adding external electric field

     Computed dipole along edir(3) : 
        Dipole                0.4662 Ry au,          1.1849 Debye
        Dipole field          0.0009 Ry au, 
 
        Potential amp.       -0.0816 Ry
        Total length         46.3494 bohr
 

     total cpu time spent up to now is     1117.1 secs

     total energy              =   -2927.71121473 Ry
     estimated scf accuracy    <       0.00004813 Ry

     iteration # 60     ecut=    29.40 Ry     beta= 0.05
     Davidson diagonalization with overlap
     ethr =  1.23E-08,  avg # of iterations = 15.7

     negative rho (up, down):  1.929E-02 0.000E+00
 
     Adding external electric field

     Computed dipole along edir(3) : 
        Dipole                0.4635 Ry au,          1.1780 Debye
        Dipole field          0.0009 Ry au, 
 
        Potential amp.       -0.0811 Ry
        Total length         46.3494 bohr
 

     total cpu time spent up to now is     1141.3 secs

     total energy              =   -2927.71122672 Ry
     estimated scf accuracy    <       0.00002425 Ry

     iteration # 61     ecut=    29.40 Ry     beta= 0.05
     Davidson diagonalization with overlap
     ethr =  6.20E-09,  avg # of iterations = 14.6

     negative rho (up, down):  1.936E-02 0.000E+00
 
     Adding external electric field

     Computed dipole along edir(3) : 
        Dipole                0.4633 Ry au,          1.1775 Debye
        Dipole field          0.0009 Ry au, 
 
        Potential amp.       -0.0810 Ry
        Total length         46.3494 bohr
 

     total cpu time spent up to now is     1160.8 secs

     total energy              =   -2927.71123570 Ry
     estimated scf accuracy    <       0.00000869 Ry

     iteration # 62     ecut=    29.40 Ry     beta= 0.05
     Davidson diagonalization with overlap
     c_bands:  1 eigenvalues not converged
     ethr =  2.22E-09,  avg # of iterations = 14.4

     negative rho (up, down):  1.940E-02 0.000E+00
 
     Adding external electric field

     Computed dipole along edir(3) : 
        Dipole                0.4651 Ry au,          1.1821 Debye
        Dipole field          0.0009 Ry au, 
 
        Potential amp.       -0.0814 Ry
        Total length         46.3494 bohr
 

     total cpu time spent up to now is     1185.2 secs

     total energy              =   -2927.71124167 Ry
     estimated scf accuracy    <       0.00000725 Ry

     iteration # 63     ecut=    29.40 Ry     beta= 0.05
     Davidson diagonalization with overlap
     ethr =  1.85E-09,  avg # of iterations = 13.4

     negative rho (up, down):  1.938E-02 0.000E+00
 
     Adding external electric field

     Computed dipole along edir(3) : 
        Dipole                0.4650 Ry au,          1.1820 Debye
        Dipole field          0.0009 Ry au, 
 
        Potential amp.       -0.0813 Ry
        Total length         46.3494 bohr
 

     total cpu time spent up to now is     1204.4 secs

     total energy              =   -2927.71124691 Ry
     estimated scf accuracy    <       0.00000222 Ry

     iteration # 64     ecut=    29.40 Ry     beta= 0.05
     Davidson diagonalization with overlap
     ethr =  5.68E-10,  avg # of iterations = 14.5

     negative rho (up, down):  1.930E-02 0.000E+00
 
     Adding external electric field

     Computed dipole along edir(3) : 
        Dipole                0.4628 Ry au,          1.1764 Debye
        Dipole field          0.0009 Ry au, 
 
        Potential amp.       -0.0810 Ry
        Total length         46.3494 bohr
 

     total cpu time spent up to now is     1228.1 secs

     total energy              =   -2927.71125077 Ry
     estimated scf accuracy    <       0.00000241 Ry

     iteration # 65     ecut=    29.40 Ry     beta= 0.05
     Davidson diagonalization with overlap
     ethr =  5.68E-10,  avg # of iterations = 12.3

     negative rho (up, down):  1.928E-02 0.000E+00
 
     Adding external electric field

     Computed dipole along edir(3) : 
        Dipole                0.4617 Ry au,          1.1736 Debye
        Dipole field          0.0009 Ry au, 
 
        Potential amp.       -0.0808 Ry
        Total length         46.3494 bohr
 

     total cpu time spent up to now is     1247.2 secs

     total energy              =   -2927.71125499 Ry
     estimated scf accuracy    <       0.00000075 Ry

     iteration # 66     ecut=    29.40 Ry     beta= 0.05
     Davidson diagonalization with overlap
     ethr =  1.92E-10,  avg # of iterations = 11.4

     negative rho (up, down):  1.929E-02 0.000E+00
 
     Adding external electric field

     Computed dipole along edir(3) : 
        Dipole                0.4622 Ry au,          1.1748 Debye
        Dipole field          0.0009 Ry au, 
 
        Potential amp.       -0.0809 Ry
        Total length         46.3494 bohr
 

     total cpu time spent up to now is     1270.0 secs

     total energy              =   -2927.71125845 Ry
     estimated scf accuracy    <       0.00000106 Ry

     iteration # 67     ecut=    29.40 Ry     beta= 0.05
     Davidson diagonalization with overlap
     ethr =  1.92E-10,  avg # of iterations = 12.9

     negative rho (up, down):  1.931E-02 0.000E+00
 
     Adding external electric field

     Computed dipole along edir(3) : 
        Dipole                0.4626 Ry au,          1.1758 Debye
        Dipole field          0.0009 Ry au, 
 
        Potential amp.       -0.0809 Ry
        Total length         46.3494 bohr
 

     total cpu time spent up to now is     1287.9 secs

     total energy              =   -2927.71126160 Ry
     estimated scf accuracy    <       0.00000039 Ry

     iteration # 68     ecut=    29.40 Ry     beta= 0.05
     Davidson diagonalization with overlap
     ethr =  9.89E-11,  avg # of iterations =  6.4

     negative rho (up, down):  1.930E-02 0.000E+00
 
     Adding external electric field

     Computed dipole along edir(3) : 
        Dipole                0.4623 Ry au,          1.1751 Debye
        Dipole field          0.0009 Ry au, 
 
        Potential amp.       -0.0809 Ry
        Total length         46.3494 bohr
 

     total cpu time spent up to now is     1304.6 secs

     total energy              =   -2927.71126437 Ry
     estimated scf accuracy    <       0.00000023 Ry

     iteration # 69     ecut=    29.40 Ry     beta= 0.05
     Davidson diagonalization with overlap
     ethr =  5.77E-11,  avg # of iterations = 12.7

     negative rho (up, down):  1.930E-02 0.000E+00
 
     Adding external electric field

     Computed dipole along edir(3) : 
        Dipole                0.4621 Ry au,          1.1745 Debye
        Dipole field          0.0009 Ry au, 
 
        Potential amp.       -0.0808 Ry
        Total length         46.3494 bohr
 

     total cpu time spent up to now is     1322.4 secs

     total energy              =   -2927.71126690 Ry
     estimated scf accuracy    <       0.00000017 Ry

     iteration # 70     ecut=    29.40 Ry     beta= 0.05
     Davidson diagonalization with overlap
     ethr =  4.46E-11,  avg # of iterations =  8.6

     negative rho (up, down):  1.930E-02 0.000E+00
 
     Adding external electric field

     Computed dipole along edir(3) : 
        Dipole                0.4618 Ry au,          1.1738 Debye
        Dipole field          0.0009 Ry au, 
 
        Potential amp.       -0.0808 Ry
        Total length         46.3494 bohr
 

     total cpu time spent up to now is     1338.0 secs

     total energy              =   -2927.71126924 Ry
     estimated scf accuracy    <       0.00000012 Ry

     iteration # 71     ecut=    29.40 Ry     beta= 0.05
     Davidson diagonalization with overlap
     ethr =  3.19E-11,  avg # of iterations = 12.8

     negative rho (up, down):  1.931E-02 0.000E+00
 
     Adding external electric field

     Computed dipole along edir(3) : 
        Dipole                0.4621 Ry au,          1.1746 Debye
        Dipole field          0.0009 Ry au, 
 
        Potential amp.       -0.0808 Ry
        Total length         46.3494 bohr
 

     total cpu time spent up to now is     1361.1 secs

     total energy              =   -2927.71127127 Ry
     estimated scf accuracy    <       0.00000009 Ry

     iteration # 72     ecut=    29.40 Ry     beta= 0.05
     Davidson diagonalization with overlap
     ethr =  2.27E-11,  avg # of iterations = 13.5

     negative rho (up, down):  1.936E-02 0.000E+00
 
     Adding external electric field

     Computed dipole along edir(3) : 
        Dipole                0.4604 Ry au,          1.1701 Debye
        Dipole field          0.0009 Ry au, 
 
        Potential amp.       -0.0805 Ry
        Total length         46.3494 bohr
 

     total cpu time spent up to now is     1384.4 secs

     End of self-consistent calculation

          k = 0.0000 0.0000 0.0000 ( 18029 PWs)   bands (ev):

   -56.1384 -56.1233 -56.1027 -56.0871 -56.0408 -56.0069 -55.9666 -55.9423
   -55.8925 -55.8798 -55.8656 -55.8295 -55.7597 -55.7540 -55.0754 -55.0414
   -32.6948 -32.5983 -32.4801 -32.4682 -32.4578 -32.4254 -32.3998 -32.3822
   -32.3721 -32.3513 -32.3458 -32.3424 -32.3290 -32.3047 -32.3006 -32.2801
   -32.2742 -32.2530 -32.2214 -32.2099 -32.2064 -32.1889 -32.1572 -32.1513
   -32.1501 -32.1299 -32.1280 -32.1045 -32.0975 -32.0930 -32.0926 -32.0720
   -32.0711 -32.0377 -32.0157 -32.0140 -31.9780 -31.9746 -31.9659 -31.9531
   -31.9388 -31.8962 -31.4826 -31.3940 -31.3712 -31.2988 -31.2124 -31.1019
   -16.9018 -16.6655 -16.5229 -16.3683 -16.2630 -16.2398 -16.1829 -15.9045
   -15.8375 -15.7757 -15.7570 -15.7363 -15.7256 -15.6618 -15.6609 -15.6265
   -15.5825 -15.5481 -15.5372 -15.5075 -15.5003 -15.4515 -15.4262 -15.3964
   -15.3618 -15.2780 -15.2233 -15.1524 -15.1159 -15.0768 -13.5790 -13.4630
   -11.2841  -5.2581  -4.6234  -4.2475  -4.1331  -4.0473  -3.9958  -3.9290
    -3.7812  -3.7229  -3.5867  -3.3377  -3.3002  -3.2858  -3.2564  -3.2186
    -3.0308  -2.9813  -2.9451  -2.9233  -2.9174  -2.9103  -2.8725  -2.8404
    -2.8329  -2.8301  -2.7141  -2.6426  -2.5551  -2.5463  -2.4749  -2.4368
    -2.4123  -2.4091  -2.3686  -2.3454  -2.3245  -2.3066  -2.2804  -2.1786
    -2.1532  -2.0705  -1.9817  -1.8965  -1.7745  -1.7114  -1.6996  -1.5723
    -1.5128  -1.5100  -1.4764  -1.4551  -1.4153  -1.3378  -1.3004  -1.2524
    -1.1736  -1.1293  -1.0605  -1.0311  -1.0159  -0.9750  -0.9005  -0.8517
    -0.8449  -0.8337  -0.6283  -0.6007  -0.5913  -0.5770  -0.4587  -0.3775
    -0.3600  -0.3302  -0.3136  -0.3010  -0.2474  -0.1565  -0.1276  -0.1156
    -0.0965  -0.0105   0.0593   0.0667   0.1000   0.1885   0.2117   0.3282
     0.3929   0.5688   0.6045   0.7246   0.8654   0.9444   0.9782   1.1386
     1.5247   1.5631   1.5754   3.0581   3.0760   3.1131   3.1340   3.2703
     3.3802   3.3841   3.4823   3.5033   3.5558

          k = 0.0000 0.0419 0.0000 ( 17933 PWs)   bands (ev):

   -56.1337 -56.1180 -56.1072 -56.0923 -56.0387 -56.0047 -55.9686 -55.9444
   -55.8914 -55.8784 -55.8612 -55.8340 -55.7606 -55.7551 -55.0703 -55.0463
   -32.6370 -32.5446 -32.4473 -32.4276 -32.4215 -32.4168 -32.3968 -32.3866
   -32.3651 -32.3328 -32.3187 -32.3175 -32.3118 -32.3008 -32.2911 -32.2870
   -32.2777 -32.2684 -32.2633 -32.2201 -32.2055 -32.1850 -32.1733 -32.1625
   -32.1489 -32.1407 -32.1369 -32.1344 -32.1245 -32.0982 -32.0923 -32.0746
   -32.0679 -32.0522 -32.0313 -32.0150 -32.0144 -32.0080 -31.9838 -31.9806
   -31.9361 -31.9244 -31.4285 -31.3905 -31.3743 -31.2862 -31.2250 -31.1590
   -16.7705 -16.5965 -16.4161 -16.3037 -16.1765 -16.1431 -16.1347 -16.0172
   -15.8692 -15.8377 -15.7531 -15.7053 -15.7014 -15.6978 -15.6717 -15.6048
   -15.5705 -15.5673 -15.5410 -15.5193 -15.4853 -15.4720 -15.4445 -15.4404
   -15.3834 -15.3338 -15.2820 -15.2145 -15.1719 -15.1573 -13.5833 -13.5026
   -11.2870  -5.2574  -4.6091  -4.0582  -3.9982  -3.8867  -3.8181  -3.7718
    -3.6799  -3.4717  -3.4411  -3.3929  -3.2949  -3.2002  -3.1551  -3.1206
    -3.1142  -3.0745  -3.0516  -3.0129  -3.0080  -2.9450  -2.9122  -2.8957
    -2.8537  -2.8200  -2.7961  -2.7825  -2.7157  -2.6503  -2.5978  -2.5787
    -2.5080  -2.4990  -2.4759  -2.3638  -2.3562  -2.3131  -2.2283  -2.1577
    -2.0827  -1.9194  -1.9088  -1.7837  -1.7688  -1.7440  -1.5876  -1.5031
    -1.4673  -1.4548  -1.3730  -1.3265  -1.2695  -1.2470  -1.1944  -1.1486
    -1.1259  -1.0656  -1.0416  -1.0300  -1.0103  -0.9391  -0.9144  -0.8416
    -0.8181  -0.8051  -0.7517  -0.6214  -0.6036  -0.5889  -0.5636  -0.5285
    -0.4500  -0.4208  -0.4111  -0.3681  -0.3018  -0.2386  -0.2111  -0.1801
    -0.1705  -0.0938  -0.0488  -0.0463   0.0318   0.1043   0.2107   0.2429
     0.2785   0.3274   0.5263   0.5646   0.6469   0.8481   1.1360   1.2152
     1.4731   1.4887   1.5513   3.1713   3.2382   3.3029   3.3386   3.3766
     3.4200   3.4286   3.4783   3.5233   3.5494

          k = 0.0000-0.0839 0.0000 ( 17884 PWs)   bands (ev):

   -56.1261 -56.1148 -56.1059 -56.1043 -56.0365 -56.0023 -55.9707 -55.9467
   -55.8903 -55.8770 -55.8543 -55.8409 -55.7617 -55.7562 -55.0586 -55.0580
   -32.4981 -32.4947 -32.4315 -32.4206 -32.4138 -32.4075 -32.3986 -32.3966
   -32.3331 -32.3312 -32.3137 -32.2999 -32.2947 -32.2850 -32.2825 -32.2606
   -32.2592 -32.2574 -32.2516 -32.2497 -32.2210 -32.1932 -32.1922 -32.1803
   -32.1710 -32.1630 -32.1568 -32.1399 -32.1226 -32.1159 -32.1033 -32.0857
   -32.0836 -32.0797 -32.0751 -32.0639 -32.0184 -32.0149 -32.0128 -31.9892
   -31.9458 -31.9338 -31.3826 -31.3818 -31.2960 -31.2952 -31.2559 -31.2552
   -16.5655 -16.4152 -16.4086 -16.1901 -16.1742 -16.0637 -16.0564 -15.9724
   -15.9626 -15.9367 -15.8955 -15.8131 -15.7961 -15.5949 -15.5879 -15.5853
   -15.5603 -15.5551 -15.5220 -15.4776 -15.4751 -15.4630 -15.4367 -15.4269
   -15.4223 -15.3981 -15.3220 -15.3066 -15.2978 -15.2940 -13.5655 -13.5649
   -11.2898  -5.2578  -4.6001  -3.7626  -3.6430  -3.6061  -3.5243  -3.5021
    -3.5018  -3.4502  -3.4191  -3.3822  -3.3708  -3.3665  -3.2423  -3.2303
    -3.2222  -3.1934  -3.1378  -3.0433  -3.0381  -3.0094  -2.9891  -2.8880
    -2.8712  -2.8601  -2.8530  -2.8284  -2.7981  -2.7291  -2.7077  -2.6247
    -2.5935  -2.5469  -2.4795  -2.4448  -2.1546  -2.1363  -2.0202  -2.0080
    -1.9801  -1.9003  -1.8327  -1.7840  -1.7276  -1.5893  -1.5425  -1.5302
    -1.5085  -1.4969  -1.4720  -1.4516  -1.3889  -1.3696  -1.3605  -1.2786
    -1.1792  -0.9709  -0.9513  -0.8842  -0.8720  -0.8458  -0.8017  -0.7563
    -0.7436  -0.7308  -0.7028  -0.6393  -0.6056  -0.6027  -0.5745  -0.5468
    -0.5367  -0.5084  -0.4941  -0.4555  -0.4270  -0.4022  -0.3672  -0.2889
    -0.2642  -0.2504  -0.2349  -0.1343  -0.0794   0.0652   0.1100   0.1518
     0.1544   0.4001   0.4471   0.5852   0.6164   0.6368   1.2744   1.2791
     1.4131   1.4173   1.5444   3.2681   3.2808   3.3077   3.3822   3.4418
     3.4758   3.4876   3.6244   3.6444   3.6699

          k = 0.0380 0.0000 0.0000 ( 17913 PWs)   bands (ev):

   -56.1383 -56.1232 -56.1026 -56.0870 -56.0407 -56.0068 -55.9665 -55.9422
   -55.8924 -55.8794 -55.8657 -55.8294 -55.7596 -55.7539 -55.0753 -55.0413
   -32.6949 -32.5991 -32.4827 -32.4737 -32.4577 -32.4252 -32.3998 -32.3820
   -32.3726 -32.3543 -32.3457 -32.3431 -32.3113 -32.3047 -32.2979 -32.2738
   -32.2690 -32.2464 -32.2211 -32.2099 -32.2062 -32.2054 -32.1557 -32.1509
   -32.1346 -32.1323 -32.1305 -32.1034 -32.0982 -32.0929 -32.0922 -32.0718
   -32.0710 -32.0469 -32.0173 -32.0129 -31.9771 -31.9741 -31.9658 -31.9539
   -31.9433 -31.8961 -31.4822 -31.3972 -31.3692 -31.2986 -31.2123 -31.1017
   -16.8341 -16.6139 -16.4503 -16.3304 -16.2679 -16.1839 -16.1450 -15.9564
   -15.8808 -15.8361 -15.8204 -15.8133 -15.7829 -15.7293 -15.6866 -15.6666
   -15.6129 -15.5983 -15.5378 -15.4608 -15.4558 -15.3880 -15.3724 -15.3582
   -15.3359 -15.2846 -15.2335 -15.1974 -15.1467 -15.0756 -13.5758 -13.4627
   -11.2857  -5.2626  -4.6289  -4.1845  -3.9713  -3.8367  -3.7446  -3.7150
    -3.7041  -3.6742  -3.5901  -3.5586  -3.3233  -3.2958  -3.2247  -3.1886
    -3.1676  -3.1169  -3.0436  -2.9566  -2.9140  -2.8483  -2.8215  -2.7677
    -2.7504  -2.6810  -2.6528  -2.6251  -2.5597  -2.5024  -2.4310  -2.4270
    -2.3731  -2.3694  -2.3438  -2.2777  -2.2359  -2.1740  -2.1416  -2.0946
    -2.0461  -2.0158  -1.9675  -1.9277  -1.8608  -1.8007  -1.6970  -1.6736
    -1.5730  -1.5318  -1.4820  -1.4558  -1.4452  -1.3869  -1.3722  -1.3589
    -1.2816  -1.1387  -1.0834  -1.0477  -1.0162  -0.9971  -0.9514  -0.9232
    -0.9144  -0.7295  -0.7058  -0.6680  -0.6550  -0.5782  -0.4777  -0.4632
    -0.4097  -0.4007  -0.3710  -0.3484  -0.3197  -0.2562  -0.2364  -0.2116
    -0.1704  -0.0909  -0.0373   0.0178   0.0790   0.1358   0.1570   0.1844
     0.2639   0.4956   0.6129   0.7215   0.8408   0.8748   0.9563   1.1076
     1.4102   1.4895   1.5720   3.1041   3.2080   3.2720   3.3111   3.3249
     3.3896   3.4323   3.4661   3.5172   3.5416

          k = 0.0380 0.0419 0.0000 ( 17878 PWs)   bands (ev):

   -56.1337 -56.1178 -56.1072 -56.0923 -56.0386 -56.0046 -55.9685 -55.9443
   -55.8914 -55.8781 -55.8612 -55.8339 -55.7606 -55.7551 -55.0703 -55.0462
   -32.6372 -32.5454 -32.4472 -32.4302 -32.4234 -32.4212 -32.3968 -32.3866
   -32.3650 -32.3335 -32.3191 -32.3126 -32.3025 -32.3009 -32.2946 -32.2848
   -32.2777 -32.2585 -32.2534 -32.2197 -32.2055 -32.2006 -32.1693 -32.1611
   -32.1518 -32.1402 -32.1377 -32.1289 -32.1209 -32.0971 -32.0930 -32.0747
   -32.0677 -32.0531 -32.0311 -32.0211 -32.0168 -32.0072 -31.9837 -31.9806
   -31.9411 -31.9243 -31.4282 -31.3930 -31.3733 -31.2861 -31.2251 -31.1588
   -16.7091 -16.5688 -16.3453 -16.2511 -16.1699 -16.1470 -16.0494 -16.0143
   -15.9015 -15.8784 -15.7830 -15.7512 -15.7364 -15.7325 -15.6943 -15.6669
   -15.6563 -15.5703 -15.5345 -15.4946 -15.4691 -15.4436 -15.4313 -15.4127
   -15.3961 -15.3352 -15.3011 -15.2465 -15.2066 -15.1562 -13.5810 -13.5029
   -11.2884  -5.2615  -4.6052  -4.0102  -3.8569  -3.6750  -3.5886  -3.5468
    -3.5348  -3.4645  -3.4280  -3.4110  -3.3181  -3.1657  -3.1501  -3.1392
    -3.0686  -3.0388  -3.0122  -2.9765  -2.9588  -2.9122  -2.8827  -2.8710
    -2.8217  -2.8087  -2.7723  -2.7106  -2.6900  -2.6700  -2.6025  -2.5755
    -2.5148  -2.4608  -2.4316  -2.3273  -2.3121  -2.2539  -2.1479  -2.1212
    -2.0536  -2.0308  -1.8630  -1.8108  -1.7457  -1.6543  -1.6094  -1.5816
    -1.5385  -1.4821  -1.4426  -1.4209  -1.4031  -1.3564  -1.3048  -1.2132
    -1.1897  -1.1381  -1.1255  -1.1010  -1.0118  -0.9864  -0.9543  -0.8987
    -0.8659  -0.8397  -0.8155  -0.7887  -0.7256  -0.7139  -0.6759  -0.5973
    -0.5784  -0.5369  -0.4918  -0.4307  -0.3831  -0.3394  -0.2957  -0.2630
    -0.1913  -0.1288  -0.0718   0.0197   0.0825   0.1221   0.1928   0.2076
     0.2983   0.3825   0.4653   0.5282   0.6612   0.8021   1.1485   1.2198
     1.3952   1.4660   1.5588   3.2079   3.2574   3.3372   3.3843   3.4190
     3.4307   3.4612   3.5284   3.5508   3.5791

          k = 0.0380-0.0839 0.0000 ( 17916 PWs)   bands (ev):

   -56.1262 -56.1148 -56.1059 -56.1043 -56.0365 -56.0023 -55.9707 -55.9467
   -55.8903 -55.8769 -55.8544 -55.8409 -55.7617 -55.7563 -55.0586 -55.0580
   -32.4984 -32.4949 -32.4316 -32.4211 -32.4141 -32.4082 -32.3986 -32.3968
   -32.3345 -32.3315 -32.3274 -32.3012 -32.2978 -32.2839 -32.2652 -32.2636
   -32.2563 -32.2486 -32.2475 -32.2413 -32.2210 -32.1943 -32.1888 -32.1841
   -32.1774 -32.1631 -32.1619 -32.1477 -32.1301 -32.1052 -32.0953 -32.0854
   -32.0836 -32.0804 -32.0648 -32.0638 -32.0261 -32.0187 -32.0151 -31.9892
   -31.9458 -31.9400 -31.3835 -31.3827 -31.2959 -31.2951 -31.2560 -31.2552
   -16.5514 -16.3887 -16.3654 -16.1366 -16.1314 -16.0228 -16.0074 -15.9430
   -15.9418 -15.9278 -15.8877 -15.7802 -15.7621 -15.6837 -15.6701 -15.6214
   -15.6115 -15.5765 -15.5568 -15.5114 -15.4948 -15.4773 -15.4568 -15.4395
   -15.4288 -15.3891 -15.3629 -15.3397 -15.2998 -15.2829 -13.5653 -13.5647
   -11.2910  -5.2571  -4.5923  -3.7165  -3.6434  -3.5964  -3.3493  -3.3303
    -3.2899  -3.2866  -3.2773  -3.2296  -3.1698  -3.1608  -3.1580  -3.1539
    -3.1302  -3.1223  -3.0619  -3.0165  -2.9903  -2.9398  -2.9131  -2.8904
    -2.8811  -2.8539  -2.8271  -2.7764  -2.7727  -2.7589  -2.7503  -2.6410
    -2.6250  -2.5202  -2.2745  -2.2390  -2.1776  -2.1566  -2.0480  -2.0358
    -1.9751  -1.9318  -1.9081  -1.8838  -1.8738  -1.8371  -1.8152  -1.7454
    -1.7143  -1.6282  -1.5898  -1.5535  -1.4403  -1.4182  -1.3162  -1.2541
    -1.1516  -1.1329  -1.0869  -1.0627  -1.0093  -0.9675  -0.9003  -0.8844
    -0.8675  -0.8437  -0.8200  -0.7699  -0.7586  -0.7444  -0.6669  -0.6530
    -0.6397  -0.6198  -0.5849  -0.5673  -0.4923  -0.3664  -0.3053  -0.2655
    -0.2546  -0.0762  -0.0542  -0.0198   0.0150   0.0706   0.0967   0.2052
     0.2348   0.3683   0.3729   0.5710   0.6156   0.6543   1.2890   1.2931
     1.4024   1.4060   1.5556   3.2237   3.2355   3.3337   3.3693   3.4432
     3.4601   3.5257   3.6406   3.6502   3.6832

          k = 0.0380-0.0419 0.0000 ( 17876 PWs)   bands (ev):

   -56.1337 -56.1178 -56.1072 -56.0923 -56.0386 -56.0046 -55.9685 -55.9443
   -55.8914 -55.8781 -55.8612 -55.8339 -55.7606 -55.7551 -55.0703 -55.0462
   -32.6371 -32.5454 -32.4472 -32.4302 -32.4234 -32.4212 -32.3968 -32.3866
   -32.3650 -32.3335 -32.3191 -32.3126 -32.3026 -32.3009 -32.2945 -32.2848
   -32.2777 -32.2583 -32.2533 -32.2197 -32.2055 -32.2006 -32.1691 -32.1610
   -32.1528 -32.1399 -32.1380 -32.1284 -32.1209 -32.0971 -32.0930 -32.0747
   -32.0678 -32.0531 -32.0311 -32.0210 -32.0166 -32.0072 -31.9836 -31.9805
   -31.9411 -31.9243 -31.4282 -31.3930 -31.3733 -31.2861 -31.2251 -31.1588
   -16.7092 -16.5689 -16.3451 -16.2508 -16.1695 -16.1473 -16.0493 -16.0144
   -15.9015 -15.8767 -15.7837 -15.7530 -15.7366 -15.7324 -15.6947 -15.6668
   -15.6561 -15.5703 -15.5341 -15.4947 -15.4689 -15.4442 -15.4311 -15.4123
   -15.3957 -15.3355 -15.3006 -15.2468 -15.2066 -15.1562 -13.5810 -13.5029
   -11.2883  -5.2569  -4.6127  -4.0103  -3.8641  -3.6755  -3.5894  -3.5459
    -3.5333  -3.4642  -3.4269  -3.4099  -3.3191  -3.1681  -3.1460  -3.1413
    -3.0646  -3.0350  -3.0088  -2.9720  -2.9615  -2.9137  -2.8823  -2.8703
    -2.8226  -2.8162  -2.7735  -2.7142  -2.6842  -2.6665  -2.6073  -2.5766
    -2.5193  -2.4527  -2.4322  -2.3506  -2.2984  -2.2523  -2.1382  -2.1172
    -2.0528  -2.0260  -1.8647  -1.8094  -1.7442  -1.6597  -1.6055  -1.5787
    -1.5400  -1.4821  -1.4418  -1.4235  -1.3990  -1.3542  -1.3007  -1.2136
    -1.1806  -1.1550  -1.1221  -1.1025  -1.0170  -0.9842  -0.9533  -0.8959
    -0.8675  -0.8328  -0.8172  -0.7914  -0.7326  -0.7104  -0.6766  -0.6006
    -0.5790  -0.5371  -0.4939  -0.4289  -0.3840  -0.3415  -0.2989  -0.2654
    -0.1908  -0.1267  -0.0709   0.0220   0.0811   0.1199   0.1905   0.2092
     0.2975   0.3821   0.4633   0.5278   0.6583   0.8035   1.1486   1.2198
     1.3950   1.4667   1.5628   3.2082   3.2584   3.3361   3.3824   3.4176
     3.4353   3.4609   3.5334   3.5524   3.5791

          k =-0.0760-0.0000 0.0000 ( 17886 PWs)   bands (ev):

   -56.1383 -56.1231 -56.1026 -56.0870 -56.0406 -56.0068 -55.9665 -55.9422
   -55.8924 -55.8791 -55.8659 -55.8294 -55.7596 -55.7539 -55.0752 -55.0412
   -32.6950 -32.6000 -32.4852 -32.4789 -32.4576 -32.4251 -32.3997 -32.3818
   -32.3733 -32.3574 -32.3459 -32.3436 -32.3048 -32.2952 -32.2834 -32.2738
   -32.2563 -32.2408 -32.2329 -32.2211 -32.2096 -32.2065 -32.1526 -32.1504
   -32.1456 -32.1314 -32.1042 -32.1004 -32.0996 -32.0930 -32.0921 -32.0717
   -32.0709 -32.0693 -32.0189 -32.0122 -31.9765 -31.9735 -31.9658 -31.9551
   -31.9471 -31.8961 -31.4818 -31.4002 -31.3679 -31.2986 -31.2122 -31.1017
   -16.7461 -16.5807 -16.3625 -16.3017 -16.1843 -16.1787 -16.1048 -15.9667
   -15.9381 -15.8929 -15.8912 -15.8661 -15.8272 -15.7875 -15.7483 -15.6878
   -15.6771 -15.5423 -15.5381 -15.4846 -15.4628 -15.4533 -15.3686 -15.3383
   -15.3036 -15.2741 -15.2466 -15.1469 -15.1459 -15.0758 -13.5728 -13.4624
   -11.2872  -5.2668  -4.6312  -4.1670  -3.9098  -3.7193  -3.6854  -3.6658
    -3.5142  -3.4900  -3.4612  -3.3560  -3.3376  -3.3020  -3.2893  -3.2468
    -3.1307  -3.0519  -2.9372  -2.9171  -2.8782  -2.7988  -2.7102  -2.6526
    -2.6239  -2.6142  -2.5997  -2.5808  -2.5321  -2.4660  -2.4283  -2.3860
    -2.3693  -2.3473  -2.3313  -2.3237  -2.3069  -2.3028  -2.2463  -2.1360
    -2.0828  -2.0129  -1.8887  -1.8728  -1.7724  -1.7604  -1.6956  -1.6781
    -1.6743  -1.5740  -1.5606  -1.5206  -1.4875  -1.4289  -1.3955  -1.3791
    -1.3683  -1.2953  -1.2372  -1.1885  -1.1273  -1.0342  -0.9927  -0.9349
    -0.8468  -0.8372  -0.8088  -0.7307  -0.6802  -0.6607  -0.6300  -0.5574
    -0.5041  -0.4277  -0.3914  -0.3665  -0.3224  -0.3109  -0.2991  -0.2619
    -0.2431  -0.1175  -0.0912  -0.0565   0.0040   0.0286   0.2203   0.3055
     0.3601   0.4629   0.6062   0.6118   0.7204   0.8815   0.9780   1.0829
     1.2749   1.4275   1.5806   3.0935   3.1118   3.2506   3.3126   3.3600
     3.4225   3.4348   3.4605   3.4796   3.5322

          k =-0.0760 0.0419 0.0000 ( 17914 PWs)   bands (ev):

   -56.1337 -56.1178 -56.1072 -56.0923 -56.0386 -56.0047 -55.9685 -55.9444
   -55.8914 -55.8780 -55.8614 -55.8340 -55.7606 -55.7551 -55.0703 -55.0463
   -32.6375 -32.5464 -32.4473 -32.4330 -32.4296 -32.4213 -32.3969 -32.3866
   -32.3651 -32.3343 -32.3191 -32.3137 -32.3008 -32.2981 -32.2828 -32.2823
   -32.2781 -32.2471 -32.2438 -32.2221 -32.2196 -32.2055 -32.1641 -32.1606
   -32.1594 -32.1424 -32.1390 -32.1326 -32.0958 -32.0955 -32.0904 -32.0752
   -32.0735 -32.0678 -32.0257 -32.0252 -32.0191 -32.0082 -31.9837 -31.9806
   -31.9464 -31.9243 -31.4280 -31.3956 -31.3726 -31.2861 -31.2251 -31.1589
   -16.6272 -16.5578 -16.2514 -16.2088 -16.1486 -16.0770 -16.0305 -16.0109
   -15.9140 -15.8817 -15.8291 -15.8179 -15.7892 -15.7722 -15.7474 -15.6674
   -15.6553 -15.6435 -15.5440 -15.5078 -15.5065 -15.4811 -15.4294 -15.3907
   -15.3745 -15.3433 -15.3128 -15.2406 -15.2047 -15.1581 -13.5789 -13.5032
   -11.2898  -5.2609  -4.6063  -3.9987  -3.8107  -3.5174  -3.4754  -3.4476
    -3.3274  -3.3238  -3.2707  -3.1970  -3.1871  -3.1372  -3.1262  -3.1081
    -3.0749  -3.0430  -2.9972  -2.9383  -2.8720  -2.8669  -2.8132  -2.8011
    -2.7784  -2.7456  -2.7013  -2.6828  -2.6693  -2.6444  -2.5696  -2.5668
    -2.5068  -2.4647  -2.4366  -2.2840  -2.2363  -2.2064  -2.1849  -2.1612
    -2.0865  -1.9807  -1.8762  -1.7676  -1.7157  -1.6829  -1.6509  -1.6363
    -1.6037  -1.5816  -1.5290  -1.4757  -1.4632  -1.4396  -1.4116  -1.3613
    -1.3202  -1.3096  -1.2557  -1.2284  -1.2020  -1.1684  -1.1602  -1.0367
    -0.9919  -0.9679  -0.9403  -0.8491  -0.8299  -0.7985  -0.7606  -0.6685
    -0.6548  -0.6290  -0.5213  -0.4590  -0.4444  -0.3743  -0.2752  -0.1989
    -0.1741  -0.1629  -0.0398   0.0122   0.0741   0.2038   0.2287   0.3063
     0.4055   0.4249   0.4620   0.4896   0.6547   0.6772   1.1649   1.2231
     1.3204   1.4523   1.5700   3.1439   3.2241   3.2897   3.3168   3.3871
     3.4004   3.4589   3.5094   3.5881   3.6236

          k =-0.0760-0.0839 0.0000 ( 17948 PWs)   bands (ev):

   -56.1262 -56.1148 -56.1059 -56.1042 -56.0365 -56.0024 -55.9707 -55.9467
   -55.8904 -55.8768 -55.8545 -55.8410 -55.7617 -55.7563 -55.0586 -55.0580
   -32.4987 -32.4952 -32.4318 -32.4216 -32.4144 -32.4089 -32.3987 -32.3970
   -32.3360 -32.3353 -32.3318 -32.3023 -32.3001 -32.2839 -32.2690 -32.2552
   -32.2475 -32.2462 -32.2333 -32.2311 -32.2186 -32.2072 -32.1926 -32.1824
   -32.1741 -32.1658 -32.1626 -32.1573 -32.1404 -32.1058 -32.0853 -32.0835
   -32.0824 -32.0642 -32.0638 -32.0578 -32.0466 -32.0200 -32.0166 -31.9892
   -31.9469 -31.9458 -31.3843 -31.3836 -31.2959 -31.2951 -31.2560 -31.2552
   -16.5387 -16.3578 -16.3115 -16.0797 -16.0644 -16.0217 -15.9440 -15.8915
   -15.8857 -15.8615 -15.8541 -15.7941 -15.7836 -15.7715 -15.7434 -15.6467
   -15.6449 -15.6333 -15.6142 -15.5527 -15.5372 -15.5030 -15.4722 -15.4631
   -15.4362 -15.4084 -15.3782 -15.3561 -15.2954 -15.2779 -13.5651 -13.5645
   -11.2923  -5.2564  -4.5838  -3.6962  -3.6455  -3.5969  -3.2927  -3.2749
    -3.2461  -3.1313  -3.0635  -3.0374  -3.0046  -2.9756  -2.9400  -2.9286
    -2.9136  -2.9092  -2.9009  -2.8984  -2.8668  -2.8368  -2.8214  -2.7748
    -2.7468  -2.7384  -2.7219  -2.7056  -2.7010  -2.6513  -2.6475  -2.6425
    -2.6339  -2.5179  -2.3842  -2.3672  -2.3289  -2.2101  -2.1864  -2.1805
    -2.1507  -2.1398  -2.1340  -2.0773  -1.9729  -1.8677  -1.8187  -1.7979
    -1.7741  -1.7122  -1.5954  -1.5445  -1.5340  -1.5029  -1.4411  -1.4211
    -1.3700  -1.3643  -1.2590  -1.2324  -1.2085  -1.1344  -1.0729  -1.0552
    -1.0331  -0.9736  -0.9264  -0.9058  -0.8993  -0.8519  -0.7514  -0.7425
    -0.6941  -0.6834  -0.6310  -0.6255  -0.5724  -0.4437  -0.2032  -0.1650
    -0.0926  -0.0698   0.0217   0.0537   0.0809   0.1758   0.2044   0.3059
     0.3462   0.4411   0.4479   0.4636   0.5061   0.6735   1.3092   1.3118
     1.3856   1.3918   1.5665   3.2145   3.2518   3.2765   3.3404   3.5207
     3.5444   3.5453   3.5599   3.5918   3.6549

     the Fermi energy is     3.0164 ev

!    total energy              =   -2927.71128978 Ry
     estimated scf accuracy    <       0.00000006 Ry
     smearing contrib. (-TS)   =      -0.02327496 Ry
     internal energy E=F+TS    =   -2927.68801482 Ry

     The total energy is F=E-TS. E is the sum of the following terms:
     one-electron contribution =  -24559.34292113 Ry
     hartree contribution      =   12362.87576173 Ry
     xc contribution           =    -481.65352844 Ry
     ewald contribution        =    9750.43227307 Ry
     electric field correction =       0.00039995 Ry

     convergence has been achieved in  72 iterations

     Forces acting on atoms (cartesian axes, Ry/au):

     atom    1 type  1   force =     0.00026518    0.00112323    0.11027931
     atom    2 type  1   force =     0.00005993    0.00171572   -0.17426834
     atom    3 type  2   force =     0.00010870    0.00665601   -0.03420914
     atom    4 type  2   force =     0.00001374   -0.00085659    0.05078897
     atom    5 type  2   force =    -0.01744537   -0.00134566    0.00574936
     atom    6 type  2   force =     0.01689631   -0.00101607    0.00537719
     atom    7 type  1   force =     0.00006974    0.00260501   -0.01786922
     atom    8 type  1   force =    -0.00002137    0.00012353    0.00031035
     atom    9 type  2   force =    -0.00001391    0.00009442   -0.00042043
     atom   10 type  2   force =     0.00000169   -0.00051731   -0.00006985
     atom   11 type  2   force =     0.00010440   -0.00025061   -0.00005993
     atom   12 type  2   force =    -0.00010472   -0.00036142   -0.00022086
     atom   13 type  1   force =    -0.00038177   -0.00034864    0.00005589
     atom   14 type  1   force =    -0.00075518    0.00007902   -0.00010790
     atom   15 type  2   force =    -0.00011240   -0.00026300    0.00066833
     atom   16 type  2   force =     0.00011834   -0.00014644   -0.00031005
     atom   17 type  2   force =     0.00018161   -0.00023053    0.00054811
     atom   18 type  2   force =     0.00095783   -0.00049940    0.00047910
     atom   19 type  1   force =    -0.00015864    0.00045061    0.00011673
     atom   20 type  1   force =    -0.00011840   -0.00083086    0.00102306
     atom   21 type  2   force =     0.00009629    0.00006946    0.10316109
     atom   22 type  2   force =     0.00006956    0.00049704   -0.00144711
     atom   23 type  2   force =    -0.07113957    0.00062703   -0.03026871
     atom   24 type  2   force =     0.07110414    0.00104189   -0.03027815
     atom   25 type  1   force =     0.00005711   -0.00109572    0.11743636
     atom   26 type  1   force =     0.00004712   -0.00254936   -0.17410898
     atom   27 type  2   force =     0.00007014   -0.00281219   -0.02992600
     atom   28 type  2   force =     0.00002429   -0.00148476    0.05395660
     atom   29 type  2   force =    -0.01859653    0.00056516    0.00664989
     atom   30 type  2   force =     0.01807698    0.00123784    0.00629122
     atom   31 type  1   force =     0.00039797   -0.00272474   -0.01224569
     atom   32 type  1   force =     0.00000307    0.00038630    0.00068017
     atom   33 type  2   force =     0.00002341   -0.00009122   -0.00047549
     atom   34 type  2   force =     0.00006822    0.00031518    0.00041676
     atom   35 type  2   force =     0.00001456    0.00005488   -0.00029184
     atom   36 type  2   force =     0.00005709    0.00000960   -0.00032654
     atom   37 type  1   force =    -0.00050325   -0.00043239    0.00098819
     atom   38 type  1   force =    -0.00070600    0.00003201   -0.00012516
     atom   39 type  2   force =    -0.00014620   -0.00063410   -0.00040613
     atom   40 type  2   force =     0.00001672   -0.00010127   -0.00062494
     atom   41 type  2   force =    -0.00024376    0.00015976    0.00045771
     atom   42 type  2   force =     0.00084673    0.00040944   -0.00004705
     atom   43 type  1   force =     0.00024063   -0.00026096   -0.00003285
     atom   44 type  1   force =     0.00062130    0.00061239    0.00062635
     atom   45 type  2   force =     0.00008068    0.00013821    0.10307480
     atom   46 type  2   force =    -0.07142885   -0.00055011   -0.03020493
     atom   47 type  2   force =     0.07139589   -0.00010796   -0.03025503
     atom   48 type  3   force =     0.00062088    0.00030874   -0.00011373
     atom   49 type  4   force =     0.00127798    0.00067432    0.00057522
     atom   50 type  4   force =    -0.00241173   -0.00388603    0.00080034
     atom   51 type  3   force =    -0.00040666    0.00067700   -0.00025788
     atom   52 type  3   force =     0.00070610    0.00273349   -0.00153917

     Total force =     0.376102     Total SCF correction =     0.000899
  @ DRIVER MODE: Message from server: STATUS
  @ DRIVER MODE: Message from server: GETFORCE
  @ DRIVER MODE: Returning v,forces,stress,ensemble 

     Writing output data file ./calc.save/
  @ DRIVER MODE: Message from server: EXIT
  @ DRIVE MODE: Exiting  
 
     init_run     :     13.19s CPU     13.52s WALL (       1 calls)
     electrons    :   1341.49s CPU   1370.68s WALL (       1 calls)
     forces       :      2.68s CPU      2.81s WALL (       1 calls)

     Called by init_run:
     wfcinit      :      5.73s CPU      5.86s WALL (       1 calls)
     potinit      :      6.78s CPU      6.86s WALL (       1 calls)
     hinit0       :      0.29s CPU      0.30s WALL (       1 calls)

     Called by electrons:
     c_bands      :   1136.88s CPU   1152.84s WALL (      72 calls)
     sum_band     :    139.16s CPU    145.37s WALL (      72 calls)
     v_of_rho     :     50.98s CPU     53.01s WALL (      73 calls)
     newd         :     18.55s CPU     23.40s WALL (      73 calls)
     mix_rho      :      1.90s CPU      2.00s WALL (      72 calls)
     vdW_kernel   :      5.86s CPU      5.87s WALL (       1 calls)

     Called by c_bands:
     init_us_2    :      6.97s CPU      7.03s WALL (    1460 calls)
     cegterg      :   1114.04s CPU   1129.52s WALL (     721 calls)

     Called by *egterg:
     cdiaghg      :    203.82s CPU    204.81s WALL (    7896 calls)
     h_psi        :    596.51s CPU    605.61s WALL (    7906 calls)
     s_psi        :     79.27s CPU     79.53s WALL (    7906 calls)
     g_psi        :      2.05s CPU      2.06s WALL (    7175 calls)

     Called by h_psi:
     h_psi:calbec :     73.38s CPU     74.47s WALL (    7906 calls)
     vloc_psi     :    440.82s CPU    444.98s WALL (    7906 calls)
     add_vuspsi   :     79.53s CPU     81.08s WALL (    7906 calls)

     General routines
     calbec       :     97.43s CPU     98.61s WALL (    8666 calls)
     fft          :     26.49s CPU     26.62s WALL (    4599 calls)
     ffts         :      0.17s CPU      0.17s WALL (     145 calls)
     fftw         :    495.08s CPU    499.75s WALL (  929486 calls)
     interpolate  :      0.52s CPU      0.53s WALL (      73 calls)
     davcio       :      0.00s CPU      0.50s WALL (      10 calls)
 
     Parallel routines
 
     PWSCF        :  22m37.56s CPU  23m 9.21s WALL

 
   This run was terminated on:  19:24:24  12Oct2021            

=------------------------------------------------------------------------------=
   JOB DONE.
=------------------------------------------------------------------------------=
