
     Program PWSCF v.6.7GPU starts on 28Sep2021 at  0:36:51 

     This program is part of the open-source Quantum ESPRESSO suite
     for quantum simulation of materials; please cite
         "P. Giannozzi et al., J. Phys.:Condens. Matter 21 395502 (2009);
         "P. Giannozzi et al., J. Phys.:Condens. Matter 29 465901 (2017);
         "P. Giannozzi et al., J. Chem. Phys. 152 154105 (2020);
          URL http://www.quantum-espresso.org", 
     in publications or presentations arising from this work. More details at
     http://www.quantum-espresso.org/quote

     Parallel version (MPI), running on     8 processors

     MPI processes distributed on     1 nodes
     R & G space division:  proc/nbgrp/npool/nimage =       8
     Reading input from /storage/home/hcoda1/3/ntian30/research/carbon/CxH_vib/H2O_calc/ads_slab/CHN2HO_c/out_0007/pw.inp
Warning: card &CELL ignored
Warning: card   CELL_DYNAMICS='IPI', ignored
Warning: card / ignored

     Current dimensions of program PWSCF are:
     Max number of different atomic species (ntypx) = 10
     Max number of k-points (npk) =  40000
     Max angular momentum in pseudopotentials (lmaxx) =  3
     Presently no symmetry can be used with electric field

     Message from routine cell_base_init:
     DEPRECATED: use true lattice parameter, not A to a.u. conversion factor

     **************************************************************************
     Initializing libbeef V0.1.2 with the BEEF-vdW functional.
     Citation: Wellendorff et al., PRB 85, 235149 (2012).
     **************************************************************************


     IMPORTANT: XC functional enforced from input :
     Exchange-correlation= BEEF-VDW
                           (   1   4  43  14   2   0   0)
     Any further DFT definition will be discarded
     Please, verify this is what you really want


     Subspace diagonalization in iterative solution of the eigenvalue problem:
     one sub-group per band group will be used
     scalapack distributed-memory algorithm (size of sub-group:  2*  2 procs)

  @ DRIVER MODE: Connecting to 
 qe_1139763_3003540.sched-torque.pace.gatech.eduv294cmiz_scratch
  using UNIX socket
  @ DRIVER MODE: Message from server: STATUS
  @ DRIVER MODE: Message from server: INIT
  @ DRIVER MODE: Receiving replica           0          -1
  @ DRIVER MODE: Receiving encoded integer          25
  @ DRIVER MODE:  SCF:  T  FORCE:  T  STRESS:  F  VC:  F  ENSEMBLE:  F
  @ DRIVER MODE:  SCF:  T  FORCE:  T  STRESS:  F  VC:  F  ENSEMBLE:  F
 
     Parallelization info
     --------------------
     sticks:   dense  smooth     PW     G-vecs:    dense   smooth      PW
     Min         409     164     47                70857    17926    2743
     Max         411     165     48                70858    17931    2751
     Sum        3275    1317    379               566857   143421   21985
 
     Using Slab Decomposition
 


     bravais-lattice index     =            0
     lattice parameter (alat)  =       1.8897  a.u.
     unit-cell volume          =    6658.9804 (a.u.)^3
     number of atoms/cell      =           53
     number of atomic types    =            5
     number of electrons       =       400.00
     number of Kohn-Sham states=          210
     kinetic-energy cutoff     =      29.3995  Ry
     charge density cutoff     =     293.9946  Ry
     scf convergence threshold =      7.3E-08
     mixing beta               =       0.0500
     number of iterations used =            8  plain     mixing
     Exchange-correlation= BEEF-VDW
                           (   1   4  43  14   2   0   0)

     celldm(1)=   1.889726  celldm(2)=   0.000000  celldm(3)=   0.000000
     celldm(4)=   0.000000  celldm(5)=   0.000000  celldm(6)=   0.000000

     crystal axes: (cart. coord. in units of alat)
               a(1) = (   6.579727   0.000000   0.000000 )  
               a(2) = (  -0.000775   5.961596   0.000000 )  
               a(3) = (   0.000000   0.000000  25.155947 )  

     reciprocal axes: (cart. coord. in units 2 pi/alat)
               b(1) = (  0.151982  0.000020  0.000000 )  
               b(2) = (  0.000000  0.167740  0.000000 )  
               b(3) = (  0.000000  0.000000  0.039752 )  


     PseudoPot. # 1 for Ti read from file:
     /storage/coda1/p-amedford6/0/shared/rich_project_chbe-medford/medford-share/data/pseudos_module/espresso/nninc/pbe/van/Ti.UPF
     MD5 check sum: 8e4df49b7f0d34bbd5052bf3f5ea0213
     Pseudo is Ultrasoft, Zval = 12.0
     Generated by new atomic code, or converted to UPF format
     Using radial grid of  851 points,  6 beta functions with: 
                l(1) =   0
                l(2) =   0
                l(3) =   1
                l(4) =   1
                l(5) =   2
                l(6) =   2
     Q(r) pseudized with  8 coefficients,  rinner =    1.000   1.000   1.000
                                                       1.000   1.000

     PseudoPot. # 2 for O  read from file:
     /storage/coda1/p-amedford6/0/shared/rich_project_chbe-medford/medford-share/data/pseudos_module/espresso/nninc/pbe/van/O.UPF
     MD5 check sum: 78c19812648e8988a0fe644b0f25305e
     Pseudo is Ultrasoft, Zval =  6.0
     Generated by new atomic code, or converted to UPF format
     Using radial grid of  737 points,  4 beta functions with: 
                l(1) =   0
                l(2) =   0
                l(3) =   1
                l(4) =   1
     Q(r) pseudized with  8 coefficients,  rinner =    0.800   0.800   0.800


     PseudoPot. # 3 for C  read from file:
     /storage/coda1/p-amedford6/0/shared/rich_project_chbe-medford/medford-share/data/pseudos_module/espresso/nninc/pbe/van/C.UPF
     MD5 check sum: 1a69bf6b8db32088f5b2163dbdb77a27
     Pseudo is Ultrasoft, Zval =  4.0
     Generated by new atomic code, or converted to UPF format
     Using radial grid of  721 points,  4 beta functions with: 
                l(1) =   0
                l(2) =   0
                l(3) =   1
                l(4) =   1
     Q(r) pseudized with  8 coefficients,  rinner =    0.800   0.800   0.800


     PseudoPot. # 4 for H  read from file:
     /storage/coda1/p-amedford6/0/shared/rich_project_chbe-medford/medford-share/data/pseudos_module/espresso/nninc/pbe/van/H.UPF
     MD5 check sum: b5ee9d7bfd3a09ee7748110bda690ff7
     Pseudo is Ultrasoft, Zval =  1.0
     Generated by new atomic code, or converted to UPF format
     Using radial grid of  615 points,  1 beta functions with: 
                l(1) =   0
     Q(r) pseudized with  8 coefficients,  rinner =    0.800

     PseudoPot. # 5 for N  read from file:
     /storage/coda1/p-amedford6/0/shared/rich_project_chbe-medford/medford-share/data/pseudos_module/espresso/nninc/pbe/van/N.UPF
     MD5 check sum: 90d10febe142ad51ac9d5be1deb811c4
     Pseudo is Ultrasoft, Zval =  5.0
     Generated by new atomic code, or converted to UPF format
     Using radial grid of  729 points,  4 beta functions with: 
                l(1) =   0
                l(2) =   0
                l(3) =   1
                l(4) =   1
     Q(r) pseudized with  8 coefficients,  rinner =    0.800   0.800   0.800


     atomic species   valence    mass     pseudopotential
        Ti1           12.00    47.86700     Ti( 1.00)
        O1             6.00    15.99900     O ( 1.00)
        C1             4.00    12.01100     C ( 1.00)
        H1             1.00     1.00800     H ( 1.00)
        N1             5.00    14.00700     N ( 1.00)

     No symmetry found



   Cartesian axes

     site n.     atom                  positions (alat units)
         1           Ti1 tau(   1) = (   0.0004258   2.9801865   6.0000000  )
         2           Ti1 tau(   2) = (   3.2906075   1.4906267   6.0002472  )
         3           O1  tau(   3) = (   0.0006271   0.0005054   7.9858123  )
         4           O1  tau(   4) = (   3.2906025   0.0005020   7.3038282  )
         5           O1  tau(   5) = (   4.5942328   1.4918067   9.2879030  )
         6           O1  tau(   6) = (   1.9868534   1.4903216   9.2879459  )
         7           Ti1 tau(   7) = (   3.2907910   2.8959150   9.1758416  )
         8           Ti1 tau(   8) = (   0.0015273   1.4827037   9.2680791  )
         9           O1  tau(   9) = (   3.2766663   5.9464886  11.2681881  )
        10           O1  tau(  10) = (   0.0116148   5.9584955  10.6183126  )
        11           O1  tau(  11) = (   1.2752176   1.4923442  12.6271229  )
        12           O1  tau(  12) = (   5.2852060   1.4859299  12.6156521  )
        13           Ti1 tau(  13) = (   6.5717068   2.8472942  12.7124165  )
        14           Ti1 tau(  14) = (   3.2754330   1.3122793  12.6492615  )
        15           O1  tau(  15) = (   6.5604847   5.9612185  14.6398873  )
        16           O1  tau(  16) = (   3.2770837   0.0341078  13.8632434  )
        17           O1  tau(  17) = (   4.5026011   1.5263741  16.0779633  )
        18           O1  tau(  18) = (   1.9856211   1.5373541  16.0544900  )
        19           Ti1 tau(  19) = (   3.2645371   3.0024783  15.6402076  )
        20           Ti1 tau(  20) = (   0.0306923   1.4636683  15.8866077  )
        21           O1  tau(  21) = (   3.2904802   0.0005063   4.7018136  )
        22           O1  tau(  22) = (   6.5250562   0.0096470  17.1651689  )
        23           O1  tau(  23) = (   1.3043587   1.4918075   6.0039043  )
        24           O1  tau(  24) = (   5.2767064   1.4903225   6.0039473  )
        25           Ti1 tau(  25) = (   0.0000382   5.9609847   6.0000000  )
        26           Ti1 tau(  26) = (   3.2902200   4.4714249   6.0002472  )
        27           O1  tau(  27) = (   0.0002396   2.9813036   7.9858123  )
        28           O1  tau(  28) = (   3.2902150   2.9813002   7.3038282  )
        29           O1  tau(  29) = (   4.5938453   4.4726049   9.2879030  )
        30           O1  tau(  30) = (   1.9864658   4.4711199   9.2879459  )
        31           Ti1 tau(  31) = (   3.2891106   5.8743827   9.1763621  )
        32           Ti1 tau(  32) = (   0.0006254   4.4649316   9.2693709  )
        33           O1  tau(  33) = (   3.2790072   3.0290766  11.2406627  )
        34           O1  tau(  34) = (   0.0092240   2.9805883  10.6323155  )
        35           O1  tau(  35) = (   1.2722205   4.4691906  12.6310473  )
        36           O1  tau(  36) = (   5.2766839   4.4717175  12.6187613  )
        37           Ti1 tau(  37) = (   6.5522158   5.8291752  12.6058762  )
        38           Ti1 tau(  38) = (   3.2615408   4.4097241  12.4102932  )
        39           O1  tau(  39) = (   6.5509886   2.9451087  14.6802276  )
        40           O1  tau(  40) = (   3.2772003   2.9821494  13.8576607  )
        41           O1  tau(  41) = (   4.5331312   4.4179464  16.0511208  )
        42           O1  tau(  42) = (   2.0062445   4.4387243  16.0647957  )
        43           Ti1 tau(  43) = (   3.2965114   0.0079596  16.3395523  )
        44           Ti1 tau(  44) = (   6.5556523   4.6042306  16.0453395  )
        45           O1  tau(  45) = (   3.2900926   2.9813045   4.7018136  )
        46           O1  tau(  46) = (   1.3039711   4.4726057   6.0039043  )
        47           O1  tau(  47) = (   5.2763189   4.4711207   6.0039473  )
        48           C1  tau(  48) = (   0.0539703   2.9674629  17.6512085  )
        49           H1  tau(  49) = (   0.9988706   2.9548903  18.1741722  )
        50           N1  tau(  50) = (   5.6350074   2.8816608  18.4775489  )
        51           N1  tau(  51) = (   4.6939826   2.7887373  19.1166784  )
        52           O1  tau(  52) = (   3.2898008   5.9156070  18.1392511  )
        53           H1  tau(  53) = (   3.8410492   0.4763436  18.7420070  )

     number of k points=    10  Fermi-Dirac smearing, width (Ry)=  0.0073
                       cart. coord. in units 2pi/alat
        k(    1) = (   0.0000000   0.0000000   0.0000000), wk =   0.1250000
        k(    2) = (   0.0000000   0.0419351   0.0000000), wk =   0.2500000
        k(    3) = (   0.0000000  -0.0838702   0.0000000), wk =   0.1250000
        k(    4) = (   0.0379955   0.0000049   0.0000000), wk =   0.2500000
        k(    5) = (   0.0379955   0.0419400   0.0000000), wk =   0.2500000
        k(    6) = (   0.0379955  -0.0838652   0.0000000), wk =   0.2500000
        k(    7) = (   0.0379955  -0.0419301   0.0000000), wk =   0.2500000
        k(    8) = (  -0.0759910  -0.0000099   0.0000000), wk =   0.1250000
        k(    9) = (  -0.0759910   0.0419252   0.0000000), wk =   0.2500000
        k(   10) = (  -0.0759910  -0.0838800   0.0000000), wk =   0.1250000

     Dense  grid:   566857 G-vectors     FFT dimensions: (  72,  64, 270)

     Smooth grid:   143421 G-vectors     FFT dimensions: (  45,  40, 180)

     Estimated max dynamical RAM per process >     457.18 MB

     Estimated total dynamical RAM >       3.57 GB
     Cannot read rho : file not found

     Initial potential from superposition of free atoms

     starting charge  383.99917, renormalised to  400.00000

     negative rho (up, down):  1.800E-02 0.000E+00


     %%%%%%%%%%%%%%%%%%%%%%%%%%%%%%%%%%%%%%%%%%%%%%%%%%%%%%%%%%%%%%%%%%%%%%%%
     %                                                                      %
     % You are using vdW-DF, which was implemented by the Thonhauser group. %
     % Please cite the following two papers that made this development      %
     % possible and the two reviews that describe the various versions:     %
     %                                                                      %
     %   T. Thonhauser et al., PRL 115, 136402 (2015).                      %
     %   T. Thonhauser et al., PRB 76, 125112 (2007).                       %
     %   K. Berland et al., Rep. Prog. Phys. 78, 066501 (2015).             %
     %   D.C. Langreth et al., J. Phys.: Condens. Matter 21, 084203 (2009). %
     %                                                                      %
     %                                                                      %
     % If you are calculating the stress with vdW-DF, please also cite:     %
     %                                                                      %
     %   R. Sabatini et al., J. Phys.: Condens. Matter 24, 424209 (2012).   %
     %                                                                      %
     %%%%%%%%%%%%%%%%%%%%%%%%%%%%%%%%%%%%%%%%%%%%%%%%%%%%%%%%%%%%%%%%%%%%%%%%


 
     Adding external electric field

     Computed dipole along edir(3) : 
        Dipole              -10.2460 Ry au,        -26.0427 Debye
        Dipole field         -0.0193 Ry au, 
 
        Potential amp.        1.7924 Ry
        Total length         46.3494 bohr
 
     Starting wfcs are  302 atomic wfcs
  @ DRIVER MODE: Message from server: STATUS
  @ DRIVER MODE: Message from server: POSDATA
  @ DRIVER MODE: Reading and sharing cell 
  @ DRIVER MODE: Reading and sharing positions 
  @ DRIVER MODE: Received positions 

     total cpu time spent up to now is       14.4 secs

     Self-consistent Calculation

     iteration #  1     ecut=    29.40 Ry     beta= 0.05
     Davidson diagonalization with overlap
     c_bands:  2 eigenvalues not converged
     c_bands:  1 eigenvalues not converged
     c_bands:  2 eigenvalues not converged
     c_bands:  2 eigenvalues not converged
     c_bands:  3 eigenvalues not converged
     c_bands:  2 eigenvalues not converged
     c_bands:  1 eigenvalues not converged
     c_bands:  1 eigenvalues not converged
     ethr =  1.00E-05,  avg # of iterations = 19.5

     negative rho (up, down):  1.240E-02 0.000E+00
 
     Adding external electric field

     Computed dipole along edir(3) : 
        Dipole               47.5350 Ry au,        120.8218 Debye
        Dipole field          0.0897 Ry au, 
 
        Potential amp.       -8.3155 Ry
        Total length         46.3494 bohr
 

     total cpu time spent up to now is       66.9 secs

     total energy              =   -2480.90282207 Ry
     estimated scf accuracy    <    5452.58033207 Ry

     iteration #  2     ecut=    29.40 Ry     beta= 0.05
     Davidson diagonalization with overlap
     ethr =  1.00E-02,  avg # of iterations = 23.8

     negative rho (up, down):  2.358E-03 0.000E+00
 
     Adding external electric field

     Computed dipole along edir(3) : 
        Dipole               -1.0024 Ry au,         -2.5478 Debye
        Dipole field         -0.0019 Ry au, 
 
        Potential amp.        0.1754 Ry
        Total length         46.3494 bohr
 

     total cpu time spent up to now is      162.4 secs

     total energy              =   -2469.56711665 Ry
     estimated scf accuracy    <   70067.36997008 Ry

     iteration #  3     ecut=    29.40 Ry     beta= 0.05
     Davidson diagonalization with overlap
     c_bands:  2 eigenvalues not converged
     ethr =  1.00E-02,  avg # of iterations = 16.6

     negative rho (up, down):  2.429E-03 0.000E+00
 
     Adding external electric field

     Computed dipole along edir(3) : 
        Dipole               -3.6134 Ry au,         -9.1844 Debye
        Dipole field         -0.0068 Ry au, 
 
        Potential amp.        0.6321 Ry
        Total length         46.3494 bohr
 

     total cpu time spent up to now is      223.3 secs

     total energy              =   -2956.98977357 Ry
     estimated scf accuracy    <    4720.76623497 Ry

     iteration #  4     ecut=    29.40 Ry     beta= 0.05
     Davidson diagonalization with overlap
     ethr =  1.00E-02,  avg # of iterations = 11.6

     negative rho (up, down):  2.488E-03 0.000E+00
 
     Adding external electric field

     Computed dipole along edir(3) : 
        Dipole               -5.5293 Ry au,        -14.0540 Debye
        Dipole field         -0.0104 Ry au, 
 
        Potential amp.        0.9673 Ry
        Total length         46.3494 bohr
 

     total cpu time spent up to now is      247.8 secs

     total energy              =   -2954.30895100 Ry
     estimated scf accuracy    <    1974.90566593 Ry

     iteration #  5     ecut=    29.40 Ry     beta= 0.05
     Davidson diagonalization with overlap
     c_bands:  3 eigenvalues not converged
     c_bands:  4 eigenvalues not converged
     c_bands:  1 eigenvalues not converged
     ethr =  1.00E-02,  avg # of iterations = 15.1

     negative rho (up, down):  2.515E-03 0.000E+00
 
     Adding external electric field

     Computed dipole along edir(3) : 
        Dipole               -5.1520 Ry au,        -13.0950 Debye
        Dipole field         -0.0097 Ry au, 
 
        Potential amp.        0.9013 Ry
        Total length         46.3494 bohr
 

     total cpu time spent up to now is      271.6 secs

     total energy              =   -2971.28049300 Ry
     estimated scf accuracy    <      89.06364917 Ry

     iteration #  6     ecut=    29.40 Ry     beta= 0.05
     Davidson diagonalization with overlap
     ethr =  1.00E-02,  avg # of iterations =  3.6

     negative rho (up, down):  2.515E-03 0.000E+00
 
     Adding external electric field

     Computed dipole along edir(3) : 
        Dipole               -4.9818 Ry au,        -12.6624 Debye
        Dipole field         -0.0094 Ry au, 
 
        Potential amp.        0.8715 Ry
        Total length         46.3494 bohr
 

     total cpu time spent up to now is      285.7 secs

     total energy              =   -2972.07787427 Ry
     estimated scf accuracy    <      49.64290028 Ry

     iteration #  7     ecut=    29.40 Ry     beta= 0.05
     Davidson diagonalization with overlap
     ethr =  1.00E-02,  avg # of iterations =  1.4

     negative rho (up, down):  2.716E-03 0.000E+00
 
     Adding external electric field

     Computed dipole along edir(3) : 
        Dipole               -3.3017 Ry au,         -8.3922 Debye
        Dipole field         -0.0062 Ry au, 
 
        Potential amp.        0.5776 Ry
        Total length         46.3494 bohr
 

     total cpu time spent up to now is      298.5 secs

     total energy              =   -2970.74295624 Ry
     estimated scf accuracy    <      47.71585605 Ry

     iteration #  8     ecut=    29.40 Ry     beta= 0.05
     Davidson diagonalization with overlap
     ethr =  1.00E-02,  avg # of iterations =  1.0

     negative rho (up, down):  3.116E-03 0.000E+00
 
     Adding external electric field

     Computed dipole along edir(3) : 
        Dipole               -1.5885 Ry au,         -4.0375 Debye
        Dipole field         -0.0030 Ry au, 
 
        Potential amp.        0.2779 Ry
        Total length         46.3494 bohr
 

     total cpu time spent up to now is      311.4 secs

     total energy              =   -2970.56906351 Ry
     estimated scf accuracy    <      68.41683701 Ry

     iteration #  9     ecut=    29.40 Ry     beta= 0.05
     Davidson diagonalization with overlap
     ethr =  1.00E-02,  avg # of iterations =  2.0

     negative rho (up, down):  3.116E-03 0.000E+00
 
     Adding external electric field

     Computed dipole along edir(3) : 
        Dipole               -2.3187 Ry au,         -5.8935 Debye
        Dipole field         -0.0044 Ry au, 
 
        Potential amp.        0.4056 Ry
        Total length         46.3494 bohr
 

     total cpu time spent up to now is      325.1 secs

     total energy              =   -2970.09558798 Ry
     estimated scf accuracy    <     827.51274711 Ry

     iteration # 10     ecut=    29.40 Ry     beta= 0.05
     Davidson diagonalization with overlap
     ethr =  1.00E-02,  avg # of iterations =  1.0

     negative rho (up, down):  3.357E-03 0.000E+00
 
     Adding external electric field

     Computed dipole along edir(3) : 
        Dipole               -2.8011 Ry au,         -7.1196 Debye
        Dipole field         -0.0053 Ry au, 
 
        Potential amp.        0.4900 Ry
        Total length         46.3494 bohr
 

     total cpu time spent up to now is      337.6 secs

     total energy              =   -2967.91988134 Ry
     estimated scf accuracy    <     249.58901129 Ry

     iteration # 11     ecut=    29.40 Ry     beta= 0.05
     Davidson diagonalization with overlap
     ethr =  1.00E-02,  avg # of iterations =  1.0

     negative rho (up, down):  3.504E-03 0.000E+00
 
     Adding external electric field

     Computed dipole along edir(3) : 
        Dipole               -2.7801 Ry au,         -7.0663 Debye
        Dipole field         -0.0052 Ry au, 
 
        Potential amp.        0.4863 Ry
        Total length         46.3494 bohr
 

     total cpu time spent up to now is      350.2 secs

     total energy              =   -2968.84256579 Ry
     estimated scf accuracy    <      40.86154481 Ry

     iteration # 12     ecut=    29.40 Ry     beta= 0.05
     Davidson diagonalization with overlap
     ethr =  1.00E-02,  avg # of iterations =  1.0

     negative rho (up, down):  3.996E-03 0.000E+00
 
     Adding external electric field

     Computed dipole along edir(3) : 
        Dipole               -1.8794 Ry au,         -4.7770 Debye
        Dipole field         -0.0035 Ry au, 
 
        Potential amp.        0.3288 Ry
        Total length         46.3494 bohr
 

     total cpu time spent up to now is      363.1 secs

     total energy              =   -2968.88065566 Ry
     estimated scf accuracy    <      39.34464440 Ry

     iteration # 13     ecut=    29.40 Ry     beta= 0.05
     Davidson diagonalization with overlap
     ethr =  9.84E-03,  avg # of iterations =  1.4

     negative rho (up, down):  4.046E-03 0.000E+00
 
     Adding external electric field

     Computed dipole along edir(3) : 
        Dipole               -1.6549 Ry au,         -4.2063 Debye
        Dipole field         -0.0031 Ry au, 
 
        Potential amp.        0.2895 Ry
        Total length         46.3494 bohr
 

     total cpu time spent up to now is      375.8 secs

     total energy              =   -2968.73983641 Ry
     estimated scf accuracy    <      36.06491600 Ry

     iteration # 14     ecut=    29.40 Ry     beta= 0.05
     Davidson diagonalization with overlap
     ethr =  9.02E-03,  avg # of iterations =  1.4

     negative rho (up, down):  4.218E-03 0.000E+00
 
     Adding external electric field

     Computed dipole along edir(3) : 
        Dipole               -1.7436 Ry au,         -4.4318 Debye
        Dipole field         -0.0033 Ry au, 
 
        Potential amp.        0.3050 Ry
        Total length         46.3494 bohr
 

     total cpu time spent up to now is      388.7 secs

     total energy              =   -2968.29391495 Ry
     estimated scf accuracy    <      30.25035924 Ry

     iteration # 15     ecut=    29.40 Ry     beta= 0.05
     Davidson diagonalization with overlap
     ethr =  7.56E-03,  avg # of iterations =  2.8

     negative rho (up, down):  4.238E-03 0.000E+00
 
     Adding external electric field

     Computed dipole along edir(3) : 
        Dipole               -1.7614 Ry au,         -4.4770 Debye
        Dipole field         -0.0033 Ry au, 
 
        Potential amp.        0.3081 Ry
        Total length         46.3494 bohr
 

     total cpu time spent up to now is      402.3 secs

     total energy              =   -2969.49837909 Ry
     estimated scf accuracy    <       3.64916579 Ry

     iteration # 16     ecut=    29.40 Ry     beta= 0.05
     Davidson diagonalization with overlap
     c_bands:  2 eigenvalues not converged
     c_bands:  1 eigenvalues not converged
     ethr =  9.12E-04,  avg # of iterations =  8.8

     negative rho (up, down):  4.200E-03 0.000E+00
 
     Adding external electric field

     Computed dipole along edir(3) : 
        Dipole               -1.8135 Ry au,         -4.6094 Debye
        Dipole field         -0.0034 Ry au, 
 
        Potential amp.        0.3172 Ry
        Total length         46.3494 bohr
 

     total cpu time spent up to now is      420.5 secs

     total energy              =   -2970.27302673 Ry
     estimated scf accuracy    <       2.31920511 Ry

     iteration # 17     ecut=    29.40 Ry     beta= 0.05
     Davidson diagonalization with overlap
     ethr =  5.80E-04,  avg # of iterations =  1.4

     negative rho (up, down):  4.282E-03 0.000E+00
 
     Adding external electric field

     Computed dipole along edir(3) : 
        Dipole               -1.9203 Ry au,         -4.8808 Debye
        Dipole field         -0.0036 Ry au, 
 
        Potential amp.        0.3359 Ry
        Total length         46.3494 bohr
 

     total cpu time spent up to now is      433.7 secs

     total energy              =   -2970.36707574 Ry
     estimated scf accuracy    <       3.20823062 Ry

     iteration # 18     ecut=    29.40 Ry     beta= 0.05
     Davidson diagonalization with overlap
     c_bands:  1 eigenvalues not converged
     ethr =  5.80E-04,  avg # of iterations =  5.9

     negative rho (up, down):  4.305E-03 0.000E+00
 
     Adding external electric field

     Computed dipole along edir(3) : 
        Dipole               -1.7920 Ry au,         -4.5548 Debye
        Dipole field         -0.0034 Ry au, 
 
        Potential amp.        0.3135 Ry
        Total length         46.3494 bohr
 

     total cpu time spent up to now is      450.2 secs

     total energy              =   -2970.40750203 Ry
     estimated scf accuracy    <      12.84558761 Ry

     iteration # 19     ecut=    29.40 Ry     beta= 0.05
     Davidson diagonalization with overlap
     ethr =  5.80E-04,  avg # of iterations =  4.9

     negative rho (up, down):  4.412E-03 0.000E+00
 
     Adding external electric field

     Computed dipole along edir(3) : 
        Dipole               -1.6234 Ry au,         -4.1263 Debye
        Dipole field         -0.0031 Ry au, 
 
        Potential amp.        0.2840 Ry
        Total length         46.3494 bohr
 

     total cpu time spent up to now is      465.6 secs

     total energy              =   -2970.34405112 Ry
     estimated scf accuracy    <      12.70902997 Ry

     iteration # 20     ecut=    29.40 Ry     beta= 0.05
     Davidson diagonalization with overlap
     c_bands:  5 eigenvalues not converged
     ethr =  5.80E-04,  avg # of iterations =  3.0

     negative rho (up, down):  4.934E-03 0.000E+00
 
     Adding external electric field

     Computed dipole along edir(3) : 
        Dipole               -0.8838 Ry au,         -2.2463 Debye
        Dipole field         -0.0017 Ry au, 
 
        Potential amp.        0.1546 Ry
        Total length         46.3494 bohr
 

     total cpu time spent up to now is      479.2 secs

     total energy              =   -2970.14944183 Ry
     estimated scf accuracy    <       9.32708592 Ry

     iteration # 21     ecut=    29.40 Ry     beta= 0.05
     Davidson diagonalization with overlap
     ethr =  5.80E-04,  avg # of iterations =  1.9

     negative rho (up, down):  5.021E-03 0.000E+00
 
     Adding external electric field

     Computed dipole along edir(3) : 
        Dipole               -1.2458 Ry au,         -3.1666 Debye
        Dipole field         -0.0024 Ry au, 
 
        Potential amp.        0.2179 Ry
        Total length         46.3494 bohr
 

     total cpu time spent up to now is      492.9 secs

     total energy              =   -2970.32492714 Ry
     estimated scf accuracy    <       0.40080389 Ry

     iteration # 22     ecut=    29.40 Ry     beta= 0.05
     Davidson diagonalization with overlap
     c_bands:  2 eigenvalues not converged
     c_bands:  5 eigenvalues not converged
     c_bands:  4 eigenvalues not converged
     c_bands:  1 eigenvalues not converged
     ethr =  1.00E-04,  avg # of iterations = 17.2

     negative rho (up, down):  5.048E-03 0.000E+00
 
     Adding external electric field

     Computed dipole along edir(3) : 
        Dipole               -1.2831 Ry au,         -3.2612 Debye
        Dipole field         -0.0024 Ry au, 
 
        Potential amp.        0.2245 Ry
        Total length         46.3494 bohr
 

     total cpu time spent up to now is      516.1 secs

     total energy              =   -2970.43967767 Ry
     estimated scf accuracy    <      14.92175868 Ry

     iteration # 23     ecut=    29.40 Ry     beta= 0.05
     Davidson diagonalization with overlap
     ethr =  1.00E-04,  avg # of iterations =  1.9

     negative rho (up, down):  5.141E-03 0.000E+00
 
     Adding external electric field

     Computed dipole along edir(3) : 
        Dipole               -1.3974 Ry au,         -3.5518 Debye
        Dipole field         -0.0026 Ry au, 
 
        Potential amp.        0.2444 Ry
        Total length         46.3494 bohr
 

     total cpu time spent up to now is      529.6 secs

     total energy              =   -2970.51983822 Ry
     estimated scf accuracy    <      14.09375387 Ry

     iteration # 24     ecut=    29.40 Ry     beta= 0.05
     Davidson diagonalization with overlap
     c_bands:  1 eigenvalues not converged
     ethr =  1.00E-04,  avg # of iterations =  5.1

     negative rho (up, down):  4.901E-03 0.000E+00
 
     Adding external electric field

     Computed dipole along edir(3) : 
        Dipole               -1.0280 Ry au,         -2.6129 Debye
        Dipole field         -0.0019 Ry au, 
 
        Potential amp.        0.1798 Ry
        Total length         46.3494 bohr
 

     total cpu time spent up to now is      544.5 secs

     total energy              =   -2970.14529531 Ry
     estimated scf accuracy    <      23.98247649 Ry

     iteration # 25     ecut=    29.40 Ry     beta= 0.05
     Davidson diagonalization with overlap
     ethr =  1.00E-04,  avg # of iterations =  7.5

     negative rho (up, down):  4.599E-03 0.000E+00
 
     Adding external electric field

     Computed dipole along edir(3) : 
        Dipole               -1.3143 Ry au,         -3.3407 Debye
        Dipole field         -0.0025 Ry au, 
 
        Potential amp.        0.2299 Ry
        Total length         46.3494 bohr
 

     total cpu time spent up to now is      560.4 secs

     total energy              =   -2970.29799082 Ry
     estimated scf accuracy    <       1.76754378 Ry

     iteration # 26     ecut=    29.40 Ry     beta= 0.05
     Davidson diagonalization with overlap
     ethr =  1.00E-04,  avg # of iterations =  3.2

     negative rho (up, down):  5.257E-03 0.000E+00
 
     Adding external electric field

     Computed dipole along edir(3) : 
        Dipole               -0.9706 Ry au,         -2.4671 Debye
        Dipole field         -0.0018 Ry au, 
 
        Potential amp.        0.1698 Ry
        Total length         46.3494 bohr
 

     total cpu time spent up to now is      574.4 secs

     total energy              =   -2970.35960414 Ry
     estimated scf accuracy    <       2.93002355 Ry

     iteration # 27     ecut=    29.40 Ry     beta= 0.05
     Davidson diagonalization with overlap
     ethr =  1.00E-04,  avg # of iterations =  2.4

     negative rho (up, down):  5.073E-03 0.000E+00
 
     Adding external electric field

     Computed dipole along edir(3) : 
        Dipole               -0.6578 Ry au,         -1.6719 Debye
        Dipole field         -0.0012 Ry au, 
 
        Potential amp.        0.1151 Ry
        Total length         46.3494 bohr
 

     total cpu time spent up to now is      588.4 secs

     total energy              =   -2969.81057324 Ry
     estimated scf accuracy    <      34.79344724 Ry

     iteration # 28     ecut=    29.40 Ry     beta= 0.05
     Davidson diagonalization with overlap
     c_bands:  1 eigenvalues not converged
     c_bands:  1 eigenvalues not converged
     c_bands:  1 eigenvalues not converged
     c_bands:  1 eigenvalues not converged
     ethr =  1.00E-04,  avg # of iterations = 14.7

     negative rho (up, down):  4.844E-03 0.000E+00
 
     Adding external electric field

     Computed dipole along edir(3) : 
        Dipole               -0.9771 Ry au,         -2.4834 Debye
        Dipole field         -0.0018 Ry au, 
 
        Potential amp.        0.1709 Ry
        Total length         46.3494 bohr
 

     total cpu time spent up to now is      611.9 secs

     total energy              =   -2970.23223829 Ry
     estimated scf accuracy    <       0.35359922 Ry

     iteration # 29     ecut=    29.40 Ry     beta= 0.05
     Davidson diagonalization with overlap
     ethr =  8.84E-05,  avg # of iterations =  2.1

     negative rho (up, down):  4.947E-03 0.000E+00
 
     Adding external electric field

     Computed dipole along edir(3) : 
        Dipole               -1.0892 Ry au,         -2.7684 Debye
        Dipole field         -0.0021 Ry au, 
 
        Potential amp.        0.1905 Ry
        Total length         46.3494 bohr
 

     total cpu time spent up to now is      625.7 secs

     total energy              =   -2970.23615735 Ry
     estimated scf accuracy    <       0.31187552 Ry

     iteration # 30     ecut=    29.40 Ry     beta= 0.05
     Davidson diagonalization with overlap
     ethr =  7.80E-05,  avg # of iterations =  4.9

     negative rho (up, down):  6.097E-03 0.000E+00
 
     Adding external electric field

     Computed dipole along edir(3) : 
        Dipole               -0.3756 Ry au,         -0.9546 Debye
        Dipole field         -0.0007 Ry au, 
 
        Potential amp.        0.0657 Ry
        Total length         46.3494 bohr
 

     total cpu time spent up to now is      640.6 secs

     total energy              =   -2970.24069440 Ry
     estimated scf accuracy    <       0.96471381 Ry

     iteration # 31     ecut=    29.40 Ry     beta= 0.05
     Davidson diagonalization with overlap
     ethr =  7.80E-05,  avg # of iterations =  4.2

     negative rho (up, down):  6.253E-03 0.000E+00
 
     Adding external electric field

     Computed dipole along edir(3) : 
        Dipole               -0.4315 Ry au,         -1.0968 Debye
        Dipole field         -0.0008 Ry au, 
 
        Potential amp.        0.0755 Ry
        Total length         46.3494 bohr
 

     total cpu time spent up to now is      655.2 secs

     total energy              =   -2970.26203105 Ry
     estimated scf accuracy    <       0.34644478 Ry

     iteration # 32     ecut=    29.40 Ry     beta= 0.05
     Davidson diagonalization with overlap
     ethr =  7.80E-05,  avg # of iterations =  2.3

     negative rho (up, down):  5.997E-03 0.000E+00
 
     Adding external electric field

     Computed dipole along edir(3) : 
        Dipole               -0.5150 Ry au,         -1.3090 Debye
        Dipole field         -0.0010 Ry au, 
 
        Potential amp.        0.0901 Ry
        Total length         46.3494 bohr
 

     total cpu time spent up to now is      668.5 secs

     total energy              =   -2970.25405365 Ry
     estimated scf accuracy    <       1.05086947 Ry

     iteration # 33     ecut=    29.40 Ry     beta= 0.05
     Davidson diagonalization with overlap
     ethr =  7.80E-05,  avg # of iterations =  1.0

     negative rho (up, down):  5.999E-03 0.000E+00
 
     Adding external electric field

     Computed dipole along edir(3) : 
        Dipole               -0.4716 Ry au,         -1.1986 Debye
        Dipole field         -0.0009 Ry au, 
 
        Potential amp.        0.0825 Ry
        Total length         46.3494 bohr
 

     total cpu time spent up to now is      681.0 secs

     total energy              =   -2970.23475540 Ry
     estimated scf accuracy    <       0.57363004 Ry

     iteration # 34     ecut=    29.40 Ry     beta= 0.05
     Davidson diagonalization with overlap
     c_bands:  2 eigenvalues not converged
     ethr =  7.80E-05,  avg # of iterations =  3.5

     negative rho (up, down):  6.433E-03 0.000E+00
 
     Adding external electric field

     Computed dipole along edir(3) : 
        Dipole               -0.2427 Ry au,         -0.6170 Debye
        Dipole field         -0.0005 Ry au, 
 
        Potential amp.        0.0425 Ry
        Total length         46.3494 bohr
 

     total cpu time spent up to now is      695.1 secs

     total energy              =   -2970.22859935 Ry
     estimated scf accuracy    <       0.13446370 Ry

     iteration # 35     ecut=    29.40 Ry     beta= 0.05
     Davidson diagonalization with overlap
     c_bands:  2 eigenvalues not converged
     c_bands:  1 eigenvalues not converged
     c_bands:  2 eigenvalues not converged
     c_bands:  1 eigenvalues not converged
     c_bands:  1 eigenvalues not converged
     c_bands:  1 eigenvalues not converged
     ethr =  3.36E-05,  avg # of iterations = 17.0

     negative rho (up, down):  6.479E-03 0.000E+00
 
     Adding external electric field

     Computed dipole along edir(3) : 
        Dipole               -0.2224 Ry au,         -0.5654 Debye
        Dipole field         -0.0004 Ry au, 
 
        Potential amp.        0.0389 Ry
        Total length         46.3494 bohr
 

     total cpu time spent up to now is      715.3 secs

     total energy              =   -2970.23990877 Ry
     estimated scf accuracy    <       0.07775263 Ry

     iteration # 36     ecut=    29.40 Ry     beta= 0.05
     Davidson diagonalization with overlap
     c_bands:  1 eigenvalues not converged
     c_bands:  1 eigenvalues not converged
     ethr =  1.94E-05,  avg # of iterations =  8.2

     negative rho (up, down):  6.416E-03 0.000E+00
 
     Adding external electric field

     Computed dipole along edir(3) : 
        Dipole               -0.2633 Ry au,         -0.6693 Debye
        Dipole field         -0.0005 Ry au, 
 
        Potential amp.        0.0461 Ry
        Total length         46.3494 bohr
 

     total cpu time spent up to now is      730.7 secs

     total energy              =   -2970.23928925 Ry
     estimated scf accuracy    <       0.07895442 Ry

     iteration # 37     ecut=    29.40 Ry     beta= 0.05
     Davidson diagonalization with overlap
     c_bands:  1 eigenvalues not converged
     ethr =  1.94E-05,  avg # of iterations =  3.0

     negative rho (up, down):  6.299E-03 0.000E+00
 
     Adding external electric field

     Computed dipole along edir(3) : 
        Dipole               -0.3993 Ry au,         -1.0149 Debye
        Dipole field         -0.0008 Ry au, 
 
        Potential amp.        0.0698 Ry
        Total length         46.3494 bohr
 

     total cpu time spent up to now is      745.1 secs

     total energy              =   -2970.23298660 Ry
     estimated scf accuracy    <       0.07115119 Ry

     iteration # 38     ecut=    29.40 Ry     beta= 0.05
     Davidson diagonalization with overlap
     c_bands:  1 eigenvalues not converged
     ethr =  1.78E-05,  avg # of iterations =  3.9

     negative rho (up, down):  7.389E-03 0.000E+00
 
     Adding external electric field

     Computed dipole along edir(3) : 
        Dipole               -0.2081 Ry au,         -0.5290 Debye
        Dipole field         -0.0004 Ry au, 
 
        Potential amp.        0.0364 Ry
        Total length         46.3494 bohr
 

     total cpu time spent up to now is      759.5 secs

     total energy              =   -2970.23043151 Ry
     estimated scf accuracy    <       0.04480732 Ry

     iteration # 39     ecut=    29.40 Ry     beta= 0.05
     Davidson diagonalization with overlap
     c_bands:  2 eigenvalues not converged
     c_bands:  1 eigenvalues not converged
     ethr =  1.12E-05,  avg # of iterations = 15.3

     negative rho (up, down):  7.592E-03 0.000E+00
 
     Adding external electric field

     Computed dipole along edir(3) : 
        Dipole               -0.1711 Ry au,         -0.4348 Debye
        Dipole field         -0.0003 Ry au, 
 
        Potential amp.        0.0299 Ry
        Total length         46.3494 bohr
 

     total cpu time spent up to now is      784.7 secs

     total energy              =   -2970.24040863 Ry
     estimated scf accuracy    <       0.05723735 Ry

     iteration # 40     ecut=    29.40 Ry     beta= 0.05
     Davidson diagonalization with overlap
     ethr =  1.12E-05,  avg # of iterations =  5.0

     negative rho (up, down):  7.557E-03 0.000E+00
 
     Adding external electric field

     Computed dipole along edir(3) : 
        Dipole               -0.2354 Ry au,         -0.5982 Debye
        Dipole field         -0.0004 Ry au, 
 
        Potential amp.        0.0412 Ry
        Total length         46.3494 bohr
 

     total cpu time spent up to now is      799.5 secs

     total energy              =   -2970.23768687 Ry
     estimated scf accuracy    <       0.06012984 Ry

     iteration # 41     ecut=    29.40 Ry     beta= 0.05
     Davidson diagonalization with overlap
     c_bands:  1 eigenvalues not converged
     ethr =  1.12E-05,  avg # of iterations =  4.7

     negative rho (up, down):  6.978E-03 0.000E+00
 
     Adding external electric field

     Computed dipole along edir(3) : 
        Dipole               -0.2353 Ry au,         -0.5982 Debye
        Dipole field         -0.0004 Ry au, 
 
        Potential amp.        0.0412 Ry
        Total length         46.3494 bohr
 

     total cpu time spent up to now is      813.8 secs

     total energy              =   -2970.24133235 Ry
     estimated scf accuracy    <       0.04505901 Ry

     iteration # 42     ecut=    29.40 Ry     beta= 0.05
     Davidson diagonalization with overlap
     c_bands:  1 eigenvalues not converged
     ethr =  1.12E-05,  avg # of iterations =  3.8

     negative rho (up, down):  1.080E-02 0.000E+00
 
     Adding external electric field

     Computed dipole along edir(3) : 
        Dipole               -0.1010 Ry au,         -0.2568 Debye
        Dipole field         -0.0002 Ry au, 
 
        Potential amp.        0.0177 Ry
        Total length         46.3494 bohr
 

     total cpu time spent up to now is      827.9 secs

     total energy              =   -2970.24556967 Ry
     estimated scf accuracy    <       0.06677424 Ry

     iteration # 43     ecut=    29.40 Ry     beta= 0.05
     Davidson diagonalization with overlap
     ethr =  1.12E-05,  avg # of iterations =  6.2

     negative rho (up, down):  1.071E-02 0.000E+00
 
     Adding external electric field

     Computed dipole along edir(3) : 
        Dipole               -0.1701 Ry au,         -0.4324 Debye
        Dipole field         -0.0003 Ry au, 
 
        Potential amp.        0.0298 Ry
        Total length         46.3494 bohr
 

     total cpu time spent up to now is      843.0 secs

     total energy              =   -2970.24138131 Ry
     estimated scf accuracy    <       0.07512378 Ry

     iteration # 44     ecut=    29.40 Ry     beta= 0.05
     Davidson diagonalization with overlap
     c_bands:  1 eigenvalues not converged
     ethr =  1.12E-05,  avg # of iterations = 12.0

     negative rho (up, down):  9.297E-03 0.000E+00
 
     Adding external electric field

     Computed dipole along edir(3) : 
        Dipole               -0.1377 Ry au,         -0.3501 Debye
        Dipole field         -0.0003 Ry au, 
 
        Potential amp.        0.0241 Ry
        Total length         46.3494 bohr
 

     total cpu time spent up to now is      859.8 secs

     total energy              =   -2970.23469300 Ry
     estimated scf accuracy    <       0.06628432 Ry

     iteration # 45     ecut=    29.40 Ry     beta= 0.05
     Davidson diagonalization with overlap
     ethr =  1.12E-05,  avg # of iterations =  4.7

     negative rho (up, down):  1.100E-02 0.000E+00
 
     Adding external electric field

     Computed dipole along edir(3) : 
        Dipole               -0.1190 Ry au,         -0.3024 Debye
        Dipole field         -0.0002 Ry au, 
 
        Potential amp.        0.0208 Ry
        Total length         46.3494 bohr
 

     total cpu time spent up to now is      874.5 secs

     total energy              =   -2970.23214933 Ry
     estimated scf accuracy    <       0.02704008 Ry

     iteration # 46     ecut=    29.40 Ry     beta= 0.05
     Davidson diagonalization with overlap
     c_bands:  1 eigenvalues not converged
     c_bands:  1 eigenvalues not converged
     c_bands:  1 eigenvalues not converged
     c_bands:  1 eigenvalues not converged
     c_bands:  1 eigenvalues not converged
     ethr =  6.76E-06,  avg # of iterations = 14.8

     negative rho (up, down):  1.088E-02 0.000E+00
 
     Adding external electric field

     Computed dipole along edir(3) : 
        Dipole                0.0011 Ry au,          0.0027 Debye
        Dipole field          0.0000 Ry au, 
 
        Potential amp.       -0.0002 Ry
        Total length         46.3494 bohr
 

     total cpu time spent up to now is      898.5 secs

     total energy              =   -2970.23271653 Ry
     estimated scf accuracy    <       0.03757453 Ry

     iteration # 47     ecut=    29.40 Ry     beta= 0.05
     Davidson diagonalization with overlap
     c_bands:  1 eigenvalues not converged
     c_bands:  1 eigenvalues not converged
     c_bands:  1 eigenvalues not converged
     c_bands:  1 eigenvalues not converged
     c_bands:  1 eigenvalues not converged
     ethr =  6.76E-06,  avg # of iterations = 16.1

     negative rho (up, down):  1.138E-02 0.000E+00
 
     Adding external electric field

     Computed dipole along edir(3) : 
        Dipole               -0.0336 Ry au,         -0.0855 Debye
        Dipole field         -0.0001 Ry au, 
 
        Potential amp.        0.0059 Ry
        Total length         46.3494 bohr
 

     total cpu time spent up to now is      918.1 secs

     total energy              =   -2970.23547777 Ry
     estimated scf accuracy    <       0.01409680 Ry

     iteration # 48     ecut=    29.40 Ry     beta= 0.05
     Davidson diagonalization with overlap
     c_bands:  1 eigenvalues not converged
     c_bands:  1 eigenvalues not converged
     ethr =  3.52E-06,  avg # of iterations = 12.1

     negative rho (up, down):  1.444E-02 0.000E+00
 
     Adding external electric field

     Computed dipole along edir(3) : 
        Dipole                0.0155 Ry au,          0.0395 Debye
        Dipole field          0.0000 Ry au, 
 
        Potential amp.       -0.0027 Ry
        Total length         46.3494 bohr
 

     total cpu time spent up to now is      935.5 secs

     total energy              =   -2970.23649521 Ry
     estimated scf accuracy    <       0.00568478 Ry

     iteration # 49     ecut=    29.40 Ry     beta= 0.05
     Davidson diagonalization with overlap
     c_bands:  1 eigenvalues not converged
     ethr =  1.42E-06,  avg # of iterations =  8.5

     negative rho (up, down):  1.660E-02 0.000E+00
 
     Adding external electric field

     Computed dipole along edir(3) : 
        Dipole                0.0343 Ry au,          0.0873 Debye
        Dipole field          0.0001 Ry au, 
 
        Potential amp.       -0.0060 Ry
        Total length         46.3494 bohr
 

     total cpu time spent up to now is      952.4 secs

     total energy              =   -2970.23656414 Ry
     estimated scf accuracy    <       0.00341349 Ry

     iteration # 50     ecut=    29.40 Ry     beta= 0.05
     Davidson diagonalization with overlap
     c_bands:  1 eigenvalues not converged
     c_bands:  1 eigenvalues not converged
     c_bands:  1 eigenvalues not converged
     ethr =  8.53E-07,  avg # of iterations = 12.4

     negative rho (up, down):  1.671E-02 0.000E+00
 
     Adding external electric field

     Computed dipole along edir(3) : 
        Dipole                0.0355 Ry au,          0.0903 Debye
        Dipole field          0.0001 Ry au, 
 
        Potential amp.       -0.0062 Ry
        Total length         46.3494 bohr
 

     total cpu time spent up to now is      971.9 secs

     total energy              =   -2970.23675089 Ry
     estimated scf accuracy    <       0.00296948 Ry

     iteration # 51     ecut=    29.40 Ry     beta= 0.05
     Davidson diagonalization with overlap
     ethr =  7.42E-07,  avg # of iterations =  7.1

     negative rho (up, down):  1.727E-02 0.000E+00
 
     Adding external electric field

     Computed dipole along edir(3) : 
        Dipole                0.0428 Ry au,          0.1089 Debye
        Dipole field          0.0001 Ry au, 
 
        Potential amp.       -0.0075 Ry
        Total length         46.3494 bohr
 

     total cpu time spent up to now is      987.6 secs

     total energy              =   -2970.23679661 Ry
     estimated scf accuracy    <       0.00139167 Ry

     iteration # 52     ecut=    29.40 Ry     beta= 0.05
     Davidson diagonalization with overlap
     ethr =  3.48E-07,  avg # of iterations =  6.0

     negative rho (up, down):  1.791E-02 0.000E+00
 
     Adding external electric field

     Computed dipole along edir(3) : 
        Dipole                0.0549 Ry au,          0.1395 Debye
        Dipole field          0.0001 Ry au, 
 
        Potential amp.       -0.0096 Ry
        Total length         46.3494 bohr
 

     total cpu time spent up to now is     1003.4 secs

     total energy              =   -2970.23686255 Ry
     estimated scf accuracy    <       0.00062131 Ry

     iteration # 53     ecut=    29.40 Ry     beta= 0.05
     Davidson diagonalization with overlap
     ethr =  1.55E-07,  avg # of iterations =  5.3

     negative rho (up, down):  1.791E-02 0.000E+00
 
     Adding external electric field

     Computed dipole along edir(3) : 
        Dipole                0.0441 Ry au,          0.1120 Debye
        Dipole field          0.0001 Ry au, 
 
        Potential amp.       -0.0077 Ry
        Total length         46.3494 bohr
 

     total cpu time spent up to now is     1020.9 secs

     total energy              =   -2970.23687535 Ry
     estimated scf accuracy    <       0.00042255 Ry

     iteration # 54     ecut=    29.40 Ry     beta= 0.05
     Davidson diagonalization with overlap
     ethr =  1.06E-07,  avg # of iterations =  6.0

     negative rho (up, down):  1.763E-02 0.000E+00
 
     Adding external electric field

     Computed dipole along edir(3) : 
        Dipole                0.0358 Ry au,          0.0910 Debye
        Dipole field          0.0001 Ry au, 
 
        Potential amp.       -0.0063 Ry
        Total length         46.3494 bohr
 

     total cpu time spent up to now is     1038.2 secs

     total energy              =   -2970.23688316 Ry
     estimated scf accuracy    <       0.00028385 Ry

     iteration # 55     ecut=    29.40 Ry     beta= 0.05
     Davidson diagonalization with overlap
     ethr =  7.10E-08,  avg # of iterations =  5.9

     negative rho (up, down):  1.783E-02 0.000E+00
 
     Adding external electric field

     Computed dipole along edir(3) : 
        Dipole                0.0421 Ry au,          0.1070 Debye
        Dipole field          0.0001 Ry au, 
 
        Potential amp.       -0.0074 Ry
        Total length         46.3494 bohr
 

     total cpu time spent up to now is     1053.7 secs

     total energy              =   -2970.23690731 Ry
     estimated scf accuracy    <       0.00011258 Ry

     iteration # 56     ecut=    29.40 Ry     beta= 0.05
     Davidson diagonalization with overlap
     ethr =  2.81E-08,  avg # of iterations =  6.0

     negative rho (up, down):  1.813E-02 0.000E+00
 
     Adding external electric field

     Computed dipole along edir(3) : 
        Dipole                0.0446 Ry au,          0.1133 Debye
        Dipole field          0.0001 Ry au, 
 
        Potential amp.       -0.0078 Ry
        Total length         46.3494 bohr
 

     total cpu time spent up to now is     1073.1 secs

     total energy              =   -2970.23692825 Ry
     estimated scf accuracy    <       0.00006977 Ry

     iteration # 57     ecut=    29.40 Ry     beta= 0.05
     Davidson diagonalization with overlap
     ethr =  1.74E-08,  avg # of iterations =  4.4

     negative rho (up, down):  1.815E-02 0.000E+00
 
     Adding external electric field

     Computed dipole along edir(3) : 
        Dipole                0.0410 Ry au,          0.1042 Debye
        Dipole field          0.0001 Ry au, 
 
        Potential amp.       -0.0072 Ry
        Total length         46.3494 bohr
 

     total cpu time spent up to now is     1087.6 secs

     total energy              =   -2970.23692700 Ry
     estimated scf accuracy    <       0.00005546 Ry

     iteration # 58     ecut=    29.40 Ry     beta= 0.05
     Davidson diagonalization with overlap
     ethr =  1.39E-08,  avg # of iterations =  5.5

     negative rho (up, down):  1.803E-02 0.000E+00
 
     Adding external electric field

     Computed dipole along edir(3) : 
        Dipole                0.0412 Ry au,          0.1048 Debye
        Dipole field          0.0001 Ry au, 
 
        Potential amp.       -0.0072 Ry
        Total length         46.3494 bohr
 

     total cpu time spent up to now is     1106.0 secs

     total energy              =   -2970.23693797 Ry
     estimated scf accuracy    <       0.00003414 Ry

     iteration # 59     ecut=    29.40 Ry     beta= 0.05
     Davidson diagonalization with overlap
     ethr =  8.53E-09,  avg # of iterations =  4.3

     negative rho (up, down):  1.795E-02 0.000E+00
 
     Adding external electric field

     Computed dipole along edir(3) : 
        Dipole                0.0389 Ry au,          0.0989 Debye
        Dipole field          0.0001 Ry au, 
 
        Potential amp.       -0.0068 Ry
        Total length         46.3494 bohr
 

     total cpu time spent up to now is     1121.2 secs

     total energy              =   -2970.23694157 Ry
     estimated scf accuracy    <       0.00002016 Ry

     iteration # 60     ecut=    29.40 Ry     beta= 0.05
     Davidson diagonalization with overlap
     ethr =  5.04E-09,  avg # of iterations =  6.0

     negative rho (up, down):  1.790E-02 0.000E+00
 
     Adding external electric field

     Computed dipole along edir(3) : 
        Dipole                0.0379 Ry au,          0.0963 Debye
        Dipole field          0.0001 Ry au, 
 
        Potential amp.       -0.0066 Ry
        Total length         46.3494 bohr
 

     total cpu time spent up to now is     1138.0 secs

     total energy              =   -2970.23694699 Ry
     estimated scf accuracy    <       0.00001050 Ry

     iteration # 61     ecut=    29.40 Ry     beta= 0.05
     Davidson diagonalization with overlap
     ethr =  2.62E-09,  avg # of iterations =  6.0

     negative rho (up, down):  1.784E-02 0.000E+00
 
     Adding external electric field

     Computed dipole along edir(3) : 
        Dipole                0.0367 Ry au,          0.0934 Debye
        Dipole field          0.0001 Ry au, 
 
        Potential amp.       -0.0064 Ry
        Total length         46.3494 bohr
 

     total cpu time spent up to now is     1154.7 secs

     total energy              =   -2970.23695194 Ry
     estimated scf accuracy    <       0.00000519 Ry

     iteration # 62     ecut=    29.40 Ry     beta= 0.05
     Davidson diagonalization with overlap
     ethr =  1.30E-09,  avg # of iterations =  7.8

     negative rho (up, down):  1.779E-02 0.000E+00
 
     Adding external electric field

     Computed dipole along edir(3) : 
        Dipole                0.0367 Ry au,          0.0934 Debye
        Dipole field          0.0001 Ry au, 
 
        Potential amp.       -0.0064 Ry
        Total length         46.3494 bohr
 

     total cpu time spent up to now is     1176.8 secs

     total energy              =   -2970.23695486 Ry
     estimated scf accuracy    <       0.00001001 Ry

     iteration # 63     ecut=    29.40 Ry     beta= 0.05
     Davidson diagonalization with overlap
     ethr =  1.30E-09,  avg # of iterations =  5.5

     negative rho (up, down):  1.778E-02 0.000E+00
 
     Adding external electric field

     Computed dipole along edir(3) : 
        Dipole                0.0361 Ry au,          0.0917 Debye
        Dipole field          0.0001 Ry au, 
 
        Potential amp.       -0.0063 Ry
        Total length         46.3494 bohr
 

     total cpu time spent up to now is     1196.8 secs

     total energy              =   -2970.23695961 Ry
     estimated scf accuracy    <       0.00000217 Ry

     iteration # 64     ecut=    29.40 Ry     beta= 0.05
     Davidson diagonalization with overlap
     ethr =  5.42E-10,  avg # of iterations =  2.6

     negative rho (up, down):  1.772E-02 0.000E+00
 
     Adding external electric field

     Computed dipole along edir(3) : 
        Dipole                0.0351 Ry au,          0.0892 Debye
        Dipole field          0.0001 Ry au, 
 
        Potential amp.       -0.0061 Ry
        Total length         46.3494 bohr
 

     total cpu time spent up to now is     1211.2 secs

     total energy              =   -2970.23696300 Ry
     estimated scf accuracy    <       0.00000128 Ry

     iteration # 65     ecut=    29.40 Ry     beta= 0.05
     Davidson diagonalization with overlap
     ethr =  3.19E-10,  avg # of iterations =  5.0

     negative rho (up, down):  1.772E-02 0.000E+00
 
     Adding external electric field

     Computed dipole along edir(3) : 
        Dipole                0.0358 Ry au,          0.0909 Debye
        Dipole field          0.0001 Ry au, 
 
        Potential amp.       -0.0063 Ry
        Total length         46.3494 bohr
 

     total cpu time spent up to now is     1231.6 secs

     total energy              =   -2970.23696586 Ry
     estimated scf accuracy    <       0.00000137 Ry

     iteration # 66     ecut=    29.40 Ry     beta= 0.05
     Davidson diagonalization with overlap
     ethr =  3.19E-10,  avg # of iterations =  5.0

     negative rho (up, down):  1.772E-02 0.000E+00
 
     Adding external electric field

     Computed dipole along edir(3) : 
        Dipole                0.0355 Ry au,          0.0903 Debye
        Dipole field          0.0001 Ry au, 
 
        Potential amp.       -0.0062 Ry
        Total length         46.3494 bohr
 

     total cpu time spent up to now is     1250.2 secs

     total energy              =   -2970.23696877 Ry
     estimated scf accuracy    <       0.00000056 Ry

     iteration # 67     ecut=    29.40 Ry     beta= 0.05
     Davidson diagonalization with overlap
     ethr =  1.41E-10,  avg # of iterations =  4.8

     negative rho (up, down):  1.770E-02 0.000E+00
 
     Adding external electric field

     Computed dipole along edir(3) : 
        Dipole                0.0354 Ry au,          0.0899 Debye
        Dipole field          0.0001 Ry au, 
 
        Potential amp.       -0.0062 Ry
        Total length         46.3494 bohr
 

     total cpu time spent up to now is     1266.2 secs

     total energy              =   -2970.23697126 Ry
     estimated scf accuracy    <       0.00000025 Ry

     iteration # 68     ecut=    29.40 Ry     beta= 0.05
     Davidson diagonalization with overlap
     ethr =  6.33E-11,  avg # of iterations =  5.6

     negative rho (up, down):  1.769E-02 0.000E+00
 
     Adding external electric field

     Computed dipole along edir(3) : 
        Dipole                0.0352 Ry au,          0.0896 Debye
        Dipole field          0.0001 Ry au, 
 
        Potential amp.       -0.0062 Ry
        Total length         46.3494 bohr
 

     total cpu time spent up to now is     1286.0 secs

     total energy              =   -2970.23697348 Ry
     estimated scf accuracy    <       0.00000025 Ry

     iteration # 69     ecut=    29.40 Ry     beta= 0.05
     Davidson diagonalization with overlap
     ethr =  6.33E-11,  avg # of iterations =  2.0

     negative rho (up, down):  1.768E-02 0.000E+00
 
     Adding external electric field

     Computed dipole along edir(3) : 
        Dipole                0.0350 Ry au,          0.0890 Debye
        Dipole field          0.0001 Ry au, 
 
        Potential amp.       -0.0061 Ry
        Total length         46.3494 bohr
 

     total cpu time spent up to now is     1299.6 secs

     total energy              =   -2970.23697545 Ry
     estimated scf accuracy    <       0.00000017 Ry

     iteration # 70     ecut=    29.40 Ry     beta= 0.05
     Davidson diagonalization with overlap
     ethr =  4.15E-11,  avg # of iterations =  3.6

     negative rho (up, down):  1.768E-02 0.000E+00
 
     Adding external electric field

     Computed dipole along edir(3) : 
        Dipole                0.0350 Ry au,          0.0889 Debye
        Dipole field          0.0001 Ry au, 
 
        Potential amp.       -0.0061 Ry
        Total length         46.3494 bohr
 

     total cpu time spent up to now is     1313.8 secs

     total energy              =   -2970.23697722 Ry
     estimated scf accuracy    <       0.00000010 Ry

     iteration # 71     ecut=    29.40 Ry     beta= 0.05
     Davidson diagonalization with overlap
     ethr =  2.59E-11,  avg # of iterations =  5.9

     negative rho (up, down):  1.768E-02 0.000E+00
 
     Adding external electric field

     Computed dipole along edir(3) : 
        Dipole                0.0349 Ry au,          0.0887 Debye
        Dipole field          0.0001 Ry au, 
 
        Potential amp.       -0.0061 Ry
        Total length         46.3494 bohr
 

     total cpu time spent up to now is     1334.4 secs

     total energy              =   -2970.23697881 Ry
     estimated scf accuracy    <       0.00000008 Ry

     iteration # 72     ecut=    29.40 Ry     beta= 0.05
     Davidson diagonalization with overlap
     ethr =  1.88E-11,  avg # of iterations =  1.2

     negative rho (up, down):  1.769E-02 0.000E+00
 
     Adding external electric field

     Computed dipole along edir(3) : 
        Dipole                0.0350 Ry au,          0.0889 Debye
        Dipole field          0.0001 Ry au, 
 
        Potential amp.       -0.0061 Ry
        Total length         46.3494 bohr
 

     total cpu time spent up to now is     1347.4 secs

     total energy              =   -2970.23698023 Ry
     estimated scf accuracy    <       0.00000008 Ry

     iteration # 73     ecut=    29.40 Ry     beta= 0.05
     Davidson diagonalization with overlap
     ethr =  1.88E-11,  avg # of iterations =  2.3

     negative rho (up, down):  1.770E-02 0.000E+00
 
     Adding external electric field

     Computed dipole along edir(3) : 
        Dipole                0.0350 Ry au,          0.0889 Debye
        Dipole field          0.0001 Ry au, 
 
        Potential amp.       -0.0061 Ry
        Total length         46.3494 bohr
 

     total cpu time spent up to now is     1361.2 secs

     total energy              =   -2970.23698151 Ry
     estimated scf accuracy    <       0.00000009 Ry

     iteration # 74     ecut=    29.40 Ry     beta= 0.05
     Davidson diagonalization with overlap
     ethr =  1.88E-11,  avg # of iterations =  1.1

     negative rho (up, down):  1.770E-02 0.000E+00
 
     Adding external electric field

     Computed dipole along edir(3) : 
        Dipole                0.0350 Ry au,          0.0889 Debye
        Dipole field          0.0001 Ry au, 
 
        Potential amp.       -0.0061 Ry
        Total length         46.3494 bohr
 

     total cpu time spent up to now is     1374.0 secs

     total energy              =   -2970.23698266 Ry
     estimated scf accuracy    <       0.00000009 Ry

     iteration # 75     ecut=    29.40 Ry     beta= 0.05
     Davidson diagonalization with overlap
     ethr =  1.88E-11,  avg # of iterations =  1.1

     negative rho (up, down):  1.771E-02 0.000E+00
 
     Adding external electric field

     Computed dipole along edir(3) : 
        Dipole                0.0351 Ry au,          0.0892 Debye
        Dipole field          0.0001 Ry au, 
 
        Potential amp.       -0.0061 Ry
        Total length         46.3494 bohr
 

     total cpu time spent up to now is     1386.8 secs

     total energy              =   -2970.23698370 Ry
     estimated scf accuracy    <       0.00000012 Ry

     iteration # 76     ecut=    29.40 Ry     beta= 0.05
     Davidson diagonalization with overlap
     ethr =  1.88E-11,  avg # of iterations =  2.9

     negative rho (up, down):  1.771E-02 0.000E+00
 
     Adding external electric field

     Computed dipole along edir(3) : 
        Dipole                0.0351 Ry au,          0.0891 Debye
        Dipole field          0.0001 Ry au, 
 
        Potential amp.       -0.0061 Ry
        Total length         46.3494 bohr
 

     total cpu time spent up to now is     1401.3 secs

     total energy              =   -2970.23698464 Ry
     estimated scf accuracy    <       0.00000011 Ry

     iteration # 77     ecut=    29.40 Ry     beta= 0.05
     Davidson diagonalization with overlap
     ethr =  1.88E-11,  avg # of iterations =  2.6

     negative rho (up, down):  1.778E-02 0.000E+00
 
     Adding external electric field

     Computed dipole along edir(3) : 
        Dipole                0.0346 Ry au,          0.0880 Debye
        Dipole field          0.0001 Ry au, 
 
        Potential amp.       -0.0061 Ry
        Total length         46.3494 bohr
 

     total cpu time spent up to now is     1415.6 secs

     End of self-consistent calculation

          k = 0.0000 0.0000 0.0000 ( 18029 PWs)   bands (ev):

   -56.8996 -56.8660 -56.1330 -56.0972 -55.8751 -55.8137 -55.7059 -55.5587
   -55.5023 -55.4937 -55.4819 -55.4684 -55.4420 -55.4288 -55.2439 -55.2288
   -33.3251 -33.1789 -33.1508 -33.0721 -32.9813 -32.9514 -32.6161 -32.3543
   -32.3530 -32.3239 -32.2745 -32.2723 -32.2411 -32.1063 -32.0949 -32.0420
   -32.0398 -32.0379 -32.0178 -31.9767 -31.9696 -31.9284 -31.9271 -31.9000
   -31.8872 -31.8548 -31.8462 -31.8266 -31.8219 -31.7670 -31.7119 -31.7105
   -31.6982 -31.6927 -31.6823 -31.6764 -31.6537 -31.6471 -31.6336 -31.6278
   -31.6203 -31.5160 -31.4943 -31.4811 -31.4728 -31.4682 -31.4380 -31.4340
   -20.3921 -17.0454 -16.5578 -16.5145 -16.2440 -16.2171 -16.1415 -16.1274
   -16.1218 -15.8614 -15.8353 -15.8114 -15.7443 -15.6945 -15.5208 -15.4242
   -15.3584 -15.2663 -15.1993 -15.1793 -15.1750 -15.1459 -15.1244 -15.1206
   -15.0334 -15.0258 -14.9151 -14.8180 -14.7730 -14.5228 -14.4789 -13.9998
   -13.8915 -13.4277  -5.6160  -4.6083  -4.5520  -4.4047  -4.1811  -4.0436
    -3.8639  -3.6693  -3.6167  -3.4616  -3.4500  -3.3895  -3.3452  -3.3283
    -3.2362  -3.1423  -3.0598  -3.0595  -3.0352  -2.9667  -2.9402  -2.7819
    -2.7797  -2.7689  -2.6455  -2.5944  -2.5402  -2.4931  -2.4813  -2.4356
    -2.4119  -2.4005  -2.3525  -2.3035  -2.2967  -2.1649  -2.1228  -2.0984
    -2.0457  -1.9877  -1.9713  -1.8965  -1.8787  -1.8553  -1.6873  -1.6206
    -1.5794  -1.5280  -1.4979  -1.4721  -1.3330  -1.3015  -1.2036  -1.2007
    -1.1625  -1.1133  -1.0560  -1.0357  -0.9667  -0.8760  -0.8616  -0.8497
    -0.7772  -0.6981  -0.6199  -0.5767  -0.5100  -0.4996  -0.4839  -0.4505
    -0.4398  -0.3478  -0.3009  -0.2532  -0.1667  -0.1389  -0.0127  -0.0037
     0.0624   0.1111   0.1298   0.1624   0.1753   0.2055   0.2754   0.3425
     0.3686   0.3960   0.5196   0.5279   0.5788   0.5938   0.7097   0.7329
     0.7424   0.7911   0.8570   0.9307   1.0555   1.0966   1.3633   1.9246
     2.3794   2.5390   2.8190   2.9054   3.2140   3.3616   3.3671   3.3766
     3.5523   3.6743

          k = 0.0000 0.0419 0.0000 ( 17933 PWs)   bands (ev):

   -56.8946 -56.8708 -56.1285 -56.1016 -55.8726 -55.8160 -55.7054 -55.5567
   -55.4973 -55.4940 -55.4838 -55.4733 -55.4413 -55.4280 -55.2445 -55.2294
   -33.2717 -33.1746 -33.1546 -33.0588 -33.0073 -32.9945 -32.5639 -32.3413
   -32.3161 -32.3084 -32.3014 -32.2794 -32.2731 -32.1034 -32.0879 -32.0406
   -32.0317 -32.0255 -32.0151 -31.9867 -31.9645 -31.9233 -31.8961 -31.8625
   -31.8431 -31.8425 -31.8352 -31.8252 -31.8147 -31.7643 -31.7234 -31.7140
   -31.7117 -31.7100 -31.6985 -31.6860 -31.6763 -31.6467 -31.6397 -31.6310
   -31.6183 -31.5726 -31.5260 -31.4914 -31.4882 -31.4796 -31.4544 -31.4375
   -20.3919 -16.9245 -16.5115 -16.4477 -16.3056 -16.1842 -16.1328 -16.1050
   -16.0278 -15.8952 -15.7777 -15.7686 -15.7417 -15.6575 -15.5357 -15.4658
   -15.3670 -15.2919 -15.2514 -15.2053 -15.2007 -15.1588 -15.1400 -15.0815
   -15.0724 -14.9715 -14.9232 -14.8682 -14.8306 -14.6112 -14.5392 -14.0079
   -13.9331 -13.4308  -5.6172  -4.5656  -4.4265  -4.3809  -4.1755  -3.8670
    -3.7188  -3.6037  -3.4571  -3.4209  -3.3801  -3.3690  -3.3463  -3.2750
    -3.1620  -3.1288  -3.0462  -3.0348  -3.0118  -2.9464  -2.9233  -2.8996
    -2.8029  -2.7348  -2.7104  -2.6970  -2.6145  -2.5861  -2.5687  -2.5376
    -2.4926  -2.4446  -2.3864  -2.3069  -2.2734  -2.1950  -2.1314  -2.0995
    -2.0458  -1.9837  -1.8600  -1.8440  -1.8136  -1.7199  -1.6434  -1.6198
    -1.5496  -1.4918  -1.4390  -1.3828  -1.2892  -1.2852  -1.2467  -1.1806
    -1.1484  -1.1209  -1.0696  -0.9501  -0.9382  -0.8701  -0.7765  -0.7659
    -0.7112  -0.6697  -0.6595  -0.6234  -0.5585  -0.5146  -0.4807  -0.4437
    -0.4367  -0.4011  -0.3713  -0.3180  -0.2694  -0.2158  -0.1273  -0.1122
    -0.0098   0.0156   0.0359   0.1055   0.1297   0.1669   0.1870   0.2298
     0.2552   0.3179   0.3450   0.4466   0.4695   0.4844   0.6382   0.7020
     0.7474   0.7694   0.8280   0.9098   1.0047   1.0081   1.2726   1.8614
     2.6372   2.6544   2.8272   3.1175   3.1956   3.2437   3.3294   3.4269
     3.5783   3.6665

          k = 0.0000-0.0839 0.0000 ( 17884 PWs)   bands (ev):

   -56.8832 -56.8822 -56.1213 -56.1087 -55.8700 -55.8187 -55.7050 -55.5546
   -55.4943 -55.4859 -55.4858 -55.4846 -55.4406 -55.4272 -55.2452 -55.2300
   -33.1650 -33.1640 -33.1414 -33.1403 -33.0269 -33.0264 -32.4415 -32.4310
   -32.3155 -32.3021 -32.3016 -32.2925 -32.1908 -32.1463 -32.0999 -32.0783
   -32.0397 -32.0358 -31.9946 -31.9532 -31.9188 -31.8802 -31.8614 -31.8341
   -31.8332 -31.8223 -31.8166 -31.8064 -31.7984 -31.7686 -31.7577 -31.7316
   -31.7181 -31.7082 -31.7065 -31.6839 -31.6794 -31.6694 -31.6680 -31.6465
   -31.6290 -31.6180 -31.5817 -31.5339 -31.4941 -31.4796 -31.4630 -31.4369
   -20.3917 -16.6257 -16.6234 -16.5078 -16.2239 -16.2117 -16.0398 -16.0397
   -15.9612 -15.9317 -15.8268 -15.7333 -15.6495 -15.6401 -15.4993 -15.4907
   -15.4207 -15.3537 -15.3430 -15.3229 -15.2193 -15.1954 -15.0321 -15.0142
   -14.9860 -14.9658 -14.9516 -14.9190 -14.8851 -14.7498 -14.6260 -13.9961
   -13.9955 -13.4338  -5.6183  -4.5754  -4.3647  -4.1682  -3.9735  -3.9733
    -3.4843  -3.4751  -3.4726  -3.4601  -3.4193  -3.3885  -3.2105  -3.1519
    -3.1317  -3.0944  -3.0339  -3.0001  -2.9897  -2.9649  -2.9521  -2.8950
    -2.8852  -2.7911  -2.7083  -2.7028  -2.6851  -2.6055  -2.5400  -2.4858
    -2.4799  -2.4400  -2.3388  -2.3171  -2.2541  -2.2236  -2.2176  -2.1675
    -2.1474  -1.9038  -1.8584  -1.7723  -1.7280  -1.6848  -1.6315  -1.5387
    -1.5001  -1.4149  -1.3751  -1.3300  -1.3215  -1.2508  -1.2335  -1.2236
    -1.1343  -1.0399  -1.0327  -1.0142  -1.0075  -0.9020  -0.8734  -0.8424
    -0.7580  -0.7463  -0.7332  -0.6786  -0.6501  -0.5733  -0.4789  -0.4453
    -0.4279  -0.4119  -0.3679  -0.3040  -0.2566  -0.2073  -0.1615  -0.1377
    -0.1083  -0.0873  -0.0177   0.0301   0.0448   0.0859   0.1096   0.1465
     0.1631   0.2077   0.2204   0.2701   0.3893   0.4211   0.5790   0.6260
     0.7567   0.8973   0.9057   0.9122   0.9576   0.9965   1.0882   1.8515
     2.8899   2.8918   3.0147   3.0157   3.0916   3.0922   3.3944   3.4055
     3.5823   3.6545

          k = 0.0380 0.0000 0.0000 ( 17913 PWs)   bands (ev):

   -56.8995 -56.8659 -56.1329 -56.0971 -55.8750 -55.8136 -55.7057 -55.5586
   -55.5022 -55.4936 -55.4818 -55.4683 -55.4419 -55.4287 -55.2438 -55.2287
   -33.3257 -33.1787 -33.1507 -33.0701 -32.9810 -32.9511 -32.6161 -32.3681
   -32.3527 -32.3131 -32.2740 -32.2575 -32.2408 -32.1065 -32.1051 -32.0424
   -32.0416 -32.0395 -32.0180 -31.9765 -31.9693 -31.9288 -31.9249 -31.8989
   -31.8868 -31.8552 -31.8486 -31.8201 -31.8168 -31.7668 -31.7103 -31.7054
   -31.6965 -31.6923 -31.6825 -31.6764 -31.6541 -31.6523 -31.6384 -31.6276
   -31.6200 -31.5158 -31.4942 -31.4818 -31.4726 -31.4681 -31.4396 -31.4338
   -20.3920 -16.9448 -16.5128 -16.4812 -16.4014 -16.2535 -16.1381 -16.0852
   -15.9594 -15.9567 -15.7713 -15.7631 -15.7358 -15.7184 -15.6848 -15.3793
   -15.3346 -15.3045 -15.2667 -15.2555 -15.2453 -15.1792 -15.1505 -15.0623
   -14.9907 -14.9203 -14.8916 -14.8544 -14.8247 -14.5204 -14.4769 -13.9972
   -13.8912 -13.4271  -5.6194  -4.5444  -4.3832  -4.3242  -4.1798  -3.9373
    -3.7703  -3.7043  -3.6300  -3.4786  -3.3754  -3.3304  -3.3052  -3.2664
    -3.1681  -3.0992  -3.0923  -3.0212  -3.0005  -2.9348  -2.8910  -2.8654
    -2.8102  -2.7760  -2.7450  -2.7300  -2.5464  -2.4992  -2.4204  -2.3568
    -2.3299  -2.2828  -2.2549  -2.2337  -2.1703  -2.1395  -2.0988  -2.0172
    -1.9985  -1.9821  -1.9548  -1.8763  -1.8252  -1.8012  -1.7739  -1.7410
    -1.6527  -1.5427  -1.4811  -1.4181  -1.3415  -1.2836  -1.2492  -1.2411
    -1.1404  -1.0943  -1.0835  -1.0594  -1.0448  -0.9791  -0.9575  -0.8892
    -0.8660  -0.8218  -0.7339  -0.6750  -0.6332  -0.5210  -0.4661  -0.4560
    -0.3616  -0.3313  -0.3129  -0.2490  -0.2219  -0.1269  -0.0966  -0.0069
     0.0185   0.0553   0.0868   0.1039   0.1448   0.1745   0.1918   0.2746
     0.3217   0.3669   0.4066   0.5004   0.5315   0.6056   0.6397   0.6704
     0.7088   0.7547   0.7855   0.8413   0.9534   1.0081   1.2381   1.9303
     2.5123   2.5376   2.8183   2.9894   3.0110   3.3824   3.4366   3.4513
     3.4621   3.7334

          k = 0.0380 0.0419 0.0000 ( 17878 PWs)   bands (ev):

   -56.8945 -56.8708 -56.1284 -56.1016 -55.8726 -55.8160 -55.7053 -55.5566
   -55.4972 -55.4939 -55.4838 -55.4733 -55.4413 -55.4279 -55.2445 -55.2293
   -33.2723 -33.1744 -33.1546 -33.0572 -33.0073 -32.9942 -32.5640 -32.3411
   -32.3258 -32.3091 -32.3066 -32.2732 -32.2531 -32.1033 -32.0968 -32.0405
   -32.0307 -32.0275 -32.0164 -31.9890 -31.9645 -31.9209 -31.8963 -31.8623
   -31.8443 -31.8438 -31.8352 -31.8243 -31.8056 -31.7642 -31.7234 -31.7134
   -31.7088 -31.7059 -31.6983 -31.6860 -31.6763 -31.6515 -31.6397 -31.6362
   -31.6181 -31.5725 -31.5258 -31.4913 -31.4881 -31.4808 -31.4543 -31.4394
   -20.3918 -16.8297 -16.5091 -16.3858 -16.3836 -16.1915 -16.1838 -16.0152
   -16.0114 -15.9333 -15.7730 -15.7208 -15.6855 -15.6615 -15.6472 -15.4026
   -15.3519 -15.3375 -15.3046 -15.2570 -15.2452 -15.1939 -15.1517 -15.0569
   -15.0176 -14.9946 -14.9163 -14.8891 -14.8649 -14.6093 -14.5382 -14.0060
   -13.9333 -13.4305  -5.6198  -4.5576  -4.3653  -4.1737  -4.1466  -3.7812
    -3.6055  -3.5513  -3.5254  -3.3581  -3.2744  -3.2611  -3.2292  -3.1982
    -3.1571  -3.0957  -3.0333  -3.0219  -3.0000  -2.9111  -2.8715  -2.8324
    -2.7824  -2.7633  -2.7010  -2.6861  -2.6183  -2.5928  -2.5660  -2.4724
    -2.4514  -2.4019  -2.3560  -2.3127  -2.2408  -2.1707  -2.1058  -2.0638
    -2.0116  -1.9144  -1.8562  -1.8394  -1.7998  -1.7347  -1.7097  -1.6440
    -1.6206  -1.5402  -1.4693  -1.4269  -1.3959  -1.3568  -1.2641  -1.2319
    -1.1524  -1.1314  -1.0888  -1.0213  -0.9669  -0.9105  -0.9028  -0.8726
    -0.8219  -0.7819  -0.7603  -0.7075  -0.6825  -0.6455  -0.5557  -0.5307
    -0.4724  -0.4547  -0.3825  -0.3265  -0.3061  -0.2501  -0.1953  -0.1589
    -0.1183  -0.0323  -0.0054   0.0677   0.0904   0.1255   0.1466   0.2101
     0.2361   0.2898   0.4003   0.4616   0.4875   0.5781   0.6392   0.6942
     0.7263   0.7707   0.7940   0.9149   0.9338   0.9842   1.1834   1.8757
     2.6287   2.7750   2.8853   3.0595   3.1574   3.2984   3.3653   3.4829
     3.5998   3.7625

          k = 0.0380-0.0839 0.0000 ( 17916 PWs)   bands (ev):

   -56.8832 -56.8822 -56.1214 -56.1087 -55.8700 -55.8187 -55.7050 -55.5546
   -55.4943 -55.4859 -55.4858 -55.4847 -55.4406 -55.4273 -55.2452 -55.2300
   -33.1650 -33.1640 -33.1420 -33.1409 -33.0262 -33.0257 -32.4417 -32.4312
   -32.3155 -32.3023 -32.3016 -32.2933 -32.1842 -32.1420 -32.0999 -32.0839
   -32.0408 -32.0396 -31.9951 -31.9540 -31.9172 -31.8828 -31.8616 -31.8348
   -31.8338 -31.8250 -31.8159 -31.8101 -31.7880 -31.7719 -31.7579 -31.7265
   -31.7104 -31.7082 -31.7065 -31.6835 -31.6797 -31.6694 -31.6680 -31.6512
   -31.6350 -31.6179 -31.5810 -31.5334 -31.4942 -31.4814 -31.4630 -31.4394
   -20.3916 -16.5578 -16.5554 -16.5065 -16.2303 -16.2239 -16.1077 -16.1018
   -15.9265 -15.8972 -15.7938 -15.7043 -15.6332 -15.6066 -15.4557 -15.4465
   -15.4236 -15.4117 -15.3906 -15.3345 -15.2193 -15.1832 -15.1168 -15.0622
   -15.0398 -15.0244 -14.9653 -14.9072 -14.8751 -14.7382 -14.6223 -13.9959
   -13.9953 -13.4338  -5.6182  -4.5659  -4.3616  -4.1668  -3.7627  -3.7614
    -3.4791  -3.4562  -3.3755  -3.3698  -3.2397  -3.2034  -3.1948  -3.1272
    -3.1103  -3.0512  -2.9974  -2.9424  -2.9031  -2.8609  -2.8313  -2.8019
    -2.7712  -2.7312  -2.6970  -2.6643  -2.6225  -2.5715  -2.4789  -2.4634
    -2.4355  -2.4180  -2.3879  -2.3238  -2.3038  -2.2451  -2.2224  -2.1439
    -2.0878  -1.9576  -1.8549  -1.8191  -1.8044  -1.7398  -1.6654  -1.6151
    -1.5592  -1.5148  -1.4687  -1.4534  -1.4402  -1.3977  -1.3723  -1.3319
    -1.3001  -1.2396  -1.1898  -1.1575  -1.0560  -0.9735  -0.9409  -0.8821
    -0.8594  -0.8414  -0.7820  -0.7229  -0.6801  -0.6596  -0.6122  -0.5390
    -0.4225  -0.4106  -0.3836  -0.3636  -0.3561  -0.3326  -0.2950  -0.2450
    -0.1703  -0.1384  -0.0715   0.0165   0.0421   0.1118   0.1425   0.1763
     0.2034   0.2442   0.3055   0.4205   0.4755   0.5552   0.6335   0.6601
     0.7057   0.8978   0.9028   0.9129   0.9430   0.9876   1.0309   1.8697
     2.8970   2.8993   3.0491   3.0510   3.2601   3.2608   3.3666   3.3779
     3.6157   3.6639

          k = 0.0380-0.0419 0.0000 ( 17876 PWs)   bands (ev):

   -56.8945 -56.8708 -56.1284 -56.1016 -55.8726 -55.8160 -55.7053 -55.5566
   -55.4972 -55.4939 -55.4838 -55.4733 -55.4412 -55.4279 -55.2445 -55.2293
   -33.2723 -33.1744 -33.1546 -33.0572 -33.0073 -32.9942 -32.5640 -32.3410
   -32.3258 -32.3091 -32.3065 -32.2732 -32.2530 -32.1033 -32.0967 -32.0405
   -32.0309 -32.0273 -32.0161 -31.9890 -31.9648 -31.9212 -31.8966 -31.8619
   -31.8443 -31.8439 -31.8352 -31.8243 -31.8057 -31.7642 -31.7256 -31.7134
   -31.7087 -31.7035 -31.6983 -31.6858 -31.6764 -31.6516 -31.6397 -31.6361
   -31.6182 -31.5725 -31.5257 -31.4914 -31.4881 -31.4807 -31.4543 -31.4395
   -20.3918 -16.8295 -16.5091 -16.3857 -16.3843 -16.1912 -16.1838 -16.0147
   -16.0118 -15.9339 -15.7732 -15.7209 -15.6867 -15.6638 -15.6476 -15.3983
   -15.3447 -15.3356 -15.3062 -15.2665 -15.2360 -15.1979 -15.1434 -15.0680
   -15.0178 -14.9903 -14.9193 -14.8942 -14.8632 -14.6075 -14.5377 -14.0060
   -13.9333 -13.4306  -5.6179  -4.5549  -4.3753  -4.1730  -4.1460  -3.7814
    -3.6064  -3.5506  -3.5256  -3.3588  -3.2748  -3.2617  -3.2240  -3.1978
    -3.1564  -3.0964  -3.0388  -3.0260  -3.0019  -2.9134  -2.8700  -2.8337
    -2.7842  -2.7578  -2.6995  -2.6854  -2.6184  -2.5747  -2.5524  -2.4776
    -2.4527  -2.3971  -2.3370  -2.3113  -2.2347  -2.1758  -2.0984  -2.0770
    -2.0216  -1.9228  -1.8555  -1.8394  -1.8005  -1.7610  -1.7107  -1.6506
    -1.6134  -1.5385  -1.4684  -1.4262  -1.3972  -1.3609  -1.2734  -1.2261
    -1.1465  -1.1398  -1.0849  -1.0268  -0.9491  -0.9403  -0.9062  -0.8628
    -0.8223  -0.7928  -0.7330  -0.7108  -0.6862  -0.6503  -0.5775  -0.5234
    -0.4810  -0.4315  -0.3925  -0.3575  -0.3311  -0.2326  -0.1869  -0.1338
    -0.0767  -0.0314   0.0218   0.0663   0.0995   0.1202   0.1662   0.2078
     0.2348   0.2785   0.3933   0.4230   0.4867   0.5790   0.6310   0.6868
     0.7333   0.7790   0.8058   0.9151   0.9337   0.9843   1.1817   1.8726
     2.6290   2.7752   2.8854   3.0585   3.1572   3.2992   3.3649   3.4829
     3.5988   3.7656

          k =-0.0760-0.0000 0.0000 ( 17886 PWs)   bands (ev):

   -56.8994 -56.8659 -56.1328 -56.0971 -55.8750 -55.8136 -55.7057 -55.5585
   -55.5022 -55.4935 -55.4818 -55.4683 -55.4419 -55.4287 -55.2438 -55.2287
   -33.3264 -33.1786 -33.1506 -33.0682 -32.9812 -32.9511 -32.6163 -32.3788
   -32.3526 -32.3012 -32.2738 -32.2460 -32.2408 -32.1175 -32.1059 -32.0445
   -32.0416 -32.0412 -32.0186 -31.9764 -31.9692 -31.9292 -31.9233 -31.8976
   -31.8866 -31.8556 -31.8509 -31.8190 -31.8063 -31.7666 -31.7102 -31.6975
   -31.6950 -31.6912 -31.6831 -31.6766 -31.6607 -31.6556 -31.6437 -31.6275
   -31.6199 -31.5159 -31.4942 -31.4828 -31.4726 -31.4681 -31.4414 -31.4338
   -20.3919 -16.7964 -16.5092 -16.4843 -16.3827 -16.3778 -16.1358 -16.0872
   -15.9098 -15.8740 -15.8370 -15.7649 -15.7368 -15.7011 -15.6070 -15.4784
   -15.4091 -15.3907 -15.3199 -15.2840 -15.2026 -15.1617 -15.1437 -15.1178
   -14.9702 -14.9084 -14.8711 -14.8637 -14.8087 -14.5187 -14.4762 -13.9947
   -13.8909 -13.4267  -5.6224  -4.5382  -4.3634  -4.1777  -3.9334  -3.9297
    -3.9239  -3.5816  -3.5210  -3.4853  -3.3405  -3.3077  -3.2277  -3.1630
    -3.1438  -3.0352  -3.0095  -2.9801  -2.9620  -2.8421  -2.8364  -2.7765
    -2.7714  -2.7513  -2.7074  -2.6681  -2.6017  -2.5977  -2.4988  -2.2993
    -2.2803  -2.2597  -2.2408  -2.2008  -2.1820  -2.1033  -2.0678  -2.0543
    -2.0265  -1.9878  -1.9635  -1.9247  -1.9084  -1.8155  -1.7437  -1.6838
    -1.6371  -1.5843  -1.5304  -1.4461  -1.3796  -1.3542  -1.2722  -1.2245
    -1.1832  -1.1258  -1.0834  -1.0623  -1.0261  -1.0073  -0.9749  -0.9631
    -0.8987  -0.8755  -0.8257  -0.7954  -0.7311  -0.7098  -0.5378  -0.4477
    -0.4349  -0.3376  -0.3189  -0.2954  -0.2522  -0.2327  -0.1251  -0.1102
    -0.0473   0.0238   0.1110   0.1510   0.1722   0.2038   0.2315   0.2404
     0.2617   0.3254   0.4050   0.4631   0.5353   0.5516   0.6023   0.6172
     0.6672   0.7159   0.7459   0.8406   0.9405   0.9432   1.0069   1.9357
     2.4884   2.6109   2.7568   2.8177   3.0895   3.2365   3.3948   3.5631
     3.6333   3.6982

          k =-0.0760 0.0419 0.0000 ( 17914 PWs)   bands (ev):

   -56.8945 -56.8708 -56.1284 -56.1016 -55.8726 -55.8160 -55.7053 -55.5566
   -55.4972 -55.4939 -55.4838 -55.4733 -55.4413 -55.4280 -55.2445 -55.2294
   -33.2731 -33.1744 -33.1547 -33.0559 -33.0075 -32.9942 -32.5643 -32.3411
   -32.3388 -32.3084 -32.2987 -32.2733 -32.2379 -32.1066 -32.1032 -32.0405
   -32.0301 -32.0297 -32.0177 -31.9915 -31.9650 -31.9191 -31.8969 -31.8616
   -31.8464 -31.8446 -31.8351 -31.8237 -31.7961 -31.7642 -31.7259 -31.7153
   -31.7057 -31.6984 -31.6963 -31.6859 -31.6765 -31.6584 -31.6420 -31.6398
   -31.6181 -31.5726 -31.5257 -31.4915 -31.4882 -31.4821 -31.4543 -31.4416
   -20.3917 -16.6837 -16.5071 -16.4383 -16.3371 -16.2991 -16.1904 -16.0329
   -15.9562 -15.8473 -15.7626 -15.7535 -15.7176 -15.6600 -15.5168 -15.4668
   -15.4034 -15.3824 -15.3297 -15.2724 -15.2649 -15.2198 -15.1509 -15.1069
   -15.0374 -14.9821 -14.9092 -14.8875 -14.8713 -14.6062 -14.5380 -14.0042
   -13.9336 -13.4304  -5.6202  -4.5483  -4.3597  -4.1713  -3.7774  -3.7252
    -3.6233  -3.4552  -3.4049  -3.3797  -3.2442  -3.2214  -3.2108  -3.1522
    -3.1202  -3.0163  -2.9443  -2.9292  -2.8645  -2.8209  -2.8021  -2.7394
    -2.7296  -2.7199  -2.6839  -2.6487  -2.6240  -2.5848  -2.4895  -2.4654
    -2.4030  -2.3537  -2.3033  -2.2923  -2.2319  -2.1949  -2.1263  -2.0440
    -1.9938  -1.9723  -1.9392  -1.8701  -1.8604  -1.8366  -1.7271  -1.6819
    -1.6083  -1.5297  -1.5152  -1.4888  -1.4509  -1.3542  -1.3363  -1.3079
    -1.2461  -1.2160  -1.1832  -1.1239  -1.0584  -1.0193  -0.9918  -0.9383
    -0.8907  -0.8582  -0.8426  -0.7766  -0.7355  -0.7203  -0.7179  -0.6726
    -0.6137  -0.5852  -0.4733  -0.4250  -0.3806  -0.3183  -0.2152  -0.1929
    -0.0738  -0.0472  -0.0115   0.0950   0.1308   0.1451   0.1664   0.2257
     0.2525   0.2953   0.3999   0.4392   0.5565   0.6057   0.6801   0.7095
     0.7347   0.7851   0.8650   0.8716   0.9132   0.9824   0.9976   1.8852
     2.6424   2.8048   2.8445   2.9264   3.2584   3.3750   3.3971   3.4335
     3.7132   3.7239

          k =-0.0760-0.0839 0.0000 ( 17948 PWs)   bands (ev):

   -56.8832 -56.8823 -56.1214 -56.1087 -55.8700 -55.8187 -55.7050 -55.5546
   -55.4943 -55.4859 -55.4858 -55.4847 -55.4407 -55.4273 -55.2453 -55.2300
   -33.1651 -33.1641 -33.1426 -33.1415 -33.0255 -33.0249 -32.4420 -32.4315
   -32.3155 -32.3025 -32.3019 -32.2937 -32.1771 -32.1366 -32.1000 -32.0907
   -32.0460 -32.0398 -31.9955 -31.9549 -31.9153 -31.8853 -31.8617 -31.8354
   -31.8345 -31.8261 -31.8152 -31.8131 -31.7807 -31.7741 -31.7581 -31.7212
   -31.7082 -31.7065 -31.7014 -31.6831 -31.6800 -31.6694 -31.6680 -31.6573
   -31.6414 -31.6178 -31.5805 -31.5331 -31.4943 -31.4832 -31.4631 -31.4418
   -20.3916 -16.5052 -16.4173 -16.4141 -16.3493 -16.3474 -16.1226 -16.1166
   -15.8973 -15.8649 -15.7568 -15.6656 -15.5978 -15.5450 -15.5401 -15.4991
   -15.4038 -15.3888 -15.3242 -15.2841 -15.2691 -15.2038 -15.1803 -15.1380
   -15.1305 -15.0956 -14.9551 -14.8982 -14.8724 -14.7304 -14.6193 -13.9958
   -13.9952 -13.4339  -5.6179  -4.5571  -4.3574  -4.1662  -3.5004  -3.4814
    -3.4704  -3.4639  -3.2362  -3.2215  -3.2072  -3.1064  -3.0845  -3.0538
    -2.9918  -2.9891  -2.8868  -2.8314  -2.8012  -2.7929  -2.7770  -2.7211
    -2.7187  -2.6982  -2.6513  -2.5583  -2.5490  -2.5174  -2.4953  -2.4434
    -2.3634  -2.3310  -2.3110  -2.2874  -2.2772  -2.2696  -2.2461  -2.2111
    -2.1462  -1.9610  -1.9239  -1.8836  -1.8434  -1.8007  -1.7898  -1.7221
    -1.7128  -1.6938  -1.6508  -1.5668  -1.5419  -1.5040  -1.4993  -1.4198
    -1.3675  -1.3449  -1.2894  -1.2286  -1.1188  -1.0588  -1.0248  -1.0144
    -1.0006  -0.9735  -0.9014  -0.8272  -0.7793  -0.7028  -0.6733  -0.6542
    -0.6199  -0.5955  -0.5317  -0.5184  -0.4273  -0.3727  -0.2733  -0.2049
    -0.1741  -0.1245  -0.0938  -0.0191   0.0522   0.1351   0.1690   0.2361
     0.2469   0.2994   0.3363   0.5170   0.6235   0.6504   0.6830   0.8034
     0.8158   0.8490   0.9003   0.9039   0.9048   0.9430   0.9876   1.8843
     2.9592   2.9620   3.0165   3.0232   3.3157   3.3238   3.4320   3.4362
     3.6541   3.6773

     the Fermi energy is     2.2098 ev

!    total energy              =   -2970.23699331 Ry
     estimated scf accuracy    <       0.00000006 Ry
     smearing contrib. (-TS)   =      -0.00495457 Ry
     internal energy E=F+TS    =   -2970.23203874 Ry

     The total energy is F=E-TS. E is the sum of the following terms:
     one-electron contribution =  -23891.03165542 Ry
     hartree contribution      =   12034.98858958 Ry
     xc contribution           =    -491.38189583 Ry
     ewald contribution        =    9377.19292067 Ry
     electric field correction =       0.00000226 Ry

     convergence has been achieved in  77 iterations

     Forces acting on atoms (cartesian axes, Ry/au):

     atom    1 type  1   force =     0.00016490   -0.00041768    0.12032544
     atom    2 type  1   force =    -0.00005642    0.00015548   -0.15700878
     atom    3 type  2   force =     0.00001989   -0.00007255   -0.05924752
     atom    4 type  2   force =     0.00000356    0.00008283    0.02056029
     atom    5 type  2   force =    -0.00370858   -0.00201978   -0.01103918
     atom    6 type  2   force =     0.00483350   -0.00123457   -0.01303065
     atom    7 type  1   force =    -0.00068550   -0.00618896    0.05342542
     atom    8 type  1   force =     0.00116048    0.01366941    0.08840353
     atom    9 type  2   force =    -0.00013036   -0.00125714    0.00076252
     atom   10 type  2   force =    -0.00301324    0.00052625   -0.05511568
     atom   11 type  2   force =    -0.00000269    0.00031322    0.00020682
     atom   12 type  2   force =    -0.00048600   -0.00023120   -0.00031568
     atom   13 type  1   force =    -0.00071386    0.00116743   -0.00087180
     atom   14 type  1   force =    -0.00005357   -0.00121165   -0.00012384
     atom   15 type  2   force =     0.00016589    0.00050013   -0.00031082
     atom   16 type  2   force =     0.00059285   -0.00077405   -0.00061913
     atom   17 type  2   force =     0.00052956    0.00048188   -0.00027235
     atom   18 type  2   force =     0.00001092    0.00047337   -0.00076860
     atom   19 type  1   force =     0.00016123    0.00004122    0.00069252
     atom   20 type  1   force =     0.00056901   -0.00067605    0.00021793
     atom   21 type  2   force =     0.00009822    0.00021365    0.09835935
     atom   22 type  2   force =     0.00024116    0.00001410    0.00081391
     atom   23 type  2   force =    -0.08117936    0.00005320   -0.03237862
     atom   24 type  2   force =     0.08116726    0.00049343   -0.03237273
     atom   25 type  1   force =     0.00015671   -0.00059740    0.12072764
     atom   26 type  1   force =     0.00006910   -0.00144314   -0.15747169
     atom   27 type  2   force =     0.00009764   -0.00078302   -0.05738105
     atom   28 type  2   force =     0.00003934    0.00183180    0.01625048
     atom   29 type  2   force =    -0.00204348    0.00509438   -0.01431798
     atom   30 type  2   force =     0.00292448    0.00552143   -0.01633126
     atom   31 type  1   force =    -0.00059095    0.00199049    0.03657112
     atom   32 type  1   force =     0.00117564   -0.01697614    0.08809605
     atom   33 type  2   force =    -0.00003285    0.00049138    0.00105555
     atom   34 type  2   force =    -0.00260404    0.00100711   -0.07064469
     atom   35 type  2   force =     0.00136400   -0.00051644    0.00038284
     atom   36 type  2   force =    -0.00025391   -0.00018656    0.00024447
     atom   37 type  1   force =    -0.00061337   -0.00038436    0.00012450
     atom   38 type  1   force =     0.00106737   -0.00063032   -0.00020122
     atom   39 type  2   force =    -0.00063737   -0.00076714    0.00038216
     atom   40 type  2   force =    -0.00014611   -0.00008153   -0.00062906
     atom   41 type  2   force =     0.00093974    0.00027868   -0.00006787
     atom   42 type  2   force =     0.00001624   -0.00001351   -0.00022829
     atom   43 type  1   force =     0.00000548    0.00055408    0.00046914
     atom   44 type  1   force =     0.00024728    0.00069563   -0.00065299
     atom   45 type  2   force =     0.00010114    0.00002605    0.09817331
     atom   46 type  2   force =    -0.08121853    0.00000748   -0.03235888
     atom   47 type  2   force =     0.08121167    0.00042415   -0.03237544
     atom   48 type  3   force =    -0.00865634   -0.00127639   -0.00428903
     atom   49 type  4   force =     0.01025760    0.00015888    0.00524401
     atom   50 type  5   force =    -0.00124696   -0.00037098   -0.00069049
     atom   51 type  5   force =    -0.00015323   -0.00057687   -0.00033740
     atom   52 type  2   force =    -0.00088661    0.00078927   -0.00071228
     atom   53 type  4   force =    -0.00027853    0.00163105    0.00067599

     Total force =     0.406621     Total SCF correction =     0.000978
  @ DRIVER MODE: Message from server: STATUS
  @ DRIVER MODE: Message from server: GETFORCE
  @ DRIVER MODE: Returning v,forces,stress,ensemble 

     Writing output data file ./calc.save/
  @ DRIVER MODE: Message from server: EXIT
  @ DRIVE MODE: Exiting  
 
     init_run     :     13.62s CPU     14.08s WALL (       1 calls)
     electrons    :   1363.64s CPU   1401.28s WALL (       1 calls)
     forces       :      2.83s CPU      2.97s WALL (       1 calls)

     Called by init_run:
     wfcinit      :      5.92s CPU      6.10s WALL (       1 calls)
     potinit      :      6.90s CPU      7.02s WALL (       1 calls)
     hinit0       :      0.36s CPU      0.38s WALL (       1 calls)

     Called by electrons:
     c_bands      :   1132.61s CPU   1153.45s WALL (      77 calls)
     sum_band     :    156.92s CPU    164.84s WALL (      77 calls)
     v_of_rho     :     55.67s CPU     58.24s WALL (      78 calls)
     newd         :     22.22s CPU     28.36s WALL (      78 calls)
     mix_rho      :      2.09s CPU      2.26s WALL (      77 calls)
     vdW_kernel   :      5.86s CPU      5.90s WALL (       1 calls)

     Called by c_bands:
     init_us_2    :      8.37s CPU      8.46s WALL (    1560 calls)
     cegterg      :   1107.11s CPU   1127.23s WALL (     782 calls)

     Called by *egterg:
     cdiaghg      :    150.53s CPU    151.80s WALL (    5465 calls)
     h_psi        :    636.41s CPU    649.27s WALL (    5475 calls)
     s_psi        :     76.41s CPU     76.91s WALL (    5475 calls)
     g_psi        :      2.20s CPU      2.22s WALL (    4683 calls)

     Called by h_psi:
     h_psi:calbec :     74.72s CPU     76.02s WALL (    5475 calls)
     vloc_psi     :    481.85s CPU    488.06s WALL (    5475 calls)
     add_vuspsi   :     76.53s CPU     79.26s WALL (    5475 calls)

     General routines
     calbec       :    101.70s CPU    103.17s WALL (    6285 calls)
     fft          :     29.32s CPU     29.68s WALL (    4914 calls)
     ffts         :      0.18s CPU      0.19s WALL (     155 calls)
     fftw         :    543.29s CPU    550.08s WALL ( 1005064 calls)
     interpolate  :      0.57s CPU      0.58s WALL (      78 calls)
     davcio       :      0.00s CPU      0.13s WALL (      10 calls)
 
     Parallel routines
 
     PWSCF        :  23m 0.36s CPU  23m39.01s WALL

 
   This run was terminated on:   1: 0:30  28Sep2021            

=------------------------------------------------------------------------------=
   JOB DONE.
=------------------------------------------------------------------------------=
