
     Program PWSCF v.6.7GPU starts on 15Sep2021 at 16:15:22 

     This program is part of the open-source Quantum ESPRESSO suite
     for quantum simulation of materials; please cite
         "P. Giannozzi et al., J. Phys.:Condens. Matter 21 395502 (2009);
         "P. Giannozzi et al., J. Phys.:Condens. Matter 29 465901 (2017);
         "P. Giannozzi et al., J. Chem. Phys. 152 154105 (2020);
          URL http://www.quantum-espresso.org", 
     in publications or presentations arising from this work. More details at
     http://www.quantum-espresso.org/quote

     Parallel version (MPI), running on    10 processors

     MPI processes distributed on     1 nodes
     R & G space division:  proc/nbgrp/npool/nimage =      10
     Reading input from /storage/home/hcoda1/3/ntian30/research/carbon/CxH_vib/H2O_calc/ads_slab/CHNH2O_a/out_0002/pw.inp
Warning: card &CELL ignored
Warning: card   CELL_DYNAMICS='IPI', ignored
Warning: card / ignored

     Current dimensions of program PWSCF are:
     Max number of different atomic species (ntypx) = 10
     Max number of k-points (npk) =  40000
     Max angular momentum in pseudopotentials (lmaxx) =  3
     Presently no symmetry can be used with electric field

     Message from routine cell_base_init:
     DEPRECATED: use true lattice parameter, not A to a.u. conversion factor

     **************************************************************************
     Initializing libbeef V0.1.2 with the BEEF-vdW functional.
     Citation: Wellendorff et al., PRB 85, 235149 (2012).
     **************************************************************************


     IMPORTANT: XC functional enforced from input :
     Exchange-correlation= BEEF-VDW
                           (   1   4  43  14   2   0   0)
     Any further DFT definition will be discarded
     Please, verify this is what you really want


     Subspace diagonalization in iterative solution of the eigenvalue problem:
     one sub-group per band group will be used
     scalapack distributed-memory algorithm (size of sub-group:  3*  3 procs)

  @ DRIVER MODE: Connecting to 
 qe_1139763_2852627.sched-torque.pace.gatech.educ8_ih8z1_scratch
  using UNIX socket
  @ DRIVER MODE: Message from server: STATUS
  @ DRIVER MODE: Message from server: INIT
  @ DRIVER MODE: Receiving replica           0          -1
  @ DRIVER MODE: Receiving encoded integer          25
  @ DRIVER MODE:  SCF:  T  FORCE:  T  STRESS:  F  VC:  F  ENSEMBLE:  F
  @ DRIVER MODE:  SCF:  T  FORCE:  T  STRESS:  F  VC:  F  ENSEMBLE:  F
 
     Parallelization info
     --------------------
     sticks:   dense  smooth     PW     G-vecs:    dense   smooth      PW
     Min         327     131     37                56683    14340    2191
     Max         328     133     38                56694    14346    2206
     Sum        3275    1317    379               566857   143421   21985
 
     Using Slab Decomposition
 


     bravais-lattice index     =            0
     lattice parameter (alat)  =       1.8897  a.u.
     unit-cell volume          =    6658.9804 (a.u.)^3
     number of atoms/cell      =           53
     number of atomic types    =            5
     number of electrons       =       396.00
     number of Kohn-Sham states=          208
     kinetic-energy cutoff     =      29.3995  Ry
     charge density cutoff     =     293.9946  Ry
     scf convergence threshold =      7.3E-08
     mixing beta               =       0.0500
     number of iterations used =            8  plain     mixing
     Exchange-correlation= BEEF-VDW
                           (   1   4  43  14   2   0   0)

     celldm(1)=   1.889726  celldm(2)=   0.000000  celldm(3)=   0.000000
     celldm(4)=   0.000000  celldm(5)=   0.000000  celldm(6)=   0.000000

     crystal axes: (cart. coord. in units of alat)
               a(1) = (   6.579727   0.000000   0.000000 )  
               a(2) = (  -0.000775   5.961596   0.000000 )  
               a(3) = (   0.000000   0.000000  25.155947 )  

     reciprocal axes: (cart. coord. in units 2 pi/alat)
               b(1) = (  0.151982  0.000020  0.000000 )  
               b(2) = (  0.000000  0.167740  0.000000 )  
               b(3) = (  0.000000  0.000000  0.039752 )  


     PseudoPot. # 1 for Ti read from file:
     /storage/coda1/p-amedford6/0/shared/rich_project_chbe-medford/medford-share/data/pseudos_module/espresso/nninc/pbe/van/Ti.UPF
     MD5 check sum: 8e4df49b7f0d34bbd5052bf3f5ea0213
     Pseudo is Ultrasoft, Zval = 12.0
     Generated by new atomic code, or converted to UPF format
     Using radial grid of  851 points,  6 beta functions with: 
                l(1) =   0
                l(2) =   0
                l(3) =   1
                l(4) =   1
                l(5) =   2
                l(6) =   2
     Q(r) pseudized with  8 coefficients,  rinner =    1.000   1.000   1.000
                                                       1.000   1.000

     PseudoPot. # 2 for O  read from file:
     /storage/coda1/p-amedford6/0/shared/rich_project_chbe-medford/medford-share/data/pseudos_module/espresso/nninc/pbe/van/O.UPF
     MD5 check sum: 78c19812648e8988a0fe644b0f25305e
     Pseudo is Ultrasoft, Zval =  6.0
     Generated by new atomic code, or converted to UPF format
     Using radial grid of  737 points,  4 beta functions with: 
                l(1) =   0
                l(2) =   0
                l(3) =   1
                l(4) =   1
     Q(r) pseudized with  8 coefficients,  rinner =    0.800   0.800   0.800


     PseudoPot. # 3 for N  read from file:
     /storage/coda1/p-amedford6/0/shared/rich_project_chbe-medford/medford-share/data/pseudos_module/espresso/nninc/pbe/van/N.UPF
     MD5 check sum: 90d10febe142ad51ac9d5be1deb811c4
     Pseudo is Ultrasoft, Zval =  5.0
     Generated by new atomic code, or converted to UPF format
     Using radial grid of  729 points,  4 beta functions with: 
                l(1) =   0
                l(2) =   0
                l(3) =   1
                l(4) =   1
     Q(r) pseudized with  8 coefficients,  rinner =    0.800   0.800   0.800


     PseudoPot. # 4 for C  read from file:
     /storage/coda1/p-amedford6/0/shared/rich_project_chbe-medford/medford-share/data/pseudos_module/espresso/nninc/pbe/van/C.UPF
     MD5 check sum: 1a69bf6b8db32088f5b2163dbdb77a27
     Pseudo is Ultrasoft, Zval =  4.0
     Generated by new atomic code, or converted to UPF format
     Using radial grid of  721 points,  4 beta functions with: 
                l(1) =   0
                l(2) =   0
                l(3) =   1
                l(4) =   1
     Q(r) pseudized with  8 coefficients,  rinner =    0.800   0.800   0.800


     PseudoPot. # 5 for H  read from file:
     /storage/coda1/p-amedford6/0/shared/rich_project_chbe-medford/medford-share/data/pseudos_module/espresso/nninc/pbe/van/H.UPF
     MD5 check sum: b5ee9d7bfd3a09ee7748110bda690ff7
     Pseudo is Ultrasoft, Zval =  1.0
     Generated by new atomic code, or converted to UPF format
     Using radial grid of  615 points,  1 beta functions with: 
                l(1) =   0
     Q(r) pseudized with  8 coefficients,  rinner =    0.800

     atomic species   valence    mass     pseudopotential
        Ti1           12.00    47.86700     Ti( 1.00)
        O1             6.00    15.99900     O ( 1.00)
        N1             5.00    14.00700     N ( 1.00)
        C1             4.00    12.01100     C ( 1.00)
        H1             1.00     1.00800     H ( 1.00)

     No symmetry found



   Cartesian axes

     site n.     atom                  positions (alat units)
         1           Ti1 tau(   1) = (   0.0004258   2.9801865   6.0000000  )
         2           Ti1 tau(   2) = (   3.2906075   1.4906267   6.0002472  )
         3           O1  tau(   3) = (   0.0006271   0.0005054   7.9858123  )
         4           O1  tau(   4) = (   3.2906025   0.0005020   7.3038282  )
         5           O1  tau(   5) = (   4.5942328   1.4918067   9.2879030  )
         6           O1  tau(   6) = (   1.9868534   1.4903216   9.2879459  )
         7           Ti1 tau(   7) = (   3.2907910   2.8959150   9.1758416  )
         8           Ti1 tau(   8) = (   0.0015273   1.4827037   9.2680791  )
         9           O1  tau(   9) = (   3.3001320   0.0223556  11.3750156  )
        10           O1  tau(  10) = (   0.0116148   5.9584955  10.6183126  )
        11           O1  tau(  11) = (   1.2984793   1.5070296  12.6822906  )
        12           O1  tau(  12) = (   5.3053048   1.5066133  12.6782214  )
        13           Ti1 tau(  13) = (   0.0240538   2.9928608  12.5236668  )
        14           Ti1 tau(  14) = (   3.3205759   1.5163330  12.5292614  )
        15           O1  tau(  15) = (   0.0116174   5.9170763  14.6754219  )
        16           O1  tau(  16) = (   3.3074613   5.9602333  14.0123823  )
        17           O1  tau(  17) = (   4.5729729   1.5428591  16.1031931  )
        18           O1  tau(  18) = (   2.0357456   1.5455963  16.0959954  )
        19           Ti1 tau(  19) = (   3.3038618   3.0179751  15.7376193  )
        20           Ti1 tau(  20) = (   0.0182819   1.3639466  15.8252938  )
        21           O1  tau(  21) = (   3.2904802   0.0005063   4.7018136  )
        22           O1  tau(  22) = (   0.0233993   0.1148627  17.2261141  )
        23           O1  tau(  23) = (   1.3043587   1.4918075   6.0039043  )
        24           O1  tau(  24) = (   5.2767064   1.4903225   6.0039473  )
        25           Ti1 tau(  25) = (   0.0000382   5.9609847   6.0000000  )
        26           Ti1 tau(  26) = (   3.2902200   4.4714249   6.0002472  )
        27           O1  tau(  27) = (   0.0002396   2.9813036   7.9858123  )
        28           O1  tau(  28) = (   3.2902150   2.9813002   7.3038282  )
        29           O1  tau(  29) = (   4.5938453   4.4726049   9.2879030  )
        30           O1  tau(  30) = (   1.9864658   4.4711199   9.2879459  )
        31           Ti1 tau(  31) = (   3.2891106   5.8743827   9.1763621  )
        32           Ti1 tau(  32) = (   0.0006254   4.4649316   9.2693709  )
        33           O1  tau(  33) = (   3.3008157   2.9919736  11.3713264  )
        34           O1  tau(  34) = (   0.0092240   2.9805883  10.6323155  )
        35           O1  tau(  35) = (   1.3007438   4.4795902  12.6508594  )
        36           O1  tau(  36) = (   5.3032704   4.4808111  12.6474791  )
        37           Ti1 tau(  37) = (   0.0257871   0.0021926  12.5000826  )
        38           Ti1 tau(  38) = (   3.3207303   4.5031034  12.5344522  )
        39           O1  tau(  39) = (   0.0087802   3.0322157  14.9253570  )
        40           O1  tau(  40) = (   3.3068524   3.0154938  13.9499554  )
        41           O1  tau(  41) = (   4.5633958   4.4699756  16.2119971  )
        42           O1  tau(  42) = (   2.0378630   4.4655417  16.1963084  )
        43           Ti1 tau(  43) = (   3.3121544   0.0541299  15.8353365  )
        44           Ti1 tau(  44) = (   0.0163097   4.5868159  16.0488687  )
        45           O1  tau(  45) = (   3.2900926   2.9813045   4.7018136  )
        46           O1  tau(  46) = (   1.3039711   4.4726057   6.0039043  )
        47           O1  tau(  47) = (   5.2763189   4.4711207   6.0039473  )
        48           N1  tau(  48) = (   0.0162226   3.2377968  17.9635855  )
        49           C1  tau(  49) = (   6.5597590   2.5083335  18.8557918  )
        50           H1  tau(  50) = (   6.5336154   1.7992569  19.6484373  )
        51           O1  tau(  51) = (   3.2480284   5.9531242  18.4006015  )
        52           H1  tau(  52) = (   3.9795166   5.3132839  18.3896481  )
        53           H1  tau(  53) = (   2.4340588   5.4237150  18.3412978  )

     number of k points=    10  Fermi-Dirac smearing, width (Ry)=  0.0073
                       cart. coord. in units 2pi/alat
        k(    1) = (   0.0000000   0.0000000   0.0000000), wk =   0.1250000
        k(    2) = (   0.0000000   0.0419351   0.0000000), wk =   0.2500000
        k(    3) = (   0.0000000  -0.0838702   0.0000000), wk =   0.1250000
        k(    4) = (   0.0379955   0.0000049   0.0000000), wk =   0.2500000
        k(    5) = (   0.0379955   0.0419400   0.0000000), wk =   0.2500000
        k(    6) = (   0.0379955  -0.0838652   0.0000000), wk =   0.2500000
        k(    7) = (   0.0379955  -0.0419301   0.0000000), wk =   0.2500000
        k(    8) = (  -0.0759910  -0.0000099   0.0000000), wk =   0.1250000
        k(    9) = (  -0.0759910   0.0419252   0.0000000), wk =   0.2500000
        k(   10) = (  -0.0759910  -0.0838800   0.0000000), wk =   0.1250000

     Dense  grid:   566857 G-vectors     FFT dimensions: (  72,  64, 270)

     Smooth grid:   143421 G-vectors     FFT dimensions: (  45,  40, 180)

     Estimated max dynamical RAM per process >     366.30 MB

     Estimated total dynamical RAM >       3.58 GB
     Cannot read rho : file not found

     Initial potential from superposition of free atoms

     starting charge  379.99917, renormalised to  396.00000

     negative rho (up, down):  1.670E-02 0.000E+00


     %%%%%%%%%%%%%%%%%%%%%%%%%%%%%%%%%%%%%%%%%%%%%%%%%%%%%%%%%%%%%%%%%%%%%%%%
     %                                                                      %
     % You are using vdW-DF, which was implemented by the Thonhauser group. %
     % Please cite the following two papers that made this development      %
     % possible and the two reviews that describe the various versions:     %
     %                                                                      %
     %   T. Thonhauser et al., PRL 115, 136402 (2015).                      %
     %   T. Thonhauser et al., PRB 76, 125112 (2007).                       %
     %   K. Berland et al., Rep. Prog. Phys. 78, 066501 (2015).             %
     %   D.C. Langreth et al., J. Phys.: Condens. Matter 21, 084203 (2009). %
     %                                                                      %
     %                                                                      %
     % If you are calculating the stress with vdW-DF, please also cite:     %
     %                                                                      %
     %   R. Sabatini et al., J. Phys.: Condens. Matter 24, 424209 (2012).   %
     %                                                                      %
     %%%%%%%%%%%%%%%%%%%%%%%%%%%%%%%%%%%%%%%%%%%%%%%%%%%%%%%%%%%%%%%%%%%%%%%%


 
     Adding external electric field

     Computed dipole along edir(3) : 
        Dipole               -9.4938 Ry au,        -24.1308 Debye
        Dipole field         -0.0179 Ry au, 
 
        Potential amp.        1.6608 Ry
        Total length         46.3494 bohr
 
     Starting wfcs are  299 atomic wfcs
  @ DRIVER MODE: Message from server: STATUS
  @ DRIVER MODE: Message from server: POSDATA
  @ DRIVER MODE: Reading and sharing cell 
  @ DRIVER MODE: Reading and sharing positions 
  @ DRIVER MODE: Received positions 

     total cpu time spent up to now is       11.1 secs

     Self-consistent Calculation

     iteration #  1     ecut=    29.40 Ry     beta= 0.05
     Davidson diagonalization with overlap
     c_bands:  1 eigenvalues not converged
     c_bands:  1 eigenvalues not converged
     c_bands:  2 eigenvalues not converged
     c_bands:  3 eigenvalues not converged
     c_bands:  3 eigenvalues not converged
     c_bands:  2 eigenvalues not converged
     c_bands:  3 eigenvalues not converged
     c_bands:  1 eigenvalues not converged
     c_bands:  2 eigenvalues not converged
     c_bands:  2 eigenvalues not converged
     ethr =  1.00E-05,  avg # of iterations = 20.0

     negative rho (up, down):  1.349E-02 0.000E+00
 
     Adding external electric field

     Computed dipole along edir(3) : 
        Dipole               41.6677 Ry au,        105.9087 Debye
        Dipole field          0.0786 Ry au, 
 
        Potential amp.       -7.2891 Ry
        Total length         46.3494 bohr
 

     total cpu time spent up to now is       51.1 secs

     total energy              =   -2563.41387630 Ry
     estimated scf accuracy    <    4341.72480486 Ry

     iteration #  2     ecut=    29.40 Ry     beta= 0.05
     Davidson diagonalization with overlap
     ethr =  1.00E-02,  avg # of iterations = 23.7

     negative rho (up, down):  3.783E-03 0.000E+00
 
     Adding external electric field

     Computed dipole along edir(3) : 
        Dipole               -2.7030 Ry au,         -6.8704 Debye
        Dipole field         -0.0051 Ry au, 
 
        Potential amp.        0.4729 Ry
        Total length         46.3494 bohr
 

     total cpu time spent up to now is      122.0 secs

     total energy              =   -2465.50579837 Ry
     estimated scf accuracy    <   65159.55362744 Ry

     iteration #  3     ecut=    29.40 Ry     beta= 0.05
     Davidson diagonalization with overlap
     ethr =  1.00E-02,  avg # of iterations = 13.7

     negative rho (up, down):  3.857E-03 0.000E+00
 
     Adding external electric field

     Computed dipole along edir(3) : 
        Dipole               -4.9220 Ry au,        -12.5106 Debye
        Dipole field         -0.0093 Ry au, 
 
        Potential amp.        0.8610 Ry
        Total length         46.3494 bohr
 

     total cpu time spent up to now is      167.0 secs

     total energy              =   -2931.98463734 Ry
     estimated scf accuracy    <    4196.84510591 Ry

     iteration #  4     ecut=    29.40 Ry     beta= 0.05
     Davidson diagonalization with overlap
     c_bands:  3 eigenvalues not converged
     c_bands:  4 eigenvalues not converged
     ethr =  1.00E-02,  avg # of iterations = 14.1

     negative rho (up, down):  3.907E-03 0.000E+00
 
     Adding external electric field

     Computed dipole along edir(3) : 
        Dipole               -6.2665 Ry au,        -15.9278 Debye
        Dipole field         -0.0118 Ry au, 
 
        Potential amp.        1.0962 Ry
        Total length         46.3494 bohr
 

     total cpu time spent up to now is      186.3 secs

     total energy              =   -2940.18610922 Ry
     estimated scf accuracy    <    1041.87062219 Ry

     iteration #  5     ecut=    29.40 Ry     beta= 0.05
     Davidson diagonalization with overlap
     ethr =  1.00E-02,  avg # of iterations = 12.2

     negative rho (up, down):  3.911E-03 0.000E+00
 
     Adding external electric field

     Computed dipole along edir(3) : 
        Dipole               -5.8123 Ry au,        -14.7733 Debye
        Dipole field         -0.0110 Ry au, 
 
        Potential amp.        1.0168 Ry
        Total length         46.3494 bohr
 

     total cpu time spent up to now is      203.1 secs

     total energy              =   -2953.77662431 Ry
     estimated scf accuracy    <      32.94448676 Ry

     iteration #  6     ecut=    29.40 Ry     beta= 0.05
     Davidson diagonalization with overlap
     ethr =  8.32E-03,  avg # of iterations =  1.0

     negative rho (up, down):  3.983E-03 0.000E+00
 
     Adding external electric field

     Computed dipole along edir(3) : 
        Dipole               -4.8279 Ry au,        -12.2714 Debye
        Dipole field         -0.0091 Ry au, 
 
        Potential amp.        0.8446 Ry
        Total length         46.3494 bohr
 

     total cpu time spent up to now is      212.9 secs

     total energy              =   -2952.89416641 Ry
     estimated scf accuracy    <      30.59799546 Ry

     iteration #  7     ecut=    29.40 Ry     beta= 0.05
     Davidson diagonalization with overlap
     ethr =  7.73E-03,  avg # of iterations =  1.0

     negative rho (up, down):  4.198E-03 0.000E+00
 
     Adding external electric field

     Computed dipole along edir(3) : 
        Dipole               -3.1111 Ry au,         -7.9075 Debye
        Dipole field         -0.0059 Ry au, 
 
        Potential amp.        0.5442 Ry
        Total length         46.3494 bohr
 

     total cpu time spent up to now is      222.6 secs

     total energy              =   -2951.89232308 Ry
     estimated scf accuracy    <      28.89442409 Ry

     iteration #  8     ecut=    29.40 Ry     beta= 0.05
     Davidson diagonalization with overlap
     ethr =  7.30E-03,  avg # of iterations =  1.2

     negative rho (up, down):  4.291E-03 0.000E+00
 
     Adding external electric field

     Computed dipole along edir(3) : 
        Dipole               -2.5990 Ry au,         -6.6060 Debye
        Dipole field         -0.0049 Ry au, 
 
        Potential amp.        0.4547 Ry
        Total length         46.3494 bohr
 

     total cpu time spent up to now is      232.5 secs

     total energy              =   -2952.85521023 Ry
     estimated scf accuracy    <     142.87065833 Ry

     iteration #  9     ecut=    29.40 Ry     beta= 0.05
     Davidson diagonalization with overlap
     ethr =  7.30E-03,  avg # of iterations =  1.0

     negative rho (up, down):  4.435E-03 0.000E+00
 
     Adding external electric field

     Computed dipole along edir(3) : 
        Dipole               -2.6826 Ry au,         -6.8184 Debye
        Dipole field         -0.0051 Ry au, 
 
        Potential amp.        0.4693 Ry
        Total length         46.3494 bohr
 

     total cpu time spent up to now is      242.2 secs

     total energy              =   -2951.18075368 Ry
     estimated scf accuracy    <     348.41824712 Ry

     iteration # 10     ecut=    29.40 Ry     beta= 0.05
     Davidson diagonalization with overlap
     ethr =  7.30E-03,  avg # of iterations =  1.0

     negative rho (up, down):  4.772E-03 0.000E+00
 
     Adding external electric field

     Computed dipole along edir(3) : 
        Dipole               -2.5930 Ry au,         -6.5907 Debye
        Dipole field         -0.0049 Ry au, 
 
        Potential amp.        0.4536 Ry
        Total length         46.3494 bohr
 

     total cpu time spent up to now is      251.9 secs

     total energy              =   -2950.43353360 Ry
     estimated scf accuracy    <      86.87997871 Ry

     iteration # 11     ecut=    29.40 Ry     beta= 0.05
     Davidson diagonalization with overlap
     ethr =  7.30E-03,  avg # of iterations =  1.2

     negative rho (up, down):  4.790E-03 0.000E+00
 
     Adding external electric field

     Computed dipole along edir(3) : 
        Dipole               -2.9357 Ry au,         -7.4618 Debye
        Dipole field         -0.0055 Ry au, 
 
        Potential amp.        0.5136 Ry
        Total length         46.3494 bohr
 

     total cpu time spent up to now is      261.8 secs

     total energy              =   -2950.48494115 Ry
     estimated scf accuracy    <      24.06372370 Ry

     iteration # 12     ecut=    29.40 Ry     beta= 0.05
     Davidson diagonalization with overlap
     ethr =  6.08E-03,  avg # of iterations =  1.1

     negative rho (up, down):  4.860E-03 0.000E+00
 
     Adding external electric field

     Computed dipole along edir(3) : 
        Dipole               -3.0691 Ry au,         -7.8009 Debye
        Dipole field         -0.0058 Ry au, 
 
        Potential amp.        0.5369 Ry
        Total length         46.3494 bohr
 

     total cpu time spent up to now is      271.6 secs

     total energy              =   -2949.92024435 Ry
     estimated scf accuracy    <      21.37976413 Ry

     iteration # 13     ecut=    29.40 Ry     beta= 0.05
     Davidson diagonalization with overlap
     ethr =  5.40E-03,  avg # of iterations =  3.4

     negative rho (up, down):  4.817E-03 0.000E+00
 
     Adding external electric field

     Computed dipole along edir(3) : 
        Dipole               -2.8261 Ry au,         -7.1832 Debye
        Dipole field         -0.0053 Ry au, 
 
        Potential amp.        0.4944 Ry
        Total length         46.3494 bohr
 

     total cpu time spent up to now is      282.5 secs

     total energy              =   -2951.24335096 Ry
     estimated scf accuracy    <       1.32784758 Ry

     iteration # 14     ecut=    29.40 Ry     beta= 0.05
     Davidson diagonalization with overlap
     c_bands:  4 eigenvalues not converged
     c_bands:  1 eigenvalues not converged
     c_bands:  2 eigenvalues not converged
     c_bands:  4 eigenvalues not converged
     c_bands:  4 eigenvalues not converged
     c_bands:  5 eigenvalues not converged
     c_bands:  4 eigenvalues not converged
     c_bands:  4 eigenvalues not converged
     ethr =  3.35E-04,  avg # of iterations = 21.8

     negative rho (up, down):  4.813E-03 0.000E+00
 
     Adding external electric field

     Computed dipole along edir(3) : 
        Dipole               -3.0899 Ry au,         -7.8538 Debye
        Dipole field         -0.0058 Ry au, 
 
        Potential amp.        0.5405 Ry
        Total length         46.3494 bohr
 

     total cpu time spent up to now is      305.7 secs

     total energy              =   -2952.19213009 Ry
     estimated scf accuracy    <       6.44813341 Ry

     iteration # 15     ecut=    29.40 Ry     beta= 0.05
     Davidson diagonalization with overlap
     ethr =  3.35E-04,  avg # of iterations =  7.8

     negative rho (up, down):  4.940E-03 0.000E+00
 
     Adding external electric field

     Computed dipole along edir(3) : 
        Dipole               -2.5072 Ry au,         -6.3726 Debye
        Dipole field         -0.0047 Ry au, 
 
        Potential amp.        0.4386 Ry
        Total length         46.3494 bohr
 

     total cpu time spent up to now is      317.6 secs

     total energy              =   -2951.95236996 Ry
     estimated scf accuracy    <      20.26145183 Ry

     iteration # 16     ecut=    29.40 Ry     beta= 0.05
     Davidson diagonalization with overlap
     ethr =  3.35E-04,  avg # of iterations =  1.4

     negative rho (up, down):  5.925E-03 0.000E+00
 
     Adding external electric field

     Computed dipole along edir(3) : 
        Dipole               -0.2543 Ry au,         -0.6463 Debye
        Dipole field         -0.0005 Ry au, 
 
        Potential amp.        0.0445 Ry
        Total length         46.3494 bohr
 

     total cpu time spent up to now is      327.7 secs

     total energy              =   -2951.38622588 Ry
     estimated scf accuracy    <       8.73528036 Ry

     iteration # 17     ecut=    29.40 Ry     beta= 0.05
     Davidson diagonalization with overlap
     c_bands:  2 eigenvalues not converged
     c_bands:  1 eigenvalues not converged
     c_bands:  1 eigenvalues not converged
     ethr =  3.35E-04,  avg # of iterations = 15.7

     negative rho (up, down):  5.963E-03 0.000E+00
 
     Adding external electric field

     Computed dipole along edir(3) : 
        Dipole                0.3323 Ry au,          0.8446 Debye
        Dipole field          0.0006 Ry au, 
 
        Potential amp.       -0.0581 Ry
        Total length         46.3494 bohr
 

     total cpu time spent up to now is      347.1 secs

     total energy              =   -2951.71014877 Ry
     estimated scf accuracy    <       2.82686624 Ry

     iteration # 18     ecut=    29.40 Ry     beta= 0.05
     Davidson diagonalization with overlap
     c_bands:  2 eigenvalues not converged
     c_bands:  1 eigenvalues not converged
     c_bands:  2 eigenvalues not converged
     ethr =  3.35E-04,  avg # of iterations = 12.9

     negative rho (up, down):  5.908E-03 0.000E+00
 
     Adding external electric field

     Computed dipole along edir(3) : 
        Dipole                0.3149 Ry au,          0.8005 Debye
        Dipole field          0.0006 Ry au, 
 
        Potential amp.       -0.0551 Ry
        Total length         46.3494 bohr
 

     total cpu time spent up to now is      361.4 secs

     total energy              =   -2951.80789255 Ry
     estimated scf accuracy    <       3.50053545 Ry

     iteration # 19     ecut=    29.40 Ry     beta= 0.05
     Davidson diagonalization with overlap
     ethr =  3.35E-04,  avg # of iterations =  2.2

     negative rho (up, down):  5.874E-03 0.000E+00
 
     Adding external electric field

     Computed dipole along edir(3) : 
        Dipole                0.5339 Ry au,          1.3571 Debye
        Dipole field          0.0010 Ry au, 
 
        Potential amp.       -0.0934 Ry
        Total length         46.3494 bohr
 

     total cpu time spent up to now is      371.5 secs

     total energy              =   -2951.94021397 Ry
     estimated scf accuracy    <       3.52121565 Ry

     iteration # 20     ecut=    29.40 Ry     beta= 0.05
     Davidson diagonalization with overlap
     ethr =  3.35E-04,  avg # of iterations =  6.5

     negative rho (up, down):  5.692E-03 0.000E+00
 
     Adding external electric field

     Computed dipole along edir(3) : 
        Dipole               -0.4569 Ry au,         -1.1613 Debye
        Dipole field         -0.0009 Ry au, 
 
        Potential amp.        0.0799 Ry
        Total length         46.3494 bohr
 

     total cpu time spent up to now is      383.4 secs

     total energy              =   -2950.92416794 Ry
     estimated scf accuracy    <      16.18057071 Ry

     iteration # 21     ecut=    29.40 Ry     beta= 0.05
     Davidson diagonalization with overlap
     ethr =  3.35E-04,  avg # of iterations =  8.8

     negative rho (up, down):  5.567E-03 0.000E+00
 
     Adding external electric field

     Computed dipole along edir(3) : 
        Dipole               -1.0568 Ry au,         -2.6861 Debye
        Dipole field         -0.0020 Ry au, 
 
        Potential amp.        0.1849 Ry
        Total length         46.3494 bohr
 

     total cpu time spent up to now is      396.5 secs

     total energy              =   -2951.67050718 Ry
     estimated scf accuracy    <       3.03425272 Ry

     iteration # 22     ecut=    29.40 Ry     beta= 0.05
     Davidson diagonalization with overlap
     c_bands:  1 eigenvalues not converged
     ethr =  3.35E-04,  avg # of iterations = 13.3

     negative rho (up, down):  5.560E-03 0.000E+00
 
     Adding external electric field

     Computed dipole along edir(3) : 
        Dipole               -1.0537 Ry au,         -2.6783 Debye
        Dipole field         -0.0020 Ry au, 
 
        Potential amp.        0.1843 Ry
        Total length         46.3494 bohr
 

     total cpu time spent up to now is      411.9 secs

     total energy              =   -2951.83905147 Ry
     estimated scf accuracy    <      14.09767135 Ry

     iteration # 23     ecut=    29.40 Ry     beta= 0.05
     Davidson diagonalization with overlap
     ethr =  3.35E-04,  avg # of iterations =  1.7

     negative rho (up, down):  5.410E-03 0.000E+00
 
     Adding external electric field

     Computed dipole along edir(3) : 
        Dipole               -1.3800 Ry au,         -3.5076 Debye
        Dipole field         -0.0026 Ry au, 
 
        Potential amp.        0.2414 Ry
        Total length         46.3494 bohr
 

     total cpu time spent up to now is      422.0 secs

     total energy              =   -2951.80573639 Ry
     estimated scf accuracy    <      13.73985830 Ry

     iteration # 24     ecut=    29.40 Ry     beta= 0.05
     Davidson diagonalization with overlap
     ethr =  3.35E-04,  avg # of iterations =  1.3

     negative rho (up, down):  5.829E-03 0.000E+00
 
     Adding external electric field

     Computed dipole along edir(3) : 
        Dipole               -1.1396 Ry au,         -2.8967 Debye
        Dipole field         -0.0022 Ry au, 
 
        Potential amp.        0.1994 Ry
        Total length         46.3494 bohr
 

     total cpu time spent up to now is      432.0 secs

     total energy              =   -2951.83702439 Ry
     estimated scf accuracy    <       8.04667106 Ry

     iteration # 25     ecut=    29.40 Ry     beta= 0.05
     Davidson diagonalization with overlap
     c_bands:  1 eigenvalues not converged
     ethr =  3.35E-04,  avg # of iterations =  4.8

     negative rho (up, down):  5.468E-03 0.000E+00
 
     Adding external electric field

     Computed dipole along edir(3) : 
        Dipole               -1.5115 Ry au,         -3.8418 Debye
        Dipole field         -0.0029 Ry au, 
 
        Potential amp.        0.2644 Ry
        Total length         46.3494 bohr
 

     total cpu time spent up to now is      443.3 secs

     total energy              =   -2951.65437632 Ry
     estimated scf accuracy    <      23.13708532 Ry

     iteration # 26     ecut=    29.40 Ry     beta= 0.05
     Davidson diagonalization with overlap
     ethr =  3.35E-04,  avg # of iterations =  1.3

     negative rho (up, down):  5.846E-03 0.000E+00
 
     Adding external electric field

     Computed dipole along edir(3) : 
        Dipole               -0.7246 Ry au,         -1.8418 Debye
        Dipole field         -0.0014 Ry au, 
 
        Potential amp.        0.1268 Ry
        Total length         46.3494 bohr
 

     total cpu time spent up to now is      453.2 secs

     total energy              =   -2951.51217948 Ry
     estimated scf accuracy    <       5.03748346 Ry

     iteration # 27     ecut=    29.40 Ry     beta= 0.05
     Davidson diagonalization with overlap
     ethr =  3.35E-04,  avg # of iterations =  2.0

     negative rho (up, down):  5.999E-03 0.000E+00
 
     Adding external electric field

     Computed dipole along edir(3) : 
        Dipole               -0.2954 Ry au,         -0.7509 Debye
        Dipole field         -0.0006 Ry au, 
 
        Potential amp.        0.0517 Ry
        Total length         46.3494 bohr
 

     total cpu time spent up to now is      463.9 secs

     total energy              =   -2951.45447880 Ry
     estimated scf accuracy    <       3.55631728 Ry

     iteration # 28     ecut=    29.40 Ry     beta= 0.05
     Davidson diagonalization with overlap
     c_bands:  2 eigenvalues not converged
     c_bands:  1 eigenvalues not converged
     c_bands:  2 eigenvalues not converged
     c_bands:  1 eigenvalues not converged
     ethr =  3.35E-04,  avg # of iterations = 12.2

     negative rho (up, down):  6.057E-03 0.000E+00
 
     Adding external electric field

     Computed dipole along edir(3) : 
        Dipole               -0.0810 Ry au,         -0.2059 Debye
        Dipole field         -0.0002 Ry au, 
 
        Potential amp.        0.0142 Ry
        Total length         46.3494 bohr
 

     total cpu time spent up to now is      477.6 secs

     total energy              =   -2951.47079604 Ry
     estimated scf accuracy    <       1.87054378 Ry

     iteration # 29     ecut=    29.40 Ry     beta= 0.05
     Davidson diagonalization with overlap
     c_bands:  1 eigenvalues not converged
     c_bands:  2 eigenvalues not converged
     c_bands:  2 eigenvalues not converged
     c_bands:  4 eigenvalues not converged
     ethr =  3.35E-04,  avg # of iterations = 16.7

     negative rho (up, down):  6.030E-03 0.000E+00
 
     Adding external electric field

     Computed dipole along edir(3) : 
        Dipole               -0.1058 Ry au,         -0.2689 Debye
        Dipole field         -0.0002 Ry au, 
 
        Potential amp.        0.0185 Ry
        Total length         46.3494 bohr
 

     total cpu time spent up to now is      494.8 secs

     total energy              =   -2951.51490611 Ry
     estimated scf accuracy    <       0.61693073 Ry

     iteration # 30     ecut=    29.40 Ry     beta= 0.05
     Davidson diagonalization with overlap
     c_bands:  3 eigenvalues not converged
     c_bands:  1 eigenvalues not converged
     ethr =  1.56E-04,  avg # of iterations =  9.4

     negative rho (up, down):  6.063E-03 0.000E+00
 
     Adding external electric field

     Computed dipole along edir(3) : 
        Dipole                0.0551 Ry au,          0.1399 Debye
        Dipole field          0.0001 Ry au, 
 
        Potential amp.       -0.0096 Ry
        Total length         46.3494 bohr
 

     total cpu time spent up to now is      507.6 secs

     total energy              =   -2951.53218446 Ry
     estimated scf accuracy    <       0.65387251 Ry

     iteration # 31     ecut=    29.40 Ry     beta= 0.05
     Davidson diagonalization with overlap
     c_bands:  4 eigenvalues not converged
     c_bands:  3 eigenvalues not converged
     ethr =  1.56E-04,  avg # of iterations =  8.0

     negative rho (up, down):  6.079E-03 0.000E+00
 
     Adding external electric field

     Computed dipole along edir(3) : 
        Dipole                0.0713 Ry au,          0.1813 Debye
        Dipole field          0.0001 Ry au, 
 
        Potential amp.       -0.0125 Ry
        Total length         46.3494 bohr
 

     total cpu time spent up to now is      520.2 secs

     total energy              =   -2951.56767115 Ry
     estimated scf accuracy    <       0.95939945 Ry

     iteration # 32     ecut=    29.40 Ry     beta= 0.05
     Davidson diagonalization with overlap
     c_bands:  5 eigenvalues not converged
     c_bands:  2 eigenvalues not converged
     c_bands:  4 eigenvalues not converged
     c_bands:  4 eigenvalues not converged
     c_bands:  4 eigenvalues not converged
     ethr =  1.56E-04,  avg # of iterations = 15.6

     negative rho (up, down):  6.183E-03 0.000E+00
 
     Adding external electric field

     Computed dipole along edir(3) : 
        Dipole                0.2283 Ry au,          0.5803 Debye
        Dipole field          0.0004 Ry au, 
 
        Potential amp.       -0.0399 Ry
        Total length         46.3494 bohr
 

     total cpu time spent up to now is      535.5 secs

     total energy              =   -2951.65388608 Ry
     estimated scf accuracy    <       1.46123873 Ry

     iteration # 33     ecut=    29.40 Ry     beta= 0.05
     Davidson diagonalization with overlap
     c_bands:  5 eigenvalues not converged
     c_bands:  2 eigenvalues not converged
     c_bands:  3 eigenvalues not converged
     ethr =  1.56E-04,  avg # of iterations = 12.8

     negative rho (up, down):  6.129E-03 0.000E+00
 
     Adding external electric field

     Computed dipole along edir(3) : 
        Dipole                0.1199 Ry au,          0.3047 Debye
        Dipole field          0.0002 Ry au, 
 
        Potential amp.       -0.0210 Ry
        Total length         46.3494 bohr
 

     total cpu time spent up to now is      549.2 secs

     total energy              =   -2951.62594259 Ry
     estimated scf accuracy    <       5.84948793 Ry

     iteration # 34     ecut=    29.40 Ry     beta= 0.05
     Davidson diagonalization with overlap
     c_bands:  5 eigenvalues not converged
     ethr =  1.56E-04,  avg # of iterations =  4.4

     negative rho (up, down):  6.367E-03 0.000E+00
 
     Adding external electric field

     Computed dipole along edir(3) : 
        Dipole                0.5299 Ry au,          1.3468 Debye
        Dipole field          0.0010 Ry au, 
 
        Potential amp.       -0.0927 Ry
        Total length         46.3494 bohr
 

     total cpu time spent up to now is      559.9 secs

     total energy              =   -2951.73697594 Ry
     estimated scf accuracy    <       2.27114045 Ry

     iteration # 35     ecut=    29.40 Ry     beta= 0.05
     Davidson diagonalization with overlap
     c_bands:  3 eigenvalues not converged
     ethr =  1.56E-04,  avg # of iterations = 11.6

     negative rho (up, down):  6.357E-03 0.000E+00
 
     Adding external electric field

     Computed dipole along edir(3) : 
        Dipole                0.3632 Ry au,          0.9232 Debye
        Dipole field          0.0007 Ry au, 
 
        Potential amp.       -0.0635 Ry
        Total length         46.3494 bohr
 

     total cpu time spent up to now is      573.9 secs

     total energy              =   -2951.55541667 Ry
     estimated scf accuracy    <      65.33845606 Ry

     iteration # 36     ecut=    29.40 Ry     beta= 0.05
     Davidson diagonalization with overlap
     ethr =  1.56E-04,  avg # of iterations =  3.1

     negative rho (up, down):  6.439E-03 0.000E+00
 
     Adding external electric field

     Computed dipole along edir(3) : 
        Dipole                0.4466 Ry au,          1.1351 Debye
        Dipole field          0.0008 Ry au, 
 
        Potential amp.       -0.0781 Ry
        Total length         46.3494 bohr
 

     total cpu time spent up to now is      584.7 secs

     total energy              =   -2951.67437797 Ry
     estimated scf accuracy    <       8.00555722 Ry

     iteration # 37     ecut=    29.40 Ry     beta= 0.05
     Davidson diagonalization with overlap
     ethr =  1.56E-04,  avg # of iterations =  1.0

     negative rho (up, down):  6.552E-03 0.000E+00
 
     Adding external electric field

     Computed dipole along edir(3) : 
        Dipole                0.5364 Ry au,          1.3634 Debye
        Dipole field          0.0010 Ry au, 
 
        Potential amp.       -0.0938 Ry
        Total length         46.3494 bohr
 

     total cpu time spent up to now is      594.5 secs

     total energy              =   -2951.78164322 Ry
     estimated scf accuracy    <       7.13816037 Ry

     iteration # 38     ecut=    29.40 Ry     beta= 0.05
     Davidson diagonalization with overlap
     ethr =  1.56E-04,  avg # of iterations =  2.6

     negative rho (up, down):  5.808E-03 0.000E+00
 
     Adding external electric field

     Computed dipole along edir(3) : 
        Dipole               -0.6234 Ry au,         -1.5845 Debye
        Dipole field         -0.0012 Ry au, 
 
        Potential amp.        0.1091 Ry
        Total length         46.3494 bohr
 

     total cpu time spent up to now is      604.6 secs

     total energy              =   -2950.47395851 Ry
     estimated scf accuracy    <      39.18763694 Ry

     iteration # 39     ecut=    29.40 Ry     beta= 0.05
     Davidson diagonalization with overlap
     c_bands:  2 eigenvalues not converged
     c_bands:  1 eigenvalues not converged
     c_bands:  1 eigenvalues not converged
     c_bands:  2 eigenvalues not converged
     c_bands:  1 eigenvalues not converged
     c_bands:  1 eigenvalues not converged
     ethr =  1.56E-04,  avg # of iterations = 18.5

     negative rho (up, down):  5.664E-03 0.000E+00
 
     Adding external electric field

     Computed dipole along edir(3) : 
        Dipole               -0.8761 Ry au,         -2.2269 Debye
        Dipole field         -0.0017 Ry au, 
 
        Potential amp.        0.1533 Ry
        Total length         46.3494 bohr
 

     total cpu time spent up to now is      624.7 secs

     total energy              =   -2951.49421018 Ry
     estimated scf accuracy    <       0.92466220 Ry

     iteration # 40     ecut=    29.40 Ry     beta= 0.05
     Davidson diagonalization with overlap
     c_bands:  2 eigenvalues not converged
     c_bands:  2 eigenvalues not converged
     c_bands:  4 eigenvalues not converged
     c_bands:  5 eigenvalues not converged
     c_bands:  4 eigenvalues not converged
     c_bands:  4 eigenvalues not converged
     c_bands:  4 eigenvalues not converged
     c_bands:  1 eigenvalues not converged
     c_bands:  5 eigenvalues not converged
     ethr =  1.56E-04,  avg # of iterations = 20.0

     negative rho (up, down):  5.652E-03 0.000E+00
 
     Adding external electric field

     Computed dipole along edir(3) : 
        Dipole               -0.8855 Ry au,         -2.2508 Debye
        Dipole field         -0.0017 Ry au, 
 
        Potential amp.        0.1549 Ry
        Total length         46.3494 bohr
 

     total cpu time spent up to now is      643.3 secs

     total energy              =   -2951.57506995 Ry
     estimated scf accuracy    <       2.71615077 Ry

     iteration # 41     ecut=    29.40 Ry     beta= 0.05
     Davidson diagonalization with overlap
     ethr =  1.56E-04,  avg # of iterations =  5.4

     negative rho (up, down):  5.775E-03 0.000E+00
 
     Adding external electric field

     Computed dipole along edir(3) : 
        Dipole               -0.3821 Ry au,         -0.9712 Debye
        Dipole field         -0.0007 Ry au, 
 
        Potential amp.        0.0668 Ry
        Total length         46.3494 bohr
 

     total cpu time spent up to now is      654.6 secs

     total energy              =   -2951.45791394 Ry
     estimated scf accuracy    <       2.62339986 Ry

     iteration # 42     ecut=    29.40 Ry     beta= 0.05
     Davidson diagonalization with overlap
     c_bands:  3 eigenvalues not converged
     c_bands:  3 eigenvalues not converged
     c_bands:  3 eigenvalues not converged
     c_bands:  2 eigenvalues not converged
     c_bands:  2 eigenvalues not converged
     c_bands:  3 eigenvalues not converged
     ethr =  1.56E-04,  avg # of iterations = 20.7

     negative rho (up, down):  5.826E-03 0.000E+00
 
     Adding external electric field

     Computed dipole along edir(3) : 
        Dipole               -0.3472 Ry au,         -0.8825 Debye
        Dipole field         -0.0007 Ry au, 
 
        Potential amp.        0.0607 Ry
        Total length         46.3494 bohr
 

     total cpu time spent up to now is      673.3 secs

     total energy              =   -2951.48484924 Ry
     estimated scf accuracy    <       0.37180574 Ry

     iteration # 43     ecut=    29.40 Ry     beta= 0.05
     Davidson diagonalization with overlap
     c_bands:  1 eigenvalues not converged
     c_bands:  2 eigenvalues not converged
     c_bands:  2 eigenvalues not converged
     c_bands:  2 eigenvalues not converged
     c_bands:  3 eigenvalues not converged
     ethr =  9.39E-05,  avg # of iterations = 15.6

     negative rho (up, down):  6.192E-03 0.000E+00
 
     Adding external electric field

     Computed dipole along edir(3) : 
        Dipole                0.5419 Ry au,          1.3774 Debye
        Dipole field          0.0010 Ry au, 
 
        Potential amp.       -0.0948 Ry
        Total length         46.3494 bohr
 

     total cpu time spent up to now is      688.9 secs

     total energy              =   -2951.42186541 Ry
     estimated scf accuracy    <       1.82777761 Ry

     iteration # 44     ecut=    29.40 Ry     beta= 0.05
     Davidson diagonalization with overlap
     c_bands:  2 eigenvalues not converged
     c_bands:  2 eigenvalues not converged
     c_bands:  2 eigenvalues not converged
     c_bands:  3 eigenvalues not converged
     c_bands:  3 eigenvalues not converged
     c_bands:  4 eigenvalues not converged
     c_bands:  2 eigenvalues not converged
     c_bands:  4 eigenvalues not converged
     c_bands:  2 eigenvalues not converged
     c_bands:  1 eigenvalues not converged
     ethr =  9.39E-05,  avg # of iterations = 20.0

     negative rho (up, down):  6.501E-03 0.000E+00
 
     Adding external electric field

     Computed dipole along edir(3) : 
        Dipole                0.8472 Ry au,          2.1533 Debye
        Dipole field          0.0016 Ry au, 
 
        Potential amp.       -0.1482 Ry
        Total length         46.3494 bohr
 

     total cpu time spent up to now is      707.1 secs

     total energy              =   -2951.47911807 Ry
     estimated scf accuracy    <       1.83537330 Ry

     iteration # 45     ecut=    29.40 Ry     beta= 0.05
     Davidson diagonalization with overlap
     ethr =  9.39E-05,  avg # of iterations =  3.0

     negative rho (up, down):  6.862E-03 0.000E+00
 
     Adding external electric field

     Computed dipole along edir(3) : 
        Dipole                1.0770 Ry au,          2.7374 Debye
        Dipole field          0.0020 Ry au, 
 
        Potential amp.       -0.1884 Ry
        Total length         46.3494 bohr
 

     total cpu time spent up to now is      717.9 secs

     total energy              =   -2951.46924560 Ry
     estimated scf accuracy    <       1.65636750 Ry

     iteration # 46     ecut=    29.40 Ry     beta= 0.05
     Davidson diagonalization with overlap
     ethr =  9.39E-05,  avg # of iterations =  6.4

     negative rho (up, down):  6.775E-03 0.000E+00
 
     Adding external electric field

     Computed dipole along edir(3) : 
        Dipole                0.8814 Ry au,          2.2402 Debye
        Dipole field          0.0017 Ry au, 
 
        Potential amp.       -0.1542 Ry
        Total length         46.3494 bohr
 

     total cpu time spent up to now is      729.3 secs

     total energy              =   -2951.45424230 Ry
     estimated scf accuracy    <       1.40390453 Ry

     iteration # 47     ecut=    29.40 Ry     beta= 0.05
     Davidson diagonalization with overlap
     ethr =  9.39E-05,  avg # of iterations =  1.8

     negative rho (up, down):  7.319E-03 0.000E+00
 
     Adding external electric field

     Computed dipole along edir(3) : 
        Dipole                0.7162 Ry au,          1.8205 Debye
        Dipole field          0.0014 Ry au, 
 
        Potential amp.       -0.1253 Ry
        Total length         46.3494 bohr
 

     total cpu time spent up to now is      739.3 secs

     total energy              =   -2951.41313639 Ry
     estimated scf accuracy    <       0.39866891 Ry

     iteration # 48     ecut=    29.40 Ry     beta= 0.05
     Davidson diagonalization with overlap
     c_bands:  1 eigenvalues not converged
     c_bands:  3 eigenvalues not converged
     c_bands:  3 eigenvalues not converged
     c_bands:  3 eigenvalues not converged
     c_bands:  3 eigenvalues not converged
     c_bands:  4 eigenvalues not converged
     c_bands:  3 eigenvalues not converged
     c_bands:  1 eigenvalues not converged
     c_bands:  2 eigenvalues not converged
     c_bands:  2 eigenvalues not converged
     ethr =  9.39E-05,  avg # of iterations = 20.0

     negative rho (up, down):  8.756E-03 0.000E+00
 
     Adding external electric field

     Computed dipole along edir(3) : 
        Dipole                1.1195 Ry au,          2.8456 Debye
        Dipole field          0.0021 Ry au, 
 
        Potential amp.       -0.1958 Ry
        Total length         46.3494 bohr
 

     total cpu time spent up to now is      757.5 secs

     total energy              =   -2951.41973882 Ry
     estimated scf accuracy    <       1.26671226 Ry

     iteration # 49     ecut=    29.40 Ry     beta= 0.05
     Davidson diagonalization with overlap
     c_bands:  2 eigenvalues not converged
     c_bands:  2 eigenvalues not converged
     c_bands:  1 eigenvalues not converged
     c_bands:  1 eigenvalues not converged
     ethr =  9.39E-05,  avg # of iterations = 16.4

     negative rho (up, down):  9.280E-03 0.000E+00
 
     Adding external electric field

     Computed dipole along edir(3) : 
        Dipole                1.4991 Ry au,          3.8104 Debye
        Dipole field          0.0028 Ry au, 
 
        Potential amp.       -0.2622 Ry
        Total length         46.3494 bohr
 

     total cpu time spent up to now is      773.9 secs

     total energy              =   -2951.44656196 Ry
     estimated scf accuracy    <       0.67807922 Ry

     iteration # 50     ecut=    29.40 Ry     beta= 0.05
     Davidson diagonalization with overlap
     c_bands:  1 eigenvalues not converged
     c_bands:  4 eigenvalues not converged
     ethr =  9.39E-05,  avg # of iterations = 12.5

     negative rho (up, down):  8.004E-03 0.000E+00
 
     Adding external electric field

     Computed dipole along edir(3) : 
        Dipole                1.2492 Ry au,          3.1751 Debye
        Dipole field          0.0024 Ry au, 
 
        Potential amp.       -0.2185 Ry
        Total length         46.3494 bohr
 

     total cpu time spent up to now is      787.6 secs

     total energy              =   -2951.43922922 Ry
     estimated scf accuracy    <       0.40753210 Ry

     iteration # 51     ecut=    29.40 Ry     beta= 0.05
     Davidson diagonalization with overlap
     c_bands:  2 eigenvalues not converged
     ethr =  9.39E-05,  avg # of iterations =  6.4

     negative rho (up, down):  8.199E-03 0.000E+00
 
     Adding external electric field

     Computed dipole along edir(3) : 
        Dipole                1.2376 Ry au,          3.1456 Debye
        Dipole field          0.0023 Ry au, 
 
        Potential amp.       -0.2165 Ry
        Total length         46.3494 bohr
 

     total cpu time spent up to now is      799.1 secs

     total energy              =   -2951.44617059 Ry
     estimated scf accuracy    <       0.05160381 Ry

     iteration # 52     ecut=    29.40 Ry     beta= 0.05
     Davidson diagonalization with overlap
     c_bands:  2 eigenvalues not converged
     c_bands:  3 eigenvalues not converged
     c_bands:  2 eigenvalues not converged
     c_bands:  4 eigenvalues not converged
     c_bands:  3 eigenvalues not converged
     c_bands:  1 eigenvalues not converged
     ethr =  1.30E-05,  avg # of iterations = 19.2

     negative rho (up, down):  8.410E-03 0.000E+00
 
     Adding external electric field

     Computed dipole along edir(3) : 
        Dipole                1.3088 Ry au,          3.3267 Debye
        Dipole field          0.0025 Ry au, 
 
        Potential amp.       -0.2290 Ry
        Total length         46.3494 bohr
 

     total cpu time spent up to now is      817.0 secs

     total energy              =   -2951.44647310 Ry
     estimated scf accuracy    <       0.07907436 Ry

     iteration # 53     ecut=    29.40 Ry     beta= 0.05
     Davidson diagonalization with overlap
     c_bands:  2 eigenvalues not converged
     ethr =  1.30E-05,  avg # of iterations = 10.6

     negative rho (up, down):  8.053E-03 0.000E+00
 
     Adding external electric field

     Computed dipole along edir(3) : 
        Dipole                1.1897 Ry au,          3.0240 Debye
        Dipole field          0.0022 Ry au, 
 
        Potential amp.       -0.2081 Ry
        Total length         46.3494 bohr
 

     total cpu time spent up to now is      830.0 secs

     total energy              =   -2951.44630522 Ry
     estimated scf accuracy    <       0.02367366 Ry

     iteration # 54     ecut=    29.40 Ry     beta= 0.05
     Davidson diagonalization with overlap
     c_bands:  2 eigenvalues not converged
     c_bands:  1 eigenvalues not converged
     c_bands:  1 eigenvalues not converged
     c_bands:  1 eigenvalues not converged
     c_bands:  1 eigenvalues not converged
     c_bands:  1 eigenvalues not converged
     ethr =  5.98E-06,  avg # of iterations = 18.4

     negative rho (up, down):  8.221E-03 0.000E+00
 
     Adding external electric field

     Computed dipole along edir(3) : 
        Dipole                1.3592 Ry au,          3.4547 Debye
        Dipole field          0.0026 Ry au, 
 
        Potential amp.       -0.2378 Ry
        Total length         46.3494 bohr
 

     total cpu time spent up to now is      846.8 secs

     total energy              =   -2951.44189807 Ry
     estimated scf accuracy    <       0.05973341 Ry

     iteration # 55     ecut=    29.40 Ry     beta= 0.05
     Davidson diagonalization with overlap
     c_bands:  1 eigenvalues not converged
     c_bands:  1 eigenvalues not converged
     c_bands:  4 eigenvalues not converged
     c_bands:  1 eigenvalues not converged
     c_bands:  1 eigenvalues not converged
     c_bands:  1 eigenvalues not converged
     c_bands:  1 eigenvalues not converged
     c_bands:  1 eigenvalues not converged
     c_bands:  1 eigenvalues not converged
     ethr =  5.98E-06,  avg # of iterations = 19.9

     negative rho (up, down):  8.553E-03 0.000E+00
 
     Adding external electric field

     Computed dipole along edir(3) : 
        Dipole                1.3095 Ry au,          3.3285 Debye
        Dipole field          0.0025 Ry au, 
 
        Potential amp.       -0.2291 Ry
        Total length         46.3494 bohr
 

     total cpu time spent up to now is      865.4 secs

     total energy              =   -2951.44448574 Ry
     estimated scf accuracy    <       0.39621001 Ry

     iteration # 56     ecut=    29.40 Ry     beta= 0.05
     Davidson diagonalization with overlap
     c_bands:  1 eigenvalues not converged
     c_bands:  1 eigenvalues not converged
     c_bands:  1 eigenvalues not converged
     c_bands:  1 eigenvalues not converged
     ethr =  5.98E-06,  avg # of iterations = 16.7

     negative rho (up, down):  9.264E-03 0.000E+00
 
     Adding external electric field

     Computed dipole along edir(3) : 
        Dipole                1.3741 Ry au,          3.4925 Debye
        Dipole field          0.0026 Ry au, 
 
        Potential amp.       -0.2404 Ry
        Total length         46.3494 bohr
 

     total cpu time spent up to now is      880.5 secs

     total energy              =   -2951.44731853 Ry
     estimated scf accuracy    <       0.05335442 Ry

     iteration # 57     ecut=    29.40 Ry     beta= 0.05
     Davidson diagonalization with overlap
     c_bands:  1 eigenvalues not converged
     ethr =  5.98E-06,  avg # of iterations =  7.9

     negative rho (up, down):  1.232E-02 0.000E+00
 
     Adding external electric field

     Computed dipole along edir(3) : 
        Dipole                1.5317 Ry au,          3.8932 Debye
        Dipole field          0.0029 Ry au, 
 
        Potential amp.       -0.2679 Ry
        Total length         46.3494 bohr
 

     total cpu time spent up to now is      892.2 secs

     total energy              =   -2951.44777380 Ry
     estimated scf accuracy    <       0.03362141 Ry

     iteration # 58     ecut=    29.40 Ry     beta= 0.05
     Davidson diagonalization with overlap
     c_bands:  1 eigenvalues not converged
     ethr =  5.98E-06,  avg # of iterations =  9.1

     negative rho (up, down):  1.242E-02 0.000E+00
 
     Adding external electric field

     Computed dipole along edir(3) : 
        Dipole                1.4154 Ry au,          3.5975 Debye
        Dipole field          0.0027 Ry au, 
 
        Potential amp.       -0.2476 Ry
        Total length         46.3494 bohr
 

     total cpu time spent up to now is      904.8 secs

     total energy              =   -2951.44575302 Ry
     estimated scf accuracy    <       0.08554104 Ry

     iteration # 59     ecut=    29.40 Ry     beta= 0.05
     Davidson diagonalization with overlap
     c_bands:  1 eigenvalues not converged
     c_bands:  1 eigenvalues not converged
     ethr =  5.98E-06,  avg # of iterations = 14.2

     negative rho (up, down):  1.283E-02 0.000E+00
 
     Adding external electric field

     Computed dipole along edir(3) : 
        Dipole                1.4115 Ry au,          3.5877 Debye
        Dipole field          0.0027 Ry au, 
 
        Potential amp.       -0.2469 Ry
        Total length         46.3494 bohr
 

     total cpu time spent up to now is      918.9 secs

     total energy              =   -2951.44720596 Ry
     estimated scf accuracy    <       0.00299230 Ry

     iteration # 60     ecut=    29.40 Ry     beta= 0.05
     Davidson diagonalization with overlap
     c_bands:  4 eigenvalues not converged
     c_bands:  1 eigenvalues not converged
     c_bands:  2 eigenvalues not converged
     c_bands:  1 eigenvalues not converged
     c_bands:  1 eigenvalues not converged
     c_bands:  1 eigenvalues not converged
     c_bands:  2 eigenvalues not converged
     c_bands:  1 eigenvalues not converged
     ethr =  7.56E-07,  avg # of iterations = 19.5

     negative rho (up, down):  1.324E-02 0.000E+00
 
     Adding external electric field

     Computed dipole along edir(3) : 
        Dipole                1.4432 Ry au,          3.6682 Debye
        Dipole field          0.0027 Ry au, 
 
        Potential amp.       -0.2525 Ry
        Total length         46.3494 bohr
 

     total cpu time spent up to now is      937.2 secs

     total energy              =   -2951.44724550 Ry
     estimated scf accuracy    <       0.00179464 Ry

     iteration # 61     ecut=    29.40 Ry     beta= 0.05
     Davidson diagonalization with overlap
     c_bands:  1 eigenvalues not converged
     c_bands:  1 eigenvalues not converged
     ethr =  4.53E-07,  avg # of iterations = 10.6

     negative rho (up, down):  1.480E-02 0.000E+00
 
     Adding external electric field

     Computed dipole along edir(3) : 
        Dipole                1.4860 Ry au,          3.7772 Debye
        Dipole field          0.0028 Ry au, 
 
        Potential amp.       -0.2600 Ry
        Total length         46.3494 bohr
 

     total cpu time spent up to now is      950.5 secs

     total energy              =   -2951.44718204 Ry
     estimated scf accuracy    <       0.00075490 Ry

     iteration # 62     ecut=    29.40 Ry     beta= 0.05
     Davidson diagonalization with overlap
     c_bands:  1 eigenvalues not converged
     c_bands:  2 eigenvalues not converged
     c_bands:  1 eigenvalues not converged
     c_bands:  1 eigenvalues not converged
     ethr =  1.91E-07,  avg # of iterations = 15.2

     negative rho (up, down):  1.475E-02 0.000E+00
 
     Adding external electric field

     Computed dipole along edir(3) : 
        Dipole                1.4590 Ry au,          3.7083 Debye
        Dipole field          0.0028 Ry au, 
 
        Potential amp.       -0.2552 Ry
        Total length         46.3494 bohr
 

     total cpu time spent up to now is      970.0 secs

     total energy              =   -2951.44729241 Ry
     estimated scf accuracy    <       0.00164848 Ry

     iteration # 63     ecut=    29.40 Ry     beta= 0.05
     Davidson diagonalization with overlap
     ethr =  1.91E-07,  avg # of iterations = 10.9

     negative rho (up, down):  1.498E-02 0.000E+00
 
     Adding external electric field

     Computed dipole along edir(3) : 
        Dipole                1.4685 Ry au,          3.7325 Debye
        Dipole field          0.0028 Ry au, 
 
        Potential amp.       -0.2569 Ry
        Total length         46.3494 bohr
 

     total cpu time spent up to now is      984.3 secs

     total energy              =   -2951.44735244 Ry
     estimated scf accuracy    <       0.00024875 Ry

     iteration # 64     ecut=    29.40 Ry     beta= 0.05
     Davidson diagonalization with overlap
     ethr =  6.28E-08,  avg # of iterations = 12.9

     negative rho (up, down):  1.550E-02 0.000E+00
 
     Adding external electric field

     Computed dipole along edir(3) : 
        Dipole                1.4735 Ry au,          3.7453 Debye
        Dipole field          0.0028 Ry au, 
 
        Potential amp.       -0.2578 Ry
        Total length         46.3494 bohr
 

     total cpu time spent up to now is     1001.2 secs

     total energy              =   -2951.44738423 Ry
     estimated scf accuracy    <       0.00014783 Ry

     iteration # 65     ecut=    29.40 Ry     beta= 0.05
     Davidson diagonalization with overlap
     ethr =  3.73E-08,  avg # of iterations = 12.6

     negative rho (up, down):  1.590E-02 0.000E+00
 
     Adding external electric field

     Computed dipole along edir(3) : 
        Dipole                1.4851 Ry au,          3.7748 Debye
        Dipole field          0.0028 Ry au, 
 
        Potential amp.       -0.2598 Ry
        Total length         46.3494 bohr
 

     total cpu time spent up to now is     1016.3 secs

     total energy              =   -2951.44740240 Ry
     estimated scf accuracy    <       0.00005479 Ry

     iteration # 66     ecut=    29.40 Ry     beta= 0.05
     Davidson diagonalization with overlap
     ethr =  1.38E-08,  avg # of iterations = 12.0

     negative rho (up, down):  1.578E-02 0.000E+00
 
     Adding external electric field

     Computed dipole along edir(3) : 
        Dipole                1.4797 Ry au,          3.7610 Debye
        Dipole field          0.0028 Ry au, 
 
        Potential amp.       -0.2588 Ry
        Total length         46.3494 bohr
 

     total cpu time spent up to now is     1034.3 secs

     total energy              =   -2951.44740803 Ry
     estimated scf accuracy    <       0.00004530 Ry

     iteration # 67     ecut=    29.40 Ry     beta= 0.05
     Davidson diagonalization with overlap
     ethr =  1.14E-08,  avg # of iterations =  7.6

     negative rho (up, down):  1.593E-02 0.000E+00
 
     Adding external electric field

     Computed dipole along edir(3) : 
        Dipole                1.4776 Ry au,          3.7557 Debye
        Dipole field          0.0028 Ry au, 
 
        Potential amp.       -0.2585 Ry
        Total length         46.3494 bohr
 

     total cpu time spent up to now is     1046.5 secs

     total energy              =   -2951.44741261 Ry
     estimated scf accuracy    <       0.00002528 Ry

     iteration # 68     ecut=    29.40 Ry     beta= 0.05
     Davidson diagonalization with overlap
     c_bands:  1 eigenvalues not converged
     ethr =  6.38E-09,  avg # of iterations = 12.9

     negative rho (up, down):  1.621E-02 0.000E+00
 
     Adding external electric field

     Computed dipole along edir(3) : 
        Dipole                1.4844 Ry au,          3.7729 Debye
        Dipole field          0.0028 Ry au, 
 
        Potential amp.       -0.2597 Ry
        Total length         46.3494 bohr
 

     total cpu time spent up to now is     1065.6 secs

     total energy              =   -2951.44741797 Ry
     estimated scf accuracy    <       0.00004723 Ry

     iteration # 69     ecut=    29.40 Ry     beta= 0.05
     Davidson diagonalization with overlap
     ethr =  6.38E-09,  avg # of iterations = 11.4

     negative rho (up, down):  1.624E-02 0.000E+00
 
     Adding external electric field

     Computed dipole along edir(3) : 
        Dipole                1.4822 Ry au,          3.7674 Debye
        Dipole field          0.0028 Ry au, 
 
        Potential amp.       -0.2593 Ry
        Total length         46.3494 bohr
 

     total cpu time spent up to now is     1080.3 secs

     total energy              =   -2951.44742199 Ry
     estimated scf accuracy    <       0.00001461 Ry

     iteration # 70     ecut=    29.40 Ry     beta= 0.05
     Davidson diagonalization with overlap
     ethr =  3.69E-09,  avg # of iterations = 11.6

     negative rho (up, down):  1.620E-02 0.000E+00
 
     Adding external electric field

     Computed dipole along edir(3) : 
        Dipole                1.4815 Ry au,          3.7656 Debye
        Dipole field          0.0028 Ry au, 
 
        Potential amp.       -0.2592 Ry
        Total length         46.3494 bohr
 

     total cpu time spent up to now is     1094.5 secs

     total energy              =   -2951.44742397 Ry
     estimated scf accuracy    <       0.00000793 Ry

     iteration # 71     ecut=    29.40 Ry     beta= 0.05
     Davidson diagonalization with overlap
     ethr =  2.00E-09,  avg # of iterations =  7.3

     negative rho (up, down):  1.624E-02 0.000E+00
 
     Adding external electric field

     Computed dipole along edir(3) : 
        Dipole                1.4823 Ry au,          3.7678 Debye
        Dipole field          0.0028 Ry au, 
 
        Potential amp.       -0.2593 Ry
        Total length         46.3494 bohr
 

     total cpu time spent up to now is     1106.9 secs

     total energy              =   -2951.44742628 Ry
     estimated scf accuracy    <       0.00000327 Ry

     iteration # 72     ecut=    29.40 Ry     beta= 0.05
     Davidson diagonalization with overlap
     c_bands:  1 eigenvalues not converged
     ethr =  8.26E-10,  avg # of iterations = 11.4

     negative rho (up, down):  1.627E-02 0.000E+00
 
     Adding external electric field

     Computed dipole along edir(3) : 
        Dipole                1.4820 Ry au,          3.7667 Debye
        Dipole field          0.0028 Ry au, 
 
        Potential amp.       -0.2592 Ry
        Total length         46.3494 bohr
 

     total cpu time spent up to now is     1122.7 secs

     total energy              =   -2951.44742834 Ry
     estimated scf accuracy    <       0.00000163 Ry

     iteration # 73     ecut=    29.40 Ry     beta= 0.05
     Davidson diagonalization with overlap
     ethr =  4.12E-10,  avg # of iterations = 11.7

     negative rho (up, down):  1.629E-02 0.000E+00
 
     Adding external electric field

     Computed dipole along edir(3) : 
        Dipole                1.4820 Ry au,          3.7667 Debye
        Dipole field          0.0028 Ry au, 
 
        Potential amp.       -0.2592 Ry
        Total length         46.3494 bohr
 

     total cpu time spent up to now is     1137.4 secs

     total energy              =   -2951.44743005 Ry
     estimated scf accuracy    <       0.00000091 Ry

     iteration # 74     ecut=    29.40 Ry     beta= 0.05
     Davidson diagonalization with overlap
     ethr =  2.30E-10,  avg # of iterations =  7.3

     negative rho (up, down):  1.626E-02 0.000E+00
 
     Adding external electric field

     Computed dipole along edir(3) : 
        Dipole                1.4817 Ry au,          3.7662 Debye
        Dipole field          0.0028 Ry au, 
 
        Potential amp.       -0.2592 Ry
        Total length         46.3494 bohr
 

     total cpu time spent up to now is     1149.4 secs

     total energy              =   -2951.44743140 Ry
     estimated scf accuracy    <       0.00000066 Ry

     iteration # 75     ecut=    29.40 Ry     beta= 0.05
     Davidson diagonalization with overlap
     ethr =  1.67E-10,  avg # of iterations = 11.9

     negative rho (up, down):  1.625E-02 0.000E+00
 
     Adding external electric field

     Computed dipole along edir(3) : 
        Dipole                1.4816 Ry au,          3.7658 Debye
        Dipole field          0.0028 Ry au, 
 
        Potential amp.       -0.2592 Ry
        Total length         46.3494 bohr
 

     total cpu time spent up to now is     1168.0 secs

     total energy              =   -2951.44743270 Ry
     estimated scf accuracy    <       0.00000080 Ry

     iteration # 76     ecut=    29.40 Ry     beta= 0.05
     Davidson diagonalization with overlap
     ethr =  1.67E-10,  avg # of iterations =  7.1

     negative rho (up, down):  1.625E-02 0.000E+00
 
     Adding external electric field

     Computed dipole along edir(3) : 
        Dipole                1.4816 Ry au,          3.7659 Debye
        Dipole field          0.0028 Ry au, 
 
        Potential amp.       -0.2592 Ry
        Total length         46.3494 bohr
 

     total cpu time spent up to now is     1180.2 secs

     total energy              =   -2951.44743380 Ry
     estimated scf accuracy    <       0.00000037 Ry

     iteration # 77     ecut=    29.40 Ry     beta= 0.05
     Davidson diagonalization with overlap
     c_bands:  1 eigenvalues not converged
     ethr =  9.26E-11,  avg # of iterations = 10.8

     negative rho (up, down):  1.626E-02 0.000E+00
 
     Adding external electric field

     Computed dipole along edir(3) : 
        Dipole                1.4820 Ry au,          3.7668 Debye
        Dipole field          0.0028 Ry au, 
 
        Potential amp.       -0.2592 Ry
        Total length         46.3494 bohr
 

     total cpu time spent up to now is     1198.0 secs

     total energy              =   -2951.44743488 Ry
     estimated scf accuracy    <       0.00000023 Ry

     iteration # 78     ecut=    29.40 Ry     beta= 0.05
     Davidson diagonalization with overlap
     ethr =  5.84E-11,  avg # of iterations =  8.5

     negative rho (up, down):  1.628E-02 0.000E+00
 
     Adding external electric field

     Computed dipole along edir(3) : 
        Dipole                1.4822 Ry au,          3.7673 Debye
        Dipole field          0.0028 Ry au, 
 
        Potential amp.       -0.2593 Ry
        Total length         46.3494 bohr
 

     total cpu time spent up to now is     1211.1 secs

     total energy              =   -2951.44743585 Ry
     estimated scf accuracy    <       0.00000012 Ry

     iteration # 79     ecut=    29.40 Ry     beta= 0.05
     Davidson diagonalization with overlap
     ethr =  3.04E-11,  avg # of iterations =  6.8

     negative rho (up, down):  1.629E-02 0.000E+00
 
     Adding external electric field

     Computed dipole along edir(3) : 
        Dipole                1.4815 Ry au,          3.7656 Debye
        Dipole field          0.0028 Ry au, 
 
        Potential amp.       -0.2592 Ry
        Total length         46.3494 bohr
 

     total cpu time spent up to now is     1224.8 secs

     End of self-consistent calculation

          k = 0.0000 0.0000 0.0000 ( 18029 PWs)   bands (ev):

   -55.3158 -55.2799 -55.2791 -55.2450 -55.2267 -55.1940 -55.1567 -55.1383
   -55.1185 -55.1077 -55.1037 -55.0933 -55.0741 -55.0072 -54.3036 -54.2695
   -31.8755 -31.7708 -31.7109 -31.6829 -31.6350 -31.6271 -31.6124 -31.6118
   -31.5682 -31.5335 -31.5267 -31.5236 -31.5011 -31.4877 -31.4639 -31.4607
   -31.4565 -31.4543 -31.4372 -31.4312 -31.4026 -31.3923 -31.3862 -31.3739
   -31.3677 -31.3390 -31.3378 -31.3363 -31.3249 -31.3235 -31.3221 -31.3048
   -31.2968 -31.2906 -31.2867 -31.2632 -31.2519 -31.2409 -31.2358 -31.2178
   -31.2164 -31.1246 -30.7128 -30.6191 -30.5970 -30.5292 -30.4424 -30.3315
   -18.9166 -17.3372 -16.1215 -15.8669 -15.7138 -15.6132 -15.5145 -15.3728
   -15.3186 -15.2089 -15.1435 -15.0027 -14.9658 -14.9473 -14.9297 -14.9273
   -14.8826 -14.8556 -14.8494 -14.8159 -14.8137 -14.7874 -14.7514 -14.7425
   -14.7120 -14.6964 -14.6495 -14.5412 -14.4722 -14.4092 -14.1123 -12.8060
   -12.6886  -8.9829  -6.6454  -4.6237  -3.4663  -3.4305  -3.3270  -3.2215
    -3.2141  -3.1860  -3.1698  -3.0607  -3.0244  -2.7751  -2.7189  -2.6605
    -2.5712  -2.4988  -2.4874  -2.4478  -2.3198  -2.2772  -2.2367  -2.1682
    -2.1508  -2.1244  -2.1004  -2.0912  -2.0313  -2.0252  -2.0012  -1.8845
    -1.8433  -1.7761  -1.7262  -1.7094  -1.6565  -1.6355  -1.6047  -1.6037
    -1.5986  -1.5533  -1.5520  -1.4967  -1.4861  -1.3805  -1.3395  -1.1510
    -1.0567  -0.9985  -0.9544  -0.8875  -0.8730  -0.7995  -0.7594  -0.7042
    -0.7025  -0.6453  -0.5250  -0.4343  -0.4119  -0.3840  -0.2984  -0.2619
    -0.2000  -0.1835  -0.0961  -0.0831  -0.0767  -0.0688   0.0601   0.1089
     0.1898   0.1956   0.2450   0.2653   0.3435   0.3581   0.4285   0.4667
     0.5226   0.5665   0.6228   0.6311   0.6564   0.6764   0.6932   0.7830
     0.7963   0.8239   0.8980   1.0347   1.2255   1.2957   1.3179   1.6267
     1.6475   1.7192   1.9040   2.2950   2.3430   3.7779   3.8569   3.9193
     3.9286   3.9410   4.0139   4.2606   4.2777   4.2784   4.2940   4.3210

          k = 0.0000 0.0419 0.0000 ( 17933 PWs)   bands (ev):

   -55.3106 -55.2851 -55.2741 -55.2499 -55.2256 -55.1894 -55.1612 -55.1333
   -55.1170 -55.1086 -55.1027 -55.0943 -55.0789 -55.0086 -54.2985 -54.2745
   -31.8187 -31.7168 -31.6749 -31.6281 -31.6007 -31.5845 -31.5743 -31.5698
   -31.5633 -31.5457 -31.5347 -31.5172 -31.5155 -31.4933 -31.4807 -31.4640
   -31.4562 -31.4503 -31.4479 -31.4227 -31.4172 -31.4075 -31.3783 -31.3681
   -31.3635 -31.3550 -31.3504 -31.3445 -31.3437 -31.3424 -31.3320 -31.3270
   -31.3079 -31.2965 -31.2933 -31.2878 -31.2825 -31.2717 -31.2697 -31.2461
   -31.2123 -31.1662 -30.6586 -30.6157 -30.6000 -30.5166 -30.4550 -30.3887
   -18.9163 -17.3348 -15.9925 -15.7514 -15.6305 -15.5389 -15.4069 -15.3211
   -15.2813 -15.1936 -15.1467 -15.1126 -15.0264 -14.9782 -14.9395 -14.9193
   -14.8745 -14.8706 -14.8217 -14.8162 -14.8082 -14.7990 -14.7902 -14.7570
   -14.7549 -14.6929 -14.6865 -14.5976 -14.5278 -14.4687 -14.2345 -12.8096
   -12.7279  -8.9817  -6.6450  -4.6207  -3.3846  -3.2741  -3.1907  -3.1590
    -3.0641  -3.0393  -3.0363  -2.9813  -2.9148  -2.6314  -2.5873  -2.5706
    -2.5288  -2.4499  -2.4443  -2.3939  -2.3702  -2.3208  -2.3054  -2.2519
    -2.2426  -2.2239  -2.1885  -2.1424  -2.1095  -2.0811  -2.0533  -2.0176
    -1.9173  -1.8882  -1.8673  -1.8551  -1.8092  -1.7927  -1.7448  -1.6296
    -1.6193  -1.5889  -1.4827  -1.4469  -1.3179  -1.2247  -1.1069  -1.0974
    -1.0752  -1.0190  -0.8647  -0.8441  -0.7218  -0.6535  -0.6270  -0.6237
    -0.5881  -0.5339  -0.4957  -0.4440  -0.3958  -0.3098  -0.2886  -0.2539
    -0.2258  -0.2198  -0.1416  -0.1038  -0.0902  -0.0376   0.0308   0.0958
     0.1131   0.1264   0.1782   0.1862   0.2722   0.2951   0.3539   0.4245
     0.4413   0.4434   0.4911   0.5163   0.5311   0.6528   0.6778   0.7313
     0.7646   0.8127   0.8894   0.9778   0.9957   1.0708   1.2009   1.3283
     1.5240   1.9034   1.9801   2.2498   2.2534   3.9695   3.9961   4.0110
     4.0761   4.1541   4.1658   4.1702   4.2171   4.2209   4.2515   4.3110

          k = 0.0000-0.0839 0.0000 ( 17884 PWs)   bands (ev):

   -55.2994 -55.2962 -55.2620 -55.2620 -55.2245 -55.1825 -55.1681 -55.1232
   -55.1186 -55.1155 -55.0954 -55.0914 -55.0902 -55.0100 -54.2866 -54.2863
   -31.6838 -31.6757 -31.6328 -31.5844 -31.5843 -31.5713 -31.5628 -31.5534
   -31.5534 -31.5097 -31.5038 -31.5005 -31.4912 -31.4872 -31.4866 -31.4706
   -31.4475 -31.4459 -31.4440 -31.4403 -31.4377 -31.3964 -31.3933 -31.3876
   -31.3856 -31.3835 -31.3825 -31.3821 -31.3738 -31.3574 -31.3556 -31.3493
   -31.3437 -31.3430 -31.3335 -31.2841 -31.2817 -31.2746 -31.2714 -31.2703
   -31.2175 -31.2091 -30.6077 -30.6075 -30.5255 -30.5253 -30.4858 -30.4857
   -18.9160 -17.3325 -15.7358 -15.6443 -15.5068 -15.4532 -15.3499 -15.3038
   -15.2922 -15.2043 -15.1498 -15.1348 -15.1255 -15.0847 -15.0032 -14.9171
   -14.9080 -14.9035 -14.8778 -14.8326 -14.7789 -14.7435 -14.7257 -14.7253
   -14.7235 -14.6683 -14.6581 -14.6146 -14.6092 -14.6001 -14.4641 -12.7907
   -12.7904  -8.9807  -6.6446  -4.6174  -3.3514  -3.1971  -2.9993  -2.8589
    -2.8361  -2.7710  -2.7450  -2.7333  -2.7098  -2.7031  -2.6144  -2.5981
    -2.5926  -2.5708  -2.4804  -2.4781  -2.4586  -2.4304  -2.4202  -2.3641
    -2.3162  -2.2806  -2.2306  -2.1756  -2.1684  -2.1404  -2.1344  -2.1268
    -1.9807  -1.9725  -1.9473  -1.9058  -1.7526  -1.6873  -1.6753  -1.6289
    -1.4472  -1.4139  -1.3672  -1.3598  -1.2366  -1.2081  -1.0850  -1.0791
    -1.0446  -0.9728  -0.8065  -0.8007  -0.7746  -0.7627  -0.7533  -0.7044
    -0.6927  -0.6835  -0.6745  -0.5113  -0.4668  -0.3905  -0.3314  -0.2707
    -0.1011  -0.0446  -0.0051   0.0035   0.0528   0.0541   0.0834   0.1010
     0.1075   0.1519   0.1824   0.2012   0.2085   0.2717   0.2870   0.3154
     0.3323   0.3792   0.4015   0.4475   0.4657   0.4676   0.5038   0.5184
     0.5973   0.8303   0.8913   0.8952   0.9021   1.0782   1.1263   1.2532
     1.2717   2.0452   2.0461   2.1855   2.1857   4.0091   4.0634   4.1067
     4.1142   4.1464   4.1545   4.2579   4.2605   4.3588   4.3839   4.3951

          k = 0.0380 0.0000 0.0000 ( 17913 PWs)   bands (ev):

   -55.3157 -55.2798 -55.2790 -55.2449 -55.2266 -55.1939 -55.1566 -55.1380
   -55.1184 -55.1078 -55.1036 -55.0933 -55.0740 -55.0071 -54.3035 -54.2694
   -31.8756 -31.7717 -31.7110 -31.6883 -31.6377 -31.6312 -31.6122 -31.6121
   -31.5680 -31.5333 -31.5236 -31.5096 -31.5010 -31.4875 -31.4604 -31.4565
   -31.4534 -31.4477 -31.4291 -31.4164 -31.4024 -31.3920 -31.3913 -31.3861
   -31.3674 -31.3393 -31.3377 -31.3358 -31.3244 -31.3233 -31.3161 -31.3109
   -31.3046 -31.2966 -31.2882 -31.2642 -31.2506 -31.2405 -31.2357 -31.2199
   -31.2183 -31.1246 -30.7123 -30.6226 -30.5950 -30.5290 -30.4423 -30.3313
   -18.9162 -17.3368 -16.0411 -15.7802 -15.7104 -15.5667 -15.4146 -15.3895
   -15.3196 -15.2290 -15.1446 -15.0899 -15.0790 -15.0084 -15.0028 -14.9958
   -14.9933 -14.9134 -14.8684 -14.8005 -14.7890 -14.7410 -14.7167 -14.6707
   -14.6590 -14.6142 -14.5686 -14.5457 -14.5447 -14.4970 -14.1117 -12.8027
   -12.6883  -8.9826  -6.6417  -4.6066  -3.4139  -3.3379  -3.2667  -3.1855
    -3.0882  -3.0093  -2.9588  -2.9248  -2.9147  -2.8171  -2.7650  -2.7191
    -2.6765  -2.6450  -2.5822  -2.4339  -2.3966  -2.3612  -2.2425  -2.2187
    -2.0947  -2.0698  -2.0237  -1.9950  -1.9694  -1.9408  -1.9070  -1.8591
    -1.8087  -1.7082  -1.6938  -1.6651  -1.6385  -1.6303  -1.5738  -1.5628
    -1.5421  -1.5166  -1.4697  -1.3769  -1.3529  -1.3292  -1.2325  -1.1223
    -1.0869  -0.9957  -0.9563  -0.9363  -0.8605  -0.8238  -0.7949  -0.7373
    -0.7286  -0.6913  -0.6587  -0.6247  -0.5913  -0.3896  -0.2923  -0.2685
    -0.2070  -0.1927  -0.1752  -0.1403  -0.0740   0.0265   0.0490   0.0838
     0.0921   0.1330   0.1935   0.2414   0.2683   0.3245   0.3837   0.4042
     0.4234   0.4645   0.4700   0.5060   0.5527   0.6481   0.6615   0.6882
     0.7381   0.7914   0.8491   0.8949   0.9968   1.1636   1.3444   1.5083
     1.6322   1.7311   1.8730   2.1824   2.2602   3.7933   3.8768   4.0153
     4.0877   4.1179   4.1724   4.2148   4.2229   4.2661   4.2781   4.2899

          k = 0.0380 0.0419 0.0000 ( 17878 PWs)   bands (ev):

   -55.3104 -55.2850 -55.2740 -55.2499 -55.2255 -55.1894 -55.1611 -55.1330
   -55.1169 -55.1085 -55.1028 -55.0943 -55.0790 -55.0085 -54.2985 -54.2744
   -31.8188 -31.7177 -31.6751 -31.6345 -31.6008 -31.5871 -31.5784 -31.5705
   -31.5631 -31.5457 -31.5348 -31.5175 -31.5019 -31.4930 -31.4807 -31.4544
   -31.4504 -31.4481 -31.4469 -31.4156 -31.4076 -31.4043 -31.3843 -31.3783
   -31.3632 -31.3527 -31.3501 -31.3435 -31.3424 -31.3346 -31.3322 -31.3281
   -31.3185 -31.2974 -31.2937 -31.2913 -31.2889 -31.2715 -31.2703 -31.2461
   -31.2176 -31.1659 -30.6582 -30.6184 -30.5990 -30.5164 -30.4551 -30.3885
   -18.9160 -17.3346 -15.9193 -15.6736 -15.6439 -15.4699 -15.3377 -15.3098
   -15.2766 -15.1982 -15.1683 -15.1117 -15.0734 -15.0443 -14.9836 -14.9702
   -14.9319 -14.9027 -14.8670 -14.8607 -14.8322 -14.7822 -14.7511 -14.7237
   -14.6801 -14.6667 -14.6422 -14.6101 -14.5932 -14.5509 -14.2344 -12.8073
   -12.7282  -8.9816  -6.6416  -4.6105  -3.3671  -3.2384  -3.1632  -3.0318
    -2.9751  -2.9218  -2.8024  -2.7886  -2.7531  -2.6683  -2.6052  -2.5801
    -2.5408  -2.4923  -2.4103  -2.3604  -2.3424  -2.3113  -2.2920  -2.2371
    -2.1959  -2.1689  -2.1309  -2.0935  -2.0773  -2.0597  -2.0115  -2.0068
    -1.9450  -1.9011  -1.8417  -1.8254  -1.7543  -1.7319  -1.7199  -1.6468
    -1.5725  -1.5032  -1.4339  -1.3723  -1.3190  -1.1876  -1.1314  -1.1078
    -1.0416  -0.9791  -0.8906  -0.8318  -0.7681  -0.7491  -0.7004  -0.6681
    -0.6468  -0.6322  -0.5654  -0.5546  -0.4848  -0.4053  -0.3593  -0.3327
    -0.2855  -0.2480  -0.2285  -0.1865  -0.1009  -0.0617  -0.0486  -0.0194
     0.0100   0.0514   0.0712   0.1136   0.1267   0.1754   0.2489   0.2706
     0.3274   0.3549   0.4168   0.4548   0.5561   0.6032   0.6788   0.7214
     0.7994   0.8425   0.8527   0.9396   0.9997   1.0991   1.1498   1.2788
     1.4726   1.9142   1.9835   2.1720   2.2350   3.9505   3.9716   4.0032
     4.1233   4.1436   4.1923   4.2122   4.2226   4.2881   4.3465   4.3698

          k = 0.0380-0.0839 0.0000 ( 17916 PWs)   bands (ev):

   -55.2994 -55.2962 -55.2620 -55.2620 -55.2245 -55.1825 -55.1681 -55.1231
   -55.1185 -55.1155 -55.0954 -55.0915 -55.0903 -55.0100 -54.2866 -54.2863
   -31.6840 -31.6760 -31.6331 -31.5852 -31.5851 -31.5714 -31.5630 -31.5535
   -31.5534 -31.5187 -31.5118 -31.5086 -31.5039 -31.4714 -31.4634 -31.4585
   -31.4510 -31.4470 -31.4436 -31.4408 -31.4402 -31.3977 -31.3948 -31.3881
   -31.3830 -31.3830 -31.3745 -31.3670 -31.3661 -31.3633 -31.3555 -31.3519
   -31.3492 -31.3431 -31.3230 -31.2959 -31.2936 -31.2769 -31.2714 -31.2704
   -31.2188 -31.2139 -30.6088 -30.6085 -30.5254 -30.5252 -30.4859 -30.4857
   -18.9159 -17.3324 -15.7001 -15.6025 -15.4713 -15.4030 -15.3438 -15.2527
   -15.2362 -15.1801 -15.1470 -15.1457 -15.0992 -15.0499 -14.9881 -14.9387
   -14.9295 -14.9053 -14.8933 -14.8655 -14.8568 -14.7920 -14.7756 -14.7535
   -14.7480 -14.6890 -14.6785 -14.6650 -14.6631 -14.5836 -14.4552 -12.7905
   -12.7902  -8.9807  -6.6415  -4.6138  -3.3413  -3.2263  -2.9600  -2.8249
    -2.7855  -2.6906  -2.5888  -2.5685  -2.5620  -2.5141  -2.4787  -2.4745
    -2.4151  -2.4026  -2.3982  -2.3930  -2.3619  -2.3481  -2.3349  -2.2926
    -2.2783  -2.2323  -2.2110  -2.1942  -2.1457  -2.1257  -2.0718  -2.0408
    -2.0103  -1.9688  -1.9260  -1.9088  -1.7607  -1.7372  -1.5813  -1.5099
    -1.4546  -1.4448  -1.3727  -1.3017  -1.2622  -1.2412  -1.2291  -1.1757
    -1.1604  -1.0702  -1.0128  -0.9956  -0.9812  -0.9524  -0.8590  -0.8077
    -0.7682  -0.6461  -0.6188  -0.5692  -0.5273  -0.4403  -0.3610  -0.3164
    -0.2776  -0.2298  -0.1830  -0.1592  -0.1211  -0.1142  -0.1045  -0.0638
     0.0045   0.0386   0.0468   0.0892   0.1280   0.1629   0.1842   0.2212
     0.2481   0.4031   0.4344   0.4624   0.5073   0.6140   0.6634   0.7479
     0.7527   0.8080   0.8505   0.9228   0.9404   1.0464   1.0712   1.2419
     1.2593   2.0586   2.0596   2.1759   2.1766   3.9421   4.0043   4.0528
     4.1155   4.1568   4.1968   4.2360   4.2600   4.3732   4.3844   4.4336

          k = 0.0380-0.0419 0.0000 ( 17876 PWs)   bands (ev):

   -55.3104 -55.2850 -55.2740 -55.2499 -55.2255 -55.1894 -55.1611 -55.1330
   -55.1169 -55.1085 -55.1028 -55.0943 -55.0790 -55.0085 -54.2985 -54.2744
   -31.8188 -31.7176 -31.6751 -31.6345 -31.6008 -31.5871 -31.5784 -31.5705
   -31.5631 -31.5457 -31.5348 -31.5175 -31.5019 -31.4931 -31.4807 -31.4544
   -31.4504 -31.4481 -31.4469 -31.4156 -31.4076 -31.4042 -31.3843 -31.3783
   -31.3632 -31.3527 -31.3501 -31.3434 -31.3424 -31.3347 -31.3322 -31.3280
   -31.3188 -31.2972 -31.2938 -31.2919 -31.2889 -31.2715 -31.2699 -31.2461
   -31.2175 -31.1660 -30.6582 -30.6184 -30.5990 -30.5164 -30.4551 -30.3886
   -18.9160 -17.3346 -15.9194 -15.6736 -15.6438 -15.4698 -15.3378 -15.3096
   -15.2766 -15.1979 -15.1683 -15.1117 -15.0737 -15.0450 -14.9832 -14.9705
   -14.9320 -14.9024 -14.8670 -14.8607 -14.8318 -14.7822 -14.7509 -14.7237
   -14.6806 -14.6664 -14.6415 -14.6100 -14.5935 -14.5512 -14.2345 -12.8073
   -12.7282  -8.9816  -6.6415  -4.6104  -3.3679  -3.2422  -3.1632  -3.0315
    -2.9735  -2.9218  -2.8018  -2.7875  -2.7525  -2.6671  -2.6040  -2.5803
    -2.5420  -2.4914  -2.4104  -2.3608  -2.3420  -2.3099  -2.2918  -2.2370
    -2.1956  -2.1685  -2.1310  -2.0950  -2.0775  -2.0609  -2.0118  -2.0069
    -1.9456  -1.9007  -1.8419  -1.8264  -1.7493  -1.7341  -1.7210  -1.6471
    -1.5704  -1.5053  -1.4301  -1.3724  -1.3177  -1.1864  -1.1338  -1.1058
    -1.0386  -0.9825  -0.8908  -0.8330  -0.7658  -0.7536  -0.7003  -0.6693
    -0.6482  -0.6341  -0.5697  -0.5536  -0.4837  -0.4027  -0.3605  -0.3297
    -0.2860  -0.2498  -0.2278  -0.1829  -0.1012  -0.0688  -0.0496  -0.0198
     0.0093   0.0507   0.0705   0.1148   0.1266   0.1741   0.2484   0.2712
     0.3297   0.3596   0.4168   0.4530   0.5569   0.6043   0.6778   0.7212
     0.7991   0.8405   0.8524   0.9417   1.0042   1.0988   1.1504   1.2791
     1.4729   1.9142   1.9835   2.1718   2.2357   3.9496   3.9706   4.0034
     4.1255   4.1418   4.1904   4.2126   4.2211   4.2887   4.3480   4.3677

          k =-0.0760-0.0000 0.0000 ( 17886 PWs)   bands (ev):

   -55.3156 -55.2798 -55.2790 -55.2449 -55.2265 -55.1939 -55.1566 -55.1378
   -55.1183 -55.1079 -55.1036 -55.0933 -55.0740 -55.0071 -54.3034 -54.2694
   -31.8758 -31.7727 -31.7113 -31.6934 -31.6405 -31.6352 -31.6124 -31.6120
   -31.5678 -31.5333 -31.5235 -31.5012 -31.4875 -31.4845 -31.4603 -31.4560
   -31.4423 -31.4421 -31.4259 -31.4168 -31.4024 -31.3919 -31.3860 -31.3805
   -31.3679 -31.3467 -31.3396 -31.3376 -31.3357 -31.3261 -31.3242 -31.3085
   -31.3049 -31.2967 -31.2910 -31.2667 -31.2495 -31.2407 -31.2356 -31.2224
   -31.2192 -31.1247 -30.7119 -30.6260 -30.5936 -30.5289 -30.4422 -30.3314
   -18.9160 -17.3365 -15.9000 -15.8084 -15.6310 -15.4992 -15.3796 -15.3394
   -15.2875 -15.2201 -15.1645 -15.1567 -15.1441 -15.0896 -15.0877 -15.0773
   -15.0323 -14.9889 -14.8646 -14.7908 -14.7404 -14.7311 -14.7215 -14.6992
   -14.6863 -14.6416 -14.5766 -14.5677 -14.4778 -14.4577 -14.1114 -12.7996
   -12.6880  -8.9824  -6.6380  -4.5909  -3.3970  -3.3052  -3.2993  -3.1633
    -2.9954  -2.9364  -2.8127  -2.7905  -2.7773  -2.7520  -2.7318  -2.6963
    -2.6255  -2.5948  -2.5702  -2.5539  -2.3541  -2.2074  -2.2045  -2.1608
    -2.0132  -1.9929  -1.9552  -1.9155  -1.8909  -1.8566  -1.8149  -1.8030
    -1.7944  -1.7673  -1.7420  -1.6837  -1.6690  -1.6372  -1.6234  -1.6001
    -1.5853  -1.5289  -1.4264  -1.3996  -1.2497  -1.2154  -1.1580  -1.0357
    -0.9798  -0.9737  -0.9463  -0.9400  -0.8974  -0.8920  -0.8782  -0.7846
    -0.7620  -0.7577  -0.7082  -0.6348  -0.6266  -0.5873  -0.5760  -0.5095
    -0.2582  -0.2356  -0.1951  -0.1704  -0.0804  -0.0711  -0.0123   0.0047
     0.0742   0.0929   0.1624   0.1953   0.2076   0.2120   0.2815   0.3048
     0.3573   0.3722   0.4434   0.4845   0.5228   0.5280   0.6570   0.6850
     0.6861   0.7026   0.8180   0.9918   0.9989   1.1827   1.2236   1.3673
     1.6369   1.7525   1.8481   2.0524   2.2051   3.7938   3.8342   3.9224
     4.0410   4.0654   4.1586   4.1963   4.2294   4.2656   4.2852   4.3520

          k =-0.0760 0.0419 0.0000 ( 17914 PWs)   bands (ev):

   -55.3104 -55.2851 -55.2740 -55.2499 -55.2255 -55.1894 -55.1612 -55.1329
   -55.1169 -55.1085 -55.1030 -55.0944 -55.0790 -55.0085 -54.2985 -54.2745
   -31.8191 -31.7187 -31.6754 -31.6406 -31.6013 -31.5898 -31.5827 -31.5711
   -31.5631 -31.5457 -31.5348 -31.5178 -31.4936 -31.4838 -31.4808 -31.4505
   -31.4481 -31.4450 -31.4372 -31.4132 -31.4076 -31.4039 -31.3784 -31.3687
   -31.3645 -31.3522 -31.3520 -31.3501 -31.3435 -31.3422 -31.3374 -31.3324
   -31.3122 -31.3040 -31.2966 -31.2955 -31.2867 -31.2725 -31.2722 -31.2462
   -31.2230 -31.1659 -30.6579 -30.6214 -30.5983 -30.5164 -30.4551 -30.3886
   -18.9158 -17.3344 -15.7848 -15.7320 -15.5496 -15.4087 -15.3052 -15.2608
   -15.2346 -15.2049 -15.1441 -15.1100 -15.1073 -15.0961 -15.0469 -15.0391
   -15.0107 -14.9728 -14.8958 -14.8535 -14.8359 -14.7706 -14.7524 -14.7411
   -14.6984 -14.6871 -14.6611 -14.6111 -14.5662 -14.5645 -14.2347 -12.8051
   -12.7285  -8.9816  -6.6383  -4.6013  -3.3538  -3.2689  -3.1363  -3.0129
    -2.9662  -2.7041  -2.6294  -2.6048  -2.5800  -2.5584  -2.5147  -2.5076
    -2.4559  -2.4280  -2.3801  -2.3535  -2.3139  -2.2725  -2.2439  -2.2358
    -2.1865  -2.1381  -2.0999  -2.0365  -2.0138  -1.9864  -1.9128  -1.9014
    -1.8786  -1.8735  -1.8630  -1.8456  -1.8054  -1.7848  -1.6486  -1.5198
    -1.5080  -1.4637  -1.4360  -1.3763  -1.2808  -1.2083  -1.1017  -1.0908
    -1.0275  -0.9695  -0.9343  -0.8929  -0.8788  -0.8074  -0.7869  -0.7410
    -0.6979  -0.6937  -0.6579  -0.6148  -0.5755  -0.5502  -0.5461  -0.5305
    -0.4499  -0.4057  -0.3822  -0.3472  -0.2776  -0.2511  -0.1392  -0.1108
    -0.0871  -0.0725  -0.0255  -0.0077   0.0199   0.1439   0.1802   0.2234
     0.2840   0.3916   0.4228   0.4561   0.4994   0.6532   0.6939   0.7318
     0.8296   0.9276   0.9600   0.9693   1.0630   1.1069   1.1759   1.2026
     1.3402   1.9294   1.9857   2.0943   2.2242   3.9541   3.9674   3.9742
     4.0021   4.0894   4.1504   4.1779   4.1975   4.2929   4.2948   4.4152

          k =-0.0760-0.0839 0.0000 ( 17948 PWs)   bands (ev):

   -55.2994 -55.2962 -55.2620 -55.2620 -55.2244 -55.1826 -55.1681 -55.1231
   -55.1184 -55.1155 -55.0955 -55.0916 -55.0904 -55.0101 -54.2867 -54.2864
   -31.6843 -31.6763 -31.6334 -31.5860 -31.5859 -31.5715 -31.5633 -31.5536
   -31.5535 -31.5268 -31.5162 -31.5138 -31.5040 -31.4721 -31.4555 -31.4512
   -31.4469 -31.4444 -31.4426 -31.4363 -31.4316 -31.3987 -31.3959 -31.3956
   -31.3817 -31.3817 -31.3789 -31.3748 -31.3624 -31.3556 -31.3492 -31.3432
   -31.3363 -31.3318 -31.3202 -31.3189 -31.3121 -31.2792 -31.2714 -31.2704
   -31.2241 -31.2159 -30.6098 -30.6095 -30.5254 -30.5252 -30.4859 -30.4857
   -18.9156 -17.3323 -15.6577 -15.5528 -15.4430 -15.3233 -15.3153 -15.2585
   -15.2108 -15.1304 -15.0891 -15.0768 -15.0561 -15.0418 -15.0111 -15.0071
   -14.9867 -14.9124 -14.9015 -14.8912 -14.8680 -14.8267 -14.8161 -14.8134
   -14.7962 -14.7708 -14.7667 -14.6718 -14.6688 -14.5734 -14.4483 -12.7902
   -12.7900  -8.9808  -6.6385  -4.6105  -3.3314  -3.2532  -2.9279  -2.8197
    -2.7754  -2.6846  -2.5346  -2.5050  -2.4341  -2.4280  -2.3610  -2.3089
    -2.2945  -2.2753  -2.1921  -2.1755  -2.1648  -2.1528  -2.1397  -2.1114
    -2.0884  -2.0410  -2.0377  -2.0362  -2.0273  -2.0061  -1.9707  -1.9511
    -1.9115  -1.9026  -1.8815  -1.8344  -1.7921  -1.7745  -1.7574  -1.6520
    -1.6253  -1.5193  -1.5145  -1.4146  -1.4099  -1.3821  -1.3577  -1.3480
    -1.2795  -1.2128  -1.0608  -1.0513  -1.0186  -0.9407  -0.9286  -0.8714
    -0.8649  -0.7799  -0.7628  -0.7344  -0.6395  -0.6094  -0.5058  -0.4921
    -0.4838  -0.3465  -0.3431  -0.2867  -0.2753  -0.2723  -0.2039  -0.1981
    -0.1919  -0.1108  -0.0765  -0.0495  -0.0384   0.0152   0.2036   0.2307
     0.2608   0.3835   0.4316   0.5715   0.6652   0.6701   0.7406   0.8032
     0.8218   0.8822   0.9792   0.9926   1.0495   1.0793   1.1277   1.1426
     1.1527   2.0763   2.0774   2.1629   2.1630   3.8939   3.9934   4.0607
     4.1112   4.1246   4.2141   4.2990   4.3276   4.3601   4.3621   4.4381

     the Fermi energy is     3.8356 ev

!    total energy              =   -2951.44744423 Ry
     estimated scf accuracy    <       0.00000006 Ry
     smearing contrib. (-TS)   =      -0.03730353 Ry
     internal energy E=F+TS    =   -2951.41014069 Ry

     The total energy is F=E-TS. E is the sum of the following terms:
     one-electron contribution =  -24061.01101874 Ry
     hartree contribution      =   12123.57047893 Ry
     xc contribution           =    -487.22778168 Ry
     ewald contribution        =    9473.25403886 Ry
     electric field correction =       0.00414195 Ry

     convergence has been achieved in  79 iterations

     Forces acting on atoms (cartesian axes, Ry/au):

     atom    1 type  1   force =    -0.00003342   -0.00025667    0.09357683
     atom    2 type  1   force =    -0.00017604   -0.00043599   -0.17788126
     atom    3 type  2   force =     0.00002668   -0.00025237   -0.02078615
     atom    4 type  2   force =    -0.00003026   -0.00180160    0.05843843
     atom    5 type  2   force =    -0.01030210   -0.00058540    0.00698608
     atom    6 type  2   force =     0.01196869    0.00004806    0.00669896
     atom    7 type  1   force =    -0.00014652    0.00223068   -0.01161526
     atom    8 type  1   force =    -0.00007517    0.00223563   -0.00161758
     atom    9 type  2   force =     0.00007468    0.00060691    0.00059660
     atom   10 type  2   force =    -0.00107188    0.00322334   -0.00393670
     atom   11 type  2   force =     0.00037376   -0.00031250   -0.00028908
     atom   12 type  2   force =    -0.00041274   -0.00031794   -0.00016602
     atom   13 type  1   force =     0.00000601    0.00014839    0.00028106
     atom   14 type  1   force =     0.00000989   -0.00046888    0.00044265
     atom   15 type  2   force =    -0.00024126   -0.00068702    0.00062032
     atom   16 type  2   force =    -0.00001269    0.00043918    0.00022513
     atom   17 type  2   force =     0.00010256   -0.00022160   -0.00020646
     atom   18 type  2   force =     0.00025020   -0.00032871   -0.00053820
     atom   19 type  1   force =    -0.00055751   -0.00120689   -0.00019685
     atom   20 type  1   force =     0.00016953    0.00000526   -0.00078560
     atom   21 type  2   force =    -0.00001317   -0.00011913    0.10391274
     atom   22 type  2   force =    -0.00005635    0.00051453   -0.00048244
     atom   23 type  2   force =    -0.07055272   -0.00021935   -0.02696503
     atom   24 type  2   force =     0.07035031    0.00021433   -0.02701547
     atom   25 type  1   force =     0.00000332   -0.00027750    0.09310537
     atom   26 type  1   force =    -0.00019331   -0.00053049   -0.17814338
     atom   27 type  2   force =     0.00007243   -0.00022121   -0.01971137
     atom   28 type  2   force =     0.00001901   -0.00155943    0.05764249
     atom   29 type  2   force =    -0.01084780   -0.00008181    0.00742143
     atom   30 type  2   force =     0.01237465    0.00025681    0.00710095
     atom   31 type  1   force =    -0.00010145    0.00572736   -0.01415064
     atom   32 type  1   force =    -0.00008957   -0.00264106   -0.00140089
     atom   33 type  2   force =     0.00010983   -0.00051621    0.00032399
     atom   34 type  2   force =    -0.00048174   -0.00030557   -0.00099979
     atom   35 type  2   force =    -0.00032279   -0.00018178   -0.00031180
     atom   36 type  2   force =     0.00032606   -0.00030016   -0.00010197
     atom   37 type  1   force =     0.00012005   -0.00043868    0.00060677
     atom   38 type  1   force =    -0.00002508   -0.00060529   -0.00026010
     atom   39 type  2   force =    -0.00002523    0.00015699    0.00016931
     atom   40 type  2   force =    -0.00007133   -0.00014198   -0.00004345
     atom   41 type  2   force =     0.00027773    0.00002923    0.00057608
     atom   42 type  2   force =     0.00043625    0.00034595    0.00022392
     atom   43 type  1   force =    -0.00052756    0.00065657   -0.00041195
     atom   44 type  1   force =     0.00059799    0.00039474   -0.00038057
     atom   45 type  2   force =    -0.00002189   -0.00015240    0.10389362
     atom   46 type  2   force =    -0.07052934   -0.00015873   -0.02695298
     atom   47 type  2   force =     0.07033623    0.00027274   -0.02701344
     atom   48 type  3   force =    -0.00135409   -0.00178556    0.00175342
     atom   49 type  4   force =     0.00093094    0.00111273   -0.00127815
     atom   50 type  5   force =    -0.00044189   -0.00123692   -0.00017275
     atom   51 type  2   force =     0.00030128    0.00051602   -0.00057952
     atom   52 type  5   force =    -0.00001340   -0.00058583   -0.00022488
     atom   53 type  5   force =    -0.00050982   -0.00020079    0.00002353

     Total force =     0.365901     Total SCF correction =     0.000716
  @ DRIVER MODE: Message from server: STATUS
  @ DRIVER MODE: Message from server: GETFORCE
  @ DRIVER MODE: Returning v,forces,stress,ensemble 

     Writing output data file ./calc.save/
  @ DRIVER MODE: Message from server: EXIT
  @ DRIVE MODE: Exiting  
 
     init_run     :     10.68s CPU     10.88s WALL (       1 calls)
     electrons    :   1196.56s CPU   1213.72s WALL (       1 calls)
     forces       :      2.31s CPU      2.39s WALL (       1 calls)

     Called by init_run:
     wfcinit      :      4.71s CPU      4.77s WALL (       1 calls)
     potinit      :      5.32s CPU      5.39s WALL (       1 calls)
     hinit0       :      0.30s CPU      0.30s WALL (       1 calls)

     Called by electrons:
     c_bands      :   1012.85s CPU   1019.91s WALL (      79 calls)
     sum_band     :    124.97s CPU    129.03s WALL (      79 calls)
     v_of_rho     :     43.60s CPU     45.77s WALL (      80 calls)
     newd         :     18.04s CPU     21.93s WALL (      80 calls)
     mix_rho      :      1.63s CPU      1.65s WALL (      79 calls)
     vdW_kernel   :      4.55s CPU      4.56s WALL (       1 calls)

     Called by c_bands:
     init_us_2    :      7.19s CPU      7.22s WALL (    1600 calls)
     cegterg      :    991.59s CPU    998.34s WALL (     807 calls)

     Called by *egterg:
     cdiaghg      :    173.95s CPU    174.64s WALL (    8769 calls)
     h_psi        :    525.70s CPU    530.47s WALL (    8779 calls)
     s_psi        :     71.93s CPU     72.16s WALL (    8779 calls)
     g_psi        :      1.83s CPU      1.84s WALL (    7962 calls)

     Called by h_psi:
     h_psi:calbec :     67.22s CPU     67.53s WALL (    8779 calls)
     vloc_psi     :    382.99s CPU    386.81s WALL (    8779 calls)
     add_vuspsi   :     72.09s CPU     72.54s WALL (    8779 calls)

     General routines
     calbec       :     89.13s CPU     89.51s WALL (    9609 calls)
     fft          :     22.36s CPU     22.54s WALL (    5040 calls)
     ffts         :      0.15s CPU      0.15s WALL (     159 calls)
     fftw         :    433.01s CPU    437.28s WALL ( 1032158 calls)
     interpolate  :      0.46s CPU      0.46s WALL (      80 calls)
     davcio       :      0.00s CPU      2.78s WALL (      10 calls)
 
     Parallel routines
 
     PWSCF        :  20m 9.84s CPU  20m35.45s WALL

 
   This run was terminated on:  16:35:57  15Sep2021            

=------------------------------------------------------------------------------=
   JOB DONE.
=------------------------------------------------------------------------------=
