
     Program PWSCF v.6.7GPU starts on 16Jul2021 at 17:43:38 

     This program is part of the open-source Quantum ESPRESSO suite
     for quantum simulation of materials; please cite
         "P. Giannozzi et al., J. Phys.:Condens. Matter 21 395502 (2009);
         "P. Giannozzi et al., J. Phys.:Condens. Matter 29 465901 (2017);
         "P. Giannozzi et al., J. Chem. Phys. 152 154105 (2020);
          URL http://www.quantum-espresso.org", 
     in publications or presentations arising from this work. More details at
     http://www.quantum-espresso.org/quote

     Parallel version (MPI), running on    16 processors

     MPI processes distributed on     1 nodes
     R & G space division:  proc/nbgrp/npool/nimage =      16
     Reading input from /storage/home/hcoda1/3/ntian30/research/carbon/15Jul_vib/ads_slab/CH3NNHHH_a/out_0031/pw.inp
Warning: card &CELL ignored
Warning: card   CELL_DYNAMICS='IPI', ignored
Warning: card / ignored

     Current dimensions of program PWSCF are:
     Max number of different atomic species (ntypx) = 10
     Max number of k-points (npk) =  40000
     Max angular momentum in pseudopotentials (lmaxx) =  3
     Presently no symmetry can be used with electric field

     Message from routine cell_base_init:
     DEPRECATED: use true lattice parameter, not A to a.u. conversion factor

     **************************************************************************
     Initializing libbeef V0.1.2 with the BEEF-vdW functional.
     Citation: Wellendorff et al., PRB 85, 235149 (2012).
     **************************************************************************


     IMPORTANT: XC functional enforced from input :
     Exchange-correlation= BEEF-VDW
                           (   1   4  43  14   2   0   0)
     Any further DFT definition will be discarded
     Please, verify this is what you really want


     Subspace diagonalization in iterative solution of the eigenvalue problem:
     one sub-group per band group will be used
     scalapack distributed-memory algorithm (size of sub-group:  4*  4 procs)

  @ DRIVER MODE: Connecting to 
 qe_1139763_2351652.sched-torque.pace.gatech.edurpuvt9eb_scratch
  using UNIX socket
  @ DRIVER MODE: Message from server: STATUS
  @ DRIVER MODE: Message from server: INIT
  @ DRIVER MODE: Receiving replica           0          -1
  @ DRIVER MODE: Receiving encoded integer          25
  @ DRIVER MODE:  SCF:  T  FORCE:  T  STRESS:  F  VC:  F  ENSEMBLE:  F
  @ DRIVER MODE:  SCF:  T  FORCE:  T  STRESS:  F  VC:  F  ENSEMBLE:  F
 
     Parallelization info
     --------------------
     sticks:   dense  smooth     PW     G-vecs:    dense   smooth      PW
     Min         204      82     23                35422     8962    1367
     Max         205      84     24                35435     8968    1382
     Sum        3275    1317    379               566857   143421   21985
 
     Using Slab Decomposition
 


     bravais-lattice index     =            0
     lattice parameter (alat)  =       1.8897  a.u.
     unit-cell volume          =    6658.9804 (a.u.)^3
     number of atoms/cell      =           56
     number of atomic types    =            5
     number of electrons       =       398.00
     number of Kohn-Sham states=          209
     kinetic-energy cutoff     =      29.3995  Ry
     charge density cutoff     =     293.9946  Ry
     scf convergence threshold =      7.3E-08
     mixing beta               =       0.0500
     number of iterations used =            8  plain     mixing
     Exchange-correlation= BEEF-VDW
                           (   1   4  43  14   2   0   0)

     celldm(1)=   1.889726  celldm(2)=   0.000000  celldm(3)=   0.000000
     celldm(4)=   0.000000  celldm(5)=   0.000000  celldm(6)=   0.000000

     crystal axes: (cart. coord. in units of alat)
               a(1) = (   6.579727   0.000000   0.000000 )  
               a(2) = (  -0.000775   5.961596   0.000000 )  
               a(3) = (   0.000000   0.000000  25.155947 )  

     reciprocal axes: (cart. coord. in units 2 pi/alat)
               b(1) = (  0.151982  0.000020  0.000000 )  
               b(2) = (  0.000000  0.167740  0.000000 )  
               b(3) = (  0.000000  0.000000  0.039752 )  


     PseudoPot. # 1 for Ti read from file:
     /storage/coda1/p-amedford6/0/shared/rich_project_chbe-medford/medford-share/data/pseudos_module/espresso/nninc/pbe/van/Ti.UPF
     MD5 check sum: 8e4df49b7f0d34bbd5052bf3f5ea0213
     Pseudo is Ultrasoft, Zval = 12.0
     Generated by new atomic code, or converted to UPF format
     Using radial grid of  851 points,  6 beta functions with: 
                l(1) =   0
                l(2) =   0
                l(3) =   1
                l(4) =   1
                l(5) =   2
                l(6) =   2
     Q(r) pseudized with  8 coefficients,  rinner =    1.000   1.000   1.000
                                                       1.000   1.000

     PseudoPot. # 2 for O  read from file:
     /storage/coda1/p-amedford6/0/shared/rich_project_chbe-medford/medford-share/data/pseudos_module/espresso/nninc/pbe/van/O.UPF
     MD5 check sum: 78c19812648e8988a0fe644b0f25305e
     Pseudo is Ultrasoft, Zval =  6.0
     Generated by new atomic code, or converted to UPF format
     Using radial grid of  737 points,  4 beta functions with: 
                l(1) =   0
                l(2) =   0
                l(3) =   1
                l(4) =   1
     Q(r) pseudized with  8 coefficients,  rinner =    0.800   0.800   0.800


     PseudoPot. # 3 for N  read from file:
     /storage/coda1/p-amedford6/0/shared/rich_project_chbe-medford/medford-share/data/pseudos_module/espresso/nninc/pbe/van/N.UPF
     MD5 check sum: 90d10febe142ad51ac9d5be1deb811c4
     Pseudo is Ultrasoft, Zval =  5.0
     Generated by new atomic code, or converted to UPF format
     Using radial grid of  729 points,  4 beta functions with: 
                l(1) =   0
                l(2) =   0
                l(3) =   1
                l(4) =   1
     Q(r) pseudized with  8 coefficients,  rinner =    0.800   0.800   0.800


     PseudoPot. # 4 for C  read from file:
     /storage/coda1/p-amedford6/0/shared/rich_project_chbe-medford/medford-share/data/pseudos_module/espresso/nninc/pbe/van/C.UPF
     MD5 check sum: 1a69bf6b8db32088f5b2163dbdb77a27
     Pseudo is Ultrasoft, Zval =  4.0
     Generated by new atomic code, or converted to UPF format
     Using radial grid of  721 points,  4 beta functions with: 
                l(1) =   0
                l(2) =   0
                l(3) =   1
                l(4) =   1
     Q(r) pseudized with  8 coefficients,  rinner =    0.800   0.800   0.800


     PseudoPot. # 5 for H  read from file:
     /storage/coda1/p-amedford6/0/shared/rich_project_chbe-medford/medford-share/data/pseudos_module/espresso/nninc/pbe/van/H.UPF
     MD5 check sum: b5ee9d7bfd3a09ee7748110bda690ff7
     Pseudo is Ultrasoft, Zval =  1.0
     Generated by new atomic code, or converted to UPF format
     Using radial grid of  615 points,  1 beta functions with: 
                l(1) =   0
     Q(r) pseudized with  8 coefficients,  rinner =    0.800

     atomic species   valence    mass     pseudopotential
        Ti1           12.00    47.86700     Ti( 1.00)
        O1             6.00    15.99900     O ( 1.00)
        N1             5.00    14.00700     N ( 1.00)
        C1             4.00    12.01100     C ( 1.00)
        H1             1.00     1.00800     H ( 1.00)

     Starting magnetic structure 
     atomic species   magnetization
        Ti1          0.000
        O1           0.000
        N1           0.000
        C1           0.025
        H1           0.000

     No symmetry found



   Cartesian axes

     site n.     atom                  positions (alat units)
         1           Ti1 tau(   1) = (   0.0004258   2.9801865   6.0000000  )
         2           Ti1 tau(   2) = (   3.2906075   1.4906267   6.0002472  )
         3           O1  tau(   3) = (   0.0006271   0.0005054   7.9858123  )
         4           O1  tau(   4) = (   3.2906025   0.0005020   7.3038282  )
         5           O1  tau(   5) = (   4.5942328   1.4918067   9.2879030  )
         6           O1  tau(   6) = (   1.9868534   1.4903216   9.2879459  )
         7           Ti1 tau(   7) = (   3.2907910   2.8959150   9.1758416  )
         8           Ti1 tau(   8) = (   0.0015273   1.4827037   9.2680791  )
         9           O1  tau(   9) = (   3.2969863   5.9453513  11.3493076  )
        10           O1  tau(  10) = (   0.0116148   5.9584955  10.6183126  )
        11           O1  tau(  11) = (   1.3059050   1.4736943  12.6642453  )
        12           O1  tau(  12) = (   5.3003793   1.4775083  12.6459419  )
        13           Ti1 tau(  13) = (   0.0167275   2.9625105  12.5508078  )
        14           Ti1 tau(  14) = (   3.3131340   1.4712512  12.4909780  )
        15           O1  tau(  15) = (   6.5517612   5.9325698  14.7566896  )
        16           O1  tau(  16) = (   3.3302114   5.9429442  13.9823395  )
        17           O1  tau(  17) = (   4.5243935   1.5056208  16.2316672  )
        18           O1  tau(  18) = (   2.0170937   1.4633510  16.1378485  )
        19           Ti1 tau(  19) = (   3.2500237   2.9242626  15.6920970  )
        20           Ti1 tau(  20) = (   6.5441017   1.2779805  16.1516014  )
        21           O1  tau(  21) = (   3.2904802   0.0005063   4.7018136  )
        22           O1  tau(  22) = (   6.5540411   5.9581837  17.3465722  )
        23           O1  tau(  23) = (   1.3043587   1.4918075   6.0039043  )
        24           O1  tau(  24) = (   5.2767064   1.4903225   6.0039473  )
        25           Ti1 tau(  25) = (   0.0000382   5.9609847   6.0000000  )
        26           Ti1 tau(  26) = (   3.2902200   4.4714249   6.0002472  )
        27           O1  tau(  27) = (   0.0002396   2.9813036   7.9858123  )
        28           O1  tau(  28) = (   3.2902150   2.9813002   7.3038282  )
        29           O1  tau(  29) = (   4.5938453   4.4726049   9.2879030  )
        30           O1  tau(  30) = (   1.9864658   4.4711199   9.2879459  )
        31           Ti1 tau(  31) = (   3.2891106   5.8743827   9.1763621  )
        32           Ti1 tau(  32) = (   0.0006254   4.4649316   9.2693709  )
        33           O1  tau(  33) = (   3.2962403   2.9651072  11.3429128  )
        34           O1  tau(  34) = (   0.0092240   2.9805883  10.6323155  )
        35           O1  tau(  35) = (   1.3076126   4.4641214  12.6643835  )
        36           O1  tau(  36) = (   5.2981430   4.4591552  12.6429889  )
        37           Ti1 tau(  37) = (   0.0194730   5.9489450  12.5196332  )
        38           Ti1 tau(  38) = (   3.3150505   4.4522436  12.4946186  )
        39           O1  tau(  39) = (   6.5702761   2.9869041  14.8038460  )
        40           O1  tau(  40) = (   3.3119818   2.9576719  13.9204832  )
        41           O1  tau(  41) = (   4.5223198   4.3950437  16.2490866  )
        42           O1  tau(  42) = (   2.0356696   4.4339808  16.1311045  )
        43           Ti1 tau(  43) = (   3.3057863   5.9493229  15.7677403  )
        44           Ti1 tau(  44) = (   0.0958844   4.4293496  15.8701971  )
        45           O1  tau(  45) = (   3.2900926   2.9813045   4.7018136  )
        46           O1  tau(  46) = (   1.3039711   4.4726057   6.0039043  )
        47           O1  tau(  47) = (   5.2763189   4.4711207   6.0039473  )
        48           N1  tau(  48) = (   0.0620580   3.0375546  17.6897758  )
        49           C1  tau(  49) = (   1.1116374   2.9693208  18.6984743  )
        50           H1  tau(  50) = (   1.2951007   3.9532040  19.1583453  )
        51           H1  tau(  51) = (   0.8627774   2.2426413  19.4871689  )
        52           H1  tau(  52) = (   2.0263963   2.6228967  18.2308865  )
        53           N1  tau(  53) = (   5.4179256   3.3744730  18.4033390  )
        54           H1  tau(  54) = (   5.6103604   4.1199394  19.0852601  )
        55           H1  tau(  55) = (   4.7934260   3.8076565  17.6395878  )
        56           H1  tau(  56) = (   5.0090149   2.5598412  18.8678436  )

     number of k points=    10  Fermi-Dirac smearing, width (Ry)=  0.0073
                       cart. coord. in units 2pi/alat
        k(    1) = (   0.0000000   0.0000000   0.0000000), wk =   0.0625000
        k(    2) = (   0.0000000   0.0419351   0.0000000), wk =   0.1250000
        k(    3) = (   0.0000000  -0.0838702   0.0000000), wk =   0.0625000
        k(    4) = (   0.0379955   0.0000049   0.0000000), wk =   0.1250000
        k(    5) = (   0.0379955   0.0419400   0.0000000), wk =   0.1250000
        k(    6) = (   0.0379955  -0.0838652   0.0000000), wk =   0.1250000
        k(    7) = (   0.0379955  -0.0419301   0.0000000), wk =   0.1250000
        k(    8) = (  -0.0759910  -0.0000099   0.0000000), wk =   0.0625000
        k(    9) = (  -0.0759910   0.0419252   0.0000000), wk =   0.1250000
        k(   10) = (  -0.0759910  -0.0838800   0.0000000), wk =   0.0625000

     Dense  grid:   566857 G-vectors     FFT dimensions: (  72,  64, 270)

     Smooth grid:   143421 G-vectors     FFT dimensions: (  45,  40, 180)

     Estimated max dynamical RAM per process >     280.16 MB

     Estimated total dynamical RAM >       4.38 GB
     Generating pointlists ...
     new r_m :   0.7228 (alat units)  1.3658 (a.u.) for type    1
     new r_m :   0.6326 (alat units)  1.1955 (a.u.) for type    2
     new r_m :   0.4220 (alat units)  0.7975 (a.u.) for type    3
     new r_m :   0.4472 (alat units)  0.8451 (a.u.) for type    4
     new r_m :   0.4220 (alat units)  0.7975 (a.u.) for type    5
     Cannot read rho : file not found

     Initial potential from superposition of free atoms

     starting charge  381.99914, renormalised to  398.00000

     negative rho (up, down):  8.080E-03 8.084E-03


     %%%%%%%%%%%%%%%%%%%%%%%%%%%%%%%%%%%%%%%%%%%%%%%%%%%%%%%%%%%%%%%%%%%%%%%%
     %                                                                      %
     % You are using vdW-DF, which was implemented by the Thonhauser group. %
     % Please cite the following two papers that made this development      %
     % possible and the two reviews that describe the various versions:     %
     %                                                                      %
     %   T. Thonhauser et al., PRL 115, 136402 (2015).                      %
     %   T. Thonhauser et al., PRB 76, 125112 (2007).                       %
     %   K. Berland et al., Rep. Prog. Phys. 78, 066501 (2015).             %
     %   D.C. Langreth et al., J. Phys.: Condens. Matter 21, 084203 (2009). %
     %                                                                      %
     %                                                                      %
     % If you are calculating the stress with vdW-DF, please also cite:     %
     %                                                                      %
     %   R. Sabatini et al., J. Phys.: Condens. Matter 24, 424209 (2012).   %
     %                                                                      %
     %%%%%%%%%%%%%%%%%%%%%%%%%%%%%%%%%%%%%%%%%%%%%%%%%%%%%%%%%%%%%%%%%%%%%%%%


 
     Adding external electric field

     Computed dipole along edir(3) : 
        Dipole              -10.5729 Ry au,        -26.8736 Debye
        Dipole field         -0.0200 Ry au, 
 
        Potential amp.        1.8496 Ry
        Total length         46.3494 bohr
 
 
     Adding external electric field

     Computed dipole along edir(3) : 
        Dipole              -10.5729 Ry au,        -26.8736 Debye
        Dipole field         -0.0200 Ry au, 
 
        Potential amp.        1.8496 Ry
        Total length         46.3494 bohr
 
     Starting wfcs are  302 atomic wfcs
  @ DRIVER MODE: Message from server: STATUS
  @ DRIVER MODE: Message from server: POSDATA
  @ DRIVER MODE: Reading and sharing cell 
  @ DRIVER MODE: Reading and sharing positions 
  @ DRIVER MODE: Received positions 

     total cpu time spent up to now is       62.7 secs

     Self-consistent Calculation

     iteration #  1     ecut=    29.40 Ry     beta= 0.05
     Davidson diagonalization with overlap
     c_bands:  4 eigenvalues not converged
     c_bands:  2 eigenvalues not converged
     c_bands:  1 eigenvalues not converged
     c_bands:  5 eigenvalues not converged
     c_bands:  5 eigenvalues not converged
     c_bands:  1 eigenvalues not converged
     c_bands:  5 eigenvalues not converged
     c_bands:  3 eigenvalues not converged
     c_bands:  4 eigenvalues not converged
     c_bands:  3 eigenvalues not converged
     c_bands:  1 eigenvalues not converged
     c_bands:  4 eigenvalues not converged
     c_bands:  5 eigenvalues not converged
     c_bands:  5 eigenvalues not converged
     c_bands:  5 eigenvalues not converged
     c_bands:  3 eigenvalues not converged
     ethr =  1.00E-05,  avg # of iterations = 20.2

     negative rho (up, down):  5.784E-03 5.788E-03
 
     Adding external electric field

     Computed dipole along edir(3) : 
        Dipole               47.8857 Ry au,        121.7134 Debye
        Dipole field          0.0904 Ry au, 
 
        Potential amp.       -8.3769 Ry
        Total length         46.3494 bohr
 
 
     Adding external electric field

     Computed dipole along edir(3) : 
        Dipole               47.8857 Ry au,        121.7134 Debye
        Dipole field          0.0904 Ry au, 
 
        Potential amp.       -8.3769 Ry
        Total length         46.3494 bohr
 

     total cpu time spent up to now is      127.7 secs

     total energy              =   -2443.27182449 Ry
     estimated scf accuracy    <    5586.05798071 Ry

     total magnetization       =     0.00 Bohr mag/cell
     absolute magnetization    =     0.01 Bohr mag/cell

     iteration #  2     ecut=    29.40 Ry     beta= 0.05
     Davidson diagonalization with overlap
     ethr =  1.00E-02,  avg # of iterations = 24.2

     negative rho (up, down):  1.329E-03 1.328E-03
 
     Adding external electric field

     Computed dipole along edir(3) : 
        Dipole               -1.3039 Ry au,         -3.3141 Debye
        Dipole field         -0.0025 Ry au, 
 
        Potential amp.        0.2281 Ry
        Total length         46.3494 bohr
 
 
     Adding external electric field

     Computed dipole along edir(3) : 
        Dipole               -1.3039 Ry au,         -3.3141 Debye
        Dipole field         -0.0025 Ry au, 
 
        Potential amp.        0.2281 Ry
        Total length         46.3494 bohr
 

     total cpu time spent up to now is      263.2 secs

     total energy              =   -2439.27848119 Ry
     estimated scf accuracy    <   70338.41072315 Ry

     total magnetization       =     0.18 Bohr mag/cell
     absolute magnetization    =     0.76 Bohr mag/cell

     iteration #  3     ecut=    29.40 Ry     beta= 0.05
     Davidson diagonalization with overlap
     ethr =  1.00E-02,  avg # of iterations = 15.5

     negative rho (up, down):  1.364E-03 1.363E-03
 
     Adding external electric field

     Computed dipole along edir(3) : 
        Dipole               -4.0345 Ry au,        -10.2547 Debye
        Dipole field         -0.0076 Ry au, 
 
        Potential amp.        0.7058 Ry
        Total length         46.3494 bohr
 
 
     Adding external electric field

     Computed dipole along edir(3) : 
        Dipole               -4.0345 Ry au,        -10.2547 Debye
        Dipole field         -0.0076 Ry au, 
 
        Potential amp.        0.7058 Ry
        Total length         46.3494 bohr
 

     total cpu time spent up to now is      335.9 secs

     total energy              =   -2927.91591844 Ry
     estimated scf accuracy    <    4973.23073533 Ry

     total magnetization       =     0.07 Bohr mag/cell
     absolute magnetization    =     0.49 Bohr mag/cell

     iteration #  4     ecut=    29.40 Ry     beta= 0.05
     Davidson diagonalization with overlap
     ethr =  1.00E-02,  avg # of iterations = 11.8

     negative rho (up, down):  1.387E-03 1.386E-03
 
     Adding external electric field

     Computed dipole along edir(3) : 
        Dipole               -5.7844 Ry au,        -14.7026 Debye
        Dipole field         -0.0109 Ry au, 
 
        Potential amp.        1.0119 Ry
        Total length         46.3494 bohr
 
 
     Adding external electric field

     Computed dipole along edir(3) : 
        Dipole               -5.7844 Ry au,        -14.7026 Debye
        Dipole field         -0.0109 Ry au, 
 
        Potential amp.        1.0119 Ry
        Total length         46.3494 bohr
 

     total cpu time spent up to now is      363.8 secs

     total energy              =   -2927.33828876 Ry
     estimated scf accuracy    <    1967.27322225 Ry

     total magnetization       =    -0.88 Bohr mag/cell
     absolute magnetization    =     0.98 Bohr mag/cell

     iteration #  5     ecut=    29.40 Ry     beta= 0.05
     Davidson diagonalization with overlap
     c_bands:  1 eigenvalues not converged
     c_bands:  1 eigenvalues not converged
     c_bands:  4 eigenvalues not converged
     ethr =  1.00E-02,  avg # of iterations =  8.7

     negative rho (up, down):  1.436E-03 1.436E-03
 
     Adding external electric field

     Computed dipole along edir(3) : 
        Dipole               -7.1990 Ry au,        -18.2980 Debye
        Dipole field         -0.0136 Ry au, 
 
        Potential amp.        1.2594 Ry
        Total length         46.3494 bohr
 
 
     Adding external electric field

     Computed dipole along edir(3) : 
        Dipole               -7.1990 Ry au,        -18.2980 Debye
        Dipole field         -0.0136 Ry au, 
 
        Potential amp.        1.2594 Ry
        Total length         46.3494 bohr
 

     total cpu time spent up to now is      385.3 secs

     total energy              =   -2921.39400159 Ry
     estimated scf accuracy    <    1044.11626342 Ry

     total magnetization       =     0.51 Bohr mag/cell
     absolute magnetization    =     2.86 Bohr mag/cell

     iteration #  6     ecut=    29.40 Ry     beta= 0.05
     Davidson diagonalization with overlap
     ethr =  1.00E-02,  avg # of iterations = 10.5

     negative rho (up, down):  1.343E-03 1.303E-03
 
     Adding external electric field

     Computed dipole along edir(3) : 
        Dipole               -6.0541 Ry au,        -15.3880 Debye
        Dipole field         -0.0114 Ry au, 
 
        Potential amp.        1.0591 Ry
        Total length         46.3494 bohr
 
 
     Adding external electric field

     Computed dipole along edir(3) : 
        Dipole               -6.0541 Ry au,        -15.3880 Debye
        Dipole field         -0.0114 Ry au, 
 
        Potential amp.        1.0591 Ry
        Total length         46.3494 bohr
 

     total cpu time spent up to now is      414.6 secs

     total energy              =   -2946.22537353 Ry
     estimated scf accuracy    <      35.51460413 Ry

     total magnetization       =    -0.08 Bohr mag/cell
     absolute magnetization    =     0.73 Bohr mag/cell

     iteration #  7     ecut=    29.40 Ry     beta= 0.05
     Davidson diagonalization with overlap
     ethr =  8.92E-03,  avg # of iterations =  1.4

     negative rho (up, down):  1.365E-03 1.346E-03
 
     Adding external electric field

     Computed dipole along edir(3) : 
        Dipole               -5.4558 Ry au,        -13.8673 Debye
        Dipole field         -0.0103 Ry au, 
 
        Potential amp.        0.9544 Ry
        Total length         46.3494 bohr
 
 
     Adding external electric field

     Computed dipole along edir(3) : 
        Dipole               -5.4558 Ry au,        -13.8673 Debye
        Dipole field         -0.0103 Ry au, 
 
        Potential amp.        0.9544 Ry
        Total length         46.3494 bohr
 

     total cpu time spent up to now is      428.6 secs

     total energy              =   -2945.94404596 Ry
     estimated scf accuracy    <      15.93084598 Ry

     total magnetization       =     0.27 Bohr mag/cell
     absolute magnetization    =     0.48 Bohr mag/cell

     iteration #  8     ecut=    29.40 Ry     beta= 0.05
     Davidson diagonalization with overlap
     ethr =  4.00E-03,  avg # of iterations =  1.4

     negative rho (up, down):  1.387E-03 1.376E-03
 
     Adding external electric field

     Computed dipole along edir(3) : 
        Dipole               -5.2760 Ry au,        -13.4101 Debye
        Dipole field         -0.0100 Ry au, 
 
        Potential amp.        0.9229 Ry
        Total length         46.3494 bohr
 
 
     Adding external electric field

     Computed dipole along edir(3) : 
        Dipole               -5.2760 Ry au,        -13.4101 Debye
        Dipole field         -0.0100 Ry au, 
 
        Potential amp.        0.9229 Ry
        Total length         46.3494 bohr
 

     total cpu time spent up to now is      442.5 secs

     total energy              =   -2945.94790810 Ry
     estimated scf accuracy    <      14.56893488 Ry

     total magnetization       =     0.00 Bohr mag/cell
     absolute magnetization    =     0.24 Bohr mag/cell

     iteration #  9     ecut=    29.40 Ry     beta= 0.05
     Davidson diagonalization with overlap
     ethr =  3.66E-03,  avg # of iterations =  1.0

     negative rho (up, down):  3.506E-03 6.356E-03
 
     Adding external electric field

     Computed dipole along edir(3) : 
        Dipole                0.4709 Ry au,          1.1968 Debye
        Dipole field          0.0009 Ry au, 
 
        Potential amp.       -0.0824 Ry
        Total length         46.3494 bohr
 
 
     Adding external electric field

     Computed dipole along edir(3) : 
        Dipole                0.4709 Ry au,          1.1968 Debye
        Dipole field          0.0009 Ry au, 
 
        Potential amp.       -0.0824 Ry
        Total length         46.3494 bohr
 

     total cpu time spent up to now is      455.9 secs

     total energy              =   -2942.81202923 Ry
     estimated scf accuracy    <      13.93193085 Ry

     total magnetization       =     0.05 Bohr mag/cell
     absolute magnetization    =     0.25 Bohr mag/cell

     iteration # 10     ecut=    29.40 Ry     beta= 0.05
     Davidson diagonalization with overlap
     c_bands:  1 eigenvalues not converged
     c_bands:  2 eigenvalues not converged
     ethr =  3.50E-03,  avg # of iterations = 15.9

     negative rho (up, down):  1.548E-02 2.775E-02
 
     Adding external electric field

     Computed dipole along edir(3) : 
        Dipole                3.7176 Ry au,          9.4492 Debye
        Dipole field          0.0070 Ry au, 
 
        Potential amp.       -0.6503 Ry
        Total length         46.3494 bohr
 
 
     Adding external electric field

     Computed dipole along edir(3) : 
        Dipole                3.7176 Ry au,          9.4492 Debye
        Dipole field          0.0070 Ry au, 
 
        Potential amp.       -0.6503 Ry
        Total length         46.3494 bohr
 

     total cpu time spent up to now is      499.2 secs

     total energy              =   -3008.15818966 Ry
     estimated scf accuracy    <    3131.05117263 Ry

     total magnetization       =    -0.22 Bohr mag/cell
     absolute magnetization    =     0.61 Bohr mag/cell

     iteration # 11     ecut=    29.40 Ry     beta= 0.05
     Davidson diagonalization with overlap
     ethr =  3.50E-03,  avg # of iterations = 10.7

     negative rho (up, down):  1.224E-02 2.233E-02
 
     Adding external electric field

     Computed dipole along edir(3) : 
        Dipole                2.6125 Ry au,          6.6402 Debye
        Dipole field          0.0049 Ry au, 
 
        Potential amp.       -0.4570 Ry
        Total length         46.3494 bohr
 
 
     Adding external electric field

     Computed dipole along edir(3) : 
        Dipole                2.6125 Ry au,          6.6402 Debye
        Dipole field          0.0049 Ry au, 
 
        Potential amp.       -0.4570 Ry
        Total length         46.3494 bohr
 

     total cpu time spent up to now is      520.4 secs

     total energy              =   -2990.62697526 Ry
     estimated scf accuracy    <    4711.42167350 Ry

     total magnetization       =     0.15 Bohr mag/cell
     absolute magnetization    =     0.59 Bohr mag/cell

     iteration # 12     ecut=    29.40 Ry     beta= 0.05
     Davidson diagonalization with overlap
     ethr =  3.50E-03,  avg # of iterations =  1.2

     negative rho (up, down):  1.079E-02 1.987E-02
 
     Adding external electric field

     Computed dipole along edir(3) : 
        Dipole                2.5249 Ry au,          6.4176 Debye
        Dipole field          0.0048 Ry au, 
 
        Potential amp.       -0.4417 Ry
        Total length         46.3494 bohr
 
 
     Adding external electric field

     Computed dipole along edir(3) : 
        Dipole                2.5249 Ry au,          6.4176 Debye
        Dipole field          0.0048 Ry au, 
 
        Potential amp.       -0.4417 Ry
        Total length         46.3494 bohr
 

     total cpu time spent up to now is      534.3 secs

     total energy              =   -2989.01433287 Ry
     estimated scf accuracy    <    3911.31704977 Ry

     total magnetization       =     0.16 Bohr mag/cell
     absolute magnetization    =     0.40 Bohr mag/cell

     iteration # 13     ecut=    29.40 Ry     beta= 0.05
     Davidson diagonalization with overlap
     ethr =  3.50E-03,  avg # of iterations =  1.0

     negative rho (up, down):  6.046E-03 1.118E-02
 
     Adding external electric field

     Computed dipole along edir(3) : 
        Dipole                0.9990 Ry au,          2.5392 Debye
        Dipole field          0.0019 Ry au, 
 
        Potential amp.       -0.1748 Ry
        Total length         46.3494 bohr
 
 
     Adding external electric field

     Computed dipole along edir(3) : 
        Dipole                0.9990 Ry au,          2.5392 Debye
        Dipole field          0.0019 Ry au, 
 
        Potential amp.       -0.1748 Ry
        Total length         46.3494 bohr
 

     total cpu time spent up to now is      547.8 secs

     total energy              =   -2966.28979571 Ry
     estimated scf accuracy    <    3897.86040895 Ry

     total magnetization       =     0.19 Bohr mag/cell
     absolute magnetization    =     0.39 Bohr mag/cell

     iteration # 14     ecut=    29.40 Ry     beta= 0.05
     Davidson diagonalization with overlap
     ethr =  3.50E-03,  avg # of iterations = 10.8

     negative rho (up, down):  1.776E-03 1.781E-03
 
     Adding external electric field

     Computed dipole along edir(3) : 
        Dipole               -3.9160 Ry au,         -9.9535 Debye
        Dipole field         -0.0074 Ry au, 
 
        Potential amp.        0.6850 Ry
        Total length         46.3494 bohr
 
 
     Adding external electric field

     Computed dipole along edir(3) : 
        Dipole               -3.9160 Ry au,         -9.9535 Debye
        Dipole field         -0.0074 Ry au, 
 
        Potential amp.        0.6850 Ry
        Total length         46.3494 bohr
 

     total cpu time spent up to now is      568.8 secs

     total energy              =   -2911.70409690 Ry
     estimated scf accuracy    <    2913.96615503 Ry

     total magnetization       =    -0.26 Bohr mag/cell
     absolute magnetization    =     0.73 Bohr mag/cell

     iteration # 15     ecut=    29.40 Ry     beta= 0.05
     Davidson diagonalization with overlap
     c_bands:  2 eigenvalues not converged
     c_bands:  2 eigenvalues not converged
     c_bands:  1 eigenvalues not converged
     c_bands:  5 eigenvalues not converged
     c_bands:  2 eigenvalues not converged
     c_bands:  1 eigenvalues not converged
     ethr =  3.50E-03,  avg # of iterations = 18.4

     negative rho (up, down):  1.943E-03 1.950E-03
 
     Adding external electric field

     Computed dipole along edir(3) : 
        Dipole               -3.3351 Ry au,         -8.4769 Debye
        Dipole field         -0.0063 Ry au, 
 
        Potential amp.        0.5834 Ry
        Total length         46.3494 bohr
 
 
     Adding external electric field

     Computed dipole along edir(3) : 
        Dipole               -3.3351 Ry au,         -8.4769 Debye
        Dipole field         -0.0063 Ry au, 
 
        Potential amp.        0.5834 Ry
        Total length         46.3494 bohr
 

     total cpu time spent up to now is      620.4 secs

     total energy              =   -2943.79938176 Ry
     estimated scf accuracy    <       8.96401096 Ry

     total magnetization       =     0.03 Bohr mag/cell
     absolute magnetization    =     0.16 Bohr mag/cell

     iteration # 16     ecut=    29.40 Ry     beta= 0.05
     Davidson diagonalization with overlap
     c_bands:  3 eigenvalues not converged
     ethr =  2.25E-03,  avg # of iterations =  6.3

     negative rho (up, down):  1.777E-03 1.731E-03
 
     Adding external electric field

     Computed dipole along edir(3) : 
        Dipole               -4.0353 Ry au,        -10.2566 Debye
        Dipole field         -0.0076 Ry au, 
 
        Potential amp.        0.7059 Ry
        Total length         46.3494 bohr
 
 
     Adding external electric field

     Computed dipole along edir(3) : 
        Dipole               -4.0353 Ry au,        -10.2566 Debye
        Dipole field         -0.0076 Ry au, 
 
        Potential amp.        0.7059 Ry
        Total length         46.3494 bohr
 

     total cpu time spent up to now is      637.4 secs

     total energy              =   -2945.47745280 Ry
     estimated scf accuracy    <      95.32611909 Ry

     total magnetization       =     0.41 Bohr mag/cell
     absolute magnetization    =     0.58 Bohr mag/cell

     iteration # 17     ecut=    29.40 Ry     beta= 0.05
     Davidson diagonalization with overlap
     c_bands:  4 eigenvalues not converged
     ethr =  2.25E-03,  avg # of iterations = 10.1

     negative rho (up, down):  1.895E-03 1.912E-03
 
     Adding external electric field

     Computed dipole along edir(3) : 
        Dipole               -3.3179 Ry au,         -8.4332 Debye
        Dipole field         -0.0063 Ry au, 
 
        Potential amp.        0.5804 Ry
        Total length         46.3494 bohr
 
 
     Adding external electric field

     Computed dipole along edir(3) : 
        Dipole               -3.3179 Ry au,         -8.4332 Debye
        Dipole field         -0.0063 Ry au, 
 
        Potential amp.        0.5804 Ry
        Total length         46.3494 bohr
 

     total cpu time spent up to now is      657.2 secs

     total energy              =   -2942.71702223 Ry
     estimated scf accuracy    <     380.23791769 Ry

     total magnetization       =     0.28 Bohr mag/cell
     absolute magnetization    =     0.58 Bohr mag/cell

     iteration # 18     ecut=    29.40 Ry     beta= 0.05
     Davidson diagonalization with overlap
     ethr =  2.25E-03,  avg # of iterations =  2.3

     negative rho (up, down):  1.898E-03 1.913E-03
 
     Adding external electric field

     Computed dipole along edir(3) : 
        Dipole               -3.1558 Ry au,         -8.0214 Debye
        Dipole field         -0.0060 Ry au, 
 
        Potential amp.        0.5521 Ry
        Total length         46.3494 bohr
 
 
     Adding external electric field

     Computed dipole along edir(3) : 
        Dipole               -3.1558 Ry au,         -8.0214 Debye
        Dipole field         -0.0060 Ry au, 
 
        Potential amp.        0.5521 Ry
        Total length         46.3494 bohr
 

     total cpu time spent up to now is      671.9 secs

     total energy              =   -2944.11735208 Ry
     estimated scf accuracy    <      31.29051319 Ry

     total magnetization       =     0.04 Bohr mag/cell
     absolute magnetization    =     0.17 Bohr mag/cell

     iteration # 19     ecut=    29.40 Ry     beta= 0.05
     Davidson diagonalization with overlap
     ethr =  2.25E-03,  avg # of iterations =  1.2

     negative rho (up, down):  1.727E-03 1.705E-03
 
     Adding external electric field

     Computed dipole along edir(3) : 
        Dipole               -3.7116 Ry au,         -9.4340 Debye
        Dipole field         -0.0070 Ry au, 
 
        Potential amp.        0.6493 Ry
        Total length         46.3494 bohr
 
 
     Adding external electric field

     Computed dipole along edir(3) : 
        Dipole               -3.7116 Ry au,         -9.4340 Debye
        Dipole field         -0.0070 Ry au, 
 
        Potential amp.        0.6493 Ry
        Total length         46.3494 bohr
 

     total cpu time spent up to now is      687.2 secs

     total energy              =   -2943.64730496 Ry
     estimated scf accuracy    <      90.17198496 Ry

     total magnetization       =     0.12 Bohr mag/cell
     absolute magnetization    =     0.28 Bohr mag/cell

     iteration # 20     ecut=    29.40 Ry     beta= 0.05
     Davidson diagonalization with overlap
     ethr =  2.25E-03,  avg # of iterations =  1.2

     negative rho (up, down):  1.684E-03 1.646E-03
 
     Adding external electric field

     Computed dipole along edir(3) : 
        Dipole               -3.8240 Ry au,         -9.7197 Debye
        Dipole field         -0.0072 Ry au, 
 
        Potential amp.        0.6690 Ry
        Total length         46.3494 bohr
 
 
     Adding external electric field

     Computed dipole along edir(3) : 
        Dipole               -3.8240 Ry au,         -9.7197 Debye
        Dipole field         -0.0072 Ry au, 
 
        Potential amp.        0.6690 Ry
        Total length         46.3494 bohr
 

     total cpu time spent up to now is      701.0 secs

     total energy              =   -2944.15444029 Ry
     estimated scf accuracy    <      28.83496511 Ry

     total magnetization       =     0.03 Bohr mag/cell
     absolute magnetization    =     0.16 Bohr mag/cell

     iteration # 21     ecut=    29.40 Ry     beta= 0.05
     Davidson diagonalization with overlap
     ethr =  2.25E-03,  avg # of iterations =  1.4

     negative rho (up, down):  1.862E-03 1.852E-03
 
     Adding external electric field

     Computed dipole along edir(3) : 
        Dipole               -3.0574 Ry au,         -7.7711 Debye
        Dipole field         -0.0058 Ry au, 
 
        Potential amp.        0.5348 Ry
        Total length         46.3494 bohr
 
 
     Adding external electric field

     Computed dipole along edir(3) : 
        Dipole               -3.0574 Ry au,         -7.7711 Debye
        Dipole field         -0.0058 Ry au, 
 
        Potential amp.        0.5348 Ry
        Total length         46.3494 bohr
 

     total cpu time spent up to now is      715.3 secs

     total energy              =   -2943.63346618 Ry
     estimated scf accuracy    <      21.14181065 Ry

     total magnetization       =     0.17 Bohr mag/cell
     absolute magnetization    =     0.27 Bohr mag/cell

     iteration # 22     ecut=    29.40 Ry     beta= 0.05
     Davidson diagonalization with overlap
     ethr =  2.25E-03,  avg # of iterations =  1.1

     negative rho (up, down):  2.594E-03 2.766E-03
 
     Adding external electric field

     Computed dipole along edir(3) : 
        Dipole               -1.2767 Ry au,         -3.2451 Debye
        Dipole field         -0.0024 Ry au, 
 
        Potential amp.        0.2233 Ry
        Total length         46.3494 bohr
 
 
     Adding external electric field

     Computed dipole along edir(3) : 
        Dipole               -1.2767 Ry au,         -3.2451 Debye
        Dipole field         -0.0024 Ry au, 
 
        Potential amp.        0.2233 Ry
        Total length         46.3494 bohr
 

     total cpu time spent up to now is      728.9 secs

     total energy              =   -2942.72692039 Ry
     estimated scf accuracy    <      10.60641952 Ry

     total magnetization       =     0.32 Bohr mag/cell
     absolute magnetization    =     0.37 Bohr mag/cell

     iteration # 23     ecut=    29.40 Ry     beta= 0.05
     Davidson diagonalization with overlap
     c_bands:  4 eigenvalues not converged
     ethr =  2.25E-03,  avg # of iterations = 11.8

     negative rho (up, down):  2.804E-03 3.181E-03
 
     Adding external electric field

     Computed dipole along edir(3) : 
        Dipole               -1.1769 Ry au,         -2.9914 Debye
        Dipole field         -0.0022 Ry au, 
 
        Potential amp.        0.2059 Ry
        Total length         46.3494 bohr
 
 
     Adding external electric field

     Computed dipole along edir(3) : 
        Dipole               -1.1769 Ry au,         -2.9914 Debye
        Dipole field         -0.0022 Ry au, 
 
        Potential amp.        0.2059 Ry
        Total length         46.3494 bohr
 

     total cpu time spent up to now is      749.3 secs

     total energy              =   -2942.94863918 Ry
     estimated scf accuracy    <       4.42492339 Ry

     total magnetization       =     0.31 Bohr mag/cell
     absolute magnetization    =     0.45 Bohr mag/cell

     iteration # 24     ecut=    29.40 Ry     beta= 0.05
     Davidson diagonalization with overlap
     ethr =  1.11E-03,  avg # of iterations =  2.9

     negative rho (up, down):  2.957E-03 3.540E-03
 
     Adding external electric field

     Computed dipole along edir(3) : 
        Dipole               -1.1249 Ry au,         -2.8592 Debye
        Dipole field         -0.0021 Ry au, 
 
        Potential amp.        0.1968 Ry
        Total length         46.3494 bohr
 
 
     Adding external electric field

     Computed dipole along edir(3) : 
        Dipole               -1.1249 Ry au,         -2.8592 Debye
        Dipole field         -0.0021 Ry au, 
 
        Potential amp.        0.1968 Ry
        Total length         46.3494 bohr
 

     total cpu time spent up to now is      764.8 secs

     total energy              =   -2942.85322218 Ry
     estimated scf accuracy    <       3.10150981 Ry

     total magnetization       =     0.25 Bohr mag/cell
     absolute magnetization    =     0.63 Bohr mag/cell

     iteration # 25     ecut=    29.40 Ry     beta= 0.05
     Davidson diagonalization with overlap
     c_bands:  3 eigenvalues not converged
     c_bands:  2 eigenvalues not converged
     c_bands:  2 eigenvalues not converged
     c_bands:  3 eigenvalues not converged
     c_bands:  1 eigenvalues not converged
     c_bands:  5 eigenvalues not converged
     c_bands:  1 eigenvalues not converged
     c_bands:  1 eigenvalues not converged
     c_bands:  1 eigenvalues not converged
     c_bands:  1 eigenvalues not converged
     ethr =  7.79E-04,  avg # of iterations = 14.3

     negative rho (up, down):  2.763E-03 3.180E-03
 
     Adding external electric field

     Computed dipole along edir(3) : 
        Dipole               -1.1219 Ry au,         -2.8515 Debye
        Dipole field         -0.0021 Ry au, 
 
        Potential amp.        0.1963 Ry
        Total length         46.3494 bohr
 
 
     Adding external electric field

     Computed dipole along edir(3) : 
        Dipole               -1.1219 Ry au,         -2.8515 Debye
        Dipole field         -0.0021 Ry au, 
 
        Potential amp.        0.1963 Ry
        Total length         46.3494 bohr
 

     total cpu time spent up to now is      791.0 secs

     total energy              =   -2943.00664523 Ry
     estimated scf accuracy    <       2.54895669 Ry

     total magnetization       =    -0.44 Bohr mag/cell
     absolute magnetization    =     0.66 Bohr mag/cell

     iteration # 26     ecut=    29.40 Ry     beta= 0.05
     Davidson diagonalization with overlap
     ethr =  6.40E-04,  avg # of iterations =  3.2

     negative rho (up, down):  2.207E-03 2.282E-03
 
     Adding external electric field

     Computed dipole along edir(3) : 
        Dipole               -0.9179 Ry au,         -2.3332 Debye
        Dipole field         -0.0017 Ry au, 
 
        Potential amp.        0.1606 Ry
        Total length         46.3494 bohr
 
 
     Adding external electric field

     Computed dipole along edir(3) : 
        Dipole               -0.9179 Ry au,         -2.3332 Debye
        Dipole field         -0.0017 Ry au, 
 
        Potential amp.        0.1606 Ry
        Total length         46.3494 bohr
 

     total cpu time spent up to now is      807.6 secs

     total energy              =   -2942.75741183 Ry
     estimated scf accuracy    <       1.54773584 Ry

     total magnetization       =    -0.27 Bohr mag/cell
     absolute magnetization    =     0.52 Bohr mag/cell

     iteration # 27     ecut=    29.40 Ry     beta= 0.05
     Davidson diagonalization with overlap
     c_bands:  2 eigenvalues not converged
     c_bands:  1 eigenvalues not converged
     ethr =  3.89E-04,  avg # of iterations = 16.1

     negative rho (up, down):  2.445E-03 2.620E-03
 
     Adding external electric field

     Computed dipole along edir(3) : 
        Dipole               -0.3771 Ry au,         -0.9585 Debye
        Dipole field         -0.0007 Ry au, 
 
        Potential amp.        0.0660 Ry
        Total length         46.3494 bohr
 
 
     Adding external electric field

     Computed dipole along edir(3) : 
        Dipole               -0.3771 Ry au,         -0.9585 Debye
        Dipole field         -0.0007 Ry au, 
 
        Potential amp.        0.0660 Ry
        Total length         46.3494 bohr
 

     total cpu time spent up to now is      835.9 secs

     total energy              =   -2942.89453844 Ry
     estimated scf accuracy    <       2.03345186 Ry

     total magnetization       =    -0.02 Bohr mag/cell
     absolute magnetization    =     0.20 Bohr mag/cell

     iteration # 28     ecut=    29.40 Ry     beta= 0.05
     Davidson diagonalization with overlap
     c_bands:  2 eigenvalues not converged
     ethr =  3.89E-04,  avg # of iterations = 13.3

     negative rho (up, down):  2.329E-03 2.464E-03
 
     Adding external electric field

     Computed dipole along edir(3) : 
        Dipole               -0.6223 Ry au,         -1.5818 Debye
        Dipole field         -0.0012 Ry au, 
 
        Potential amp.        0.1089 Ry
        Total length         46.3494 bohr
 
 
     Adding external electric field

     Computed dipole along edir(3) : 
        Dipole               -0.6223 Ry au,         -1.5818 Debye
        Dipole field         -0.0012 Ry au, 
 
        Potential amp.        0.1089 Ry
        Total length         46.3494 bohr
 

     total cpu time spent up to now is      859.7 secs

     total energy              =   -2942.99871317 Ry
     estimated scf accuracy    <       1.92397049 Ry

     total magnetization       =    -0.07 Bohr mag/cell
     absolute magnetization    =     0.20 Bohr mag/cell

     iteration # 29     ecut=    29.40 Ry     beta= 0.05
     Davidson diagonalization with overlap
     ethr =  3.89E-04,  avg # of iterations =  1.1

     negative rho (up, down):  2.187E-03 2.284E-03
 
     Adding external electric field

     Computed dipole along edir(3) : 
        Dipole               -1.2073 Ry au,         -3.0687 Debye
        Dipole field         -0.0023 Ry au, 
 
        Potential amp.        0.2112 Ry
        Total length         46.3494 bohr
 
 
     Adding external electric field

     Computed dipole along edir(3) : 
        Dipole               -1.2073 Ry au,         -3.0687 Debye
        Dipole field         -0.0023 Ry au, 
 
        Potential amp.        0.2112 Ry
        Total length         46.3494 bohr
 

     total cpu time spent up to now is      873.6 secs

     total energy              =   -2942.97700421 Ry
     estimated scf accuracy    <       1.58016519 Ry

     total magnetization       =    -0.04 Bohr mag/cell
     absolute magnetization    =     0.15 Bohr mag/cell

     iteration # 30     ecut=    29.40 Ry     beta= 0.05
     Davidson diagonalization with overlap
     ethr =  3.89E-04,  avg # of iterations = 10.2

     negative rho (up, down):  2.313E-03 2.455E-03
 
     Adding external electric field

     Computed dipole along edir(3) : 
        Dipole               -0.9173 Ry au,         -2.3315 Debye
        Dipole field         -0.0017 Ry au, 
 
        Potential amp.        0.1605 Ry
        Total length         46.3494 bohr
 
 
     Adding external electric field

     Computed dipole along edir(3) : 
        Dipole               -0.9173 Ry au,         -2.3315 Debye
        Dipole field         -0.0017 Ry au, 
 
        Potential amp.        0.1605 Ry
        Total length         46.3494 bohr
 

     total cpu time spent up to now is      893.3 secs

     total energy              =   -2942.87842045 Ry
     estimated scf accuracy    <       2.24472884 Ry

     total magnetization       =    -0.02 Bohr mag/cell
     absolute magnetization    =     0.11 Bohr mag/cell

     iteration # 31     ecut=    29.40 Ry     beta= 0.05
     Davidson diagonalization with overlap
     ethr =  3.89E-04,  avg # of iterations =  3.8

     negative rho (up, down):  2.379E-03 2.533E-03
 
     Adding external electric field

     Computed dipole along edir(3) : 
        Dipole               -0.7599 Ry au,         -1.9314 Debye
        Dipole field         -0.0014 Ry au, 
 
        Potential amp.        0.1329 Ry
        Total length         46.3494 bohr
 
 
     Adding external electric field

     Computed dipole along edir(3) : 
        Dipole               -0.7599 Ry au,         -1.9314 Debye
        Dipole field         -0.0014 Ry au, 
 
        Potential amp.        0.1329 Ry
        Total length         46.3494 bohr
 

     total cpu time spent up to now is      909.0 secs

     total energy              =   -2942.89411006 Ry
     estimated scf accuracy    <       1.08381701 Ry

     total magnetization       =    -0.02 Bohr mag/cell
     absolute magnetization    =     0.11 Bohr mag/cell

     iteration # 32     ecut=    29.40 Ry     beta= 0.05
     Davidson diagonalization with overlap
     ethr =  2.72E-04,  avg # of iterations =  2.1

     negative rho (up, down):  2.610E-03 2.757E-03
 
     Adding external electric field

     Computed dipole along edir(3) : 
        Dipole               -0.1466 Ry au,         -0.3726 Debye
        Dipole field         -0.0003 Ry au, 
 
        Potential amp.        0.0256 Ry
        Total length         46.3494 bohr
 
 
     Adding external electric field

     Computed dipole along edir(3) : 
        Dipole               -0.1466 Ry au,         -0.3726 Debye
        Dipole field         -0.0003 Ry au, 
 
        Potential amp.        0.0256 Ry
        Total length         46.3494 bohr
 

     total cpu time spent up to now is      923.7 secs

     total energy              =   -2942.79214646 Ry
     estimated scf accuracy    <       0.89770888 Ry

     total magnetization       =    -0.02 Bohr mag/cell
     absolute magnetization    =     0.12 Bohr mag/cell

     iteration # 33     ecut=    29.40 Ry     beta= 0.05
     Davidson diagonalization with overlap
     c_bands:  2 eigenvalues not converged
     c_bands:  3 eigenvalues not converged
     c_bands:  1 eigenvalues not converged
     c_bands:  2 eigenvalues not converged
     c_bands:  1 eigenvalues not converged
     c_bands:  5 eigenvalues not converged
     c_bands:  3 eigenvalues not converged
     c_bands:  1 eigenvalues not converged
     c_bands:  1 eigenvalues not converged
     c_bands:  1 eigenvalues not converged
     c_bands:  3 eigenvalues not converged
     c_bands:  1 eigenvalues not converged
     c_bands:  2 eigenvalues not converged
     c_bands:  1 eigenvalues not converged
     c_bands:  1 eigenvalues not converged
     c_bands:  1 eigenvalues not converged
     c_bands:  1 eigenvalues not converged
     c_bands:  1 eigenvalues not converged
     ethr =  2.26E-04,  avg # of iterations = 19.9

     negative rho (up, down):  2.635E-03 2.795E-03
 
     Adding external electric field

     Computed dipole along edir(3) : 
        Dipole               -0.0691 Ry au,         -0.1757 Debye
        Dipole field         -0.0001 Ry au, 
 
        Potential amp.        0.0121 Ry
        Total length         46.3494 bohr
 
 
     Adding external electric field

     Computed dipole along edir(3) : 
        Dipole               -0.0691 Ry au,         -0.1757 Debye
        Dipole field         -0.0001 Ry au, 
 
        Potential amp.        0.0121 Ry
        Total length         46.3494 bohr
 

     total cpu time spent up to now is      954.3 secs

     total energy              =   -2942.85012615 Ry
     estimated scf accuracy    <       1.78629496 Ry

     total magnetization       =    -0.10 Bohr mag/cell
     absolute magnetization    =     0.20 Bohr mag/cell

     iteration # 34     ecut=    29.40 Ry     beta= 0.05
     Davidson diagonalization with overlap
     c_bands:  1 eigenvalues not converged
     ethr =  2.26E-04,  avg # of iterations =  7.5

     negative rho (up, down):  2.693E-03 2.794E-03
 
     Adding external electric field

     Computed dipole along edir(3) : 
        Dipole                0.6669 Ry au,          1.6950 Debye
        Dipole field          0.0013 Ry au, 
 
        Potential amp.       -0.1167 Ry
        Total length         46.3494 bohr
 
 
     Adding external electric field

     Computed dipole along edir(3) : 
        Dipole                0.6669 Ry au,          1.6950 Debye
        Dipole field          0.0013 Ry au, 
 
        Potential amp.       -0.1167 Ry
        Total length         46.3494 bohr
 

     total cpu time spent up to now is      974.0 secs

     total energy              =   -2942.77073223 Ry
     estimated scf accuracy    <       0.66256584 Ry

     total magnetization       =    -0.12 Bohr mag/cell
     absolute magnetization    =     0.21 Bohr mag/cell

     iteration # 35     ecut=    29.40 Ry     beta= 0.05
     Davidson diagonalization with overlap
     c_bands:  1 eigenvalues not converged
     c_bands:  2 eigenvalues not converged
     c_bands:  2 eigenvalues not converged
     c_bands:  1 eigenvalues not converged
     ethr =  1.66E-04,  avg # of iterations = 13.5

     negative rho (up, down):  2.964E-03 3.138E-03
 
     Adding external electric field

     Computed dipole along edir(3) : 
        Dipole                1.0298 Ry au,          2.6176 Debye
        Dipole field          0.0019 Ry au, 
 
        Potential amp.       -0.1802 Ry
        Total length         46.3494 bohr
 
 
     Adding external electric field

     Computed dipole along edir(3) : 
        Dipole                1.0298 Ry au,          2.6176 Debye
        Dipole field          0.0019 Ry au, 
 
        Potential amp.       -0.1802 Ry
        Total length         46.3494 bohr
 

     total cpu time spent up to now is     1000.4 secs

     total energy              =   -2942.78525091 Ry
     estimated scf accuracy    <       0.53161618 Ry

     total magnetization       =    -0.05 Bohr mag/cell
     absolute magnetization    =     0.16 Bohr mag/cell

     iteration # 36     ecut=    29.40 Ry     beta= 0.05
     Davidson diagonalization with overlap
     c_bands:  1 eigenvalues not converged
     ethr =  1.34E-04,  avg # of iterations = 10.6

     negative rho (up, down):  2.881E-03 3.017E-03
 
     Adding external electric field

     Computed dipole along edir(3) : 
        Dipole                0.9425 Ry au,          2.3955 Debye
        Dipole field          0.0018 Ry au, 
 
        Potential amp.       -0.1649 Ry
        Total length         46.3494 bohr
 
 
     Adding external electric field

     Computed dipole along edir(3) : 
        Dipole                0.9425 Ry au,          2.3955 Debye
        Dipole field          0.0018 Ry au, 
 
        Potential amp.       -0.1649 Ry
        Total length         46.3494 bohr
 

     total cpu time spent up to now is     1021.3 secs

     total energy              =   -2942.79956237 Ry
     estimated scf accuracy    <       0.72997934 Ry

     total magnetization       =    -0.15 Bohr mag/cell
     absolute magnetization    =     0.22 Bohr mag/cell

     iteration # 37     ecut=    29.40 Ry     beta= 0.05
     Davidson diagonalization with overlap
     c_bands:  2 eigenvalues not converged
     ethr =  1.34E-04,  avg # of iterations =  8.2

     negative rho (up, down):  2.894E-03 2.997E-03
 
     Adding external electric field

     Computed dipole along edir(3) : 
        Dipole                0.8477 Ry au,          2.1547 Debye
        Dipole field          0.0016 Ry au, 
 
        Potential amp.       -0.1483 Ry
        Total length         46.3494 bohr
 
 
     Adding external electric field

     Computed dipole along edir(3) : 
        Dipole                0.8477 Ry au,          2.1547 Debye
        Dipole field          0.0016 Ry au, 
 
        Potential amp.       -0.1483 Ry
        Total length         46.3494 bohr
 

     total cpu time spent up to now is     1042.7 secs

     total energy              =   -2942.83294903 Ry
     estimated scf accuracy    <       0.28333514 Ry

     total magnetization       =    -0.03 Bohr mag/cell
     absolute magnetization    =     0.12 Bohr mag/cell

     iteration # 38     ecut=    29.40 Ry     beta= 0.05
     Davidson diagonalization with overlap
     c_bands:  4 eigenvalues not converged
     c_bands:  2 eigenvalues not converged
     c_bands:  2 eigenvalues not converged
     c_bands:  3 eigenvalues not converged
     c_bands:  1 eigenvalues not converged
     c_bands:  2 eigenvalues not converged
     c_bands:  1 eigenvalues not converged
     c_bands:  1 eigenvalues not converged
     c_bands:  3 eigenvalues not converged
     c_bands:  4 eigenvalues not converged
     c_bands:  2 eigenvalues not converged
     c_bands:  1 eigenvalues not converged
     c_bands:  1 eigenvalues not converged
     ethr =  7.12E-05,  avg # of iterations = 19.4

     negative rho (up, down):  3.302E-03 3.349E-03
 
     Adding external electric field

     Computed dipole along edir(3) : 
        Dipole                1.4892 Ry au,          3.7851 Debye
        Dipole field          0.0028 Ry au, 
 
        Potential amp.       -0.2605 Ry
        Total length         46.3494 bohr
 
 
     Adding external electric field

     Computed dipole along edir(3) : 
        Dipole                1.4892 Ry au,          3.7851 Debye
        Dipole field          0.0028 Ry au, 
 
        Potential amp.       -0.2605 Ry
        Total length         46.3494 bohr
 

     total cpu time spent up to now is     1071.0 secs

     total energy              =   -2942.80196105 Ry
     estimated scf accuracy    <       0.73009550 Ry

     total magnetization       =    -0.06 Bohr mag/cell
     absolute magnetization    =     0.13 Bohr mag/cell

     iteration # 39     ecut=    29.40 Ry     beta= 0.05
     Davidson diagonalization with overlap
     c_bands:  1 eigenvalues not converged
     c_bands:  2 eigenvalues not converged
     c_bands:  1 eigenvalues not converged
     c_bands:  3 eigenvalues not converged
     c_bands:  2 eigenvalues not converged
     c_bands:  2 eigenvalues not converged
     c_bands:  1 eigenvalues not converged
     c_bands:  4 eigenvalues not converged
     c_bands:  1 eigenvalues not converged
     ethr =  7.12E-05,  avg # of iterations = 17.8

     negative rho (up, down):  3.256E-03 3.308E-03
 
     Adding external electric field

     Computed dipole along edir(3) : 
        Dipole                1.4616 Ry au,          3.7150 Debye
        Dipole field          0.0028 Ry au, 
 
        Potential amp.       -0.2557 Ry
        Total length         46.3494 bohr
 
 
     Adding external electric field

     Computed dipole along edir(3) : 
        Dipole                1.4616 Ry au,          3.7150 Debye
        Dipole field          0.0028 Ry au, 
 
        Potential amp.       -0.2557 Ry
        Total length         46.3494 bohr
 

     total cpu time spent up to now is     1102.7 secs

     total energy              =   -2942.82963381 Ry
     estimated scf accuracy    <       0.43065298 Ry

     total magnetization       =    -0.13 Bohr mag/cell
     absolute magnetization    =     0.19 Bohr mag/cell

     iteration # 40     ecut=    29.40 Ry     beta= 0.05
     Davidson diagonalization with overlap
     ethr =  7.12E-05,  avg # of iterations =  3.5

     negative rho (up, down):  3.196E-03 3.251E-03
 
     Adding external electric field

     Computed dipole along edir(3) : 
        Dipole                1.3809 Ry au,          3.5099 Debye
        Dipole field          0.0026 Ry au, 
 
        Potential amp.       -0.2416 Ry
        Total length         46.3494 bohr
 
 
     Adding external electric field

     Computed dipole along edir(3) : 
        Dipole                1.3809 Ry au,          3.5099 Debye
        Dipole field          0.0026 Ry au, 
 
        Potential amp.       -0.2416 Ry
        Total length         46.3494 bohr
 

     total cpu time spent up to now is     1130.8 secs

     total energy              =   -2942.82361477 Ry
     estimated scf accuracy    <       0.40997615 Ry

     total magnetization       =    -0.15 Bohr mag/cell
     absolute magnetization    =     0.20 Bohr mag/cell

     iteration # 41     ecut=    29.40 Ry     beta= 0.05
     Davidson diagonalization with overlap
     ethr =  7.12E-05,  avg # of iterations =  1.6

     negative rho (up, down):  3.082E-03 3.165E-03
 
     Adding external electric field

     Computed dipole along edir(3) : 
        Dipole                1.2022 Ry au,          3.0556 Debye
        Dipole field          0.0023 Ry au, 
 
        Potential amp.       -0.2103 Ry
        Total length         46.3494 bohr
 
 
     Adding external electric field

     Computed dipole along edir(3) : 
        Dipole                1.2022 Ry au,          3.0556 Debye
        Dipole field          0.0023 Ry au, 
 
        Potential amp.       -0.2103 Ry
        Total length         46.3494 bohr
 

     total cpu time spent up to now is     1144.8 secs

     total energy              =   -2942.80204201 Ry
     estimated scf accuracy    <       0.14397666 Ry

     total magnetization       =    -0.07 Bohr mag/cell
     absolute magnetization    =     0.13 Bohr mag/cell

     iteration # 42     ecut=    29.40 Ry     beta= 0.05
     Davidson diagonalization with overlap
     c_bands:  3 eigenvalues not converged
     c_bands:  2 eigenvalues not converged
     c_bands:  1 eigenvalues not converged
     c_bands:  4 eigenvalues not converged
     c_bands:  3 eigenvalues not converged
     c_bands:  3 eigenvalues not converged
     c_bands:  2 eigenvalues not converged
     c_bands:  1 eigenvalues not converged
     c_bands:  4 eigenvalues not converged
     ethr =  3.62E-05,  avg # of iterations = 15.6

     negative rho (up, down):  3.277E-03 3.340E-03
 
     Adding external electric field

     Computed dipole along edir(3) : 
        Dipole                1.4599 Ry au,          3.7108 Debye
        Dipole field          0.0028 Ry au, 
 
        Potential amp.       -0.2554 Ry
        Total length         46.3494 bohr
 
 
     Adding external electric field

     Computed dipole along edir(3) : 
        Dipole                1.4599 Ry au,          3.7108 Debye
        Dipole field          0.0028 Ry au, 
 
        Potential amp.       -0.2554 Ry
        Total length         46.3494 bohr
 

     total cpu time spent up to now is     1169.1 secs

     total energy              =   -2942.81458057 Ry
     estimated scf accuracy    <       0.21563879 Ry

     total magnetization       =    -0.18 Bohr mag/cell
     absolute magnetization    =     0.24 Bohr mag/cell

     iteration # 43     ecut=    29.40 Ry     beta= 0.05
     Davidson diagonalization with overlap
     ethr =  3.62E-05,  avg # of iterations = 10.2

     negative rho (up, down):  3.433E-03 3.477E-03
 
     Adding external electric field

     Computed dipole along edir(3) : 
        Dipole                1.5849 Ry au,          4.0285 Debye
        Dipole field          0.0030 Ry au, 
 
        Potential amp.       -0.2773 Ry
        Total length         46.3494 bohr
 
 
     Adding external electric field

     Computed dipole along edir(3) : 
        Dipole                1.5849 Ry au,          4.0285 Debye
        Dipole field          0.0030 Ry au, 
 
        Potential amp.       -0.2773 Ry
        Total length         46.3494 bohr
 

     total cpu time spent up to now is     1188.5 secs

     total energy              =   -2942.82293744 Ry
     estimated scf accuracy    <       0.05732177 Ry

     total magnetization       =    -0.11 Bohr mag/cell
     absolute magnetization    =     0.18 Bohr mag/cell

     iteration # 44     ecut=    29.40 Ry     beta= 0.05
     Davidson diagonalization with overlap
     c_bands:  3 eigenvalues not converged
     c_bands:  4 eigenvalues not converged
     c_bands:  1 eigenvalues not converged
     ethr =  1.44E-05,  avg # of iterations = 11.1

     negative rho (up, down):  3.602E-03 3.614E-03
 
     Adding external electric field

     Computed dipole along edir(3) : 
        Dipole                1.4630 Ry au,          3.7186 Debye
        Dipole field          0.0028 Ry au, 
 
        Potential amp.       -0.2559 Ry
        Total length         46.3494 bohr
 
 
     Adding external electric field

     Computed dipole along edir(3) : 
        Dipole                1.4630 Ry au,          3.7186 Debye
        Dipole field          0.0028 Ry au, 
 
        Potential amp.       -0.2559 Ry
        Total length         46.3494 bohr
 

     total cpu time spent up to now is     1208.4 secs

     total energy              =   -2942.81923585 Ry
     estimated scf accuracy    <       0.13534459 Ry

     total magnetization       =    -0.16 Bohr mag/cell
     absolute magnetization    =     0.23 Bohr mag/cell

     iteration # 45     ecut=    29.40 Ry     beta= 0.05
     Davidson diagonalization with overlap
     c_bands:  1 eigenvalues not converged
     c_bands:  1 eigenvalues not converged
     c_bands:  1 eigenvalues not converged
     c_bands:  1 eigenvalues not converged
     c_bands:  3 eigenvalues not converged
     c_bands:  1 eigenvalues not converged
     c_bands:  5 eigenvalues not converged
     c_bands:  2 eigenvalues not converged
     c_bands:  3 eigenvalues not converged
     c_bands:  2 eigenvalues not converged
     c_bands:  3 eigenvalues not converged
     c_bands:  4 eigenvalues not converged
     c_bands:  1 eigenvalues not converged
     c_bands:  3 eigenvalues not converged
     c_bands:  4 eigenvalues not converged
     c_bands:  3 eigenvalues not converged
     ethr =  1.44E-05,  avg # of iterations = 18.9

     negative rho (up, down):  3.489E-03 3.519E-03
 
     Adding external electric field

     Computed dipole along edir(3) : 
        Dipole                1.4071 Ry au,          3.5765 Debye
        Dipole field          0.0027 Ry au, 
 
        Potential amp.       -0.2462 Ry
        Total length         46.3494 bohr
 
 
     Adding external electric field

     Computed dipole along edir(3) : 
        Dipole                1.4071 Ry au,          3.5765 Debye
        Dipole field          0.0027 Ry au, 
 
        Potential amp.       -0.2462 Ry
        Total length         46.3494 bohr
 

     total cpu time spent up to now is     1236.2 secs

     total energy              =   -2942.82099469 Ry
     estimated scf accuracy    <       0.33737846 Ry

     total magnetization       =    -0.08 Bohr mag/cell
     absolute magnetization    =     0.16 Bohr mag/cell

     iteration # 46     ecut=    29.40 Ry     beta= 0.05
     Davidson diagonalization with overlap
     c_bands:  1 eigenvalues not converged
     c_bands:  2 eigenvalues not converged
     c_bands:  1 eigenvalues not converged
     c_bands:  1 eigenvalues not converged
     c_bands:  1 eigenvalues not converged
     c_bands:  2 eigenvalues not converged
     c_bands:  1 eigenvalues not converged
     c_bands:  2 eigenvalues not converged
     c_bands:  1 eigenvalues not converged
     ethr =  1.44E-05,  avg # of iterations = 16.4

     negative rho (up, down):  3.354E-03 3.404E-03
 
     Adding external electric field

     Computed dipole along edir(3) : 
        Dipole                1.2704 Ry au,          3.2291 Debye
        Dipole field          0.0024 Ry au, 
 
        Potential amp.       -0.2222 Ry
        Total length         46.3494 bohr
 
 
     Adding external electric field

     Computed dipole along edir(3) : 
        Dipole                1.2704 Ry au,          3.2291 Debye
        Dipole field          0.0024 Ry au, 
 
        Potential amp.       -0.2222 Ry
        Total length         46.3494 bohr
 

     total cpu time spent up to now is     1262.3 secs

     total energy              =   -2942.82308936 Ry
     estimated scf accuracy    <       0.09169854 Ry

     total magnetization       =    -0.12 Bohr mag/cell
     absolute magnetization    =     0.19 Bohr mag/cell

     iteration # 47     ecut=    29.40 Ry     beta= 0.05
     Davidson diagonalization with overlap
     c_bands:  1 eigenvalues not converged
     c_bands:  2 eigenvalues not converged
     ethr =  1.44E-05,  avg # of iterations =  7.5

     negative rho (up, down):  3.383E-03 3.445E-03
 
     Adding external electric field

     Computed dipole along edir(3) : 
        Dipole                1.3542 Ry au,          3.4420 Debye
        Dipole field          0.0026 Ry au, 
 
        Potential amp.       -0.2369 Ry
        Total length         46.3494 bohr
 
 
     Adding external electric field

     Computed dipole along edir(3) : 
        Dipole                1.3542 Ry au,          3.4420 Debye
        Dipole field          0.0026 Ry au, 
 
        Potential amp.       -0.2369 Ry
        Total length         46.3494 bohr
 

     total cpu time spent up to now is     1280.3 secs

     total energy              =   -2942.82007378 Ry
     estimated scf accuracy    <       0.06108352 Ry

     total magnetization       =    -0.13 Bohr mag/cell
     absolute magnetization    =     0.21 Bohr mag/cell

     iteration # 48     ecut=    29.40 Ry     beta= 0.05
     Davidson diagonalization with overlap
     c_bands:  1 eigenvalues not converged
     c_bands:  2 eigenvalues not converged
     c_bands:  1 eigenvalues not converged
     ethr =  1.44E-05,  avg # of iterations = 11.5

     negative rho (up, down):  3.888E-03 3.927E-03
 
     Adding external electric field

     Computed dipole along edir(3) : 
        Dipole                1.5912 Ry au,          4.0445 Debye
        Dipole field          0.0030 Ry au, 
 
        Potential amp.       -0.2784 Ry
        Total length         46.3494 bohr
 
 
     Adding external electric field

     Computed dipole along edir(3) : 
        Dipole                1.5912 Ry au,          4.0445 Debye
        Dipole field          0.0030 Ry au, 
 
        Potential amp.       -0.2784 Ry
        Total length         46.3494 bohr
 

     total cpu time spent up to now is     1306.8 secs

     total energy              =   -2942.82314894 Ry
     estimated scf accuracy    <       0.05698195 Ry

     total magnetization       =    -0.17 Bohr mag/cell
     absolute magnetization    =     0.24 Bohr mag/cell

     iteration # 49     ecut=    29.40 Ry     beta= 0.05
     Davidson diagonalization with overlap
     c_bands:  1 eigenvalues not converged
     c_bands:  1 eigenvalues not converged
     ethr =  1.43E-05,  avg # of iterations =  9.5

     negative rho (up, down):  4.703E-03 4.718E-03
 
     Adding external electric field

     Computed dipole along edir(3) : 
        Dipole                1.5052 Ry au,          3.8258 Debye
        Dipole field          0.0028 Ry au, 
 
        Potential amp.       -0.2633 Ry
        Total length         46.3494 bohr
 
 
     Adding external electric field

     Computed dipole along edir(3) : 
        Dipole                1.5052 Ry au,          3.8258 Debye
        Dipole field          0.0028 Ry au, 
 
        Potential amp.       -0.2633 Ry
        Total length         46.3494 bohr
 

     total cpu time spent up to now is     1329.6 secs

     total energy              =   -2942.82192714 Ry
     estimated scf accuracy    <       0.07507815 Ry

     total magnetization       =    -0.16 Bohr mag/cell
     absolute magnetization    =     0.23 Bohr mag/cell

     iteration # 50     ecut=    29.40 Ry     beta= 0.05
     Davidson diagonalization with overlap
     c_bands:  1 eigenvalues not converged
     c_bands:  1 eigenvalues not converged
     ethr =  1.43E-05,  avg # of iterations =  7.5

     negative rho (up, down):  5.643E-03 5.630E-03
 
     Adding external electric field

     Computed dipole along edir(3) : 
        Dipole                1.4904 Ry au,          3.7881 Debye
        Dipole field          0.0028 Ry au, 
 
        Potential amp.       -0.2607 Ry
        Total length         46.3494 bohr
 
 
     Adding external electric field

     Computed dipole along edir(3) : 
        Dipole                1.4904 Ry au,          3.7881 Debye
        Dipole field          0.0028 Ry au, 
 
        Potential amp.       -0.2607 Ry
        Total length         46.3494 bohr
 

     total cpu time spent up to now is     1346.9 secs

     total energy              =   -2942.82452732 Ry
     estimated scf accuracy    <       0.00436589 Ry

     total magnetization       =    -0.18 Bohr mag/cell
     absolute magnetization    =     0.25 Bohr mag/cell

     iteration # 51     ecut=    29.40 Ry     beta= 0.05
     Davidson diagonalization with overlap
     c_bands:  2 eigenvalues not converged
     c_bands:  1 eigenvalues not converged
     c_bands:  2 eigenvalues not converged
     c_bands:  1 eigenvalues not converged
     c_bands:  1 eigenvalues not converged
     c_bands:  1 eigenvalues not converged
     c_bands:  2 eigenvalues not converged
     c_bands:  2 eigenvalues not converged
     c_bands:  2 eigenvalues not converged
     c_bands:  3 eigenvalues not converged
     c_bands:  1 eigenvalues not converged
     c_bands:  1 eigenvalues not converged
     c_bands:  1 eigenvalues not converged
     c_bands:  1 eigenvalues not converged
     c_bands:  3 eigenvalues not converged
     ethr =  1.10E-06,  avg # of iterations = 18.8

     negative rho (up, down):  5.563E-03 5.554E-03
 
     Adding external electric field

     Computed dipole along edir(3) : 
        Dipole                1.5020 Ry au,          3.8177 Debye
        Dipole field          0.0028 Ry au, 
 
        Potential amp.       -0.2627 Ry
        Total length         46.3494 bohr
 
 
     Adding external electric field

     Computed dipole along edir(3) : 
        Dipole                1.5020 Ry au,          3.8177 Debye
        Dipole field          0.0028 Ry au, 
 
        Potential amp.       -0.2627 Ry
        Total length         46.3494 bohr
 

     total cpu time spent up to now is     1380.0 secs

     total energy              =   -2942.82552865 Ry
     estimated scf accuracy    <       0.00544754 Ry

     total magnetization       =    -0.20 Bohr mag/cell
     absolute magnetization    =     0.26 Bohr mag/cell

     iteration # 52     ecut=    29.40 Ry     beta= 0.05
     Davidson diagonalization with overlap
     c_bands:  1 eigenvalues not converged
     c_bands:  2 eigenvalues not converged
     c_bands:  1 eigenvalues not converged
     c_bands:  1 eigenvalues not converged
     c_bands:  1 eigenvalues not converged
     c_bands:  2 eigenvalues not converged
     c_bands:  1 eigenvalues not converged
     c_bands:  1 eigenvalues not converged
     c_bands:  1 eigenvalues not converged
     ethr =  1.10E-06,  avg # of iterations = 11.2

     negative rho (up, down):  5.392E-03 5.390E-03
 
     Adding external electric field

     Computed dipole along edir(3) : 
        Dipole                1.5275 Ry au,          3.8826 Debye
        Dipole field          0.0029 Ry au, 
 
        Potential amp.       -0.2672 Ry
        Total length         46.3494 bohr
 
 
     Adding external electric field

     Computed dipole along edir(3) : 
        Dipole                1.5275 Ry au,          3.8826 Debye
        Dipole field          0.0029 Ry au, 
 
        Potential amp.       -0.2672 Ry
        Total length         46.3494 bohr
 

     total cpu time spent up to now is     1405.0 secs

     total energy              =   -2942.82499496 Ry
     estimated scf accuracy    <       0.00464755 Ry

     total magnetization       =    -0.20 Bohr mag/cell
     absolute magnetization    =     0.26 Bohr mag/cell

     iteration # 53     ecut=    29.40 Ry     beta= 0.05
     Davidson diagonalization with overlap
     c_bands:  1 eigenvalues not converged
     c_bands:  2 eigenvalues not converged
     c_bands:  1 eigenvalues not converged
     c_bands:  1 eigenvalues not converged
     ethr =  1.10E-06,  avg # of iterations = 10.9

     negative rho (up, down):  5.569E-03 5.558E-03
 
     Adding external electric field

     Computed dipole along edir(3) : 
        Dipole                1.5123 Ry au,          3.8440 Debye
        Dipole field          0.0029 Ry au, 
 
        Potential amp.       -0.2646 Ry
        Total length         46.3494 bohr
 
 
     Adding external electric field

     Computed dipole along edir(3) : 
        Dipole                1.5123 Ry au,          3.8440 Debye
        Dipole field          0.0029 Ry au, 
 
        Potential amp.       -0.2646 Ry
        Total length         46.3494 bohr
 

     total cpu time spent up to now is     1433.7 secs

     total energy              =   -2942.82526148 Ry
     estimated scf accuracy    <       0.00233545 Ry

     total magnetization       =    -0.20 Bohr mag/cell
     absolute magnetization    =     0.26 Bohr mag/cell

     iteration # 54     ecut=    29.40 Ry     beta= 0.05
     Davidson diagonalization with overlap
     c_bands:  1 eigenvalues not converged
     c_bands:  1 eigenvalues not converged
     c_bands:  1 eigenvalues not converged
     c_bands:  1 eigenvalues not converged
     ethr =  5.87E-07,  avg # of iterations =  7.4

     negative rho (up, down):  5.930E-03 5.919E-03
 
     Adding external electric field

     Computed dipole along edir(3) : 
        Dipole                1.5088 Ry au,          3.8349 Debye
        Dipole field          0.0028 Ry au, 
 
        Potential amp.       -0.2639 Ry
        Total length         46.3494 bohr
 
 
     Adding external electric field

     Computed dipole along edir(3) : 
        Dipole                1.5088 Ry au,          3.8349 Debye
        Dipole field          0.0028 Ry au, 
 
        Potential amp.       -0.2639 Ry
        Total length         46.3494 bohr
 

     total cpu time spent up to now is     1451.4 secs

     total energy              =   -2942.82523657 Ry
     estimated scf accuracy    <       0.00341159 Ry

     total magnetization       =    -0.21 Bohr mag/cell
     absolute magnetization    =     0.27 Bohr mag/cell

     iteration # 55     ecut=    29.40 Ry     beta= 0.05
     Davidson diagonalization with overlap
     c_bands:  1 eigenvalues not converged
     c_bands:  1 eigenvalues not converged
     ethr =  5.87E-07,  avg # of iterations = 11.8

     negative rho (up, down):  6.021E-03 6.011E-03
 
     Adding external electric field

     Computed dipole along edir(3) : 
        Dipole                1.5549 Ry au,          3.9521 Debye
        Dipole field          0.0029 Ry au, 
 
        Potential amp.       -0.2720 Ry
        Total length         46.3494 bohr
 
 
     Adding external electric field

     Computed dipole along edir(3) : 
        Dipole                1.5549 Ry au,          3.9521 Debye
        Dipole field          0.0029 Ry au, 
 
        Potential amp.       -0.2720 Ry
        Total length         46.3494 bohr
 

     total cpu time spent up to now is     1479.6 secs

     total energy              =   -2942.82510495 Ry
     estimated scf accuracy    <       0.00181773 Ry

     total magnetization       =    -0.22 Bohr mag/cell
     absolute magnetization    =     0.27 Bohr mag/cell

     iteration # 56     ecut=    29.40 Ry     beta= 0.05
[...]
     4.1661   4.2651   4.2922   4.3650   4.3993   4.4047   4.4382   4.4548
     4.4711

          k = 0.0380 0.0419 0.0000 ( 17878 PWs)   bands (ev):

   -55.1290 -55.1028 -55.0954 -55.0713 -55.0125 -55.0003 -54.9830 -54.9302
   -54.9204 -54.9152 -54.9055 -54.8968 -54.8533 -54.7854 -54.1025 -54.0785
   -31.6565 -31.5338 -31.4582 -31.4547 -31.4020 -31.3896 -31.3860 -31.3859
   -31.3774 -31.3697 -31.3526 -31.3366 -31.3329 -31.3179 -31.3130 -31.2696
   -31.2654 -31.2460 -31.2373 -31.2121 -31.2074 -31.2065 -31.2050 -31.1745
   -31.1719 -31.1623 -31.1555 -31.1422 -31.1385 -31.1290 -31.1226 -31.1201
   -31.1127 -31.0979 -31.0908 -31.0902 -31.0871 -31.0807 -31.0645 -31.0352
   -31.0193 -31.0085 -30.4613 -30.4233 -30.4038 -30.3197 -30.2585 -30.1917
   -18.8985 -15.8085 -15.5605 -15.4415 -15.2899 -15.2394 -15.1430 -15.1241
   -15.0849 -15.0441 -14.9879 -14.9355 -14.9036 -14.8472 -14.8308 -14.8123
   -14.7905 -14.7759 -14.6538 -14.6285 -14.5682 -14.5462 -14.5176 -14.4837
   -14.4812 -14.4477 -14.4093 -14.3894 -14.3575 -14.0483 -13.6289 -12.6109
   -12.5319  -9.7077  -7.7468  -7.2169  -5.4425  -3.8371  -3.3675  -3.0847
    -2.8114  -2.7626  -2.7283  -2.6064  -2.5879  -2.5595  -2.5138  -2.4172
    -2.3644  -2.2907  -2.2600  -2.2137  -2.1948  -2.1746  -2.1117  -2.0945
    -2.0460  -2.0193  -1.9744  -1.9515  -1.9343  -1.8838  -1.8416  -1.8163
    -1.8029  -1.7415  -1.6955  -1.6508  -1.6352  -1.5870  -1.5156  -1.4547
    -1.3632  -1.3248  -1.2442  -1.1929  -1.1426  -1.1206  -0.9709  -0.9318
    -0.8890  -0.8453  -0.7630  -0.7063  -0.6481  -0.6217  -0.5862  -0.5554
    -0.5232  -0.4801  -0.4297  -0.3626  -0.3246  -0.3052  -0.2330  -0.2080
    -0.1642  -0.0937  -0.0732  -0.0316  -0.0232   0.0521   0.1194   0.1548
     0.1612   0.2011   0.2259   0.2515   0.2953   0.3300   0.4008   0.4218
     0.4916   0.5263   0.5911   0.6149   0.6721   0.7686   0.8270   0.8608
     0.9188   0.9749   1.0290   1.0370   1.1587   1.2249   1.2943   1.2981
     1.4740   1.6785   2.1113   2.1831   2.3668   2.4292   4.1209   4.1713
     4.1964   4.3078   4.3439   4.3811   4.3898   4.4521   4.5339   4.5506
     4.5815

          k = 0.0380-0.0839 0.0000 ( 17916 PWs)   bands (ev):

   -55.1189 -55.1130 -55.0834 -55.0833 -55.0063 -54.9987 -54.9894 -54.9199
   -54.9169 -54.9160 -54.9093 -54.9079 -54.8514 -54.7874 -54.0907 -54.0904
   -31.5174 -31.5145 -31.4379 -31.4158 -31.4014 -31.4013 -31.3764 -31.3762
   -31.3394 -31.3373 -31.3363 -31.3286 -31.3014 -31.2791 -31.2770 -31.2653
   -31.2515 -31.2494 -31.2447 -31.2419 -31.2120 -31.2081 -31.2055 -31.2049
   -31.2048 -31.1894 -31.1872 -31.1714 -31.1690 -31.1670 -31.1541 -31.1494
   -31.1339 -31.1185 -31.0998 -31.0977 -31.0904 -31.0896 -31.0834 -31.0642
   -31.0373 -31.0156 -30.4136 -30.4134 -30.3286 -30.3283 -30.2892 -30.2891
   -18.8971 -15.5445 -15.4722 -15.3558 -15.2748 -15.2019 -15.1704 -15.0977
   -15.0564 -15.0462 -15.0059 -14.9667 -14.8941 -14.8548 -14.8423 -14.8011
   -14.7478 -14.7449 -14.6790 -14.6458 -14.5973 -14.5758 -14.5530 -14.5454
   -14.4880 -14.4813 -14.4675 -14.4646 -14.3881 -14.1783 -13.6358 -12.5942
   -12.5940  -9.7076  -7.7461  -7.2132  -5.4402  -3.8433  -3.3736  -2.7550
    -2.6427  -2.4968  -2.4790  -2.4262  -2.4170  -2.3980  -2.3431  -2.3291
    -2.2945  -2.2383  -2.2181  -2.2102  -2.2069  -2.1857  -2.1743  -2.1119
    -2.0826  -2.0751  -2.0350  -2.0094  -2.0009  -1.9836  -1.9315  -1.8893
    -1.8675  -1.8297  -1.8215  -1.7428  -1.7005  -1.6744  -1.4252  -1.3536
    -1.3304  -1.2030  -1.1771  -1.1262  -1.0625  -1.0591  -1.0301  -0.9824
    -0.9753  -0.8931  -0.8722  -0.8030  -0.7987  -0.7068  -0.6761  -0.6279
    -0.5726  -0.5447  -0.4829  -0.4447  -0.3697  -0.3334  -0.2775  -0.2144
    -0.1851  -0.1038  -0.0616  -0.0381   0.0392   0.0571   0.0734   0.0886
     0.1188   0.2089   0.2444   0.2552   0.2930   0.3349   0.3430   0.3568
     0.3893   0.4669   0.5713   0.6029   0.6096   0.7566   0.7944   0.8842
     0.9424   0.9486   0.9587   1.0713   1.0994   1.1659   1.2031   1.2305
     1.4445   1.4669   2.2565   2.2575   2.3704   2.3711   4.1011   4.1898
     4.2527   4.2870   4.3577   4.4216   4.4355   4.5592   4.5713   4.6139
     4.6249

          k = 0.0380-0.0419 0.0000 ( 17876 PWs)   bands (ev):

   -55.1290 -55.1028 -55.0954 -55.0713 -55.0125 -55.0003 -54.9830 -54.9302
   -54.9204 -54.9152 -54.9055 -54.8968 -54.8533 -54.7854 -54.1025 -54.0785
   -31.6564 -31.5338 -31.4582 -31.4547 -31.4020 -31.3896 -31.3861 -31.3859
   -31.3774 -31.3697 -31.3525 -31.3366 -31.3330 -31.3179 -31.3129 -31.2696
   -31.2654 -31.2460 -31.2373 -31.2131 -31.2073 -31.2066 -31.2049 -31.1747
   -31.1719 -31.1623 -31.1555 -31.1422 -31.1384 -31.1272 -31.1206 -31.1192
   -31.1120 -31.0982 -31.0975 -31.0902 -31.0870 -31.0781 -31.0645 -31.0349
   -31.0194 -31.0088 -30.4613 -30.4233 -30.4038 -30.3197 -30.2585 -30.1917
   -18.8984 -15.8098 -15.5654 -15.4428 -15.2866 -15.2393 -15.1382 -15.1225
   -15.0870 -15.0422 -14.9968 -14.9305 -14.9032 -14.8433 -14.8319 -14.8113
   -14.7888 -14.7761 -14.6539 -14.6286 -14.5684 -14.5458 -14.5174 -14.4848
   -14.4801 -14.4469 -14.4093 -14.3898 -14.3578 -14.0486 -13.6337 -12.6109
   -12.5319  -9.7080  -7.7470  -7.2125  -5.4391  -3.8357  -3.3975  -3.0843
    -2.8108  -2.7625  -2.7282  -2.6233  -2.5928  -2.5574  -2.5145  -2.4262
    -2.3371  -2.2849  -2.2700  -2.2179  -2.1933  -2.1595  -2.1144  -2.0945
    -2.0434  -2.0187  -1.9806  -1.9473  -1.9383  -1.8843  -1.8533  -1.8148
    -1.8006  -1.7464  -1.6908  -1.6502  -1.6412  -1.5435  -1.5114  -1.4583
    -1.3590  -1.3128  -1.2169  -1.1926  -1.1349  -1.1143  -0.9555  -0.9328
    -0.8895  -0.8465  -0.7775  -0.6913  -0.6619  -0.6379  -0.5785  -0.5610
    -0.5148  -0.4820  -0.4398  -0.3804  -0.3317  -0.3097  -0.2311  -0.2100
    -0.1804  -0.0901  -0.0740  -0.0379  -0.0266   0.0408   0.0988   0.1293
     0.1677   0.2020   0.2357   0.2498   0.2973   0.3418   0.3843   0.4307
     0.4902   0.5220   0.5848   0.6172   0.6671   0.7660   0.8278   0.8691
     0.9243   0.9869   1.0289   1.0477   1.1603   1.2447   1.2911   1.2973
     1.4744   1.6781   2.1113   2.1831   2.3666   2.4299   4.1399   4.1729
     4.1968   4.3078   4.3428   4.3652   4.3931   4.4436   4.5350   4.5524
     4.5860

          k =-0.0760-0.0000 0.0000 ( 17886 PWs)   bands (ev):

   -55.1341 -55.1003 -55.0976 -55.0663 -55.0169 -55.0019 -54.9787 -54.9346
   -54.9258 -54.9135 -54.9004 -54.8920 -54.8551 -54.7836 -54.1075 -54.0735
   -31.7142 -31.5888 -31.5133 -31.4715 -31.4340 -31.4290 -31.4275 -31.3924
   -31.3910 -31.3906 -31.3588 -31.3455 -31.3118 -31.2995 -31.2935 -31.2572
   -31.2524 -31.2477 -31.2389 -31.2087 -31.2082 -31.2010 -31.1779 -31.1677
   -31.1586 -31.1562 -31.1459 -31.1383 -31.1324 -31.1201 -31.1195 -31.1183
   -31.1118 -31.0903 -31.0884 -31.0546 -31.0475 -31.0369 -31.0367 -31.0258
   -31.0198 -30.9741 -30.5150 -30.4308 -30.3984 -30.3323 -30.2456 -30.1345
   -18.8986 -15.8515 -15.5441 -15.5230 -15.3132 -15.2843 -15.2121 -15.1707
   -15.0837 -15.0100 -14.9754 -14.9229 -14.9162 -14.8872 -14.8863 -14.8621
   -14.8380 -14.8238 -14.7865 -14.5824 -14.5289 -14.5245 -14.5228 -14.4762
   -14.4269 -14.3823 -14.3737 -14.2752 -14.2677 -13.9643 -13.6420 -12.6031
   -12.4917  -9.6931  -7.7485  -7.1877  -5.4405  -3.8348  -3.4959  -3.2295
    -2.9218  -2.7901  -2.7863  -2.6280  -2.6119  -2.6026  -2.5670  -2.4877
    -2.4665  -2.4151  -2.3790  -2.3644  -2.2263  -2.1543  -1.9681  -1.9626
    -1.9412  -1.8355  -1.7592  -1.7522  -1.7480  -1.7163  -1.6664  -1.6251
    -1.6077  -1.5661  -1.5385  -1.5005  -1.4787  -1.4536  -1.4312  -1.4168
    -1.3888  -1.3504  -1.3406  -1.3111  -1.2309  -1.1896  -1.0321  -0.9657
    -0.8475  -0.8244  -0.7938  -0.7522  -0.7414  -0.6985  -0.6772  -0.6420
    -0.6058  -0.5759  -0.5564  -0.4998  -0.4467  -0.4124  -0.3981  -0.3196
    -0.2601  -0.2081  -0.1678  -0.1416   0.0465   0.0790   0.1152   0.1404
     0.1688   0.2399   0.2683   0.3444   0.3904   0.4156   0.4358   0.4937
     0.5236   0.5379   0.5728   0.6186   0.6711   0.7064   0.7341   0.7506
     0.7730   0.8708   1.0226   1.1464   1.1757   1.3678   1.4389   1.4473
     1.5628   1.8387   1.9487   2.0457   2.2476   2.3994   3.9946   4.0215
     4.1014   4.2305   4.2547   4.3465   4.4022   4.4528   4.4886   4.5162
     4.5192

          k =-0.0760 0.0419 0.0000 ( 17914 PWs)   bands (ev):

   -55.1290 -55.1029 -55.0954 -55.0713 -55.0126 -55.0003 -54.9831 -54.9297
   -54.9209 -54.9152 -54.9054 -54.8970 -54.8533 -54.7855 -54.1025 -54.0785
   -31.6568 -31.5348 -31.4607 -31.4585 -31.4024 -31.3899 -31.3866 -31.3859
   -31.3817 -31.3715 -31.3532 -31.3369 -31.3330 -31.3132 -31.2990 -31.2657
   -31.2603 -31.2460 -31.2351 -31.2261 -31.2066 -31.2008 -31.1739 -31.1719
   -31.1662 -31.1659 -31.1589 -31.1579 -31.1421 -31.1282 -31.1219 -31.1213
   -31.1126 -31.1014 -31.0977 -31.0955 -31.0899 -31.0806 -31.0646 -31.0349
   -31.0229 -31.0090 -30.4611 -30.4262 -30.4031 -30.3197 -30.2585 -30.1918
   -18.8974 -15.7360 -15.4547 -15.4113 -15.2557 -15.2371 -15.1515 -15.1370
   -15.0909 -15.0269 -14.9288 -14.9182 -14.9089 -14.8965 -14.8698 -14.8571
   -14.8392 -14.8176 -14.7488 -14.6343 -14.5835 -14.5446 -14.5443 -14.5010
   -14.4663 -14.4526 -14.4158 -14.3739 -14.3638 -14.0473 -13.6447 -12.6087
   -12.5322  -9.6925  -7.7472  -7.1887  -5.4419  -3.8403  -3.4701  -3.0672
    -2.7582  -2.6056  -2.5275  -2.4617  -2.4310  -2.4230  -2.3848  -2.3240
    -2.2898  -2.2680  -2.2324  -2.1831  -2.1640  -2.1241  -2.0769  -2.0723
    -2.0131  -1.9464  -1.9374  -1.8756  -1.8637  -1.8220  -1.7837  -1.7298
    -1.7157  -1.7034  -1.6676  -1.6478  -1.6063  -1.5940  -1.5180  -1.4349
    -1.3590  -1.3037  -1.2886  -1.2107  -1.1606  -1.0993  -0.9247  -0.9038
    -0.8688  -0.8592  -0.7651  -0.7486  -0.7286  -0.6922  -0.6358  -0.6219
    -0.5799  -0.5557  -0.5251  -0.4862  -0.4476  -0.3900  -0.3524  -0.3417
    -0.3387  -0.2931  -0.2662  -0.1886  -0.1817  -0.0720  -0.0404   0.0499
     0.0712   0.0934   0.1619   0.1786   0.2248   0.2777   0.3052   0.3894
     0.4387   0.4779   0.5821   0.6396   0.6774   0.6951   0.8177   0.8388
     0.8843   1.0522   1.0656   1.1624   1.2442   1.2697   1.3205   1.3729
     1.4026   1.5494   2.1265   2.1854   2.2890   2.4187   4.1387   4.1820
     4.1881   4.1949   4.2854   4.3491   4.3682   4.4307   4.4569   4.5808
     4.6513

          k =-0.0760-0.0839 0.0000 ( 17948 PWs)   bands (ev):

   -55.1189 -55.1130 -55.0834 -55.0833 -55.0063 -54.9987 -54.9894 -54.9196
   -54.9169 -54.9155 -54.9097 -54.9083 -54.8514 -54.7874 -54.0907 -54.0904
   -31.5177 -31.5147 -31.4381 -31.4160 -31.4022 -31.4021 -31.3765 -31.3762
   -31.3452 -31.3396 -31.3366 -31.3360 -31.3018 -31.2673 -31.2607 -31.2562
   -31.2548 -31.2508 -31.2499 -31.2436 -31.2106 -31.2089 -31.2064 -31.2036
   -31.2035 -31.2028 -31.1849 -31.1821 -31.1542 -31.1495 -31.1341 -31.1301
   -31.1288 -31.1282 -31.1254 -31.1163 -31.0929 -31.0904 -31.0874 -31.0636
   -31.0379 -31.0204 -30.4146 -30.4144 -30.3286 -30.3283 -30.2893 -30.2891
   -18.8962 -15.5047 -15.3948 -15.2860 -15.2215 -15.1794 -15.1269 -15.1103
   -15.0995 -15.0547 -15.0249 -14.9561 -14.8913 -14.8381 -14.8371 -14.8026
   -14.7243 -14.7104 -14.7032 -14.6927 -14.6360 -14.6294 -14.5978 -14.5768
   -14.5737 -14.5442 -14.4702 -14.4678 -14.3817 -14.1747 -13.6465 -12.5940
   -12.5938  -9.6920  -7.7461  -7.1898  -5.4431  -3.8474  -3.4478  -2.7540
    -2.6425  -2.4322  -2.4060  -2.3460  -2.3267  -2.2426  -2.1809  -2.1585
    -2.1351  -2.1012  -2.0982  -2.0737  -2.0523  -2.0004  -1.9697  -1.9584
    -1.9528  -1.9379  -1.9251  -1.9054  -1.8490  -1.8385  -1.8311  -1.7885
    -1.7779  -1.7458  -1.7397  -1.7006  -1.6838  -1.6080  -1.5151  -1.4906
    -1.4309  -1.3306  -1.3164  -1.3107  -1.2180  -1.2092  -1.1797  -1.1487
    -1.0939  -0.9947  -0.9398  -0.8635  -0.8603  -0.8308  -0.7432  -0.6799
    -0.6462  -0.6358  -0.5978  -0.5408  -0.5169  -0.4831  -0.4002  -0.3590
    -0.3317  -0.2992  -0.2034  -0.1427  -0.1181  -0.0866  -0.0831   0.0055
     0.0389   0.0756   0.0964   0.1347   0.1616   0.2241   0.2481   0.3587
     0.4264   0.4592   0.5781   0.6018   0.6653   0.7978   0.8694   0.9099
     0.9624   1.0206   1.0481   1.1789   1.1861   1.2086   1.3044   1.3447
     1.3517   1.3646   2.2743   2.2754   2.3570   2.3571   4.1025   4.1883
     4.2319   4.2697   4.3767   4.4845   4.5032   4.5466   4.5472   4.6219
     4.6275

     the Fermi energy is     4.0230 ev

!    total energy              =   -2942.82538846 Ry
     estimated scf accuracy    <       0.00000007 Ry
     smearing contrib. (-TS)   =      -0.03685081 Ry
     internal energy E=F+TS    =   -2942.78853765 Ry

     The total energy is F=E-TS. E is the sum of the following terms:
     one-electron contribution =  -23972.06811543 Ry
     hartree contribution      =   12081.62268722 Ry
     xc contribution           =    -487.77123002 Ry
     ewald contribution        =    9435.42316259 Ry
     electric field correction =       0.00495799 Ry

     total magnetization       =    -0.03 Bohr mag/cell
     absolute magnetization    =     0.04 Bohr mag/cell

     convergence has been achieved in 144 iterations

     Forces acting on atoms (cartesian axes, Ry/au):

     atom    1 type  1   force =     0.00015109   -0.00022076    0.09430388
     atom    2 type  1   force =    -0.00009315   -0.00033266   -0.17739991
     atom    3 type  2   force =     0.00005535   -0.00016310   -0.02136110
     atom    4 type  2   force =    -0.00001461   -0.00172920    0.05658197
     atom    5 type  2   force =    -0.01054232   -0.00127960    0.00624760
     atom    6 type  2   force =     0.01221079   -0.00074601    0.00571870
     atom    7 type  1   force =    -0.00032409    0.00172150   -0.01618519
     atom    8 type  1   force =    -0.00010468    0.00438891    0.00560552
     atom    9 type  2   force =     0.00000974   -0.00004457   -0.00005167
     atom   10 type  2   force =    -0.00074425   -0.00022023   -0.00044502
     atom   11 type  2   force =     0.00035060    0.00013000   -0.00019211
     atom   12 type  2   force =    -0.00052071    0.00000693   -0.00012648
     atom   13 type  1   force =     0.00003736   -0.00035326    0.00016100
     atom   14 type  1   force =     0.00055895    0.00011489   -0.00032387
     atom   15 type  2   force =    -0.00036381    0.00023722   -0.00023315
     atom   16 type  2   force =    -0.00034688    0.00020869   -0.00005371
     atom   17 type  2   force =    -0.00026457    0.00008091    0.00043839
     atom   18 type  2   force =     0.00010948    0.00037559    0.00000235
     atom   19 type  1   force =     0.00029068    0.00020556   -0.00008673
     atom   20 type  1   force =     0.00003723    0.00058961   -0.00034995
     atom   21 type  2   force =     0.00003731    0.00004019    0.10359650
     atom   22 type  2   force =    -0.00004104   -0.00080483   -0.00022819
     atom   23 type  2   force =    -0.07081648   -0.00009709   -0.02718412
     atom   24 type  2   force =     0.07068175    0.00034377   -0.02721577
     atom   25 type  1   force =    -0.00009276   -0.00020255    0.09372242
     atom   26 type  1   force =    -0.00015023   -0.00031737   -0.17733257
     atom   27 type  2   force =     0.00008776   -0.00035249   -0.02046108
     atom   28 type  2   force =     0.00003101   -0.00143580    0.05589356
     atom   29 type  2   force =    -0.01090831   -0.00073849    0.00609487
     atom   30 type  2   force =     0.01246181   -0.00029334    0.00557421
     atom   31 type  1   force =    -0.00017799    0.00462609   -0.01721740
     atom   32 type  1   force =    -0.00003819   -0.00480455    0.00558696
     atom   33 type  2   force =     0.00005570    0.00012272    0.00026948
     atom   34 type  2   force =     0.00005845   -0.00085501   -0.00297260
     atom   35 type  2   force =     0.00024046    0.00002803    0.00007786
     atom   36 type  2   force =    -0.00043136    0.00015190   -0.00007141
     atom   37 type  1   force =    -0.00013036   -0.00011011   -0.00014159
     atom   38 type  1   force =     0.00043501   -0.00028412    0.00037968
     atom   39 type  2   force =    -0.00044063    0.00006620    0.00071287
     atom   40 type  2   force =    -0.00012638    0.00017603   -0.00020965
     atom   41 type  2   force =    -0.00012085    0.00071027   -0.00060727
     atom   42 type  2   force =    -0.00006190    0.00017858    0.00001913
     atom   43 type  1   force =    -0.00026419    0.00039248   -0.00007661
     atom   44 type  1   force =    -0.00045917    0.00026604    0.00001485
     atom   45 type  2   force =     0.00002706    0.00001347    0.10359715
     atom   46 type  2   force =    -0.07081527   -0.00003734   -0.02718475
     atom   47 type  2   force =     0.07068239    0.00037689   -0.02719014
     atom   48 type  3   force =    -0.00414811   -0.00068955    0.00004547
     atom   49 type  4   force =    -0.00246628    0.00080950    0.00041439
     atom   50 type  5   force =     0.00019026    0.00006095    0.00014686
     atom   51 type  5   force =    -0.00007091   -0.00032678    0.00008112
     atom   52 type  5   force =    -0.00060122   -0.00003985   -0.00017058
     atom   53 type  3   force =     0.01719704    0.00404526    0.00381255
     atom   54 type  5   force =    -0.00232400   -0.00198756   -0.00199996
     atom   55 type  5   force =    -0.00428699    0.00146631   -0.00354933
     atom   56 type  5   force =    -0.00370561   -0.00346826    0.00152256

     Total force =     0.366133     Total SCF correction =     0.000663
  @ DRIVER MODE: Message from server: STATUS
  @ DRIVER MODE: Message from server: GETFORCE
  @ DRIVER MODE: Returning v,forces,stress,ensemble 

     Writing output data file ./calc.save/
  @ DRIVER MODE: Message from server: EXIT
  @ DRIVE MODE: Exiting  
 
     init_run     :     11.75s CPU     12.93s WALL (       1 calls)
     electrons    :   3361.44s CPU   3418.42s WALL (       1 calls)
     forces       :      7.85s CPU      8.22s WALL (       1 calls)

     Called by init_run:
     wfcinit      :      6.71s CPU      6.79s WALL (       1 calls)
     potinit      :      3.75s CPU      4.12s WALL (       1 calls)
     hinit0       :      0.56s CPU      1.13s WALL (       1 calls)

     Called by electrons:
     c_bands      :   2812.18s CPU   2843.55s WALL (     144 calls)
     sum_band     :    401.22s CPU    417.94s WALL (     144 calls)
     v_of_rho     :     90.76s CPU     93.74s WALL (     145 calls)
     newd         :     30.87s CPU     35.97s WALL (     145 calls)
     mix_rho      :     25.40s CPU     25.79s WALL (     144 calls)
     vdW_kernel   :      3.06s CPU      3.07s WALL (       1 calls)

     Called by c_bands:
     init_us_2    :     17.40s CPU     17.49s WALL (    5800 calls)
     cegterg      :   2758.07s CPU   2788.08s WALL (    2904 calls)

     Called by *egterg:
     cdiaghg      :    632.63s CPU    638.09s WALL (   27496 calls)
     h_psi        :   1363.89s CPU   1383.53s WALL (   27517 calls)
     s_psi        :    166.71s CPU    167.30s WALL (   27517 calls)
     g_psi        :      3.75s CPU      3.78s WALL (   24593 calls)

     Called by h_psi:
     h_psi:calbec :    165.77s CPU    166.51s WALL (   27517 calls)
     vloc_psi     :   1020.62s CPU   1038.88s WALL (   27517 calls)
     add_vuspsi   :    170.63s CPU    171.24s WALL (   27517 calls)

     General routines
     calbec       :    231.88s CPU    233.32s WALL (   30477 calls)
     fft          :     63.35s CPU     64.53s WALL (   12902 calls)
     ffts         :      0.86s CPU      0.87s WALL (     578 calls)
     fftw         :   1240.49s CPU   1270.47s WALL ( 3551710 calls)
     interpolate  :      1.97s CPU      2.01s WALL (     290 calls)
     davcio       :      0.00s CPU      0.23s WALL (      20 calls)
 
     Parallel routines
 
     PWSCF        :  56m24.64s CPU  58m10.05s WALL

 
   This run was terminated on:  18:41:48  16Jul2021            

=------------------------------------------------------------------------------=
   JOB DONE.
=------------------------------------------------------------------------------=
