
     Program PWSCF v.6.7GPU starts on 24Aug2021 at 12:54:40 

     This program is part of the open-source Quantum ESPRESSO suite
     for quantum simulation of materials; please cite
         "P. Giannozzi et al., J. Phys.:Condens. Matter 21 395502 (2009);
         "P. Giannozzi et al., J. Phys.:Condens. Matter 29 465901 (2017);
         "P. Giannozzi et al., J. Chem. Phys. 152 154105 (2020);
          URL http://www.quantum-espresso.org", 
     in publications or presentations arising from this work. More details at
     http://www.quantum-espresso.org/quote

     Parallel version (MPI), running on    72 processors

     MPI processes distributed on     4 nodes
     R & G space division:  proc/nbgrp/npool/nimage =      72
     Reading input from /storage/home/hcoda1/3/ntian30/research/carbon/CH2_vib/ads_slab/CH2NHHH_a/out_0008/pw.inp
Warning: card &CELL ignored
Warning: card   CELL_DYNAMICS='IPI', ignored
Warning: card / ignored

     Current dimensions of program PWSCF are:
     Max number of different atomic species (ntypx) = 10
     Max number of k-points (npk) =  40000
     Max angular momentum in pseudopotentials (lmaxx) =  3
     Presently no symmetry can be used with electric field

     Message from routine cell_base_init:
     DEPRECATED: use true lattice parameter, not A to a.u. conversion factor

     **************************************************************************
     Initializing libbeef V0.1.2 with the BEEF-vdW functional.
     Citation: Wellendorff et al., PRB 85, 235149 (2012).
     **************************************************************************


     IMPORTANT: XC functional enforced from input :
     Exchange-correlation= BEEF-VDW
                           (   1   4  43  14   2   0   0)
     Any further DFT definition will be discarded
     Please, verify this is what you really want


     Subspace diagonalization in iterative solution of the eigenvalue problem:
     one sub-group per band group will be used
     scalapack distributed-memory algorithm (size of sub-group:  8*  8 procs)

  @ DRIVER MODE: Connecting to 
 qe_1139763_2641440.sched-torque.pace.gatech.edulx6t3_n7_scratch
  using UNIX socket
  @ DRIVER MODE: Message from server: STATUS
  @ DRIVER MODE: Message from server: INIT
  @ DRIVER MODE: Receiving replica           0          -1
  @ DRIVER MODE: Receiving encoded integer          25
  @ DRIVER MODE:  SCF:  T  FORCE:  T  STRESS:  F  VC:  F  ENSEMBLE:  F
  @ DRIVER MODE:  SCF:  T  FORCE:  T  STRESS:  F  VC:  F  ENSEMBLE:  F
 
     Parallelization info
     --------------------
     sticks:   dense  smooth     PW     G-vecs:    dense   smooth      PW
     Min          45      18      5                 7865     1988     295
     Max          46      19      6                 7884     2001     312
     Sum        3275    1317    379               566857   143421   21985
 
     Using Slab Decomposition
 


     bravais-lattice index     =            0
     lattice parameter (alat)  =       1.8897  a.u.
     unit-cell volume          =    6658.9804 (a.u.)^3
     number of atoms/cell      =           54
     number of atomic types    =            5
     number of electrons       =       392.00
     number of Kohn-Sham states=          206
     kinetic-energy cutoff     =      29.3995  Ry
     charge density cutoff     =     293.9946  Ry
     scf convergence threshold =      7.3E-08
     mixing beta               =       0.0500
     number of iterations used =            8  plain     mixing
     Exchange-correlation= BEEF-VDW
                           (   1   4  43  14   2   0   0)

     celldm(1)=   1.889726  celldm(2)=   0.000000  celldm(3)=   0.000000
     celldm(4)=   0.000000  celldm(5)=   0.000000  celldm(6)=   0.000000

     crystal axes: (cart. coord. in units of alat)
               a(1) = (   6.579727   0.000000   0.000000 )  
               a(2) = (  -0.000775   5.961596   0.000000 )  
               a(3) = (   0.000000   0.000000  25.155947 )  

     reciprocal axes: (cart. coord. in units 2 pi/alat)
               b(1) = (  0.151982  0.000020  0.000000 )  
               b(2) = (  0.000000  0.167740  0.000000 )  
               b(3) = (  0.000000  0.000000  0.039752 )  


     PseudoPot. # 1 for Ti read from file:
     /storage/coda1/p-amedford6/0/shared/rich_project_chbe-medford/medford-share/data/pseudos_module/espresso/nninc/pbe/van/Ti.UPF
     MD5 check sum: 8e4df49b7f0d34bbd5052bf3f5ea0213
     Pseudo is Ultrasoft, Zval = 12.0
     Generated by new atomic code, or converted to UPF format
     Using radial grid of  851 points,  6 beta functions with: 
                l(1) =   0
                l(2) =   0
                l(3) =   1
                l(4) =   1
                l(5) =   2
                l(6) =   2
     Q(r) pseudized with  8 coefficients,  rinner =    1.000   1.000   1.000
                                                       1.000   1.000

     PseudoPot. # 2 for O  read from file:
     /storage/coda1/p-amedford6/0/shared/rich_project_chbe-medford/medford-share/data/pseudos_module/espresso/nninc/pbe/van/O.UPF
     MD5 check sum: 78c19812648e8988a0fe644b0f25305e
     Pseudo is Ultrasoft, Zval =  6.0
     Generated by new atomic code, or converted to UPF format
     Using radial grid of  737 points,  4 beta functions with: 
                l(1) =   0
                l(2) =   0
                l(3) =   1
                l(4) =   1
     Q(r) pseudized with  8 coefficients,  rinner =    0.800   0.800   0.800


     PseudoPot. # 3 for N  read from file:
     /storage/coda1/p-amedford6/0/shared/rich_project_chbe-medford/medford-share/data/pseudos_module/espresso/nninc/pbe/van/N.UPF
     MD5 check sum: 90d10febe142ad51ac9d5be1deb811c4
     Pseudo is Ultrasoft, Zval =  5.0
     Generated by new atomic code, or converted to UPF format
     Using radial grid of  729 points,  4 beta functions with: 
                l(1) =   0
                l(2) =   0
                l(3) =   1
                l(4) =   1
     Q(r) pseudized with  8 coefficients,  rinner =    0.800   0.800   0.800


     PseudoPot. # 4 for C  read from file:
     /storage/coda1/p-amedford6/0/shared/rich_project_chbe-medford/medford-share/data/pseudos_module/espresso/nninc/pbe/van/C.UPF
     MD5 check sum: 1a69bf6b8db32088f5b2163dbdb77a27
     Pseudo is Ultrasoft, Zval =  4.0
     Generated by new atomic code, or converted to UPF format
     Using radial grid of  721 points,  4 beta functions with: 
                l(1) =   0
                l(2) =   0
                l(3) =   1
                l(4) =   1
     Q(r) pseudized with  8 coefficients,  rinner =    0.800   0.800   0.800


     PseudoPot. # 5 for H  read from file:
     /storage/coda1/p-amedford6/0/shared/rich_project_chbe-medford/medford-share/data/pseudos_module/espresso/nninc/pbe/van/H.UPF
     MD5 check sum: b5ee9d7bfd3a09ee7748110bda690ff7
     Pseudo is Ultrasoft, Zval =  1.0
     Generated by new atomic code, or converted to UPF format
     Using radial grid of  615 points,  1 beta functions with: 
                l(1) =   0
     Q(r) pseudized with  8 coefficients,  rinner =    0.800

     atomic species   valence    mass     pseudopotential
        Ti1           12.00    47.86700     Ti( 1.00)
        O1             6.00    15.99900     O ( 1.00)
        N1             5.00    14.00700     N ( 1.00)
        C1             4.00    12.01100     C ( 1.00)
        H1             1.00     1.00800     H ( 1.00)

     No symmetry found



   Cartesian axes

     site n.     atom                  positions (alat units)
         1           Ti1 tau(   1) = (   0.0004258   2.9801865   6.0000000  )
         2           Ti1 tau(   2) = (   3.2906075   1.4906267   6.0002472  )
         3           O1  tau(   3) = (   0.0006271   0.0005054   7.9858123  )
         4           O1  tau(   4) = (   3.2906025   0.0005020   7.3038282  )
         5           O1  tau(   5) = (   4.5942328   1.4918067   9.2879030  )
         6           O1  tau(   6) = (   1.9868534   1.4903216   9.2879459  )
         7           Ti1 tau(   7) = (   3.2907910   2.8959150   9.1758416  )
         8           Ti1 tau(   8) = (   0.0015273   1.4827037   9.2680791  )
         9           O1  tau(   9) = (   3.2947057   0.0061428  11.3716447  )
        10           O1  tau(  10) = (   0.0116148   5.9584955  10.6183126  )
        11           O1  tau(  11) = (   1.2915649   1.4936813  12.6925814  )
        12           O1  tau(  12) = (   5.2970661   1.4944705  12.6810846  )
        13           Ti1 tau(  13) = (   0.0178387   2.9746902  12.5081746  )
        14           Ti1 tau(  14) = (   3.3154821   1.4870708  12.5273966  )
        15           O1  tau(  15) = (   6.5751158   5.8850184  14.6937530  )
        16           O1  tau(  16) = (   3.3021755   5.9482827  13.9948957  )
        17           O1  tau(  17) = (   4.5403780   1.5298489  16.1548813  )
        18           O1  tau(  18) = (   2.0255877   1.5226301  16.1187562  )
        19           Ti1 tau(  19) = (   3.2919084   3.0021400  15.7465462  )
        20           Ti1 tau(  20) = (   0.0121818   1.3098915  15.8601907  )
        21           O1  tau(  21) = (   3.2904802   0.0005063   4.7018136  )
        22           O1  tau(  22) = (   6.5726150   0.1553292  17.2405045  )
        23           O1  tau(  23) = (   1.3043587   1.4918075   6.0039043  )
        24           O1  tau(  24) = (   5.2767064   1.4903225   6.0039473  )
        25           Ti1 tau(  25) = (   0.0000382   5.9609847   6.0000000  )
        26           Ti1 tau(  26) = (   3.2902200   4.4714249   6.0002472  )
        27           O1  tau(  27) = (   0.0002396   2.9813036   7.9858123  )
        28           O1  tau(  28) = (   3.2902150   2.9813002   7.3038282  )
        29           O1  tau(  29) = (   4.5938453   4.4726049   9.2879030  )
        30           O1  tau(  30) = (   1.9864658   4.4711199   9.2879459  )
        31           Ti1 tau(  31) = (   3.2891106   5.8743827   9.1763621  )
        32           Ti1 tau(  32) = (   0.0006254   4.4649316   9.2693709  )
        33           O1  tau(  33) = (   3.2927311   2.9710310  11.3658552  )
        34           O1  tau(  34) = (   0.0092240   2.9805883  10.6323155  )
        35           O1  tau(  35) = (   1.2954064   4.4636889  12.6531092  )
        36           O1  tau(  36) = (   5.2951753   4.4642890  12.6444158  )
        37           Ti1 tau(  37) = (   0.0208150   5.9452171  12.5004641  )
        38           Ti1 tau(  38) = (   3.3163264   4.4646888  12.5160798  )
        39           O1  tau(  39) = (   6.5606049   3.0383603  14.9590055  )
        40           O1  tau(  40) = (   3.3003749   3.0012653  13.9593002  )
        41           O1  tau(  41) = (   4.5325621   4.4784225  16.2386555  )
        42           O1  tau(  42) = (   2.0180351   4.4745910  16.2101397  )
        43           Ti1 tau(  43) = (   3.2993765   0.0184524  15.7908042  )
        44           Ti1 tau(  44) = (   0.0223033   4.5207704  16.0490861  )
        45           O1  tau(  45) = (   3.2900926   2.9813045   4.7018136  )
        46           O1  tau(  46) = (   1.3039711   4.4726057   6.0039043  )
        47           O1  tau(  47) = (   5.2763189   4.4711207   6.0039473  )
        48           N1  tau(  48) = (   6.4337409   3.4053151  18.1409392  )
        49           C1  tau(  49) = (   1.0385230   3.1422446  19.0018829  )
        50           H1  tau(  50) = (   0.7475518   3.0234394  20.0507379  )
        51           H1  tau(  51) = (   1.7227964   3.9744885  18.9089305  )
        52           H1  tau(  52) = (   5.9280473   4.2150708  18.4935385  )
        53           H1  tau(  53) = (   5.7900178   2.6175148  18.1880975  )
        54           H1  tau(  54) = (   1.5159085   2.2300880  18.6641165  )

     number of k points=    10  Fermi-Dirac smearing, width (Ry)=  0.0073
                       cart. coord. in units 2pi/alat
        k(    1) = (   0.0000000   0.0000000   0.0000000), wk =   0.1250000
        k(    2) = (   0.0000000   0.0419351   0.0000000), wk =   0.2500000
        k(    3) = (   0.0000000  -0.0838702   0.0000000), wk =   0.1250000
        k(    4) = (   0.0379955   0.0000049   0.0000000), wk =   0.2500000
        k(    5) = (   0.0379955   0.0419400   0.0000000), wk =   0.2500000
        k(    6) = (   0.0379955  -0.0838652   0.0000000), wk =   0.2500000
        k(    7) = (   0.0379955  -0.0419301   0.0000000), wk =   0.2500000
        k(    8) = (  -0.0759910  -0.0000099   0.0000000), wk =   0.1250000
        k(    9) = (  -0.0759910   0.0419252   0.0000000), wk =   0.2500000
        k(   10) = (  -0.0759910  -0.0838800   0.0000000), wk =   0.1250000

     Dense  grid:   566857 G-vectors     FFT dimensions: (  72,  64, 270)

     Smooth grid:   143421 G-vectors     FFT dimensions: (  45,  40, 180)

     Estimated max dynamical RAM per process >      56.46 MB

     Estimated total dynamical RAM >       3.97 GB
     Cannot read rho : file not found

     Initial potential from superposition of free atoms

     starting charge  375.99915, renormalised to  392.00000

     negative rho (up, down):  1.645E-02 0.000E+00


     %%%%%%%%%%%%%%%%%%%%%%%%%%%%%%%%%%%%%%%%%%%%%%%%%%%%%%%%%%%%%%%%%%%%%%%%
     %                                                                      %
     % You are using vdW-DF, which was implemented by the Thonhauser group. %
     % Please cite the following two papers that made this development      %
     % possible and the two reviews that describe the various versions:     %
     %                                                                      %
     %   T. Thonhauser et al., PRL 115, 136402 (2015).                      %
     %   T. Thonhauser et al., PRB 76, 125112 (2007).                       %
     %   K. Berland et al., Rep. Prog. Phys. 78, 066501 (2015).             %
     %   D.C. Langreth et al., J. Phys.: Condens. Matter 21, 084203 (2009). %
     %                                                                      %
     %                                                                      %
     % If you are calculating the stress with vdW-DF, please also cite:     %
     %                                                                      %
     %   R. Sabatini et al., J. Phys.: Condens. Matter 24, 424209 (2012).   %
     %                                                                      %
     %%%%%%%%%%%%%%%%%%%%%%%%%%%%%%%%%%%%%%%%%%%%%%%%%%%%%%%%%%%%%%%%%%%%%%%%


 
     Adding external electric field

     Computed dipole along edir(3) : 
        Dipole               -7.5123 Ry au,        -19.0944 Debye
        Dipole field         -0.0142 Ry au, 
 
        Potential amp.        1.3142 Ry
        Total length         46.3494 bohr
 
     Starting wfcs are  297 atomic wfcs
  @ DRIVER MODE: Message from server: STATUS
  @ DRIVER MODE: Message from server: POSDATA
  @ DRIVER MODE: Reading and sharing cell 
  @ DRIVER MODE: Reading and sharing positions 
  @ DRIVER MODE: Received positions 

     total cpu time spent up to now is       59.4 secs

     Self-consistent Calculation

     iteration #  1     ecut=    29.40 Ry     beta= 0.05
     Davidson diagonalization with overlap
     c_bands:  1 eigenvalues not converged
     c_bands:  1 eigenvalues not converged
     c_bands:  2 eigenvalues not converged
     c_bands:  1 eigenvalues not converged
     c_bands:  1 eigenvalues not converged
     c_bands:  1 eigenvalues not converged
     ethr =  1.00E-05,  avg # of iterations = 19.3

     negative rho (up, down):  1.564E-02 0.000E+00
 
     Adding external electric field

     Computed dipole along edir(3) : 
        Dipole               32.7208 Ry au,         83.1680 Debye
        Dipole field          0.0617 Ry au, 
 
        Potential amp.       -5.7240 Ry
        Total length         46.3494 bohr
 

     total cpu time spent up to now is      105.6 secs

     total energy              =   -2681.20807468 Ry
     estimated scf accuracy    <    2661.00360996 Ry

     iteration #  2     ecut=    29.40 Ry     beta= 0.05
     Davidson diagonalization with overlap
     c_bands:  3 eigenvalues not converged
     c_bands:  1 eigenvalues not converged
     c_bands:  2 eigenvalues not converged
     c_bands:  3 eigenvalues not converged
     c_bands:  3 eigenvalues not converged
     ethr =  1.00E-02,  avg # of iterations = 20.3

     negative rho (up, down):  5.667E-03 0.000E+00
 
     Adding external electric field

     Computed dipole along edir(3) : 
        Dipole               -3.1587 Ry au,         -8.0287 Debye
        Dipole field         -0.0060 Ry au, 
 
        Potential amp.        0.5526 Ry
        Total length         46.3494 bohr
 

     total cpu time spent up to now is      181.4 secs

     total energy              =   -2507.02796447 Ry
     estimated scf accuracy    <   54245.76947499 Ry

     iteration #  3     ecut=    29.40 Ry     beta= 0.05
     Davidson diagonalization with overlap
     ethr =  1.00E-02,  avg # of iterations = 15.1

     negative rho (up, down):  5.742E-03 0.000E+00
 
     Adding external electric field

     Computed dipole along edir(3) : 
        Dipole               -4.7624 Ry au,        -12.1047 Debye
        Dipole field         -0.0090 Ry au, 
 
        Potential amp.        0.8331 Ry
        Total length         46.3494 bohr
 

     total cpu time spent up to now is      243.4 secs

     total energy              =   -2900.74255755 Ry
     estimated scf accuracy    <    2900.74342083 Ry

     iteration #  4     ecut=    29.40 Ry     beta= 0.05
     Davidson diagonalization with overlap
     c_bands:  3 eigenvalues not converged
     c_bands:  1 eigenvalues not converged
     c_bands:  2 eigenvalues not converged
     ethr =  1.00E-02,  avg # of iterations = 19.3

     negative rho (up, down):  5.747E-03 0.000E+00
 
     Adding external electric field

     Computed dipole along edir(3) : 
        Dipole               -5.2329 Ry au,        -13.3007 Debye
        Dipole field         -0.0099 Ry au, 
 
        Potential amp.        0.9154 Ry
        Total length         46.3494 bohr
 

     total cpu time spent up to now is      261.1 secs

     total energy              =   -2920.17488155 Ry
     estimated scf accuracy    <     164.25842441 Ry

     iteration #  5     ecut=    29.40 Ry     beta= 0.05
     Davidson diagonalization with overlap
     ethr =  1.00E-02,  avg # of iterations =  2.6

     negative rho (up, down):  5.743E-03 0.000E+00
 
     Adding external electric field

     Computed dipole along edir(3) : 
        Dipole               -5.5799 Ry au,        -14.1827 Debye
        Dipole field         -0.0105 Ry au, 
 
        Potential amp.        0.9761 Ry
        Total length         46.3494 bohr
 

     total cpu time spent up to now is      264.9 secs

     total energy              =   -2919.34961299 Ry
     estimated scf accuracy    <     120.65263668 Ry

     iteration #  6     ecut=    29.40 Ry     beta= 0.05
     Davidson diagonalization with overlap
     ethr =  1.00E-02,  avg # of iterations =  3.2

     negative rho (up, down):  5.874E-03 0.000E+00
 
     Adding external electric field

     Computed dipole along edir(3) : 
        Dipole               -6.3702 Ry au,        -16.1916 Debye
        Dipole field         -0.0120 Ry au, 
 
        Potential amp.        1.1144 Ry
        Total length         46.3494 bohr
 

     total cpu time spent up to now is      269.4 secs

     total energy              =   -2916.10556676 Ry
     estimated scf accuracy    <      99.01402484 Ry

     iteration #  7     ecut=    29.40 Ry     beta= 0.05
     Davidson diagonalization with overlap
     ethr =  1.00E-02,  avg # of iterations =  9.2

     negative rho (up, down):  5.484E-03 0.000E+00
 
     Adding external electric field

     Computed dipole along edir(3) : 
        Dipole               -5.9812 Ry au,        -15.2027 Debye
        Dipole field         -0.0113 Ry au, 
 
        Potential amp.        1.0463 Ry
        Total length         46.3494 bohr
 

     total cpu time spent up to now is      301.3 secs

     total energy              =   -2923.51810908 Ry
     estimated scf accuracy    <      27.33496182 Ry

     iteration #  8     ecut=    29.40 Ry     beta= 0.05
     Davidson diagonalization with overlap
     ethr =  6.97E-03,  avg # of iterations =  1.2

     negative rho (up, down):  5.536E-03 0.000E+00
 
     Adding external electric field

     Computed dipole along edir(3) : 
        Dipole               -5.7073 Ry au,        -14.5065 Debye
        Dipole field         -0.0108 Ry au, 
 
        Potential amp.        0.9984 Ry
        Total length         46.3494 bohr
 

     total cpu time spent up to now is      311.0 secs

     total energy              =   -2923.50808152 Ry
     estimated scf accuracy    <      13.55450366 Ry

     iteration #  9     ecut=    29.40 Ry     beta= 0.05
     Davidson diagonalization with overlap
     ethr =  3.46E-03,  avg # of iterations =  1.4

     negative rho (up, down):  8.133E-03 0.000E+00
 
     Adding external electric field

     Computed dipole along edir(3) : 
        Dipole               -4.2465 Ry au,        -10.7936 Debye
        Dipole field         -0.0080 Ry au, 
 
        Potential amp.        0.7429 Ry
        Total length         46.3494 bohr
 

     total cpu time spent up to now is      319.6 secs

     total energy              =   -2922.78854402 Ry
     estimated scf accuracy    <      11.97771088 Ry

     iteration # 10     ecut=    29.40 Ry     beta= 0.05
     Davidson diagonalization with overlap
     ethr =  3.06E-03,  avg # of iterations =  6.8

     negative rho (up, down):  9.089E-03 0.000E+00
 
     Adding external electric field

     Computed dipole along edir(3) : 
        Dipole               -3.9604 Ry au,        -10.0664 Debye
        Dipole field         -0.0075 Ry au, 
 
        Potential amp.        0.6928 Ry
        Total length         46.3494 bohr
 

     total cpu time spent up to now is      327.0 secs

     total energy              =   -2924.10815876 Ry
     estimated scf accuracy    <      15.17258783 Ry

     iteration # 11     ecut=    29.40 Ry     beta= 0.05
     Davidson diagonalization with overlap
     ethr =  3.06E-03,  avg # of iterations =  2.7

     negative rho (up, down):  5.936E-03 0.000E+00
 
     Adding external electric field

     Computed dipole along edir(3) : 
        Dipole               -5.4594 Ry au,        -13.8763 Debye
        Dipole field         -0.0103 Ry au, 
 
        Potential amp.        0.9550 Ry
        Total length         46.3494 bohr
 

     total cpu time spent up to now is      331.5 secs

     total energy              =   -2917.49312660 Ry
     estimated scf accuracy    <      63.71181665 Ry

     iteration # 12     ecut=    29.40 Ry     beta= 0.05
     Davidson diagonalization with overlap
     c_bands:  3 eigenvalues not converged
     c_bands:  3 eigenvalues not converged
     ethr =  3.06E-03,  avg # of iterations = 10.4

     negative rho (up, down):  4.728E-03 0.000E+00
 
     Adding external electric field

     Computed dipole along edir(3) : 
        Dipole               -6.2133 Ry au,        -15.7925 Debye
        Dipole field         -0.0117 Ry au, 
 
        Potential amp.        1.0869 Ry
        Total length         46.3494 bohr
 

     total cpu time spent up to now is      338.2 secs

     total energy              =   -2923.44150495 Ry
     estimated scf accuracy    <      50.85572747 Ry

     iteration # 13     ecut=    29.40 Ry     beta= 0.05
     Davidson diagonalization with overlap
     ethr =  3.06E-03,  avg # of iterations = 12.8

     negative rho (up, down):  3.220E-03 0.000E+00
 
     Adding external electric field

     Computed dipole along edir(3) : 
        Dipole               -5.2669 Ry au,        -13.3872 Debye
        Dipole field         -0.0099 Ry au, 
 
        Potential amp.        0.9214 Ry
        Total length         46.3494 bohr
 

     total cpu time spent up to now is      358.9 secs

     total energy              =   -2921.72102955 Ry
     estimated scf accuracy    <     965.76966042 Ry

     iteration # 14     ecut=    29.40 Ry     beta= 0.05
     Davidson diagonalization with overlap
     ethr =  3.06E-03,  avg # of iterations =  4.7

     negative rho (up, down):  3.965E-03 0.000E+00
 
     Adding external electric field

     Computed dipole along edir(3) : 
        Dipole               -5.2595 Ry au,        -13.3682 Debye
        Dipole field         -0.0099 Ry au, 
 
        Potential amp.        0.9201 Ry
        Total length         46.3494 bohr
 

     total cpu time spent up to now is      370.3 secs

     total energy              =   -2923.04866117 Ry
     estimated scf accuracy    <     193.86458656 Ry

     iteration # 15     ecut=    29.40 Ry     beta= 0.05
     Davidson diagonalization with overlap
     ethr =  3.06E-03,  avg # of iterations =  1.0

     negative rho (up, down):  6.597E-03 0.000E+00
 
     Adding external electric field

     Computed dipole along edir(3) : 
        Dipole               -5.8839 Ry au,        -14.9554 Debye
        Dipole field         -0.0111 Ry au, 
 
        Potential amp.        1.0293 Ry
        Total length         46.3494 bohr
 

     total cpu time spent up to now is      389.7 secs

     total energy              =   -2925.13755472 Ry
     estimated scf accuracy    <     177.35928335 Ry

     iteration # 16     ecut=    29.40 Ry     beta= 0.05
     Davidson diagonalization with overlap
     ethr =  3.06E-03,  avg # of iterations =  1.1

     negative rho (up, down):  1.297E-02 0.000E+00
 
     Adding external electric field

     Computed dipole along edir(3) : 
        Dipole               -6.2723 Ry au,        -15.9426 Debye
        Dipole field         -0.0118 Ry au, 
 
        Potential amp.        1.0972 Ry
        Total length         46.3494 bohr
 

     total cpu time spent up to now is      396.3 secs

     total energy              =   -2925.38668871 Ry
     estimated scf accuracy    <     653.45230400 Ry

     iteration # 17     ecut=    29.40 Ry     beta= 0.05
     Davidson diagonalization with overlap
     ethr =  3.06E-03,  avg # of iterations =  2.3

     negative rho (up, down):  1.321E-02 0.000E+00
 
     Adding external electric field

     Computed dipole along edir(3) : 
        Dipole               -5.9286 Ry au,        -15.0689 Debye
        Dipole field         -0.0112 Ry au, 
 
        Potential amp.        1.0371 Ry
        Total length         46.3494 bohr
 

     total cpu time spent up to now is      403.2 secs

     total energy              =   -2923.83045697 Ry
     estimated scf accuracy    <     479.02776573 Ry

     iteration # 18     ecut=    29.40 Ry     beta= 0.05
     Davidson diagonalization with overlap
     ethr =  3.06E-03,  avg # of iterations =  1.1

     negative rho (up, down):  2.387E-02 0.000E+00
 
     Adding external electric field

     Computed dipole along edir(3) : 
        Dipole               -3.7054 Ry au,         -9.4182 Debye
        Dipole field         -0.0070 Ry au, 
 
        Potential amp.        0.6482 Ry
        Total length         46.3494 bohr
 

     total cpu time spent up to now is      423.9 secs

     total energy              =   -2919.59589353 Ry
     estimated scf accuracy    <     207.53747884 Ry

     iteration # 19     ecut=    29.40 Ry     beta= 0.05
     Davidson diagonalization with overlap
     ethr =  3.06E-03,  avg # of iterations = 11.8

     negative rho (up, down):  2.228E-02 0.000E+00
 
     Adding external electric field

     Computed dipole along edir(3) : 
        Dipole               -2.7756 Ry au,         -7.0548 Debye
        Dipole field         -0.0052 Ry au, 
 
        Potential amp.        0.4855 Ry
        Total length         46.3494 bohr
 

     total cpu time spent up to now is      467.7 secs

     total energy              =   -2921.84896619 Ry
     estimated scf accuracy    <      10.64962326 Ry

     iteration # 20     ecut=    29.40 Ry     beta= 0.05
     Davidson diagonalization with overlap
     ethr =  2.72E-03,  avg # of iterations =  3.9

     negative rho (up, down):  2.471E-02 0.000E+00
 
     Adding external electric field

     Computed dipole along edir(3) : 
        Dipole               -1.7433 Ry au,         -4.4310 Debye
        Dipole field         -0.0033 Ry au, 
 
        Potential amp.        0.3050 Ry
        Total length         46.3494 bohr
 

     total cpu time spent up to now is      478.5 secs

     total energy              =   -2921.19133133 Ry
     estimated scf accuracy    <       4.65127481 Ry

     iteration # 21     ecut=    29.40 Ry     beta= 0.05
     Davidson diagonalization with overlap
     ethr =  1.19E-03,  avg # of iterations =  8.0

     negative rho (up, down):  2.930E-02 0.000E+00
 
     Adding external electric field

     Computed dipole along edir(3) : 
        Dipole               -1.7177 Ry au,         -4.3659 Debye
        Dipole field         -0.0032 Ry au, 
 
        Potential amp.        0.3005 Ry
        Total length         46.3494 bohr
 

     total cpu time spent up to now is      492.9 secs

     total energy              =   -2921.73915561 Ry
     estimated scf accuracy    <       2.54707574 Ry

     iteration # 22     ecut=    29.40 Ry     beta= 0.05
     Davidson diagonalization with overlap
     ethr =  6.50E-04,  avg # of iterations =  3.5

     negative rho (up, down):  4.179E-02 0.000E+00
 
     Adding external electric field

     Computed dipole along edir(3) : 
        Dipole               -1.6073 Ry au,         -4.0853 Debye
        Dipole field         -0.0030 Ry au, 
 
        Potential amp.        0.2812 Ry
        Total length         46.3494 bohr
 

     total cpu time spent up to now is      499.6 secs

     total energy              =   -2921.67271049 Ry
     estimated scf accuracy    <       1.83177438 Ry

     iteration # 23     ecut=    29.40 Ry     beta= 0.05
     Davidson diagonalization with overlap
     c_bands:  1 eigenvalues not converged
     ethr =  4.67E-04,  avg # of iterations =  6.0

     negative rho (up, down):  7.835E-02 0.000E+00
 
     Adding external electric field

     Computed dipole along edir(3) : 
        Dipole               -0.7913 Ry au,         -2.0114 Debye
        Dipole field         -0.0015 Ry au, 
 
        Potential amp.        0.1384 Ry
        Total length         46.3494 bohr
 

     total cpu time spent up to now is      508.9 secs

     total energy              =   -2921.59331367 Ry
     estimated scf accuracy    <       1.59368852 Ry

     iteration # 24     ecut=    29.40 Ry     beta= 0.05
     Davidson diagonalization with overlap
     ethr =  4.07E-04,  avg # of iterations =  3.9

     negative rho (up, down):  6.906E-02 0.000E+00
 
     Adding external electric field

     Computed dipole along edir(3) : 
        Dipole               -0.4489 Ry au,         -1.1410 Debye
        Dipole field         -0.0008 Ry au, 
 
        Potential amp.        0.0785 Ry
        Total length         46.3494 bohr
 

     total cpu time spent up to now is      517.3 secs

     total energy              =   -2921.60208575 Ry
     estimated scf accuracy    <       1.64743679 Ry

     iteration # 25     ecut=    29.40 Ry     beta= 0.05
     Davidson diagonalization with overlap
     c_bands:  2 eigenvalues not converged
     c_bands:  1 eigenvalues not converged
     ethr =  4.07E-04,  avg # of iterations =  9.1

     negative rho (up, down):  6.007E-02 0.000E+00
 
     Adding external electric field

     Computed dipole along edir(3) : 
        Dipole               -0.6531 Ry au,         -1.6599 Debye
        Dipole field         -0.0012 Ry au, 
 
        Potential amp.        0.1142 Ry
        Total length         46.3494 bohr
 

     total cpu time spent up to now is      532.2 secs

     total energy              =   -2921.64882138 Ry
     estimated scf accuracy    <       1.28678504 Ry

     iteration # 26     ecut=    29.40 Ry     beta= 0.05
     Davidson diagonalization with overlap
     ethr =  3.28E-04,  avg # of iterations =  2.0

     negative rho (up, down):  5.212E-02 0.000E+00
 
     Adding external electric field

     Computed dipole along edir(3) : 
        Dipole               -0.4194 Ry au,         -1.0659 Debye
        Dipole field         -0.0008 Ry au, 
 
        Potential amp.        0.0734 Ry
        Total length         46.3494 bohr
 

     total cpu time spent up to now is      535.9 secs

     total energy              =   -2921.60635783 Ry
     estimated scf accuracy    <       1.05992208 Ry

     iteration # 27     ecut=    29.40 Ry     beta= 0.05
     Davidson diagonalization with overlap
     c_bands:  1 eigenvalues not converged
     c_bands:  1 eigenvalues not converged
     c_bands:  2 eigenvalues not converged
     c_bands:  3 eigenvalues not converged
     c_bands:  5 eigenvalues not converged
     c_bands:  2 eigenvalues not converged
     c_bands:  3 eigenvalues not converged
     c_bands:  2 eigenvalues not converged
     c_bands:  4 eigenvalues not converged
     ethr =  2.70E-04,  avg # of iterations = 20.4

     negative rho (up, down):  7.518E-02 0.000E+00
 
     Adding external electric field

     Computed dipole along edir(3) : 
        Dipole                0.2325 Ry au,          0.5910 Debye
        Dipole field          0.0004 Ry au, 
 
        Potential amp.       -0.0407 Ry
        Total length         46.3494 bohr
 

     total cpu time spent up to now is      579.5 secs

     total energy              =   -2921.60711466 Ry
     estimated scf accuracy    <       1.65402122 Ry

     iteration # 28     ecut=    29.40 Ry     beta= 0.05
     Davidson diagonalization with overlap
     c_bands:  3 eigenvalues not converged
     c_bands:  1 eigenvalues not converged
     c_bands:  3 eigenvalues not converged
     ethr =  2.70E-04,  avg # of iterations = 13.8

     negative rho (up, down):  7.426E-02 0.000E+00
 
     Adding external electric field

     Computed dipole along edir(3) : 
        Dipole                0.0464 Ry au,          0.1179 Debye
        Dipole field          0.0001 Ry au, 
 
        Potential amp.       -0.0081 Ry
        Total length         46.3494 bohr
 

     total cpu time spent up to now is      601.3 secs

     total energy              =   -2921.61739319 Ry
     estimated scf accuracy    <       1.39041774 Ry

     iteration # 29     ecut=    29.40 Ry     beta= 0.05
     Davidson diagonalization with overlap
     ethr =  2.70E-04,  avg # of iterations =  5.4

     negative rho (up, down):  5.139E-02 0.000E+00
 
     Adding external electric field

     Computed dipole along edir(3) : 
        Dipole               -0.0401 Ry au,         -0.1020 Debye
        Dipole field         -0.0001 Ry au, 
 
        Potential amp.        0.0070 Ry
        Total length         46.3494 bohr
 

     total cpu time spent up to now is      607.7 secs

     total energy              =   -2921.55340990 Ry
     estimated scf accuracy    <       0.49247014 Ry

     iteration # 30     ecut=    29.40 Ry     beta= 0.05
     Davidson diagonalization with overlap
     c_bands:  3 eigenvalues not converged
     c_bands:  1 eigenvalues not converged
     c_bands:  2 eigenvalues not converged
     ethr =  1.26E-04,  avg # of iterations = 14.2

     negative rho (up, down):  5.584E-02 0.000E+00
 
     Adding external electric field

     Computed dipole along edir(3) : 
        Dipole                0.6577 Ry au,          1.6717 Debye
        Dipole field          0.0012 Ry au, 
 
        Potential amp.       -0.1151 Ry
        Total length         46.3494 bohr
 

     total cpu time spent up to now is      627.7 secs

     total energy              =   -2921.61927381 Ry
     estimated scf accuracy    <       0.26426397 Ry

     iteration # 31     ecut=    29.40 Ry     beta= 0.05
     Davidson diagonalization with overlap
     c_bands:  1 eigenvalues not converged
     c_bands:  1 eigenvalues not converged
     c_bands:  1 eigenvalues not converged
     ethr =  6.74E-05,  avg # of iterations = 11.2

     negative rho (up, down):  5.634E-02 0.000E+00
 
     Adding external electric field

     Computed dipole along edir(3) : 
        Dipole                0.8074 Ry au,          2.0523 Debye
        Dipole field          0.0015 Ry au, 
 
        Potential amp.       -0.1413 Ry
        Total length         46.3494 bohr
 

     total cpu time spent up to now is      636.4 secs

     total energy              =   -2921.63221746 Ry
     estimated scf accuracy    <       0.14030889 Ry

     iteration # 32     ecut=    29.40 Ry     beta= 0.05
     Davidson diagonalization with overlap
     c_bands:  1 eigenvalues not converged
     ethr =  3.58E-05,  avg # of iterations =  7.4

     negative rho (up, down):  4.457E-02 0.000E+00
 
     Adding external electric field

     Computed dipole along edir(3) : 
        Dipole                0.9243 Ry au,          2.3494 Debye
        Dipole field          0.0017 Ry au, 
 
        Potential amp.       -0.1617 Ry
        Total length         46.3494 bohr
 

     total cpu time spent up to now is      654.3 secs

     total energy              =   -2921.62658592 Ry
     estimated scf accuracy    <       0.07619736 Ry

     iteration # 33     ecut=    29.40 Ry     beta= 0.05
     Davidson diagonalization with overlap
     c_bands:  2 eigenvalues not converged
     c_bands:  2 eigenvalues not converged
     c_bands:  4 eigenvalues not converged
     c_bands:  1 eigenvalues not converged
     c_bands:  2 eigenvalues not converged
     c_bands:  1 eigenvalues not converged
     c_bands:  1 eigenvalues not converged
     ethr =  1.94E-05,  avg # of iterations = 19.0

     negative rho (up, down):  3.814E-02 0.000E+00
 
     Adding external electric field

     Computed dipole along edir(3) : 
        Dipole                0.9782 Ry au,          2.4862 Debye
        Dipole field          0.0018 Ry au, 
 
        Potential amp.       -0.1711 Ry
        Total length         46.3494 bohr
 

     total cpu time spent up to now is      679.7 secs

     total energy              =   -2921.63225106 Ry
     estimated scf accuracy    <       0.19440638 Ry

     iteration # 34     ecut=    29.40 Ry     beta= 0.05
     Davidson diagonalization with overlap
     c_bands:  2 eigenvalues not converged
     c_bands:  1 eigenvalues not converged
     ethr =  1.94E-05,  avg # of iterations =  8.4

     negative rho (up, down):  3.517E-02 0.000E+00
 
     Adding external electric field

     Computed dipole along edir(3) : 
        Dipole                0.9646 Ry au,          2.4519 Debye
        Dipole field          0.0018 Ry au, 
 
        Potential amp.       -0.1687 Ry
        Total length         46.3494 bohr
 

     total cpu time spent up to now is      708.8 secs

     total energy              =   -2921.63109327 Ry
     estimated scf accuracy    <       0.09735161 Ry

     iteration # 35     ecut=    29.40 Ry     beta= 0.05
     Davidson diagonalization with overlap
     c_bands:  1 eigenvalues not converged
     ethr =  1.94E-05,  avg # of iterations =  5.9

     negative rho (up, down):  3.370E-02 0.000E+00
 
     Adding external electric field

     Computed dipole along edir(3) : 
        Dipole                0.9217 Ry au,          2.3427 Debye
        Dipole field          0.0017 Ry au, 
 
        Potential amp.       -0.1612 Ry
        Total length         46.3494 bohr
 

     total cpu time spent up to now is      714.6 secs

     total energy              =   -2921.63075943 Ry
     estimated scf accuracy    <       0.02139780 Ry

     iteration # 36     ecut=    29.40 Ry     beta= 0.05
     Davidson diagonalization with overlap
     c_bands:  2 eigenvalues not converged
     c_bands:  1 eigenvalues not converged
     c_bands:  3 eigenvalues not converged
     c_bands:  1 eigenvalues not converged
     c_bands:  1 eigenvalues not converged
     c_bands:  1 eigenvalues not converged
     c_bands:  1 eigenvalues not converged
     c_bands:  1 eigenvalues not converged
     ethr =  5.46E-06,  avg # of iterations = 19.3

     negative rho (up, down):  3.108E-02 0.000E+00
 
     Adding external electric field

     Computed dipole along edir(3) : 
        Dipole                0.9344 Ry au,          2.3750 Debye
        Dipole field          0.0018 Ry au, 
 
        Potential amp.       -0.1635 Ry
        Total length         46.3494 bohr
 

     total cpu time spent up to now is      725.0 secs

     total energy              =   -2921.63105813 Ry
     estimated scf accuracy    <       0.01343148 Ry

     iteration # 37     ecut=    29.40 Ry     beta= 0.05
     Davidson diagonalization with overlap
     c_bands:  1 eigenvalues not converged
     c_bands:  1 eigenvalues not converged
     c_bands:  1 eigenvalues not converged
     ethr =  3.43E-06,  avg # of iterations = 10.4

     negative rho (up, down):  2.044E-02 0.000E+00
 
     Adding external electric field

     Computed dipole along edir(3) : 
        Dipole                1.0858 Ry au,          2.7598 Debye
        Dipole field          0.0020 Ry au, 
 
        Potential amp.       -0.1899 Ry
        Total length         46.3494 bohr
 

     total cpu time spent up to now is      735.6 secs

     total energy              =   -2921.63079047 Ry
     estimated scf accuracy    <       0.00831062 Ry

     iteration # 38     ecut=    29.40 Ry     beta= 0.05
     Davidson diagonalization with overlap
     c_bands:  1 eigenvalues not converged
     c_bands:  1 eigenvalues not converged
     c_bands:  1 eigenvalues not converged
     ethr =  2.12E-06,  avg # of iterations = 15.4

     negative rho (up, down):  2.127E-02 0.000E+00
 
     Adding external electric field

     Computed dipole along edir(3) : 
        Dipole                1.1695 Ry au,          2.9725 Debye
        Dipole field          0.0022 Ry au, 
 
        Potential amp.       -0.2046 Ry
        Total length         46.3494 bohr
 

     total cpu time spent up to now is      749.1 secs

     total energy              =   -2921.63212003 Ry
     estimated scf accuracy    <       0.01062306 Ry

     iteration # 39     ecut=    29.40 Ry     beta= 0.05
     Davidson diagonalization with overlap
     ethr =  2.12E-06,  avg # of iterations =  2.1

     negative rho (up, down):  2.237E-02 0.000E+00
 
     Adding external electric field

     Computed dipole along edir(3) : 
        Dipole                1.2741 Ry au,          3.2385 Debye
        Dipole field          0.0024 Ry au, 
 
        Potential amp.       -0.2229 Ry
        Total length         46.3494 bohr
 

     total cpu time spent up to now is      754.7 secs

     total energy              =   -2921.63077833 Ry
     estimated scf accuracy    <       0.00680523 Ry

     iteration # 40     ecut=    29.40 Ry     beta= 0.05
     Davidson diagonalization with overlap
     c_bands:  1 eigenvalues not converged
     c_bands:  1 eigenvalues not converged
     ethr =  1.74E-06,  avg # of iterations = 13.2

     negative rho (up, down):  2.055E-02 0.000E+00
 
     Adding external electric field

     Computed dipole along edir(3) : 
        Dipole                1.2743 Ry au,          3.2389 Debye
        Dipole field          0.0024 Ry au, 
 
        Potential amp.       -0.2229 Ry
        Total length         46.3494 bohr
 

     total cpu time spent up to now is      765.9 secs

     total energy              =   -2921.63189007 Ry
     estimated scf accuracy    <       0.00104684 Ry

     iteration # 41     ecut=    29.40 Ry     beta= 0.05
     Davidson diagonalization with overlap
     c_bands:  1 eigenvalues not converged
     ethr =  2.67E-07,  avg # of iterations = 15.2

     negative rho (up, down):  1.968E-02 0.000E+00
 
     Adding external electric field

     Computed dipole along edir(3) : 
        Dipole                1.2693 Ry au,          3.2262 Debye
        Dipole field          0.0024 Ry au, 
 
        Potential amp.       -0.2220 Ry
        Total length         46.3494 bohr
 

     total cpu time spent up to now is      779.6 secs

     total energy              =   -2921.63206033 Ry
     estimated scf accuracy    <       0.00103808 Ry

     iteration # 42     ecut=    29.40 Ry     beta= 0.05
     Davidson diagonalization with overlap
     ethr =  2.65E-07,  avg # of iterations =  7.0

     negative rho (up, down):  1.845E-02 0.000E+00
 
     Adding external electric field

     Computed dipole along edir(3) : 
        Dipole                1.2887 Ry au,          3.2755 Debye
        Dipole field          0.0024 Ry au, 
 
        Potential amp.       -0.2254 Ry
        Total length         46.3494 bohr
 

     total cpu time spent up to now is      791.0 secs

     total energy              =   -2921.63207749 Ry
     estimated scf accuracy    <       0.00116315 Ry

     iteration # 43     ecut=    29.40 Ry     beta= 0.05
     Davidson diagonalization with overlap
     ethr =  2.65E-07,  avg # of iterations =  4.3

     negative rho (up, down):  1.801E-02 0.000E+00
 
     Adding external electric field

     Computed dipole along edir(3) : 
        Dipole                1.2952 Ry au,          3.2921 Debye
        Dipole field          0.0024 Ry au, 
 
        Potential amp.       -0.2266 Ry
        Total length         46.3494 bohr
 

     total cpu time spent up to now is      805.1 secs

     total energy              =   -2921.63209380 Ry
     estimated scf accuracy    <       0.00039333 Ry

     iteration # 44     ecut=    29.40 Ry     beta= 0.05
     Davidson diagonalization with overlap
     ethr =  1.00E-07,  avg # of iterations = 13.6

     negative rho (up, down):  1.802E-02 0.000E+00
 
     Adding external electric field

     Computed dipole along edir(3) : 
        Dipole                1.2980 Ry au,          3.2991 Debye
        Dipole field          0.0024 Ry au, 
 
        Potential amp.       -0.2271 Ry
        Total length         46.3494 bohr
 

     total cpu time spent up to now is      827.8 secs

     total energy              =   -2921.63218596 Ry
     estimated scf accuracy    <       0.00024475 Ry

     iteration # 45     ecut=    29.40 Ry     beta= 0.05
     Davidson diagonalization with overlap
     ethr =  6.24E-08,  avg # of iterations =  4.1

     negative rho (up, down):  1.743E-02 0.000E+00
 
     Adding external electric field

     Computed dipole along edir(3) : 
        Dipole                1.2912 Ry au,          3.2819 Debye
        Dipole field          0.0024 Ry au, 
 
        Potential amp.       -0.2259 Ry
        Total length         46.3494 bohr
 

     total cpu time spent up to now is      844.9 secs

     total energy              =   -2921.63215185 Ry
     estimated scf accuracy    <       0.00029872 Ry

     iteration # 46     ecut=    29.40 Ry     beta= 0.05
     Davidson diagonalization with overlap
     c_bands:  1 eigenvalues not converged
     ethr =  6.24E-08,  avg # of iterations = 14.0

     negative rho (up, down):  1.750E-02 0.000E+00
 
     Adding external electric field

     Computed dipole along edir(3) : 
        Dipole                1.3111 Ry au,          3.3326 Debye
        Dipole field          0.0025 Ry au, 
 
        Potential amp.       -0.2294 Ry
        Total length         46.3494 bohr
 

     total cpu time spent up to now is      866.6 secs

     total energy              =   -2921.63222194 Ry
     estimated scf accuracy    <       0.00015848 Ry

     iteration # 47     ecut=    29.40 Ry     beta= 0.05
     Davidson diagonalization with overlap
     ethr =  4.04E-08,  avg # of iterations =  6.8

     negative rho (up, down):  1.754E-02 0.000E+00
 
     Adding external electric field

     Computed dipole along edir(3) : 
        Dipole                1.3233 Ry au,          3.3636 Debye
        Dipole field          0.0025 Ry au, 
 
        Potential amp.       -0.2315 Ry
        Total length         46.3494 bohr
 

     total cpu time spent up to now is      871.8 secs

     total energy              =   -2921.63224262 Ry
     estimated scf accuracy    <       0.00012916 Ry

     iteration # 48     ecut=    29.40 Ry     beta= 0.05
     Davidson diagonalization with overlap
     ethr =  3.29E-08,  avg # of iterations =  7.2

     negative rho (up, down):  1.746E-02 0.000E+00
 
     Adding external electric field

     Computed dipole along edir(3) : 
        Dipole                1.3098 Ry au,          3.3291 Debye
        Dipole field          0.0025 Ry au, 
 
        Potential amp.       -0.2291 Ry
        Total length         46.3494 bohr
 

     total cpu time spent up to now is      877.3 secs

     total energy              =   -2921.63224220 Ry
     estimated scf accuracy    <       0.00012858 Ry

     iteration # 49     ecut=    29.40 Ry     beta= 0.05
     Davidson diagonalization with overlap
     ethr =  3.28E-08,  avg # of iterations =  8.3

     negative rho (up, down):  1.751E-02 0.000E+00
 
     Adding external electric field

     Computed dipole along edir(3) : 
        Dipole                1.3096 Ry au,          3.3286 Debye
        Dipole field          0.0025 Ry au, 
 
        Potential amp.       -0.2291 Ry
        Total length         46.3494 bohr
 

     total cpu time spent up to now is      884.4 secs

     total energy              =   -2921.63226298 Ry
     estimated scf accuracy    <       0.00005039 Ry

     iteration # 50     ecut=    29.40 Ry     beta= 0.05
     Davidson diagonalization with overlap
     ethr =  1.29E-08,  avg # of iterations = 10.8

     negative rho (up, down):  1.747E-02 0.000E+00
 
     Adding external electric field

     Computed dipole along edir(3) : 
        Dipole                1.3141 Ry au,          3.3402 Debye
        Dipole field          0.0025 Ry au, 
 
        Potential amp.       -0.2299 Ry
        Total length         46.3494 bohr
 

     total cpu time spent up to now is      892.8 secs

     total energy              =   -2921.63227768 Ry
     estimated scf accuracy    <       0.00005096 Ry

     iteration # 51     ecut=    29.40 Ry     beta= 0.05
     Davidson diagonalization with overlap
     ethr =  1.29E-08,  avg # of iterations =  6.0

     negative rho (up, down):  1.735E-02 0.000E+00
 
     Adding external electric field

     Computed dipole along edir(3) : 
        Dipole                1.3162 Ry au,          3.3456 Debye
        Dipole field          0.0025 Ry au, 
 
        Potential amp.       -0.2303 Ry
        Total length         46.3494 bohr
 

     total cpu time spent up to now is      928.1 secs

     total energy              =   -2921.63228703 Ry
     estimated scf accuracy    <       0.00002217 Ry

     iteration # 52     ecut=    29.40 Ry     beta= 0.05
     Davidson diagonalization with overlap
     c_bands:  2 eigenvalues not converged
     c_bands:  3 eigenvalues not converged
     c_bands:  1 eigenvalues not converged
     ethr =  5.66E-09,  avg # of iterations = 18.4

     negative rho (up, down):  1.733E-02 0.000E+00
 
     Adding external electric field

     Computed dipole along edir(3) : 
        Dipole                1.3042 Ry au,          3.3148 Debye
        Dipole field          0.0025 Ry au, 
 
        Potential amp.       -0.2281 Ry
        Total length         46.3494 bohr
 

     total cpu time spent up to now is      949.4 secs

     total energy              =   -2921.63228475 Ry
     estimated scf accuracy    <       0.00009504 Ry

     iteration # 53     ecut=    29.40 Ry     beta= 0.05
     Davidson diagonalization with overlap
     c_bands:  1 eigenvalues not converged
     ethr =  5.66E-09,  avg # of iterations = 18.1

     negative rho (up, down):  1.727E-02 0.000E+00
 
     Adding external electric field

     Computed dipole along edir(3) : 
        Dipole                1.3087 Ry au,          3.3263 Debye
        Dipole field          0.0025 Ry au, 
 
        Potential amp.       -0.2289 Ry
        Total length         46.3494 bohr
 

     total cpu time spent up to now is      963.9 secs

     total energy              =   -2921.63231052 Ry
     estimated scf accuracy    <       0.00001072 Ry

     iteration # 54     ecut=    29.40 Ry     beta= 0.05
     Davidson diagonalization with overlap
     ethr =  2.73E-09,  avg # of iterations = 10.1

     negative rho (up, down):  1.721E-02 0.000E+00
 
     Adding external electric field

     Computed dipole along edir(3) : 
        Dipole                1.3080 Ry au,          3.3246 Debye
        Dipole field          0.0025 Ry au, 
 
        Potential amp.       -0.2288 Ry
        Total length         46.3494 bohr
 

     total cpu time spent up to now is      974.4 secs

     total energy              =   -2921.63232064 Ry
     estimated scf accuracy    <       0.00000490 Ry

     iteration # 55     ecut=    29.40 Ry     beta= 0.05
     Davidson diagonalization with overlap
     ethr =  1.25E-09,  avg # of iterations = 13.2

     negative rho (up, down):  1.718E-02 0.000E+00
 
     Adding external electric field

     Computed dipole along edir(3) : 
        Dipole                1.3076 Ry au,          3.3236 Debye
        Dipole field          0.0025 Ry au, 
 
        Potential amp.       -0.2287 Ry
        Total length         46.3494 bohr
 

     total cpu time spent up to now is      984.2 secs

     total energy              =   -2921.63232921 Ry
     estimated scf accuracy    <       0.00000490 Ry

     iteration # 56     ecut=    29.40 Ry     beta= 0.05
     Davidson diagonalization with overlap
     ethr =  1.25E-09,  avg # of iterations =  6.5

     negative rho (up, down):  1.718E-02 0.000E+00
 
     Adding external electric field

     Computed dipole along edir(3) : 
        Dipole                1.3077 Ry au,          3.3240 Debye
        Dipole field          0.0025 Ry au, 
 
        Potential amp.       -0.2288 Ry
        Total length         46.3494 bohr
 

     total cpu time spent up to now is      989.1 secs

     total energy              =   -2921.63233626 Ry
     estimated scf accuracy    <       0.00000310 Ry

     iteration # 57     ecut=    29.40 Ry     beta= 0.05
     Davidson diagonalization with overlap
     ethr =  7.91E-10,  avg # of iterations = 12.8

     negative rho (up, down):  1.716E-02 0.000E+00
 
     Adding external electric field

     Computed dipole along edir(3) : 
        Dipole                1.3096 Ry au,          3.3286 Debye
        Dipole field          0.0025 Ry au, 
 
        Potential amp.       -0.2291 Ry
        Total length         46.3494 bohr
 

     total cpu time spent up to now is     1020.5 secs

     total energy              =   -2921.63234295 Ry
     estimated scf accuracy    <       0.00000169 Ry

     iteration # 58     ecut=    29.40 Ry     beta= 0.05
     Davidson diagonalization with overlap
     c_bands:  1 eigenvalues not converged
     ethr =  4.31E-10,  avg # of iterations = 16.7

     negative rho (up, down):  1.717E-02 0.000E+00
 
     Adding external electric field

     Computed dipole along edir(3) : 
        Dipole                1.3087 Ry au,          3.3265 Debye
        Dipole field          0.0025 Ry au, 
 
        Potential amp.       -0.2289 Ry
        Total length         46.3494 bohr
 

     total cpu time spent up to now is     1082.7 secs

     total energy              =   -2921.63234943 Ry
     estimated scf accuracy    <       0.00000464 Ry

     iteration # 59     ecut=    29.40 Ry     beta= 0.05
     Davidson diagonalization with overlap
     ethr =  4.31E-10,  avg # of iterations =  5.4

     negative rho (up, down):  1.717E-02 0.000E+00
 
     Adding external electric field

     Computed dipole along edir(3) : 
        Dipole                1.3087 Ry au,          3.3263 Debye
        Dipole field          0.0025 Ry au, 
 
        Potential amp.       -0.2289 Ry
        Total length         46.3494 bohr
 

     total cpu time spent up to now is     1102.9 secs

     total energy              =   -2921.63235384 Ry
     estimated scf accuracy    <       0.00000358 Ry

     iteration # 60     ecut=    29.40 Ry     beta= 0.05
     Davidson diagonalization with overlap
     c_bands:  1 eigenvalues not converged
     c_bands:  1 eigenvalues not converged
     c_bands:  1 eigenvalues not converged
     ethr =  4.31E-10,  avg # of iterations = 18.4

     negative rho (up, down):  1.716E-02 0.000E+00
 
     Adding external electric field

     Computed dipole along edir(3) : 
        Dipole                1.3090 Ry au,          3.3272 Debye
        Dipole field          0.0025 Ry au, 
 
        Potential amp.       -0.2290 Ry
        Total length         46.3494 bohr
 

     total cpu time spent up to now is     1191.6 secs

     total energy              =   -2921.63235962 Ry
     estimated scf accuracy    <       0.00000168 Ry

     iteration # 61     ecut=    29.40 Ry     beta= 0.05
     Davidson diagonalization with overlap
     ethr =  4.29E-10,  avg # of iterations =  2.3

     negative rho (up, down):  1.715E-02 0.000E+00
 
     Adding external electric field

     Computed dipole along edir(3) : 
        Dipole                1.3092 Ry au,          3.3276 Debye
        Dipole field          0.0025 Ry au, 
 
        Potential amp.       -0.2290 Ry
        Total length         46.3494 bohr
 

     total cpu time spent up to now is     1256.4 secs

     total energy              =   -2921.63236373 Ry
     estimated scf accuracy    <       0.00000087 Ry

     iteration # 62     ecut=    29.40 Ry     beta= 0.05
     Davidson diagonalization with overlap
     c_bands:  1 eigenvalues not converged
     c_bands:  1 eigenvalues not converged
     ethr =  2.21E-10,  avg # of iterations = 18.1

     negative rho (up, down):  1.715E-02 0.000E+00
 
     Adding external electric field

     Computed dipole along edir(3) : 
        Dipole                1.3089 Ry au,          3.3269 Debye
        Dipole field          0.0025 Ry au, 
 
        Potential amp.       -0.2290 Ry
        Total length         46.3494 bohr
 

     total cpu time spent up to now is     1293.5 secs

     total energy              =   -2921.63236794 Ry
     estimated scf accuracy    <       0.00000062 Ry

     iteration # 63     ecut=    29.40 Ry     beta= 0.05
     Davidson diagonalization with overlap
     ethr =  1.58E-10,  avg # of iterations =  7.5

     negative rho (up, down):  1.716E-02 0.000E+00
 
     Adding external electric field

     Computed dipole along edir(3) : 
        Dipole                1.3086 Ry au,          3.3263 Debye
        Dipole field          0.0025 Ry au, 
 
        Potential amp.       -0.2289 Ry
        Total length         46.3494 bohr
 

     total cpu time spent up to now is     1347.0 secs

     total energy              =   -2921.63237148 Ry
     estimated scf accuracy    <       0.00000022 Ry

     iteration # 64     ecut=    29.40 Ry     beta= 0.05
     Davidson diagonalization with overlap
     c_bands:  1 eigenvalues not converged
     ethr =  5.61E-11,  avg # of iterations = 16.9

     negative rho (up, down):  1.716E-02 0.000E+00
 
     Adding external electric field

     Computed dipole along edir(3) : 
        Dipole                1.3086 Ry au,          3.3262 Debye
        Dipole field          0.0025 Ry au, 
 
        Potential amp.       -0.2289 Ry
        Total length         46.3494 bohr
 

     total cpu time spent up to now is     1364.1 secs

     total energy              =   -2921.63237474 Ry
     estimated scf accuracy    <       0.00000018 Ry

     iteration # 65     ecut=    29.40 Ry     beta= 0.05
     Davidson diagonalization with overlap
     ethr =  4.51E-11,  avg # of iterations =  3.7

     negative rho (up, down):  1.716E-02 0.000E+00
 
     Adding external electric field

     Computed dipole along edir(3) : 
        Dipole                1.3087 Ry au,          3.3264 Debye
        Dipole field          0.0025 Ry au, 
 
        Potential amp.       -0.2289 Ry
        Total length         46.3494 bohr
 

     total cpu time spent up to now is     1378.8 secs

     total energy              =   -2921.63237760 Ry
     estimated scf accuracy    <       0.00000013 Ry

     iteration # 66     ecut=    29.40 Ry     beta= 0.05
     Davidson diagonalization with overlap
     ethr =  3.38E-11,  avg # of iterations =  9.4

     negative rho (up, down):  1.722E-02 0.000E+00
 
     Adding external electric field

     Computed dipole along edir(3) : 
        Dipole                1.3084 Ry au,          3.3256 Debye
        Dipole field          0.0025 Ry au, 
 
        Potential amp.       -0.2289 Ry
        Total length         46.3494 bohr
 

     total cpu time spent up to now is     1389.0 secs

     End of self-consistent calculation

          k = 0.0000 0.0000 0.0000 ( 18029 PWs)   bands (ev):

   -55.4293 -55.3923 -55.3798 -55.3547 -55.3457 -55.3120 -55.3069 -55.2725
   -55.2462 -55.2295 -55.2118 -55.2107 -55.1771 -55.0981 -54.4078 -54.3737
   -31.9987 -31.8843 -31.8723 -31.7957 -31.7465 -31.7362 -31.7338 -31.7168
   -31.6717 -31.6687 -31.6397 -31.6376 -31.6246 -31.6172 -31.5994 -31.5925
   -31.5848 -31.5726 -31.5674 -31.5442 -31.5325 -31.5284 -31.5005 -31.4937
   -31.4846 -31.4769 -31.4728 -31.4488 -31.4375 -31.4371 -31.4293 -31.4104
   -31.4097 -31.4035 -31.3974 -31.3942 -31.3604 -31.3511 -31.3391 -31.3221
   -31.3038 -31.2938 -30.8171 -30.7230 -30.7010 -30.6335 -30.5467 -30.4358
   -16.2879 -16.1310 -15.9689 -15.8235 -15.7468 -15.6275 -15.5161 -15.5023
   -15.3617 -15.2801 -15.1643 -15.1394 -15.1109 -15.0881 -15.0798 -15.0626
   -14.9715 -14.9667 -14.9545 -14.9220 -14.9208 -14.8765 -14.8659 -14.8239
   -14.8028 -14.8008 -14.6807 -14.5869 -14.5149 -14.2859 -12.9105 -12.7930
   -10.2410  -6.2956  -4.7683  -3.9447  -3.6081  -3.4499  -3.3671  -3.3333
    -3.3202  -3.1887  -3.0558  -2.9454  -2.8558  -2.8400  -2.7216  -2.6450
    -2.6387  -2.6180  -2.4641  -2.4289  -2.3851  -2.3360  -2.2976  -2.2395
    -2.2189  -2.2107  -2.1980  -2.1811  -2.1722  -2.0545  -1.9983  -1.9146
    -1.8555  -1.8325  -1.7822  -1.7621  -1.7422  -1.7183  -1.7092  -1.6680
    -1.6434  -1.6229  -1.5696  -1.4582  -1.3546  -1.3041  -1.1864  -1.0639
    -1.0270  -1.0150  -0.9658  -0.9364  -0.9142  -0.8567  -0.8056  -0.7760
    -0.7205  -0.6609  -0.5995  -0.5502  -0.4769  -0.4730  -0.4146  -0.3656
    -0.2445  -0.2121  -0.1953  -0.1673  -0.0770  -0.0386   0.0048   0.0851
     0.0964   0.1158   0.2100   0.2200   0.2939   0.3422   0.3592   0.4526
     0.4876   0.4999   0.5044   0.5266   0.5565   0.6064   0.6484   0.6748
     0.7416   0.8680   1.0805   1.1612   1.1854   1.5114   1.5212   1.6149
     1.7987   2.1907   2.2388   3.6684   3.7392   3.8146   3.8212   3.8338
     3.9067   4.1412   4.1650   4.1726   4.1793   4.2002

          k = 0.0000 0.0419 0.0000 ( 17933 PWs)   bands (ev):

   -55.4242 -55.3973 -55.3748 -55.3540 -55.3506 -55.3102 -55.3018 -55.2774
   -55.2412 -55.2312 -55.2167 -55.2058 -55.1820 -55.0986 -54.4027 -54.3786
   -31.9415 -31.8463 -31.8183 -31.7410 -31.7347 -31.6859 -31.6833 -31.6774
   -31.6738 -31.6637 -31.6607 -31.6283 -31.6206 -31.6202 -31.6103 -31.6022
   -31.5864 -31.5771 -31.5681 -31.5504 -31.5323 -31.5296 -31.5185 -31.5003
   -31.4825 -31.4786 -31.4727 -31.4673 -31.4522 -31.4520 -31.4504 -31.4449
   -31.4163 -31.4116 -31.4052 -31.4011 -31.3944 -31.3896 -31.3762 -31.3496
   -31.3314 -31.3021 -30.7628 -30.7196 -30.7039 -30.6209 -30.5593 -30.4929
   -16.1744 -16.0804 -15.8657 -15.7586 -15.6707 -15.5216 -15.4821 -15.4576
   -15.3517 -15.2968 -15.2407 -15.1915 -15.1241 -15.1149 -15.0537 -15.0445
   -15.0087 -14.9991 -14.9401 -14.9279 -14.9108 -14.9084 -14.8844 -14.8626
   -14.8417 -14.7957 -14.7365 -14.6420 -14.5747 -14.4012 -12.9141 -12.8323
   -10.2401  -6.2818  -4.7678  -3.9335  -3.4179  -3.2834  -3.2121  -3.1827
    -3.1438  -3.0440  -2.9686  -2.8145  -2.7849  -2.7333  -2.6774  -2.6147
    -2.5871  -2.5397  -2.5119  -2.4507  -2.4384  -2.4149  -2.3990  -2.3764
    -2.3310  -2.3038  -2.2279  -2.2072  -2.1718  -2.1517  -2.0618  -2.0293
    -1.9929  -1.9830  -1.9580  -1.9256  -1.8550  -1.8177  -1.7384  -1.7119
    -1.5942  -1.4647  -1.4125  -1.3672  -1.2620  -1.2485  -1.1846  -1.1076
    -1.0130  -0.9796  -0.8285  -0.7992  -0.7723  -0.7537  -0.6865  -0.6636
    -0.6300  -0.6071  -0.6011  -0.4584  -0.4389  -0.4255  -0.3601  -0.3519
    -0.2779  -0.2607  -0.2484  -0.2337  -0.1345  -0.0576  -0.0337  -0.0226
     0.0465   0.0631   0.1190   0.1764   0.2061   0.2892   0.3103   0.3212
     0.3622   0.3782   0.3971   0.5077   0.5181   0.5745   0.5971   0.6715
     0.7502   0.8694   0.8791   0.9157   1.0335   1.2228   1.3850   1.7984
     1.8748   2.1456   2.1491   3.8618   3.8744   3.9034   3.9592   4.0449
     4.0521   4.0854   4.1017   4.1533   4.1677   4.2418

          k = 0.0000-0.0839 0.0000 ( 17884 PWs)   bands (ev):

   -55.4152 -55.4063 -55.3629 -55.3624 -55.3533 -55.3083 -55.2909 -55.2883
   -55.2330 -55.2307 -55.2271 -55.1943 -55.1934 -55.0992 -54.3908 -54.3905
   -31.8053 -31.8012 -31.7982 -31.7159 -31.6898 -31.6860 -31.6856 -31.6539
   -31.6537 -31.6287 -31.6185 -31.6125 -31.6040 -31.6026 -31.6012 -31.5980
   -31.5799 -31.5692 -31.5666 -31.5599 -31.5519 -31.5476 -31.5123 -31.5062
   -31.5010 -31.4998 -31.4959 -31.4944 -31.4911 -31.4849 -31.4846 -31.4637
   -31.4633 -31.4612 -31.4601 -31.4190 -31.3910 -31.3882 -31.3756 -31.3753
   -31.3706 -31.3006 -30.7117 -30.7114 -30.6298 -30.6296 -30.5901 -30.5900
   -16.0946 -15.8746 -15.7855 -15.6373 -15.5825 -15.5317 -15.4434 -15.4356
   -15.3393 -15.3015 -15.2972 -15.2606 -15.2171 -15.1853 -15.0435 -15.0375
   -15.0246 -15.0206 -14.9716 -14.9248 -14.8822 -14.8732 -14.8622 -14.8331
   -14.8310 -14.7833 -14.7692 -14.7208 -14.7163 -14.5792 -12.8950 -12.8949
   -10.2393  -6.2696  -4.7672  -3.9233  -3.0040  -2.9884  -2.9625  -2.9202
    -2.8838  -2.8581  -2.8566  -2.8370  -2.7931  -2.7548  -2.7016  -2.7000
    -2.6282  -2.6272  -2.5951  -2.5928  -2.5589  -2.4845  -2.4366  -2.4051
    -2.3583  -2.3200  -2.3065  -2.2856  -2.2699  -2.2590  -2.1632  -2.1495
    -2.0648  -2.0364  -1.9498  -1.8679  -1.8327  -1.8061  -1.6316  -1.5751
    -1.5370  -1.4831  -1.3489  -1.2429  -1.2225  -1.1986  -1.1938  -0.9561
    -0.9555  -0.9310  -0.9228  -0.8954  -0.8729  -0.8339  -0.8166  -0.7980
    -0.6848  -0.6535  -0.6052  -0.5420  -0.4870  -0.4003  -0.2992  -0.2638
    -0.2132  -0.1806  -0.1493  -0.0685  -0.0519  -0.0394  -0.0351   0.0084
     0.0396   0.0928   0.0973   0.1325   0.1694   0.1858   0.2103   0.2413
     0.2590   0.3055   0.3436   0.3604   0.3612   0.3900   0.3943   0.6971
     0.7596   0.7836   0.7880   0.9208   0.9447   1.1283   1.1379   1.9406
     1.9412   2.0812   2.0813   3.9200   3.9426   3.9659   3.9885   4.0883
     4.1249   4.1523   4.1547   4.2439   4.2614   4.2677

          k = 0.0380 0.0000 0.0000 ( 17913 PWs)   bands (ev):

   -55.4292 -55.3922 -55.3797 -55.3546 -55.3456 -55.3120 -55.3069 -55.2724
   -55.2459 -55.2294 -55.2117 -55.2108 -55.1770 -55.0980 -54.4077 -54.3736
   -31.9988 -31.8844 -31.8732 -31.8011 -31.7467 -31.7402 -31.7374 -31.7171
   -31.6716 -31.6685 -31.6379 -31.6246 -31.6226 -31.6170 -31.5994 -31.5844
   -31.5772 -31.5723 -31.5609 -31.5302 -31.5283 -31.5236 -31.5079 -31.5021
   -31.4934 -31.4766 -31.4726 -31.4488 -31.4369 -31.4367 -31.4220 -31.4171
   -31.4102 -31.4095 -31.4032 -31.3961 -31.3590 -31.3506 -31.3390 -31.3225
   -31.3065 -31.2938 -30.8166 -30.7265 -30.6989 -30.6333 -30.5466 -30.4355
   -16.2155 -16.1054 -15.9016 -15.8276 -15.7017 -15.5367 -15.5196 -15.5007
   -15.3829 -15.2833 -15.2278 -15.2146 -15.1839 -15.1535 -15.1229 -15.0968
   -15.0792 -15.0224 -14.9688 -14.9207 -14.8720 -14.8316 -14.8285 -14.7984
   -14.7562 -14.6842 -14.6613 -14.6487 -14.6011 -14.2842 -12.9071 -12.7927
   -10.2438  -6.2944  -4.7725  -3.9160  -3.4987  -3.3291  -3.2200  -3.1251
    -3.0778  -3.0417  -3.0326  -2.9701  -2.9427  -2.8582  -2.8499  -2.7671
    -2.7239  -2.5793  -2.5050  -2.4981  -2.3981  -2.3876  -2.2188  -2.2074
    -2.1845  -2.1598  -2.1109  -2.1005  -2.0316  -2.0103  -1.9638  -1.8402
    -1.8172  -1.7874  -1.7621  -1.7483  -1.7294  -1.6788  -1.6700  -1.6061
    -1.5516  -1.5110  -1.4919  -1.4153  -1.3774  -1.2422  -1.2305  -1.1134
    -1.0615  -1.0468  -0.9862  -0.9505  -0.9116  -0.9022  -0.8441  -0.8386
    -0.7768  -0.7535  -0.7040  -0.5193  -0.4937  -0.4323  -0.3932  -0.3310
    -0.3119  -0.2864  -0.2668  -0.1291  -0.1214  -0.0656  -0.0408  -0.0017
     0.0585   0.0981   0.1126   0.1837   0.2138   0.2609   0.2985   0.3086
     0.3320   0.3908   0.4269   0.4999   0.5105   0.5420   0.5802   0.5885
     0.6751   0.7632   0.8429   0.9892   1.2365   1.3724   1.5266   1.6268
     1.7675   2.0781   2.1560   3.6844   3.7730   3.9233   3.9695   3.9984
     4.0627   4.1096   4.1266   4.1600   4.1718   4.1818

          k = 0.0380 0.0419 0.0000 ( 17878 PWs)   bands (ev):

   -55.4241 -55.3973 -55.3747 -55.3539 -55.3506 -55.3102 -55.3018 -55.2774
   -55.2409 -55.2312 -55.2166 -55.2058 -55.1820 -55.0986 -54.4026 -54.3786
   -31.9416 -31.8464 -31.8191 -31.7474 -31.7346 -31.6897 -31.6874 -31.6780
   -31.6742 -31.6635 -31.6609 -31.6212 -31.6206 -31.6143 -31.6100 -31.6024
   -31.5725 -31.5682 -31.5670 -31.5505 -31.5325 -31.5168 -31.5113 -31.5053
   -31.4949 -31.4823 -31.4723 -31.4649 -31.4528 -31.4504 -31.4472 -31.4388
   -31.4262 -31.4121 -31.4048 -31.4031 -31.3999 -31.3960 -31.3759 -31.3497
   -31.3311 -31.3053 -30.7625 -30.7224 -30.7029 -30.6207 -30.5594 -30.4928
   -16.1307 -16.0443 -15.7938 -15.7765 -15.6088 -15.4855 -15.4656 -15.4179
   -15.3593 -15.3161 -15.2378 -15.2187 -15.1778 -15.1257 -15.1092 -15.0907
   -15.0742 -15.0282 -14.9836 -14.9588 -14.9042 -14.8820 -14.8553 -14.8447
   -14.8088 -14.7520 -14.7190 -14.7091 -14.6550 -14.3993 -12.9117 -12.8326
   -10.2427  -6.2804  -4.7693  -3.9176  -3.3231  -3.1715  -3.0532  -3.0072
    -2.9367  -2.9167  -2.8599  -2.8334  -2.7947  -2.7456  -2.6943  -2.6284
    -2.5572  -2.5271  -2.4817  -2.4573  -2.4296  -2.3798  -2.3368  -2.2984
    -2.2631  -2.2418  -2.2218  -2.1893  -2.1357  -2.1257  -2.0709  -2.0373
    -2.0126  -1.9393  -1.8971  -1.8717  -1.8295  -1.7893  -1.7285  -1.6419
    -1.5013  -1.4478  -1.4346  -1.3800  -1.2583  -1.2221  -1.1570  -1.0787
    -1.0148  -0.9767  -0.9210  -0.8697  -0.8608  -0.8071  -0.7831  -0.7478
    -0.7044  -0.6785  -0.6053  -0.5553  -0.5250  -0.5152  -0.4020  -0.3800
    -0.3709  -0.3286  -0.2669  -0.2140  -0.1879  -0.1493  -0.1262  -0.0872
    -0.0680  -0.0484  -0.0162   0.0411   0.1222   0.1329   0.1763   0.2210
     0.2907   0.3142   0.3757   0.4552   0.5167   0.5543   0.6217   0.6717
     0.7238   0.8070   0.8487   0.9789   0.9929   1.1670   1.3432   1.8092
     1.8782   2.0678   2.1308   3.8510   3.8697   3.8922   4.0105   4.0353
     4.0728   4.1016   4.1745   4.2231   4.2487   4.2846

          k = 0.0380-0.0839 0.0000 ( 17916 PWs)   bands (ev):

   -55.4152 -55.4063 -55.3629 -55.3624 -55.3533 -55.3084 -55.2910 -55.2883
   -55.2330 -55.2306 -55.2270 -55.1944 -55.1935 -55.0993 -54.3908 -54.3905
   -31.8055 -31.8015 -31.7984 -31.7161 -31.6901 -31.6868 -31.6864 -31.6540
   -31.6537 -31.6302 -31.6289 -31.6238 -31.6205 -31.6002 -31.5831 -31.5754
   -31.5735 -31.5659 -31.5619 -31.5600 -31.5583 -31.5544 -31.5105 -31.5077
   -31.5027 -31.4985 -31.4970 -31.4841 -31.4837 -31.4740 -31.4722 -31.4706
   -31.4690 -31.4636 -31.4600 -31.4205 -31.4028 -31.4000 -31.3755 -31.3753
   -31.3700 -31.3045 -30.7127 -30.7124 -30.6297 -30.6295 -30.5902 -30.5900
   -16.0904 -15.8343 -15.7441 -15.6206 -15.5357 -15.5172 -15.4033 -15.3823
   -15.3187 -15.3045 -15.2979 -15.2466 -15.1741 -15.1430 -15.0592 -15.0526
   -15.0512 -15.0228 -15.0154 -15.0052 -14.9319 -14.9162 -14.8647 -14.8579
   -14.8418 -14.8022 -14.7895 -14.7701 -14.7690 -14.5698 -12.8948 -12.8947
   -10.2418  -6.2679  -4.7663  -3.9154  -2.9956  -2.9659  -2.9066  -2.8972
    -2.7267  -2.7015  -2.6991  -2.6489  -2.6258  -2.6057  -2.5742  -2.5508
    -2.5382  -2.5099  -2.5053  -2.4878  -2.4789  -2.4166  -2.4130  -2.3731
    -2.3446  -2.3148  -2.2780  -2.2700  -2.2043  -2.1653  -2.1329  -2.1086
    -2.0856  -2.0541  -2.0102  -1.9368  -1.7215  -1.6665  -1.6178  -1.5819
    -1.4983  -1.4427  -1.3958  -1.3647  -1.3202  -1.2943  -1.2144  -1.1760
    -1.1500  -1.1114  -1.1084  -1.0236  -0.9938  -0.8956  -0.8497  -0.7844
    -0.7714  -0.7302  -0.6933  -0.5251  -0.5119  -0.4764  -0.4516  -0.4006
    -0.3731  -0.2918  -0.2602  -0.2407  -0.2263  -0.1947  -0.1407  -0.0724
    -0.0649  -0.0421   0.0001   0.0393   0.0553   0.0751   0.0915   0.2671
     0.2919   0.3075   0.3314   0.4341   0.4631   0.6320   0.6349   0.6495
     0.7080   0.7897   0.8127   0.8867   0.8910   1.1200   1.1283   1.9540
     1.9546   2.0716   2.0723   3.8416   3.9163   3.9594   3.9843   4.0733
     4.1277   4.1453   4.1503   4.2559   4.2775   4.3205

          k = 0.0380-0.0419 0.0000 ( 17876 PWs)   bands (ev):

   -55.4241 -55.3973 -55.3747 -55.3539 -55.3506 -55.3102 -55.3018 -55.2774
   -55.2409 -55.2312 -55.2166 -55.2058 -55.1820 -55.0986 -54.4026 -54.3786
   -31.9416 -31.8464 -31.8191 -31.7474 -31.7346 -31.6897 -31.6874 -31.6780
   -31.6742 -31.6635 -31.6609 -31.6212 -31.6206 -31.6144 -31.6100 -31.6024
   -31.5726 -31.5682 -31.5669 -31.5504 -31.5325 -31.5168 -31.5113 -31.5050
   -31.4950 -31.4824 -31.4723 -31.4648 -31.4528 -31.4503 -31.4473 -31.4388
   -31.4265 -31.4127 -31.4044 -31.4028 -31.4001 -31.3960 -31.3759 -31.3497
   -31.3311 -31.3052 -30.7625 -30.7224 -30.7029 -30.6207 -30.5594 -30.4928
   -16.1312 -16.0436 -15.7925 -15.7769 -15.6091 -15.4862 -15.4656 -15.4176
   -15.3588 -15.3161 -15.2391 -15.2167 -15.1790 -15.1262 -15.1095 -15.0936
   -15.0747 -15.0264 -14.9835 -14.9587 -14.9041 -14.8819 -14.8538 -14.8443
   -14.8085 -14.7513 -14.7189 -14.7095 -14.6553 -14.3997 -12.9117 -12.8326
   -10.2429  -6.2802  -4.7692  -3.9144  -3.3230  -3.1716  -3.0542  -3.0032
    -2.9416  -2.9209  -2.8599  -2.8270  -2.7904  -2.7471  -2.6986  -2.6301
    -2.5603  -2.5250  -2.4825  -2.4614  -2.4275  -2.3773  -2.3353  -2.3030
    -2.2633  -2.2398  -2.2298  -2.1891  -2.1341  -2.1253  -2.0711  -2.0424
    -2.0123  -1.9412  -1.8873  -1.8658  -1.8363  -1.7929  -1.7236  -1.6406
    -1.5026  -1.4483  -1.4301  -1.3748  -1.2556  -1.2229  -1.1559  -1.0941
    -1.0073  -0.9763  -0.9204  -0.8714  -0.8571  -0.8141  -0.7842  -0.7456
    -0.7036  -0.6717  -0.6045  -0.5505  -0.5335  -0.5146  -0.4005  -0.3829
    -0.3691  -0.3296  -0.2566  -0.2219  -0.1935  -0.1434  -0.1255  -0.0865
    -0.0605  -0.0493  -0.0184   0.0411   0.1171   0.1319   0.1751   0.2199
     0.2926   0.3108   0.3749   0.4558   0.5202   0.5529   0.6177   0.6698
     0.7230   0.8103   0.8497   0.9794   0.9926   1.1673   1.3433   1.8092
     1.8782   2.0676   2.1315   3.8520   3.8700   3.8932   4.0110   4.0372
     4.0750   4.1003   4.1780   4.2258   4.2473   4.2835

          k =-0.0760-0.0000 0.0000 ( 17886 PWs)   bands (ev):

   -55.4291 -55.3922 -55.3797 -55.3545 -55.3456 -55.3120 -55.3069 -55.2724
   -55.2457 -55.2294 -55.2116 -55.2109 -55.1770 -55.0979 -54.4076 -54.3736
   -31.9990 -31.8846 -31.8742 -31.8062 -31.7471 -31.7441 -31.7405 -31.7174
   -31.6716 -31.6683 -31.6380 -31.6245 -31.6174 -31.5994 -31.5976 -31.5843
   -31.5721 -31.5553 -31.5541 -31.5283 -31.5275 -31.5267 -31.5233 -31.4934
   -31.4889 -31.4770 -31.4726 -31.4522 -31.4488 -31.4372 -31.4364 -31.4138
   -31.4104 -31.4097 -31.4035 -31.3993 -31.3581 -31.3504 -31.3389 -31.3233
   -31.3093 -31.2939 -30.8162 -30.7300 -30.6976 -30.6332 -30.5465 -30.4356
   -16.1241 -16.0670 -15.9184 -15.7487 -15.6501 -15.5171 -15.4857 -15.4666
   -15.3379 -15.3152 -15.2922 -15.2721 -15.2384 -15.2056 -15.1801 -15.1559
   -15.1424 -15.0614 -14.9237 -14.9160 -14.8645 -14.8529 -14.8439 -14.8342
   -14.7586 -14.7164 -14.6720 -14.5938 -14.5605 -14.2828 -12.9040 -12.7924
   -10.2469  -6.2933  -4.7758  -3.8919  -3.4667  -3.3053  -3.0831  -3.0400
    -2.9726  -2.9294  -2.9241  -2.9170  -2.8747  -2.8532  -2.8009  -2.7419
    -2.6735  -2.6581  -2.4996  -2.3842  -2.3516  -2.2724  -2.1785  -2.1772
    -2.0714  -2.0468  -2.0217  -1.9881  -1.9839  -1.9491  -1.9101  -1.8807
    -1.8291  -1.7958  -1.7838  -1.7627  -1.7527  -1.7344  -1.7161  -1.6315
    -1.5679  -1.5252  -1.4298  -1.3891  -1.2569  -1.1651  -1.1289  -1.0822
    -1.0731  -1.0443  -1.0421  -1.0065  -0.9923  -0.9661  -0.9363  -0.8688
    -0.8234  -0.7859  -0.7304  -0.7022  -0.6300  -0.6144  -0.4229  -0.3980
    -0.3534  -0.3288  -0.2988  -0.2062  -0.1483  -0.1351  -0.0952  -0.0317
    -0.0102   0.0462   0.0643   0.0784   0.1484   0.1651   0.2282   0.2559
     0.3135   0.3342   0.3712   0.3848   0.4152   0.4583   0.5052   0.5590
     0.6955   0.8000   0.8190   1.0573   1.0969   1.2625   1.5313   1.6482
     1.7426   1.9480   2.1011   3.6846   3.7298   3.8158   3.9423   3.9832
     4.0556   4.1080   4.1580   4.1594   4.1830   4.2484

          k =-0.0760 0.0419 0.0000 ( 17914 PWs)   bands (ev):

   -55.4241 -55.3973 -55.3747 -55.3539 -55.3506 -55.3102 -55.3019 -55.2774
   -55.2408 -55.2312 -55.2166 -55.2060 -55.1820 -55.0986 -54.4027 -54.3786
   -31.9420 -31.8467 -31.8202 -31.7535 -31.7348 -31.6937 -31.6917 -31.6784
   -31.6748 -31.6635 -31.6610 -31.6210 -31.6207 -31.6107 -31.6025 -31.5968
   -31.5679 -31.5581 -31.5538 -31.5507 -31.5325 -31.5161 -31.5145 -31.5140
   -31.4825 -31.4771 -31.4733 -31.4642 -31.4584 -31.4531 -31.4502 -31.4497
   -31.4176 -31.4123 -31.4121 -31.4050 -31.4036 -31.4011 -31.3766 -31.3497
   -31.3311 -31.3085 -30.7622 -30.7253 -30.7022 -30.6207 -30.5594 -30.4929
   -16.1035 -15.9506 -15.8478 -15.6741 -15.5597 -15.4789 -15.4064 -15.3925
   -15.3582 -15.2824 -15.2380 -15.2295 -15.2193 -15.1897 -15.1635 -15.1353
   -15.1267 -15.0499 -15.0106 -14.9794 -14.9006 -14.8976 -14.8712 -14.8536
   -14.8138 -14.8065 -14.7158 -14.6814 -14.6676 -14.3982 -12.9096 -12.8329
   -10.2456  -6.2789  -4.7704  -3.9005  -3.3007  -3.1512  -2.9944  -2.8504
    -2.8257  -2.7688  -2.7326  -2.6993  -2.6548  -2.6404  -2.6376  -2.5786
    -2.5452  -2.4582  -2.4552  -2.4083  -2.3839  -2.3726  -2.3164  -2.2479
    -2.2384  -2.1589  -2.1508  -2.1128  -2.0603  -2.0358  -2.0189  -1.9850
    -1.9848  -1.9614  -1.9267  -1.8899  -1.8278  -1.6622  -1.6409  -1.6054
    -1.5812  -1.5101  -1.4129  -1.2897  -1.2066  -1.1912  -1.1778  -1.1047
    -1.0670  -1.0222  -1.0013  -0.9681  -0.9354  -0.8569  -0.8448  -0.8198
    -0.7814  -0.7685  -0.7077  -0.6859  -0.6415  -0.6345  -0.6149  -0.5539
    -0.5262  -0.4834  -0.4157  -0.4014  -0.3421  -0.2350  -0.2276  -0.1929
    -0.1729  -0.1298  -0.1080   0.0123   0.0469   0.1071   0.1209   0.2206
     0.2981   0.3193   0.3918   0.4451   0.4640   0.5201   0.6553   0.7601
     0.7839   0.8416   0.8995   0.9853   1.0698   1.0864   1.2264   1.8245
     1.8803   1.9899   2.1200   3.8459   3.8698   3.8896   3.8992   3.9845
     4.0296   4.0732   4.1343   4.1925   4.2838   4.3134

          k =-0.0760-0.0839 0.0000 ( 17948 PWs)   bands (ev):

   -55.4152 -55.4063 -55.3629 -55.3624 -55.3533 -55.3084 -55.2910 -55.2883
   -55.2331 -55.2305 -55.2269 -55.1945 -55.1936 -55.0993 -54.3908 -54.3905
   -31.8058 -31.8017 -31.7987 -31.7163 -31.6904 -31.6876 -31.6872 -31.6540
   -31.6538 -31.6382 -31.6316 -31.6289 -31.6223 -31.6003 -31.5850 -31.5682
   -31.5640 -31.5617 -31.5599 -31.5550 -31.5548 -31.5519 -31.5090 -31.5069
   -31.5040 -31.5001 -31.4976 -31.4842 -31.4828 -31.4823 -31.4800 -31.4636
   -31.4601 -31.4442 -31.4405 -31.4268 -31.4236 -31.4213 -31.3754 -31.3753
   -31.3695 -31.3086 -30.7138 -30.7135 -30.6297 -30.6294 -30.5902 -30.5900
   -16.0866 -15.7795 -15.6939 -15.6380 -15.4624 -15.4346 -15.4205 -15.4010
   -15.2718 -15.2465 -15.2210 -15.1981 -15.1769 -15.1395 -15.1318 -15.1269
   -15.0492 -15.0361 -15.0304 -15.0158 -14.9465 -14.9374 -14.9336 -14.9274
   -14.8772 -14.8734 -14.8303 -14.7796 -14.7764 -14.5624 -12.8946 -12.8945
   -10.2442  -6.2661  -4.7653  -3.9078  -3.0024  -2.9616  -2.8973  -2.8941
    -2.6787  -2.6418  -2.6055  -2.5817  -2.4900  -2.4477  -2.4290  -2.4283
    -2.3538  -2.3350  -2.3226  -2.2708  -2.2653  -2.2540  -2.2302  -2.1996
    -2.1725  -2.1576  -2.1479  -2.1297  -2.0863  -2.0721  -2.0531  -2.0324
    -2.0260  -2.0144  -1.9846  -1.9449  -1.8138  -1.8026  -1.7423  -1.6344
    -1.6295  -1.5545  -1.5441  -1.4994  -1.4859  -1.4611  -1.4267  -1.2477
    -1.2050  -1.1740  -1.1645  -1.1105  -1.0348  -1.0177  -0.9546  -0.9338
    -0.9152  -0.8105  -0.7674  -0.7523  -0.6622  -0.6537  -0.5715  -0.5200
    -0.4606  -0.4348  -0.3993  -0.3842  -0.3822  -0.3342  -0.3286  -0.2449
    -0.1990  -0.1628  -0.1493  -0.1172   0.0819   0.0888   0.1112   0.2569
     0.2765   0.4118   0.4390   0.4902   0.5701   0.6033   0.6839   0.7168
     0.8456   0.8768   0.8794   0.9492   0.9635   1.0256   1.0360   1.9716
     1.9723   2.0588   2.0590   3.8193   3.9108   3.9310   3.9736   4.0867
     4.1612   4.1857   4.2074   4.2542   4.2576   4.3218

     the Fermi energy is     3.7323 ev

!    total energy              =   -2921.63240408 Ry
     estimated scf accuracy    <       0.00000003 Ry
     smearing contrib. (-TS)   =      -0.03702480 Ry
     internal energy E=F+TS    =   -2921.59537928 Ry

     The total energy is F=E-TS. E is the sum of the following terms:
     one-electron contribution =  -24082.09846757 Ry
     hartree contribution      =   12130.20943423 Ry
     xc contribution           =    -481.76049402 Ry
     ewald contribution        =    9512.05091747 Ry
     electric field correction =       0.00323060 Ry

     convergence has been achieved in  66 iterations

     Forces acting on atoms (cartesian axes, Ry/au):

     atom    1 type  1   force =     0.00005554   -0.00024657    0.09322655
     atom    2 type  1   force =    -0.00013052   -0.00043710   -0.17820745
     atom    3 type  2   force =     0.00002041   -0.00040387   -0.02022017
     atom    4 type  2   force =    -0.00001240   -0.00187672    0.05851899
     atom    5 type  2   force =    -0.00995539   -0.00082553    0.00750048
     atom    6 type  2   force =     0.01147420   -0.00027256    0.00679927
     atom    7 type  1   force =    -0.00038273    0.00195642   -0.01463854
     atom    8 type  1   force =     0.00011054   -0.00012261   -0.00502341
     atom    9 type  2   force =    -0.00011717   -0.00005688    0.00002013
     atom   10 type  2   force =    -0.00118053    0.00218922   -0.00032187
     atom   11 type  2   force =    -0.00002188   -0.00018957    0.00006819
     atom   12 type  2   force =     0.00059677   -0.00050807    0.00012832
     atom   13 type  1   force =    -0.00072366    0.00034258   -0.00034341
     atom   14 type  1   force =    -0.00000667   -0.00059771    0.00003450
     atom   15 type  2   force =     0.00002980   -0.00049525   -0.00039405
     atom   16 type  2   force =     0.00023331    0.00059991    0.00052015
     atom   17 type  2   force =     0.00001895   -0.00055692    0.00035283
     atom   18 type  2   force =     0.00017214   -0.00009742    0.00039475
     atom   19 type  1   force =     0.00012047   -0.00033241    0.00170957
     atom   20 type  1   force =    -0.00025685    0.00054633    0.00021488
     atom   21 type  2   force =     0.00000950   -0.00009579    0.10388170
     atom   22 type  2   force =     0.00024198   -0.00010830    0.00061174
     atom   23 type  2   force =    -0.07048085   -0.00018238   -0.02695861
     atom   24 type  2   force =     0.07030873    0.00026006   -0.02699954
     atom   25 type  1   force =    -0.00001609   -0.00016052    0.09272918
     atom   26 type  1   force =    -0.00019515   -0.00049901   -0.17822191
     atom   27 type  2   force =     0.00007536   -0.00023983   -0.01927799
     atom   28 type  2   force =     0.00001658   -0.00165684    0.05786830
     atom   29 type  2   force =    -0.01052123   -0.00097995    0.00820069
     atom   30 type  2   force =     0.01192600   -0.00053630    0.00742852
     atom   31 type  1   force =    -0.00034429    0.00605876   -0.01542193
     atom   32 type  1   force =     0.00011500   -0.00039621   -0.00544838
     atom   33 type  2   force =     0.00030793   -0.00009993   -0.00030409
     atom   34 type  2   force =    -0.00063662   -0.00204432   -0.00050453
     atom   35 type  2   force =    -0.00040498   -0.00002229    0.00024494
     atom   36 type  2   force =     0.00067398   -0.00007274   -0.00003327
     atom   37 type  1   force =    -0.00036038   -0.00023070    0.00026134
     atom   38 type  1   force =     0.00002208    0.00041510   -0.00004298
     atom   39 type  2   force =     0.00023743   -0.00008999    0.00019447
     atom   40 type  2   force =     0.00017072    0.00026019    0.00013129
     atom   41 type  2   force =    -0.00051265    0.00029483   -0.00010075
     atom   42 type  2   force =     0.00050468    0.00085741   -0.00007398
     atom   43 type  1   force =     0.00050068    0.00060574    0.00018205
     atom   44 type  1   force =     0.00044043    0.00023490    0.00044156
     atom   45 type  2   force =     0.00002063   -0.00009597    0.10387805
     atom   46 type  2   force =    -0.07045242   -0.00012939   -0.02690225
     atom   47 type  2   force =     0.07028384    0.00029723   -0.02695317
     atom   48 type  3   force =     0.00529770   -0.00176873    0.00175818
     atom   49 type  4   force =    -0.01782520   -0.00163148    0.00214418
     atom   50 type  5   force =     0.00215017    0.00049083   -0.00217335
     atom   51 type  5   force =     0.00534352    0.00516123   -0.00077218
     atom   52 type  5   force =    -0.00028230   -0.00051872    0.00073333
     atom   53 type  5   force =    -0.00008665    0.00026335    0.00049439
     atom   54 type  5   force =     0.00342750   -0.00225550   -0.00133471

     Total force =     0.366606     Total SCF correction =     0.000354
  @ DRIVER MODE: Message from server: STATUS
  @ DRIVER MODE: Message from server: GETFORCE
  @ DRIVER MODE: Returning v,forces,stress,ensemble 

     Writing output data file ./calc.save/
  @ DRIVER MODE: Message from server: EXIT
  @ DRIVE MODE: Exiting  
 
     init_run     :     12.99s CPU     13.60s WALL (       1 calls)
     electrons    :   1303.94s CPU   1329.66s WALL (       1 calls)
     forces       :      5.13s CPU      5.17s WALL (       1 calls)

     Called by init_run:
     wfcinit      :      8.89s CPU      9.01s WALL (       1 calls)
     potinit      :      2.13s CPU      2.17s WALL (       1 calls)
     hinit0       :      1.01s CPU      1.43s WALL (       1 calls)

     Called by electrons:
     c_bands      :    999.11s CPU   1018.30s WALL (      66 calls)
     sum_band     :    210.25s CPU    213.97s WALL (      66 calls)
     v_of_rho     :     55.00s CPU     57.07s WALL (      67 calls)
     newd         :      5.35s CPU      5.42s WALL (      67 calls)
     mix_rho      :     31.53s CPU     31.81s WALL (      66 calls)
     vdW_kernel   :      1.28s CPU      1.29s WALL (       1 calls)

     Called by c_bands:
     init_us_2    :      1.07s CPU      1.18s WALL (    1340 calls)
     cegterg      :    993.93s CPU   1012.63s WALL (     664 calls)

     Called by *egterg:
     cdiaghg      :    384.91s CPU    390.21s WALL (    6900 calls)
     h_psi        :    443.63s CPU    453.68s WALL (    6910 calls)
     s_psi        :     11.43s CPU     11.53s WALL (    6910 calls)
     g_psi        :      0.24s CPU      0.25s WALL (    6236 calls)

     Called by h_psi:
     h_psi:calbec :     19.55s CPU     19.90s WALL (    6910 calls)
     vloc_psi     :    411.00s CPU    420.54s WALL (    6910 calls)
     add_vuspsi   :     12.61s CPU     12.75s WALL (    6910 calls)

     General routines
     calbec       :     33.23s CPU     33.65s WALL (    7610 calls)
     fft          :     50.26s CPU     52.27s WALL (    4221 calls)
     ffts         :      0.85s CPU      0.88s WALL (     133 calls)
     fftw         :    602.51s CPU    615.24s WALL (  882420 calls)
     interpolate  :      1.57s CPU      1.67s WALL (      67 calls)
     davcio       :      0.00s CPU      0.04s WALL (      10 calls)
 
     Parallel routines
 
     PWSCF        :  22m19.71s CPU  23m18.20s WALL

 
   This run was terminated on:  13:17:59  24Aug2021            

=------------------------------------------------------------------------------=
   JOB DONE.
=------------------------------------------------------------------------------=
