
     Program PWSCF v.6.7GPU starts on 23Sep2021 at 20: 8: 1 

     This program is part of the open-source Quantum ESPRESSO suite
     for quantum simulation of materials; please cite
         "P. Giannozzi et al., J. Phys.:Condens. Matter 21 395502 (2009);
         "P. Giannozzi et al., J. Phys.:Condens. Matter 29 465901 (2017);
         "P. Giannozzi et al., J. Chem. Phys. 152 154105 (2020);
          URL http://www.quantum-espresso.org", 
     in publications or presentations arising from this work. More details at
     http://www.quantum-espresso.org/quote

     Parallel version (MPI), running on     8 processors

     MPI processes distributed on     1 nodes
     R & G space division:  proc/nbgrp/npool/nimage =       8
     Reading input from /storage/home/hcoda1/3/ntian30/research/carbon/CxH_vib/H2O_calc/ads_slab/CH2NNHHHHO_a/out_0021/pw.inp
Warning: card &CELL ignored
Warning: card   CELL_DYNAMICS='IPI', ignored
Warning: card / ignored

     Current dimensions of program PWSCF are:
     Max number of different atomic species (ntypx) = 10
     Max number of k-points (npk) =  40000
     Max angular momentum in pseudopotentials (lmaxx) =  3
     Presently no symmetry can be used with electric field

     Message from routine cell_base_init:
     DEPRECATED: use true lattice parameter, not A to a.u. conversion factor

     **************************************************************************
     Initializing libbeef V0.1.2 with the BEEF-vdW functional.
     Citation: Wellendorff et al., PRB 85, 235149 (2012).
     **************************************************************************


     IMPORTANT: XC functional enforced from input :
     Exchange-correlation= BEEF-VDW
                           (   1   4  43  14   2   0   0)
     Any further DFT definition will be discarded
     Please, verify this is what you really want


     Subspace diagonalization in iterative solution of the eigenvalue problem:
     one sub-group per band group will be used
     scalapack distributed-memory algorithm (size of sub-group:  2*  2 procs)

  @ DRIVER MODE: Connecting to 
 qe_1139763_2947316.sched-torque.pace.gatech.eduh8fjqjq3_scratch
  using UNIX socket
  @ DRIVER MODE: Message from server: STATUS
  @ DRIVER MODE: Message from server: INIT
  @ DRIVER MODE: Receiving replica           0          -1
  @ DRIVER MODE: Receiving encoded integer          25
  @ DRIVER MODE:  SCF:  T  FORCE:  T  STRESS:  F  VC:  F  ENSEMBLE:  F
  @ DRIVER MODE:  SCF:  T  FORCE:  T  STRESS:  F  VC:  F  ENSEMBLE:  F
 
     Parallelization info
     --------------------
     sticks:   dense  smooth     PW     G-vecs:    dense   smooth      PW
     Min         409     164     47                70857    17926    2743
     Max         411     165     48                70858    17931    2751
     Sum        3275    1317    379               566857   143421   21985
 
     Using Slab Decomposition
 


     bravais-lattice index     =            0
     lattice parameter (alat)  =       1.8897  a.u.
     unit-cell volume          =    6658.9804 (a.u.)^3
     number of atoms/cell      =           57
     number of atomic types    =            5
     number of electrons       =       404.00
     number of Kohn-Sham states=          212
     kinetic-energy cutoff     =      29.3995  Ry
     charge density cutoff     =     293.9946  Ry
     scf convergence threshold =      7.3E-08
     mixing beta               =       0.0500
     number of iterations used =            8  plain     mixing
     Exchange-correlation= BEEF-VDW
                           (   1   4  43  14   2   0   0)

     celldm(1)=   1.889726  celldm(2)=   0.000000  celldm(3)=   0.000000
     celldm(4)=   0.000000  celldm(5)=   0.000000  celldm(6)=   0.000000

     crystal axes: (cart. coord. in units of alat)
               a(1) = (   6.579727   0.000000   0.000000 )  
               a(2) = (  -0.000775   5.961596   0.000000 )  
               a(3) = (   0.000000   0.000000  25.155947 )  

     reciprocal axes: (cart. coord. in units 2 pi/alat)
               b(1) = (  0.151982  0.000020  0.000000 )  
               b(2) = (  0.000000  0.167740  0.000000 )  
               b(3) = (  0.000000  0.000000  0.039752 )  


     PseudoPot. # 1 for Ti read from file:
     /storage/coda1/p-amedford6/0/shared/rich_project_chbe-medford/medford-share/data/pseudos_module/espresso/nninc/pbe/van/Ti.UPF
     MD5 check sum: 8e4df49b7f0d34bbd5052bf3f5ea0213
     Pseudo is Ultrasoft, Zval = 12.0
     Generated by new atomic code, or converted to UPF format
     Using radial grid of  851 points,  6 beta functions with: 
                l(1) =   0
                l(2) =   0
                l(3) =   1
                l(4) =   1
                l(5) =   2
                l(6) =   2
     Q(r) pseudized with  8 coefficients,  rinner =    1.000   1.000   1.000
                                                       1.000   1.000

     PseudoPot. # 2 for O  read from file:
     /storage/coda1/p-amedford6/0/shared/rich_project_chbe-medford/medford-share/data/pseudos_module/espresso/nninc/pbe/van/O.UPF
     MD5 check sum: 78c19812648e8988a0fe644b0f25305e
     Pseudo is Ultrasoft, Zval =  6.0
     Generated by new atomic code, or converted to UPF format
     Using radial grid of  737 points,  4 beta functions with: 
                l(1) =   0
                l(2) =   0
                l(3) =   1
                l(4) =   1
     Q(r) pseudized with  8 coefficients,  rinner =    0.800   0.800   0.800


     PseudoPot. # 3 for N  read from file:
     /storage/coda1/p-amedford6/0/shared/rich_project_chbe-medford/medford-share/data/pseudos_module/espresso/nninc/pbe/van/N.UPF
     MD5 check sum: 90d10febe142ad51ac9d5be1deb811c4
     Pseudo is Ultrasoft, Zval =  5.0
     Generated by new atomic code, or converted to UPF format
     Using radial grid of  729 points,  4 beta functions with: 
                l(1) =   0
                l(2) =   0
                l(3) =   1
                l(4) =   1
     Q(r) pseudized with  8 coefficients,  rinner =    0.800   0.800   0.800


     PseudoPot. # 4 for C  read from file:
     /storage/coda1/p-amedford6/0/shared/rich_project_chbe-medford/medford-share/data/pseudos_module/espresso/nninc/pbe/van/C.UPF
     MD5 check sum: 1a69bf6b8db32088f5b2163dbdb77a27
     Pseudo is Ultrasoft, Zval =  4.0
     Generated by new atomic code, or converted to UPF format
     Using radial grid of  721 points,  4 beta functions with: 
                l(1) =   0
                l(2) =   0
                l(3) =   1
                l(4) =   1
     Q(r) pseudized with  8 coefficients,  rinner =    0.800   0.800   0.800


     PseudoPot. # 5 for H  read from file:
     /storage/coda1/p-amedford6/0/shared/rich_project_chbe-medford/medford-share/data/pseudos_module/espresso/nninc/pbe/van/H.UPF
     MD5 check sum: b5ee9d7bfd3a09ee7748110bda690ff7
     Pseudo is Ultrasoft, Zval =  1.0
     Generated by new atomic code, or converted to UPF format
     Using radial grid of  615 points,  1 beta functions with: 
                l(1) =   0
     Q(r) pseudized with  8 coefficients,  rinner =    0.800

     atomic species   valence    mass     pseudopotential
        Ti1           12.00    47.86700     Ti( 1.00)
        O1             6.00    15.99900     O ( 1.00)
        N1             5.00    14.00700     N ( 1.00)
        C1             4.00    12.01100     C ( 1.00)
        H1             1.00     1.00800     H ( 1.00)

     No symmetry found



   Cartesian axes

     site n.     atom                  positions (alat units)
         1           Ti1 tau(   1) = (   0.0004258   2.9801865   6.0000000  )
         2           Ti1 tau(   2) = (   3.2906075   1.4906267   6.0002472  )
         3           O1  tau(   3) = (   0.0006271   0.0005054   7.9858123  )
         4           O1  tau(   4) = (   3.2906025   0.0005020   7.3038282  )
         5           O1  tau(   5) = (   4.5942328   1.4918067   9.2879030  )
         6           O1  tau(   6) = (   1.9868534   1.4903216   9.2879459  )
         7           Ti1 tau(   7) = (   3.2907910   2.8959150   9.1758416  )
         8           Ti1 tau(   8) = (   0.0015273   1.4827037   9.2680791  )
         9           O1  tau(   9) = (   3.3027076   5.9092304  11.3732431  )
        10           O1  tau(  10) = (   0.0116148   5.9584955  10.6183126  )
        11           O1  tau(  11) = (   1.2953868   1.4751764  12.6403503  )
        12           O1  tau(  12) = (   5.3168701   1.4807623  12.6366210  )
        13           Ti1 tau(  13) = (   0.0172323   2.9996225  12.5311828  )
        14           Ti1 tau(  14) = (   3.3257086   1.2755711  12.7138078  )
        15           O1  tau(  15) = (   6.5733368   0.1082846  14.6600873  )
        16           O1  tau(  16) = (   3.3238075   0.0838359  14.0473399  )
        17           O1  tau(  17) = (   4.5575128   1.5393005  16.2317518  )
        18           O1  tau(  18) = (   2.0302387   1.4963625  16.2670071  )
        19           Ti1 tau(  19) = (   3.2366114   2.9448900  15.6849520  )
        20           Ti1 tau(  20) = (   6.5300729   1.3987400  16.1165465  )
        21           O1  tau(  21) = (   3.2904802   0.0005063   4.7018136  )
        22           O1  tau(  22) = (   0.0022030   5.7760056  17.1861099  )
        23           O1  tau(  23) = (   1.3043587   1.4918075   6.0039043  )
        24           O1  tau(  24) = (   5.2767064   1.4903225   6.0039473  )
        25           Ti1 tau(  25) = (   0.0000382   5.9609847   6.0000000  )
        26           Ti1 tau(  26) = (   3.2902200   4.4714249   6.0002472  )
        27           O1  tau(  27) = (   0.0002396   2.9813036   7.9858123  )
        28           O1  tau(  28) = (   3.2902150   2.9813002   7.3038282  )
        29           O1  tau(  29) = (   4.5938453   4.4726049   9.2879030  )
        30           O1  tau(  30) = (   1.9864658   4.4711199   9.2879459  )
        31           Ti1 tau(  31) = (   3.2891106   5.8743827   9.1763621  )
        32           Ti1 tau(  32) = (   0.0006254   4.4649316   9.2693709  )
        33           O1  tau(  33) = (   3.3012885   2.9833904  11.3212188  )
        34           O1  tau(  34) = (   0.0092240   2.9805883  10.6323155  )
        35           O1  tau(  35) = (   1.2895456   4.4501540  12.7025460  )
        36           O1  tau(  36) = (   5.3143371   4.4382646  12.6927937  )
        37           Ti1 tau(  37) = (   0.0343555   0.0433052  12.5107970  )
        38           Ti1 tau(  38) = (   3.3217552   4.3482123  12.4486840  )
        39           O1  tau(  39) = (   0.0141661   2.9064423  14.8877341  )
        40           O1  tau(  40) = (   3.2920978   2.9424077  13.9176102  )
        41           O1  tau(  41) = (   4.5506947   4.3398720  16.1100615  )
        42           O1  tau(  42) = (   2.0210198   4.4131678  16.0160425  )
        43           Ti1 tau(  43) = (   3.3132698   5.9358869  16.2610495  )
        44           Ti1 tau(  44) = (   0.0826266   4.5979890  15.7080129  )
        45           O1  tau(  45) = (   3.2900926   2.9813045   4.7018136  )
        46           O1  tau(  46) = (   1.3039711   4.4726057   6.0039043  )
        47           O1  tau(  47) = (   5.2763189   4.4711207   6.0039473  )
        48           N1  tau(  48) = (   6.5643472   2.7424576  18.0625816  )
        49           C1  tau(  49) = (   0.8744728   2.5686873  19.0232366  )
        50           H1  tau(  50) = (   0.8543601   3.1364980  19.9465443  )
        51           H1  tau(  51) = (   1.6733950   1.8673151  18.8242213  )
        52           N1  tau(  52) = (   5.5366205   3.6779994  18.4753393  )
        53           H1  tau(  53) = (   5.9486539   4.6347284  18.5635686  )
        54           H1  tau(  54) = (   4.8775701   3.8234783  17.6645784  )
        55           H1  tau(  55) = (   5.0440791   3.3775604  19.3232938  )
        56           O1  tau(  56) = (   3.4091604   5.6710612  18.1544331  )
        57           H1  tau(  57) = (   3.1368125   0.4262250  18.7404830  )

     number of k points=    10  Fermi-Dirac smearing, width (Ry)=  0.0073
                       cart. coord. in units 2pi/alat
        k(    1) = (   0.0000000   0.0000000   0.0000000), wk =   0.1250000
        k(    2) = (   0.0000000   0.0419351   0.0000000), wk =   0.2500000
        k(    3) = (   0.0000000  -0.0838702   0.0000000), wk =   0.1250000
        k(    4) = (   0.0379955   0.0000049   0.0000000), wk =   0.2500000
        k(    5) = (   0.0379955   0.0419400   0.0000000), wk =   0.2500000
        k(    6) = (   0.0379955  -0.0838652   0.0000000), wk =   0.2500000
        k(    7) = (   0.0379955  -0.0419301   0.0000000), wk =   0.2500000
        k(    8) = (  -0.0759910  -0.0000099   0.0000000), wk =   0.1250000
        k(    9) = (  -0.0759910   0.0419252   0.0000000), wk =   0.2500000
        k(   10) = (  -0.0759910  -0.0838800   0.0000000), wk =   0.1250000

     Dense  grid:   566857 G-vectors     FFT dimensions: (  72,  64, 270)

     Smooth grid:   143421 G-vectors     FFT dimensions: (  45,  40, 180)

     Estimated max dynamical RAM per process >     458.07 MB

     Estimated total dynamical RAM >       3.58 GB
     Cannot read rho : file not found

     Initial potential from superposition of free atoms

     starting charge  387.99913, renormalised to  404.00000

     negative rho (up, down):  1.545E-02 0.000E+00


     %%%%%%%%%%%%%%%%%%%%%%%%%%%%%%%%%%%%%%%%%%%%%%%%%%%%%%%%%%%%%%%%%%%%%%%%
     %                                                                      %
     % You are using vdW-DF, which was implemented by the Thonhauser group. %
     % Please cite the following two papers that made this development      %
     % possible and the two reviews that describe the various versions:     %
     %                                                                      %
     %   T. Thonhauser et al., PRL 115, 136402 (2015).                      %
     %   T. Thonhauser et al., PRB 76, 125112 (2007).                       %
     %   K. Berland et al., Rep. Prog. Phys. 78, 066501 (2015).             %
     %   D.C. Langreth et al., J. Phys.: Condens. Matter 21, 084203 (2009). %
     %                                                                      %
     %                                                                      %
     % If you are calculating the stress with vdW-DF, please also cite:     %
     %                                                                      %
     %   R. Sabatini et al., J. Phys.: Condens. Matter 24, 424209 (2012).   %
     %                                                                      %
     %%%%%%%%%%%%%%%%%%%%%%%%%%%%%%%%%%%%%%%%%%%%%%%%%%%%%%%%%%%%%%%%%%%%%%%%


 
     Adding external electric field

     Computed dipole along edir(3) : 
        Dipole              -13.5862 Ry au,        -34.5326 Debye
        Dipole field         -0.0256 Ry au, 
 
        Potential amp.        2.3767 Ry
        Total length         46.3494 bohr
 
     Starting wfcs are  306 atomic wfcs
  @ DRIVER MODE: Message from server: STATUS
  @ DRIVER MODE: Message from server: POSDATA
  @ DRIVER MODE: Reading and sharing cell 
  @ DRIVER MODE: Reading and sharing positions 
  @ DRIVER MODE: Received positions 

     total cpu time spent up to now is       14.3 secs

     Self-consistent Calculation

     iteration #  1     ecut=    29.40 Ry     beta= 0.05
     Davidson diagonalization with overlap
     c_bands:  4 eigenvalues not converged
     c_bands:  1 eigenvalues not converged
     c_bands:  1 eigenvalues not converged
     c_bands:  1 eigenvalues not converged
     c_bands:  2 eigenvalues not converged
     c_bands:  4 eigenvalues not converged
     c_bands:  5 eigenvalues not converged
     c_bands:  2 eigenvalues not converged
     ethr =  1.00E-05,  avg # of iterations = 29.7

     negative rho (up, down):  8.751E-03 0.000E+00
 
     Adding external electric field

     Computed dipole along edir(3) : 
        Dipole               59.0983 Ry au,        150.2130 Debye
        Dipole field          0.1115 Ry au, 
 
        Potential amp.      -10.3384 Ry
        Total length         46.3494 bohr
 

     total cpu time spent up to now is       77.4 secs

     total energy              =   -2247.86603124 Ry
     estimated scf accuracy    <    8242.56129349 Ry

     iteration #  2     ecut=    29.40 Ry     beta= 0.05
     Davidson diagonalization with overlap
     ethr =  1.00E-02,  avg # of iterations = 24.3

     negative rho (up, down):  2.916E-04 0.000E+00
 
     Adding external electric field

     Computed dipole along edir(3) : 
        Dipole                1.0137 Ry au,          2.5765 Debye
        Dipole field          0.0019 Ry au, 
 
        Potential amp.       -0.1773 Ry
        Total length         46.3494 bohr
 

     total cpu time spent up to now is      185.2 secs

     total energy              =   -2490.99869765 Ry
     estimated scf accuracy    <   74542.98630008 Ry

     iteration #  3     ecut=    29.40 Ry     beta= 0.05
     Davidson diagonalization with overlap
     ethr =  1.00E-02,  avg # of iterations = 16.5

     negative rho (up, down):  3.448E-04 0.000E+00
 
     Adding external electric field

     Computed dipole along edir(3) : 
        Dipole               -2.9348 Ry au,         -7.4596 Debye
        Dipole field         -0.0055 Ry au, 
 
        Potential amp.        0.5134 Ry
        Total length         46.3494 bohr
 

     total cpu time spent up to now is      247.9 secs

     total energy              =   -2956.64637257 Ry
     estimated scf accuracy    <    7977.40162399 Ry

     iteration #  4     ecut=    29.40 Ry     beta= 0.05
     Davidson diagonalization with overlap
     ethr =  1.00E-02,  avg # of iterations = 12.1

     negative rho (up, down):  3.638E-04 0.000E+00
 
     Adding external electric field

     Computed dipole along edir(3) : 
        Dipole               -4.7303 Ry au,        -12.0233 Debye
        Dipole field         -0.0089 Ry au, 
 
        Potential amp.        0.8275 Ry
        Total length         46.3494 bohr
 

     total cpu time spent up to now is      278.0 secs

     total energy              =   -2967.08145189 Ry
     estimated scf accuracy    <    2244.48319244 Ry

     iteration #  5     ecut=    29.40 Ry     beta= 0.05
     Davidson diagonalization with overlap
     ethr =  1.00E-02,  avg # of iterations =  3.9

     negative rho (up, down):  4.161E-04 0.000E+00
 
     Adding external electric field

     Computed dipole along edir(3) : 
        Dipole               -7.4571 Ry au,        -18.9540 Debye
        Dipole field         -0.0141 Ry au, 
 
        Potential amp.        1.3045 Ry
        Total length         46.3494 bohr
 

     total cpu time spent up to now is      292.3 secs

     total energy              =   -2938.64571429 Ry
     estimated scf accuracy    <    2143.58424564 Ry

     iteration #  6     ecut=    29.40 Ry     beta= 0.05
     Davidson diagonalization with overlap
     ethr =  1.00E-02,  avg # of iterations = 13.0

     negative rho (up, down):  4.031E-04 0.000E+00
 
     Adding external electric field

     Computed dipole along edir(3) : 
        Dipole               -6.0115 Ry au,        -15.2797 Debye
        Dipole field         -0.0113 Ry au, 
 
        Potential amp.        1.0516 Ry
        Total length         46.3494 bohr
 

     total cpu time spent up to now is      325.7 secs

     total energy              =   -2979.66219590 Ry
     estimated scf accuracy    <      53.32179347 Ry

     iteration #  7     ecut=    29.40 Ry     beta= 0.05
     Davidson diagonalization with overlap
     ethr =  1.00E-02,  avg # of iterations =  1.5

     negative rho (up, down):  4.182E-04 0.000E+00
 
     Adding external electric field

     Computed dipole along edir(3) : 
        Dipole               -4.6472 Ry au,        -11.8119 Debye
        Dipole field         -0.0088 Ry au, 
 
        Potential amp.        0.8130 Ry
        Total length         46.3494 bohr
 

     total cpu time spent up to now is      339.0 secs

     total energy              =   -2978.37052381 Ry
     estimated scf accuracy    <      23.35504011 Ry

     iteration #  8     ecut=    29.40 Ry     beta= 0.05
     Davidson diagonalization with overlap
     ethr =  5.78E-03,  avg # of iterations =  2.5

     negative rho (up, down):  4.233E-04 0.000E+00
 
     Adding external electric field

     Computed dipole along edir(3) : 
        Dipole               -4.3462 Ry au,        -11.0469 Debye
        Dipole field         -0.0082 Ry au, 
 
        Potential amp.        0.7603 Ry
        Total length         46.3494 bohr
 

     total cpu time spent up to now is      352.4 secs

     total energy              =   -2978.58454634 Ry
     estimated scf accuracy    <      16.13572403 Ry

     iteration #  9     ecut=    29.40 Ry     beta= 0.05
     Davidson diagonalization with overlap
     ethr =  3.99E-03,  avg # of iterations =  1.1

     negative rho (up, down):  6.391E-04 0.000E+00
 
     Adding external electric field

     Computed dipole along edir(3) : 
        Dipole                1.6365 Ry au,          4.1596 Debye
        Dipole field          0.0031 Ry au, 
 
        Potential amp.       -0.2863 Ry
        Total length         46.3494 bohr
 

     total cpu time spent up to now is      365.4 secs

     total energy              =   -2974.21804780 Ry
     estimated scf accuracy    <      15.38150202 Ry

     iteration # 10     ecut=    29.40 Ry     beta= 0.05
     Davidson diagonalization with overlap
     ethr =  3.81E-03,  avg # of iterations = 16.3

     negative rho (up, down):  1.416E-03 0.000E+00
 
     Adding external electric field

     Computed dipole along edir(3) : 
        Dipole                4.4633 Ry au,         11.3445 Debye
        Dipole field          0.0084 Ry au, 
 
        Potential amp.       -0.7808 Ry
        Total length         46.3494 bohr
 

     total cpu time spent up to now is      396.4 secs

     total energy              =   -3035.12792523 Ry
     estimated scf accuracy    <    3164.15743803 Ry

     iteration # 11     ecut=    29.40 Ry     beta= 0.05
     Davidson diagonalization with overlap
     ethr =  3.81E-03,  avg # of iterations =  8.0

     negative rho (up, down):  1.195E-03 0.000E+00
 
     Adding external electric field

     Computed dipole along edir(3) : 
        Dipole                3.6716 Ry au,          9.3322 Debye
        Dipole field          0.0069 Ry au, 
 
        Potential amp.       -0.6423 Ry
        Total length         46.3494 bohr
 

     total cpu time spent up to now is      412.7 secs

     total energy              =   -3024.18974021 Ry
     estimated scf accuracy    <    4096.99531867 Ry

     iteration # 12     ecut=    29.40 Ry     beta= 0.05
     Davidson diagonalization with overlap
     ethr =  3.81E-03,  avg # of iterations =  1.2

     negative rho (up, down):  1.304E-03 0.000E+00
 
     Adding external electric field

     Computed dipole along edir(3) : 
        Dipole                3.9249 Ry au,          9.9761 Debye
        Dipole field          0.0074 Ry au, 
 
        Potential amp.       -0.6866 Ry
        Total length         46.3494 bohr
 

     total cpu time spent up to now is      425.8 secs

     total energy              =   -3028.06271826 Ry
     estimated scf accuracy    <    3632.07617539 Ry

     iteration # 13     ecut=    29.40 Ry     beta= 0.05
     Davidson diagonalization with overlap
     ethr =  3.81E-03,  avg # of iterations =  1.0

     negative rho (up, down):  1.019E-03 0.000E+00
 
     Adding external electric field

     Computed dipole along edir(3) : 
        Dipole                3.5022 Ry au,          8.9016 Debye
        Dipole field          0.0066 Ry au, 
 
        Potential amp.       -0.6127 Ry
        Total length         46.3494 bohr
 

     total cpu time spent up to now is      438.5 secs

     total energy              =   -3023.62632048 Ry
     estimated scf accuracy    <    3722.69486275 Ry

     iteration # 14     ecut=    29.40 Ry     beta= 0.05
     Davidson diagonalization with overlap
     ethr =  3.81E-03,  avg # of iterations =  1.0

     negative rho (up, down):  8.042E-04 0.000E+00
 
     Adding external electric field

     Computed dipole along edir(3) : 
        Dipole                0.9022 Ry au,          2.2933 Debye
        Dipole field          0.0017 Ry au, 
 
        Potential amp.       -0.1578 Ry
        Total length         46.3494 bohr
 

     total cpu time spent up to now is      451.3 secs

     total energy              =   -2995.41675348 Ry
     estimated scf accuracy    <    3700.11341139 Ry

     iteration # 15     ecut=    29.40 Ry     beta= 0.05
     Davidson diagonalization with overlap
     ethr =  3.81E-03,  avg # of iterations =  7.9

     negative rho (up, down):  7.170E-04 0.000E+00
 
     Adding external electric field

     Computed dipole along edir(3) : 
        Dipole               -3.6744 Ry au,         -9.3395 Debye
        Dipole field         -0.0069 Ry au, 
 
        Potential amp.        0.6428 Ry
        Total length         46.3494 bohr
 

     total cpu time spent up to now is      467.9 secs

     total energy              =   -2942.85261921 Ry
     estimated scf accuracy    <    2999.77017130 Ry

     iteration # 16     ecut=    29.40 Ry     beta= 0.05
     Davidson diagonalization with overlap
     ethr =  3.81E-03,  avg # of iterations = 16.3

     negative rho (up, down):  7.465E-04 0.000E+00
 
     Adding external electric field

     Computed dipole along edir(3) : 
        Dipole               -3.4197 Ry au,         -8.6919 Debye
        Dipole field         -0.0065 Ry au, 
 
        Potential amp.        0.5982 Ry
        Total length         46.3494 bohr
 

     total cpu time spent up to now is      508.7 secs

     total energy              =   -2976.21243561 Ry
     estimated scf accuracy    <      12.16742053 Ry

     iteration # 17     ecut=    29.40 Ry     beta= 0.05
     Davidson diagonalization with overlap
     ethr =  3.01E-03,  avg # of iterations =  1.8

     negative rho (up, down):  1.241E-03 0.000E+00
 
     Adding external electric field

     Computed dipole along edir(3) : 
        Dipole               -1.7533 Ry au,         -4.4564 Debye
        Dipole field         -0.0033 Ry au, 
 
        Potential amp.        0.3067 Ry
        Total length         46.3494 bohr
 

     total cpu time spent up to now is      522.4 secs

     total energy              =   -2975.94849842 Ry
     estimated scf accuracy    <      12.11715418 Ry

     iteration # 18     ecut=    29.40 Ry     beta= 0.05
     Davidson diagonalization with overlap
     ethr =  3.00E-03,  avg # of iterations = 10.1

     negative rho (up, down):  1.244E-03 0.000E+00
 
     Adding external electric field

     Computed dipole along edir(3) : 
        Dipole               -1.7823 Ry au,         -4.5302 Debye
        Dipole field         -0.0034 Ry au, 
 
        Potential amp.        0.3118 Ry
        Total length         46.3494 bohr
 

     total cpu time spent up to now is      540.3 secs

     total energy              =   -2978.48315303 Ry
     estimated scf accuracy    <     362.12282522 Ry

     iteration # 19     ecut=    29.40 Ry     beta= 0.05
     Davidson diagonalization with overlap
     ethr =  3.00E-03,  avg # of iterations =  1.9

     negative rho (up, down):  1.254E-03 0.000E+00
 
     Adding external electric field

     Computed dipole along edir(3) : 
        Dipole               -1.0506 Ry au,         -2.6703 Debye
        Dipole field         -0.0020 Ry au, 
 
        Potential amp.        0.1838 Ry
        Total length         46.3494 bohr
 

     total cpu time spent up to now is      553.7 secs

     total energy              =   -2975.72850449 Ry
     estimated scf accuracy    <     393.75812220 Ry

     iteration # 20     ecut=    29.40 Ry     beta= 0.05
     Davidson diagonalization with overlap
     ethr =  3.00E-03,  avg # of iterations =  4.7

     negative rho (up, down):  1.387E-03 0.000E+00
 
     Adding external electric field

     Computed dipole along edir(3) : 
        Dipole               -0.6114 Ry au,         -1.5540 Debye
        Dipole field         -0.0012 Ry au, 
 
        Potential amp.        0.1070 Ry
        Total length         46.3494 bohr
 

     total cpu time spent up to now is      568.3 secs

     total energy              =   -2976.38175133 Ry
     estimated scf accuracy    <      99.14295007 Ry

     iteration # 21     ecut=    29.40 Ry     beta= 0.05
     Davidson diagonalization with overlap
     ethr =  3.00E-03,  avg # of iterations =  1.6

     negative rho (up, down):  1.455E-03 0.000E+00
 
     Adding external electric field

     Computed dipole along edir(3) : 
        Dipole               -0.3736 Ry au,         -0.9496 Debye
        Dipole field         -0.0007 Ry au, 
 
        Potential amp.        0.0654 Ry
        Total length         46.3494 bohr
 

     total cpu time spent up to now is      581.4 secs

     total energy              =   -2976.21037954 Ry
     estimated scf accuracy    <     105.53636425 Ry

     iteration # 22     ecut=    29.40 Ry     beta= 0.05
     Davidson diagonalization with overlap
     ethr =  3.00E-03,  avg # of iterations =  1.2

     negative rho (up, down):  1.452E-03 0.000E+00
 
     Adding external electric field

     Computed dipole along edir(3) : 
        Dipole               -0.2532 Ry au,         -0.6435 Debye
        Dipole field         -0.0005 Ry au, 
 
        Potential amp.        0.0443 Ry
        Total length         46.3494 bohr
 

     total cpu time spent up to now is      594.4 secs

     total energy              =   -2974.60306710 Ry
     estimated scf accuracy    <      84.99720721 Ry

     iteration # 23     ecut=    29.40 Ry     beta= 0.05
     Davidson diagonalization with overlap
     ethr =  3.00E-03,  avg # of iterations =  1.6

     negative rho (up, down):  1.411E-03 0.000E+00
 
     Adding external electric field

     Computed dipole along edir(3) : 
        Dipole               -0.3552 Ry au,         -0.9028 Debye
        Dipole field         -0.0007 Ry au, 
 
        Potential amp.        0.0621 Ry
        Total length         46.3494 bohr
 

     total cpu time spent up to now is      607.5 secs

     total energy              =   -2975.31007150 Ry
     estimated scf accuracy    <       7.71912776 Ry

     iteration # 24     ecut=    29.40 Ry     beta= 0.05
     Davidson diagonalization with overlap
     ethr =  1.91E-03,  avg # of iterations =  1.2

     negative rho (up, down):  1.356E-03 0.000E+00
 
     Adding external electric field

     Computed dipole along edir(3) : 
        Dipole               -0.3869 Ry au,         -0.9835 Debye
        Dipole field         -0.0007 Ry au, 
 
        Potential amp.        0.0677 Ry
        Total length         46.3494 bohr
 

     total cpu time spent up to now is      620.5 secs

     total energy              =   -2975.12062674 Ry
     estimated scf accuracy    <       8.09277128 Ry

     iteration # 25     ecut=    29.40 Ry     beta= 0.05
     Davidson diagonalization with overlap
     ethr =  1.91E-03,  avg # of iterations =  5.2

     negative rho (up, down):  1.372E-03 0.000E+00
 
     Adding external electric field

     Computed dipole along edir(3) : 
        Dipole               -0.3088 Ry au,         -0.7848 Debye
        Dipole field         -0.0006 Ry au, 
 
        Potential amp.        0.0540 Ry
        Total length         46.3494 bohr
 

     total cpu time spent up to now is      635.4 secs

     total energy              =   -2975.28262980 Ry
     estimated scf accuracy    <       3.69637964 Ry

     iteration # 26     ecut=    29.40 Ry     beta= 0.05
     Davidson diagonalization with overlap
     c_bands:  2 eigenvalues not converged
     c_bands:  4 eigenvalues not converged
     c_bands:  2 eigenvalues not converged
     ethr =  9.15E-04,  avg # of iterations = 16.0

     negative rho (up, down):  1.418E-03 0.000E+00
 
     Adding external electric field

     Computed dipole along edir(3) : 
        Dipole               -0.2571 Ry au,         -0.6535 Debye
        Dipole field         -0.0005 Ry au, 
 
        Potential amp.        0.0450 Ry
        Total length         46.3494 bohr
 

     total cpu time spent up to now is      656.5 secs

     total energy              =   -2975.45308751 Ry
     estimated scf accuracy    <       4.54706688 Ry

     iteration # 27     ecut=    29.40 Ry     beta= 0.05
     Davidson diagonalization with overlap
     ethr =  9.15E-04,  avg # of iterations =  3.7

     negative rho (up, down):  1.597E-03 0.000E+00
 
     Adding external electric field

     Computed dipole along edir(3) : 
        Dipole               -0.1328 Ry au,         -0.3376 Debye
        Dipole field         -0.0003 Ry au, 
 
        Potential amp.        0.0232 Ry
        Total length         46.3494 bohr
 

     total cpu time spent up to now is      670.7 secs

     total energy              =   -2975.31357659 Ry
     estimated scf accuracy    <       4.43295266 Ry

     iteration # 28     ecut=    29.40 Ry     beta= 0.05
     Davidson diagonalization with overlap
     ethr =  9.15E-04,  avg # of iterations =  1.2

     negative rho (up, down):  1.931E-03 0.000E+00
 
     Adding external electric field

     Computed dipole along edir(3) : 
        Dipole                0.0690 Ry au,          0.1753 Debye
        Dipole field          0.0001 Ry au, 
 
        Potential amp.       -0.0121 Ry
        Total length         46.3494 bohr
 

     total cpu time spent up to now is      683.7 secs

     total energy              =   -2975.28079985 Ry
     estimated scf accuracy    <       3.67455387 Ry

     iteration # 29     ecut=    29.40 Ry     beta= 0.05
     Davidson diagonalization with overlap
     ethr =  9.10E-04,  avg # of iterations =  1.2

     negative rho (up, down):  2.183E-03 0.000E+00
 
     Adding external electric field

     Computed dipole along edir(3) : 
        Dipole                0.1195 Ry au,          0.3037 Debye
        Dipole field          0.0002 Ry au, 
 
        Potential amp.       -0.0209 Ry
        Total length         46.3494 bohr
 

     total cpu time spent up to now is      696.8 secs

     total energy              =   -2975.28182414 Ry
     estimated scf accuracy    <       3.43437697 Ry

     iteration # 30     ecut=    29.40 Ry     beta= 0.05
     Davidson diagonalization with overlap
     ethr =  8.50E-04,  avg # of iterations =  1.8

     negative rho (up, down):  2.146E-03 0.000E+00
 
     Adding external electric field

     Computed dipole along edir(3) : 
        Dipole                0.0305 Ry au,          0.0775 Debye
        Dipole field          0.0001 Ry au, 
 
        Potential amp.       -0.0053 Ry
        Total length         46.3494 bohr
 

     total cpu time spent up to now is      710.1 secs

     total energy              =   -2975.30949931 Ry
     estimated scf accuracy    <       3.23708004 Ry

     iteration # 31     ecut=    29.40 Ry     beta= 0.05
     Davidson diagonalization with overlap
     ethr =  8.01E-04,  avg # of iterations =  2.2

     negative rho (up, down):  2.451E-03 0.000E+00
 
     Adding external electric field

     Computed dipole along edir(3) : 
        Dipole                0.2869 Ry au,          0.7293 Debye
        Dipole field          0.0005 Ry au, 
 
        Potential amp.       -0.0502 Ry
        Total length         46.3494 bohr
 

     total cpu time spent up to now is      723.4 secs

     total energy              =   -2975.22768403 Ry
     estimated scf accuracy    <       3.21111720 Ry

     iteration # 32     ecut=    29.40 Ry     beta= 0.05
     Davidson diagonalization with overlap
     ethr =  7.95E-04,  avg # of iterations =  4.3

     negative rho (up, down):  2.083E-03 0.000E+00
 
     Adding external electric field

     Computed dipole along edir(3) : 
        Dipole                0.2346 Ry au,          0.5963 Debye
        Dipole field          0.0004 Ry au, 
 
        Potential amp.       -0.0410 Ry
        Total length         46.3494 bohr
 

     total cpu time spent up to now is      737.9 secs

     total energy              =   -2975.16547377 Ry
     estimated scf accuracy    <       1.94754421 Ry

     iteration # 33     ecut=    29.40 Ry     beta= 0.05
     Davidson diagonalization with overlap
     c_bands:  2 eigenvalues not converged
     c_bands:  4 eigenvalues not converged
     c_bands:  5 eigenvalues not converged
     ethr =  4.82E-04,  avg # of iterations = 10.6

     negative rho (up, down):  1.827E-03 0.000E+00
 
     Adding external electric field

     Computed dipole along edir(3) : 
        Dipole                0.4133 Ry au,          1.0506 Debye
        Dipole field          0.0008 Ry au, 
 
        Potential amp.       -0.0723 Ry
        Total length         46.3494 bohr
 

     total cpu time spent up to now is      756.5 secs

     total energy              =   -2975.16025679 Ry
     estimated scf accuracy    <       1.69580905 Ry

     iteration # 34     ecut=    29.40 Ry     beta= 0.05
     Davidson diagonalization with overlap
     c_bands:  1 eigenvalues not converged
     c_bands:  2 eigenvalues not converged
     ethr =  4.20E-04,  avg # of iterations =  6.7

     negative rho (up, down):  2.711E-03 0.000E+00
 
     Adding external electric field

     Computed dipole along edir(3) : 
        Dipole                0.9943 Ry au,          2.5273 Debye
        Dipole field          0.0019 Ry au, 
 
        Potential amp.       -0.1739 Ry
        Total length         46.3494 bohr
 

     total cpu time spent up to now is      772.1 secs

     total energy              =   -2975.16191847 Ry
     estimated scf accuracy    <       1.68214327 Ry

     iteration # 35     ecut=    29.40 Ry     beta= 0.05
     Davidson diagonalization with overlap
     c_bands:  1 eigenvalues not converged
     c_bands:  1 eigenvalues not converged
     ethr =  4.16E-04,  avg # of iterations =  9.1

     negative rho (up, down):  4.500E-03 0.000E+00
 
     Adding external electric field

     Computed dipole along edir(3) : 
        Dipole                1.5111 Ry au,          3.8409 Debye
        Dipole field          0.0029 Ry au, 
 
        Potential amp.       -0.2643 Ry
        Total length         46.3494 bohr
 

     total cpu time spent up to now is      788.7 secs

     total energy              =   -2975.19891644 Ry
     estimated scf accuracy    <       1.74914037 Ry

     iteration # 36     ecut=    29.40 Ry     beta= 0.05
     Davidson diagonalization with overlap
     c_bands:  1 eigenvalues not converged
     c_bands:  1 eigenvalues not converged
     c_bands:  2 eigenvalues not converged
     c_bands:  2 eigenvalues not converged
     ethr =  4.16E-04,  avg # of iterations = 12.3

     negative rho (up, down):  4.828E-03 0.000E+00
 
     Adding external electric field

     Computed dipole along edir(3) : 
        Dipole                1.7741 Ry au,          4.5093 Debye
        Dipole field          0.0033 Ry au, 
 
        Potential amp.       -0.3104 Ry
        Total length         46.3494 bohr
 

     total cpu time spent up to now is      807.7 secs

     total energy              =   -2975.20473307 Ry
     estimated scf accuracy    <       1.92248580 Ry

     iteration # 37     ecut=    29.40 Ry     beta= 0.05
     Davidson diagonalization with overlap
     c_bands:  2 eigenvalues not converged
     ethr =  4.16E-04,  avg # of iterations =  5.5

     negative rho (up, down):  4.498E-03 0.000E+00
 
     Adding external electric field

     Computed dipole along edir(3) : 
        Dipole                1.5324 Ry au,          3.8949 Debye
        Dipole field          0.0029 Ry au, 
 
        Potential amp.       -0.2681 Ry
        Total length         46.3494 bohr
 

     total cpu time spent up to now is      822.9 secs

     total energy              =   -2975.20391112 Ry
     estimated scf accuracy    <       1.88531045 Ry

     iteration # 38     ecut=    29.40 Ry     beta= 0.05
     Davidson diagonalization with overlap
     ethr =  4.16E-04,  avg # of iterations =  1.2

     negative rho (up, down):  4.953E-03 0.000E+00
 
     Adding external electric field

     Computed dipole along edir(3) : 
        Dipole                1.5045 Ry au,          3.8241 Debye
        Dipole field          0.0028 Ry au, 
 
        Potential amp.       -0.2632 Ry
        Total length         46.3494 bohr
 

     total cpu time spent up to now is      835.8 secs

     total energy              =   -2975.18459791 Ry
     estimated scf accuracy    <       1.65543698 Ry

     iteration # 39     ecut=    29.40 Ry     beta= 0.05
     Davidson diagonalization with overlap
     ethr =  4.10E-04,  avg # of iterations =  1.0

     negative rho (up, down):  6.606E-03 0.000E+00
 
     Adding external electric field

     Computed dipole along edir(3) : 
        Dipole                1.5309 Ry au,          3.8911 Debye
        Dipole field          0.0029 Ry au, 
 
        Potential amp.       -0.2678 Ry
        Total length         46.3494 bohr
 

     total cpu time spent up to now is      848.7 secs

     total energy              =   -2975.16558250 Ry
     estimated scf accuracy    <       1.53736575 Ry

     iteration # 40     ecut=    29.40 Ry     beta= 0.05
     Davidson diagonalization with overlap
     ethr =  3.81E-04,  avg # of iterations =  2.2

     negative rho (up, down):  6.121E-03 0.000E+00
 
     Adding external electric field

     Computed dipole along edir(3) : 
        Dipole                1.4026 Ry au,          3.5650 Debye
        Dipole field          0.0026 Ry au, 
 
        Potential amp.       -0.2454 Ry
        Total length         46.3494 bohr
 

     total cpu time spent up to now is      862.0 secs

     total energy              =   -2975.15716733 Ry
     estimated scf accuracy    <       1.14146916 Ry

     iteration # 41     ecut=    29.40 Ry     beta= 0.05
     Davidson diagonalization with overlap
     ethr =  2.83E-04,  avg # of iterations =  3.8

     negative rho (up, down):  3.075E-03 0.000E+00
 
     Adding external electric field

     Computed dipole along edir(3) : 
        Dipole                0.9730 Ry au,          2.4732 Debye
        Dipole field          0.0018 Ry au, 
 
        Potential amp.       -0.1702 Ry
        Total length         46.3494 bohr
 

     total cpu time spent up to now is      876.2 secs

     total energy              =   -2975.09690702 Ry
     estimated scf accuracy    <       0.41682910 Ry

     iteration # 42     ecut=    29.40 Ry     beta= 0.05
     Davidson diagonalization with overlap
     c_bands:  1 eigenvalues not converged
     c_bands:  2 eigenvalues not converged
     ethr =  1.03E-04,  avg # of iterations = 14.6

     negative rho (up, down):  2.954E-03 0.000E+00
 
     Adding external electric field

     Computed dipole along edir(3) : 
        Dipole                0.9597 Ry au,          2.4393 Debye
        Dipole field          0.0018 Ry au, 
 
        Potential amp.       -0.1679 Ry
        Total length         46.3494 bohr
 

     total cpu time spent up to now is      895.9 secs

     total energy              =   -2975.12199081 Ry
     estimated scf accuracy    <       1.08150735 Ry

     iteration # 43     ecut=    29.40 Ry     beta= 0.05
     Davidson diagonalization with overlap
     c_bands:  4 eigenvalues not converged
     c_bands:  4 eigenvalues not converged
     c_bands:  3 eigenvalues not converged
     c_bands:  3 eigenvalues not converged
     c_bands:  1 eigenvalues not converged
     c_bands:  4 eigenvalues not converged
     c_bands:  1 eigenvalues not converged
     c_bands:  1 eigenvalues not converged
     ethr =  1.03E-04,  avg # of iterations = 18.3

     negative rho (up, down):  4.550E-03 0.000E+00
 
     Adding external electric field

     Computed dipole along edir(3) : 
        Dipole                1.2837 Ry au,          3.2628 Debye
        Dipole field          0.0024 Ry au, 
 
        Potential amp.       -0.2246 Ry
        Total length         46.3494 bohr
 

     total cpu time spent up to now is      918.5 secs

     total energy              =   -2975.08513253 Ry
     estimated scf accuracy    <       0.64249640 Ry

     iteration # 44     ecut=    29.40 Ry     beta= 0.05
     Davidson diagonalization with overlap
     c_bands:  1 eigenvalues not converged
     ethr =  1.03E-04,  avg # of iterations = 14.0

     negative rho (up, down):  6.050E-03 0.000E+00
 
     Adding external electric field

     Computed dipole along edir(3) : 
        Dipole                1.4654 Ry au,          3.7247 Debye
        Dipole field          0.0028 Ry au, 
 
        Potential amp.       -0.2564 Ry
        Total length         46.3494 bohr
 

     total cpu time spent up to now is      937.4 secs

     total energy              =   -2975.12708632 Ry
     estimated scf accuracy    <       0.69088183 Ry

     iteration # 45     ecut=    29.40 Ry     beta= 0.05
     Davidson diagonalization with overlap
     ethr =  1.03E-04,  avg # of iterations =  6.6

     negative rho (up, down):  5.577E-03 0.000E+00
 
     Adding external electric field

     Computed dipole along edir(3) : 
        Dipole                1.4323 Ry au,          3.6406 Debye
        Dipole field          0.0027 Ry au, 
 
        Potential amp.       -0.2506 Ry
        Total length         46.3494 bohr
 

     total cpu time spent up to now is      952.9 secs

     total energy              =   -2975.13460734 Ry
     estimated scf accuracy    <       0.72465375 Ry

     iteration # 46     ecut=    29.40 Ry     beta= 0.05
     Davidson diagonalization with overlap
     ethr =  1.03E-04,  avg # of iterations =  1.2

     negative rho (up, down):  4.537E-03 0.000E+00
 
     Adding external electric field

     Computed dipole along edir(3) : 
        Dipole                1.1423 Ry au,          2.9034 Debye
        Dipole field          0.0022 Ry au, 
 
        Potential amp.       -0.1998 Ry
        Total length         46.3494 bohr
 

     total cpu time spent up to now is      965.9 secs

     total energy              =   -2975.10914323 Ry
     estimated scf accuracy    <       0.81887763 Ry

     iteration # 47     ecut=    29.40 Ry     beta= 0.05
     Davidson diagonalization with overlap
     ethr =  1.03E-04,  avg # of iterations =  3.5

     negative rho (up, down):  5.653E-03 0.000E+00
 
     Adding external electric field

     Computed dipole along edir(3) : 
        Dipole                1.2079 Ry au,          3.0703 Debye
        Dipole field          0.0023 Ry au, 
 
        Potential amp.       -0.2113 Ry
        Total length         46.3494 bohr
 

     total cpu time spent up to now is      979.9 secs

     total energy              =   -2975.11885266 Ry
     estimated scf accuracy    <       0.04893542 Ry

     iteration # 48     ecut=    29.40 Ry     beta= 0.05
     Davidson diagonalization with overlap
     c_bands:  1 eigenvalues not converged
     c_bands:  2 eigenvalues not converged
     c_bands:  2 eigenvalues not converged
     c_bands:  4 eigenvalues not converged
     c_bands:  3 eigenvalues not converged
     c_bands:  4 eigenvalues not converged
     c_bands:  5 eigenvalues not converged
     c_bands:  5 eigenvalues not converged
     c_bands:  1 eigenvalues not converged
     ethr =  1.21E-05,  avg # of iterations = 21.8

     negative rho (up, down):  5.414E-03 0.000E+00
 
     Adding external electric field

     Computed dipole along edir(3) : 
        Dipole                1.1901 Ry au,          3.0250 Debye
        Dipole field          0.0022 Ry au, 
 
        Potential amp.       -0.2082 Ry
        Total length         46.3494 bohr
 

     total cpu time spent up to now is     1005.5 secs

     total energy              =   -2975.12183425 Ry
     estimated scf accuracy    <       0.13898196 Ry

     iteration # 49     ecut=    29.40 Ry     beta= 0.05
     Davidson diagonalization with overlap
     ethr =  1.21E-05,  avg # of iterations = 10.2

     negative rho (up, down):  6.432E-03 0.000E+00
 
     Adding external electric field

     Computed dipole along edir(3) : 
        Dipole                1.2268 Ry au,          3.1182 Debye
        Dipole field          0.0023 Ry au, 
 
        Potential amp.       -0.2146 Ry
        Total length         46.3494 bohr
 

     total cpu time spent up to now is     1022.4 secs

     total energy              =   -2975.12393508 Ry
     estimated scf accuracy    <       0.05500862 Ry

     iteration # 50     ecut=    29.40 Ry     beta= 0.05
     Davidson diagonalization with overlap
     ethr =  1.21E-05,  avg # of iterations =  8.0

     negative rho (up, down):  7.970E-03 0.000E+00
 
     Adding external electric field

     Computed dipole along edir(3) : 
        Dipole                1.3470 Ry au,          3.4237 Debye
        Dipole field          0.0025 Ry au, 
 
        Potential amp.       -0.2356 Ry
        Total length         46.3494 bohr
 

     total cpu time spent up to now is     1038.2 secs

     total energy              =   -2975.11820881 Ry
     estimated scf accuracy    <       0.22500360 Ry

     iteration # 51     ecut=    29.40 Ry     beta= 0.05
     Davidson diagonalization with overlap
     c_bands:  3 eigenvalues not converged
     c_bands:  2 eigenvalues not converged
     c_bands:  1 eigenvalues not converged
     c_bands:  2 eigenvalues not converged
     ethr =  1.21E-05,  avg # of iterations = 18.6

     negative rho (up, down):  8.206E-03 0.000E+00
 
     Adding external electric field

     Computed dipole along edir(3) : 
        Dipole                1.3123 Ry au,          3.3356 Debye
        Dipole field          0.0025 Ry au, 
 
        Potential amp.       -0.2296 Ry
        Total length         46.3494 bohr
 

     total cpu time spent up to now is     1060.3 secs

     total energy              =   -2975.12289303 Ry
     estimated scf accuracy    <       0.08169621 Ry

     iteration # 52     ecut=    29.40 Ry     beta= 0.05
     Davidson diagonalization with overlap
     ethr =  1.21E-05,  avg # of iterations =  2.5

     negative rho (up, down):  8.321E-03 0.000E+00
 
     Adding external electric field

     Computed dipole along edir(3) : 
        Dipole                1.2752 Ry au,          3.2412 Debye
        Dipole field          0.0024 Ry au, 
 
        Potential amp.       -0.2231 Ry
        Total length         46.3494 bohr
 

     total cpu time spent up to now is     1074.0 secs

     total energy              =   -2975.12250705 Ry
     estimated scf accuracy    <       0.01364839 Ry

     iteration # 53     ecut=    29.40 Ry     beta= 0.05
     Davidson diagonalization with overlap
     c_bands:  2 eigenvalues not converged
     c_bands:  1 eigenvalues not converged
     c_bands:  1 eigenvalues not converged
     c_bands:  1 eigenvalues not converged
     c_bands:  1 eigenvalues not converged
     c_bands:  2 eigenvalues not converged
     c_bands:  1 eigenvalues not converged
     ethr =  3.38E-06,  avg # of iterations = 19.6

     negative rho (up, down):  9.770E-03 0.000E+00
 
     Adding external electric field

     Computed dipole along edir(3) : 
        Dipole                1.3322 Ry au,          3.3862 Debye
        Dipole field          0.0025 Ry au, 
 
        Potential amp.       -0.2331 Ry
        Total length         46.3494 bohr
 

     total cpu time spent up to now is     1097.3 secs

     total energy              =   -2975.12340204 Ry
     estimated scf accuracy    <       0.00577176 Ry

     iteration # 54     ecut=    29.40 Ry     beta= 0.05
     Davidson diagonalization with overlap
     c_bands:  1 eigenvalues not converged
     c_bands:  1 eigenvalues not converged
     ethr =  1.43E-06,  avg # of iterations = 17.0

     negative rho (up, down):  1.017E-02 0.000E+00
 
     Adding external electric field

     Computed dipole along edir(3) : 
        Dipole                1.3222 Ry au,          3.3606 Debye
        Dipole field          0.0025 Ry au, 
 
        Potential amp.       -0.2313 Ry
        Total length         46.3494 bohr
 

     total cpu time spent up to now is     1118.3 secs

     total energy              =   -2975.12322676 Ry
     estimated scf accuracy    <       0.00575733 Ry

     iteration # 55     ecut=    29.40 Ry     beta= 0.05
     Davidson diagonalization with overlap
     c_bands:  1 eigenvalues not converged
     c_bands:  1 eigenvalues not converged
     c_bands:  1 eigenvalues not converged
     c_bands:  1 eigenvalues not converged
     c_bands:  1 eigenvalues not converged
     ethr =  1.43E-06,  avg # of iterations = 17.7

     negative rho (up, down):  1.330E-02 0.000E+00
 
     Adding external electric field

     Computed dipole along edir(3) : 
        Dipole                1.3765 Ry au,          3.4987 Debye
        Dipole field          0.0026 Ry au, 
 
        Potential amp.       -0.2408 Ry
        Total length         46.3494 bohr
 

     total cpu time spent up to now is     1140.7 secs

     total energy              =   -2975.12395930 Ry
     estimated scf accuracy    <       0.02010620 Ry

     iteration # 56     ecut=    29.40 Ry     beta= 0.05
     Davidson diagonalization with overlap
     ethr =  1.43E-06,  avg # of iterations =  8.9

     negative rho (up, down):  1.365E-02 0.000E+00
 
     Adding external electric field

     Computed dipole along edir(3) : 
        Dipole                1.3851 Ry au,          3.5207 Debye
        Dipole field          0.0026 Ry au, 
 
        Potential amp.       -0.2423 Ry
        Total length         46.3494 bohr
 

     total cpu time spent up to now is     1156.8 secs

     total energy              =   -2975.12409546 Ry
     estimated scf accuracy    <       0.00269733 Ry

     iteration # 57     ecut=    29.40 Ry     beta= 0.05
     Davidson diagonalization with overlap
     c_bands:  1 eigenvalues not converged
     ethr =  6.68E-07,  avg # of iterations = 13.1

     negative rho (up, down):  1.356E-02 0.000E+00
 
     Adding external electric field

     Computed dipole along edir(3) : 
        Dipole                1.3878 Ry au,          3.5274 Debye
        Dipole field          0.0026 Ry au, 
 
        Potential amp.       -0.2428 Ry
        Total length         46.3494 bohr
 

     total cpu time spent up to now is     1175.8 secs

     total energy              =   -2975.12421493 Ry
     estimated scf accuracy    <       0.00045960 Ry

     iteration # 58     ecut=    29.40 Ry     beta= 0.05
     Davidson diagonalization with overlap
     ethr =  1.14E-07,  avg # of iterations = 12.7

     negative rho (up, down):  1.343E-02 0.000E+00
 
     Adding external electric field

     Computed dipole along edir(3) : 
        Dipole                1.3823 Ry au,          3.5134 Debye
        Dipole field          0.0026 Ry au, 
 
        Potential amp.       -0.2418 Ry
        Total length         46.3494 bohr
 

     total cpu time spent up to now is     1195.6 secs

     total energy              =   -2975.12422097 Ry
     estimated scf accuracy    <       0.00030664 Ry

     iteration # 59     ecut=    29.40 Ry     beta= 0.05
     Davidson diagonalization with overlap
     c_bands:  1 eigenvalues not converged
     ethr =  7.59E-08,  avg # of iterations = 12.8

     negative rho (up, down):  1.397E-02 0.000E+00
 
     Adding external electric field

     Computed dipole along edir(3) : 
        Dipole                1.3803 Ry au,          3.5084 Debye
        Dipole field          0.0026 Ry au, 
 
        Potential amp.       -0.2415 Ry
        Total length         46.3494 bohr
 

     total cpu time spent up to now is     1217.5 secs

     total energy              =   -2975.12426529 Ry
     estimated scf accuracy    <       0.00046991 Ry

     iteration # 60     ecut=    29.40 Ry     beta= 0.05
     Davidson diagonalization with overlap
     ethr =  7.59E-08,  avg # of iterations = 11.2

     negative rho (up, down):  1.400E-02 0.000E+00
 
     Adding external electric field

     Computed dipole along edir(3) : 
        Dipole                1.3796 Ry au,          3.5067 Debye
        Dipole field          0.0026 Ry au, 
 
        Potential amp.       -0.2413 Ry
        Total length         46.3494 bohr
 

     total cpu time spent up to now is     1235.1 secs

     total energy              =   -2975.12429623 Ry
     estimated scf accuracy    <       0.00011542 Ry

     iteration # 61     ecut=    29.40 Ry     beta= 0.05
     Davidson diagonalization with overlap
     ethr =  2.86E-08,  avg # of iterations =  7.6

     negative rho (up, down):  1.379E-02 0.000E+00
 
     Adding external electric field

     Computed dipole along edir(3) : 
        Dipole                1.3769 Ry au,          3.4997 Debye
        Dipole field          0.0026 Ry au, 
 
        Potential amp.       -0.2409 Ry
        Total length         46.3494 bohr
 

     total cpu time spent up to now is     1251.2 secs

     total energy              =   -2975.12430010 Ry
     estimated scf accuracy    <       0.00006586 Ry

     iteration # 62     ecut=    29.40 Ry     beta= 0.05
     Davidson diagonalization with overlap
     ethr =  1.63E-08,  avg # of iterations = 12.1

     negative rho (up, down):  1.380E-02 0.000E+00
 
     Adding external electric field

     Computed dipole along edir(3) : 
        Dipole                1.3780 Ry au,          3.5025 Debye
        Dipole field          0.0026 Ry au, 
 
        Potential amp.       -0.2411 Ry
        Total length         46.3494 bohr
 

     total cpu time spent up to now is     1271.7 secs

     total energy              =   -2975.12431374 Ry
     estimated scf accuracy    <       0.00004340 Ry

     iteration # 63     ecut=    29.40 Ry     beta= 0.05
     Davidson diagonalization with overlap
     ethr =  1.07E-08,  avg # of iterations = 12.9

     negative rho (up, down):  1.389E-02 0.000E+00
 
     Adding external electric field

     Computed dipole along edir(3) : 
        Dipole                1.3760 Ry au,          3.4974 Debye
        Dipole field          0.0026 Ry au, 
 
        Potential amp.       -0.2407 Ry
        Total length         46.3494 bohr
 

     total cpu time spent up to now is     1289.9 secs

     total energy              =   -2975.12432373 Ry
     estimated scf accuracy    <       0.00003210 Ry

     iteration # 64     ecut=    29.40 Ry     beta= 0.05
     Davidson diagonalization with overlap
     ethr =  7.94E-09,  avg # of iterations = 12.5

     negative rho (up, down):  1.385E-02 0.000E+00
 
     Adding external electric field

     Computed dipole along edir(3) : 
        Dipole                1.3752 Ry au,          3.4954 Debye
        Dipole field          0.0026 Ry au, 
 
        Potential amp.       -0.2406 Ry
        Total length         46.3494 bohr
 

     total cpu time spent up to now is     1314.3 secs

     total energy              =   -2975.12433343 Ry
     estimated scf accuracy    <       0.00003384 Ry

     iteration # 65     ecut=    29.40 Ry     beta= 0.05
     Davidson diagonalization with overlap
     ethr =  7.94E-09,  avg # of iterations =  7.5

     negative rho (up, down):  1.382E-02 0.000E+00
 
     Adding external electric field

     Computed dipole along edir(3) : 
        Dipole                1.3749 Ry au,          3.4948 Debye
        Dipole field          0.0026 Ry au, 
 
        Potential amp.       -0.2405 Ry
        Total length         46.3494 bohr
 

     total cpu time spent up to now is     1330.4 secs

     total energy              =   -2975.12434014 Ry
     estimated scf accuracy    <       0.00001464 Ry

     iteration # 66     ecut=    29.40 Ry     beta= 0.05
     Davidson diagonalization with overlap
     ethr =  3.62E-09,  avg # of iterations = 12.5

     negative rho (up, down):  1.388E-02 0.000E+00
 
     Adding external electric field

     Computed dipole along edir(3) : 
        Dipole                1.3755 Ry au,          3.4962 Debye
        Dipole field          0.0026 Ry au, 
 
        Potential amp.       -0.2406 Ry
        Total length         46.3494 bohr
 

     total cpu time spent up to now is     1354.8 secs

     total energy              =   -2975.12434783 Ry
     estimated scf accuracy    <       0.00000865 Ry

     iteration # 67     ecut=    29.40 Ry     beta= 0.05
     Davidson diagonalization with overlap
     ethr =  2.14E-09,  avg # of iterations = 10.6

     negative rho (up, down):  1.387E-02 0.000E+00
 
     Adding external electric field

     Computed dipole along edir(3) : 
        Dipole                1.3761 Ry au,          3.4977 Debye
        Dipole field          0.0026 Ry au, 
 
        Potential amp.       -0.2407 Ry
        Total length         46.3494 bohr
 

     total cpu time spent up to now is     1374.0 secs

     total energy              =   -2975.12435368 Ry
     estimated scf accuracy    <       0.00000336 Ry

     iteration # 68     ecut=    29.40 Ry     beta= 0.05
     Davidson diagonalization with overlap
     ethr =  8.31E-10,  avg # of iterations = 11.7

     negative rho (up, down):  1.388E-02 0.000E+00
 
     Adding external electric field

     Computed dipole along edir(3) : 
        Dipole                1.3762 Ry au,          3.4981 Debye
        Dipole field          0.0026 Ry au, 
 
        Potential amp.       -0.2408 Ry
        Total length         46.3494 bohr
 

     total cpu time spent up to now is     1392.7 secs

     total energy              =   -2975.12435811 Ry
     estimated scf accuracy    <       0.00000179 Ry

     iteration # 69     ecut=    29.40 Ry     beta= 0.05
     Davidson diagonalization with overlap
     ethr =  4.43E-10,  avg # of iterations = 12.7

     negative rho (up, down):  1.386E-02 0.000E+00
 
     Adding external electric field

     Computed dipole along edir(3) : 
        Dipole                1.3759 Ry au,          3.4972 Debye
        Dipole field          0.0026 Ry au, 
 
        Potential amp.       -0.2407 Ry
        Total length         46.3494 bohr
 

     total cpu time spent up to now is     1412.2 secs

     total energy              =   -2975.12436200 Ry
     estimated scf accuracy    <       0.00000119 Ry

     iteration # 70     ecut=    29.40 Ry     beta= 0.05
     Davidson diagonalization with overlap
     ethr =  2.95E-10,  avg # of iterations =  8.0

     negative rho (up, down):  1.380E-02 0.000E+00
 
     Adding external electric field

     Computed dipole along edir(3) : 
        Dipole                1.3755 Ry au,          3.4962 Debye
        Dipole field          0.0026 Ry au, 
 
        Potential amp.       -0.2406 Ry
        Total length         46.3494 bohr
 

     total cpu time spent up to now is     1428.9 secs

     total energy              =   -2975.12436528 Ry
     estimated scf accuracy    <       0.00000078 Ry

     iteration # 71     ecut=    29.40 Ry     beta= 0.05
     Davidson diagonalization with overlap
     ethr =  1.94E-10,  avg # of iterations = 14.0

     negative rho (up, down):  1.380E-02 0.000E+00
 
     Adding external electric field

     Computed dipole along edir(3) : 
        Dipole                1.3755 Ry au,          3.4962 Debye
        Dipole field          0.0026 Ry au, 
 
        Potential amp.       -0.2406 Ry
        Total length         46.3494 bohr
 

     total cpu time spent up to now is     1452.0 secs

     total energy              =   -2975.12436835 Ry
     estimated scf accuracy    <       0.00000062 Ry

     iteration # 72     ecut=    29.40 Ry     beta= 0.05
     Davidson diagonalization with overlap
     ethr =  1.54E-10,  avg # of iterations =  4.7

     negative rho (up, down):  1.379E-02 0.000E+00
 
     Adding external electric field

     Computed dipole along edir(3) : 
        Dipole                1.3757 Ry au,          3.4966 Debye
        Dipole field          0.0026 Ry au, 
 
        Potential amp.       -0.2407 Ry
        Total length         46.3494 bohr
 

     total cpu time spent up to now is     1466.6 secs

     total energy              =   -2975.12437104 Ry
     estimated scf accuracy    <       0.00000037 Ry

     iteration # 73     ecut=    29.40 Ry     beta= 0.05
     Davidson diagonalization with overlap
     c_bands:  2 eigenvalues not converged
     ethr =  9.18E-11,  avg # of iterations = 15.1

     negative rho (up, down):  1.378E-02 0.000E+00
 
     Adding external electric field

     Computed dipole along edir(3) : 
        Dipole                1.3754 Ry au,          3.4959 Debye
        Dipole field          0.0026 Ry au, 
 
        Potential amp.       -0.2406 Ry
        Total length         46.3494 bohr
 

     total cpu time spent up to now is     1491.0 secs

     total energy              =   -2975.12437352 Ry
     estimated scf accuracy    <       0.00000026 Ry

     iteration # 74     ecut=    29.40 Ry     beta= 0.05
     Davidson diagonalization with overlap
     ethr =  6.55E-11,  avg # of iterations = 11.1

     negative rho (up, down):  1.376E-02 0.000E+00
 
     Adding external electric field

     Computed dipole along edir(3) : 
        Dipole                1.3751 Ry au,          3.4951 Debye
        Dipole field          0.0026 Ry au, 
 
        Potential amp.       -0.2405 Ry
        Total length         46.3494 bohr
 

     total cpu time spent up to now is     1508.8 secs

     total energy              =   -2975.12437579 Ry
     estimated scf accuracy    <       0.00000013 Ry

     iteration # 75     ecut=    29.40 Ry     beta= 0.05
     Davidson diagonalization with overlap
     c_bands:  1 eigenvalues not converged
     ethr =  3.30E-11,  avg # of iterations = 14.4

     negative rho (up, down):  1.376E-02 0.000E+00
 
     Adding external electric field

     Computed dipole along edir(3) : 
        Dipole                1.3752 Ry au,          3.4953 Debye
        Dipole field          0.0026 Ry au, 
 
        Potential amp.       -0.2406 Ry
        Total length         46.3494 bohr
 

     total cpu time spent up to now is     1534.1 secs

     total energy              =   -2975.12437781 Ry
     estimated scf accuracy    <       0.00000012 Ry

     iteration # 76     ecut=    29.40 Ry     beta= 0.05
     Davidson diagonalization with overlap
     ethr =  3.04E-11,  avg # of iterations = 10.1

     negative rho (up, down):  1.380E-02 0.000E+00
 
     Adding external electric field

     Computed dipole along edir(3) : 
        Dipole                1.3744 Ry au,          3.4935 Debye
        Dipole field          0.0026 Ry au, 
 
        Potential amp.       -0.2404 Ry
        Total length         46.3494 bohr
 

     total cpu time spent up to now is     1551.6 secs

     End of self-consistent calculation

          k = 0.0000 0.0000 0.0000 ( 18029 PWs)   bands (ev):

   -55.3856 -55.2459 -55.2118 -55.1206 -55.0854 -55.0795 -55.0753 -55.0412
   -55.0349 -54.9867 -54.9594 -54.9229 -54.8704 -54.7416 -54.2262 -54.1921
   -31.7313 -31.7147 -31.6127 -31.6052 -31.5840 -31.5771 -31.5368 -31.5285
   -31.5186 -31.4918 -31.4490 -31.4446 -31.3984 -31.3707 -31.3692 -31.3590
   -31.3532 -31.3122 -31.3032 -31.3015 -31.2844 -31.2737 -31.2693 -31.2641
   -31.2622 -31.2232 -31.2194 -31.2188 -31.2154 -31.2026 -31.1933 -31.1880
   -31.1808 -31.1482 -31.1409 -31.1102 -31.1023 -31.0868 -31.0804 -31.0764
   -31.0029 -30.9092 -30.6325 -30.5452 -30.5228 -30.4499 -30.3635 -30.2517
   -19.1879 -16.3147 -15.9248 -15.7687 -15.5877 -15.4489 -15.4085 -15.1851
   -15.1293 -15.0427 -15.0223 -14.9046 -14.7877 -14.7870 -14.7663 -14.7596
   -14.7443 -14.6989 -14.6935 -14.6905 -14.6718 -14.6504 -14.6297 -14.6197
   -14.5822 -14.5407 -14.3898 -14.3678 -14.3499 -14.3068 -14.1699 -14.0027
   -12.7251 -12.6086  -9.1783  -7.6856  -6.8920  -6.1342  -4.3032  -3.5962
    -3.2732  -3.1756  -3.1527  -3.1427  -3.0096  -2.8390  -2.6440  -2.5823
    -2.5197  -2.4048  -2.3764  -2.2805  -2.2583  -2.2176  -2.1618  -2.1389
    -2.1107  -2.0568  -2.0435  -2.0353  -1.9449  -1.9253  -1.8233  -1.8019
    -1.7697  -1.7109  -1.6817  -1.6173  -1.5851  -1.5626  -1.5608  -1.5528
    -1.5298  -1.5158  -1.4938  -1.4422  -1.4107  -1.3475  -1.2823  -1.2067
    -1.1326  -0.9097  -0.8628  -0.8439  -0.7899  -0.7510  -0.6885  -0.6645
    -0.6439  -0.6314  -0.5628  -0.4524  -0.4042  -0.3638  -0.3085  -0.2841
    -0.2533  -0.1464  -0.0695  -0.0515  -0.0059   0.0335   0.0591   0.1241
     0.1594   0.2010   0.2696   0.2833   0.3606   0.3998   0.4236   0.4705
     0.5102   0.5738   0.6189   0.6683   0.6755   0.7049   0.7228   0.7541
     0.8398   0.8570   0.8988   0.9324   0.9935   1.0477   1.0725   1.2461
     1.3708   1.4062   1.4752   1.7423   1.8000   1.8158   1.9908   2.3682
     2.4138   3.8403   3.9806   3.9912   3.9993   4.0682   4.1218   4.1444
     4.3265   4.3657   4.4838   4.5229

          k = 0.0000 0.0419 0.0000 ( 17933 PWs)   bands (ev):

   -55.3852 -55.2408 -55.2167 -55.1155 -55.0902 -55.0797 -55.0702 -55.0462
   -55.0317 -54.9898 -54.9588 -54.9201 -54.8731 -54.7422 -54.2211 -54.1970
   -31.6863 -31.6773 -31.6024 -31.5842 -31.5579 -31.5367 -31.5320 -31.5151
   -31.4839 -31.4651 -31.4177 -31.4098 -31.4080 -31.3845 -31.3613 -31.3557
   -31.3464 -31.3314 -31.3190 -31.3171 -31.2894 -31.2860 -31.2817 -31.2779
   -31.2638 -31.2574 -31.2401 -31.2209 -31.2153 -31.2150 -31.2117 -31.1966
   -31.1897 -31.1842 -31.1449 -31.1383 -31.1086 -31.1009 -31.0924 -31.0760
   -31.0024 -30.9426 -30.5784 -30.5418 -30.5259 -30.4374 -30.3761 -30.3088
   -19.1863 -16.3104 -15.8005 -15.6556 -15.4865 -15.3914 -15.3137 -15.1323
   -15.0864 -15.0512 -15.0406 -14.9686 -14.9434 -14.7811 -14.7613 -14.7326
   -14.7283 -14.7163 -14.7092 -14.6984 -14.6884 -14.6484 -14.6424 -14.6292
   -14.5944 -14.5129 -14.4469 -14.4138 -14.3882 -14.3643 -14.2183 -14.0962
   -12.7291 -12.6481  -9.1802  -7.6902  -6.8984  -6.1330  -4.1987  -3.6948
    -3.0916  -3.0203  -2.9946  -2.9788  -2.8598  -2.7139  -2.4895  -2.4438
    -2.3981  -2.3454  -2.3313  -2.2754  -2.2363  -2.2111  -2.1998  -2.1643
    -2.1321  -2.1144  -2.1053  -2.0220  -1.9979  -1.9771  -1.9475  -1.9308
    -1.9102  -1.8678  -1.8143  -1.7633  -1.7562  -1.7087  -1.6686  -1.6500
    -1.5518  -1.5084  -1.4758  -1.3855  -1.3493  -1.2558  -1.1641  -1.0396
    -0.9733  -0.9518  -0.8805  -0.8735  -0.7340  -0.7029  -0.5658  -0.4943
    -0.4735  -0.4635  -0.4532  -0.4056  -0.3546  -0.2663  -0.2559  -0.2082
    -0.1901  -0.1668  -0.0794  -0.0744  -0.0465  -0.0082   0.0128   0.0792
     0.0842   0.1340   0.1843   0.2385   0.2513   0.3153   0.4008   0.4468
     0.4680   0.5082   0.5467   0.5740   0.5855   0.6068   0.6441   0.6958
     0.7183   0.8332   0.8759   0.9200   0.9527   1.0066   1.0749   1.0866
     1.1423   1.2160   1.3387   1.4163   1.6977   1.9883   2.0800   2.3233
     2.3256   3.9175   4.0775   4.0821   4.1313   4.2308   4.2541   4.2879
     4.3567   4.4249   4.4312   4.4677

          k = 0.0000-0.0839 0.0000 ( 17884 PWs)   bands (ev):

   -55.3848 -55.2290 -55.2285 -55.1060 -55.0997 -55.0800 -55.0586 -55.0577
   -55.0279 -54.9934 -54.9581 -54.9171 -54.8760 -54.7427 -54.2094 -54.2087
   -31.6518 -31.5994 -31.5867 -31.5453 -31.5449 -31.5223 -31.5219 -31.5016
   -31.4363 -31.4112 -31.3935 -31.3809 -31.3790 -31.3687 -31.3511 -31.3506
   -31.3478 -31.3356 -31.3307 -31.3268 -31.3257 -31.3203 -31.3180 -31.3124
   -31.3088 -31.2925 -31.2542 -31.2355 -31.2342 -31.2301 -31.2147 -31.2109
   -31.2107 -31.1887 -31.1831 -31.1466 -31.1198 -31.0994 -31.0943 -31.0757
   -31.0020 -30.9815 -30.5338 -30.5333 -30.4460 -30.4448 -30.4070 -30.4064
   -19.1846 -16.3070 -15.5365 -15.4947 -15.3776 -15.3496 -15.2608 -15.2074
   -15.1079 -15.0991 -15.0043 -14.9784 -14.9418 -14.9201 -14.8986 -14.8164
   -14.7550 -14.7173 -14.7092 -14.6254 -14.6213 -14.5905 -14.5885 -14.5785
   -14.5414 -14.5113 -14.5012 -14.4933 -14.4746 -14.4222 -14.2899 -14.2350
   -12.7110 -12.7105  -9.1821  -7.6949  -6.9048  -6.1320  -3.9840  -3.9043
    -2.7695  -2.7328  -2.6555  -2.6106  -2.5912  -2.5743  -2.5421  -2.5408
    -2.5116  -2.4814  -2.3776  -2.3178  -2.2854  -2.2655  -2.2618  -2.2386
    -2.2011  -2.1933  -2.1401  -2.1288  -2.1101  -2.0720  -2.0103  -1.9682
    -1.9453  -1.9317  -1.8600  -1.8054  -1.7731  -1.6280  -1.5465  -1.5198
    -1.4545  -1.3778  -1.3592  -1.2864  -1.2496  -1.2361  -1.1155  -1.0281
    -0.9325  -0.9269  -0.8686  -0.7907  -0.7095  -0.6641  -0.6470  -0.6408
    -0.6295  -0.5875  -0.5702  -0.5401  -0.4638  -0.3901  -0.3395  -0.2654
    -0.1968  -0.1086   0.0294   0.0352   0.0646   0.1177   0.1283   0.1667
     0.1977   0.2255   0.2544   0.2726   0.2926   0.3130   0.3174   0.3362
     0.3420   0.4075   0.4878   0.5249   0.5368   0.5610   0.5804   0.6131
     0.6505   0.6690   0.7039   0.7784   0.7945   0.9361   0.9910   0.9976
     1.0040   1.1622   1.2507   1.4391   1.4703   2.1296   2.1381   2.2589
     2.2599   3.8147   4.2624   4.2905   4.3191   4.3273   4.3587   4.3986
     4.4285   4.4371   4.4614   4.5149

          k = 0.0380 0.0000 0.0000 ( 17913 PWs)   bands (ev):

   -55.3854 -55.2458 -55.2117 -55.1204 -55.0853 -55.0794 -55.0750 -55.0411
   -55.0349 -54.9866 -54.9593 -54.9228 -54.8703 -54.7415 -54.2261 -54.1920
   -31.7322 -31.7160 -31.6147 -31.6025 -31.5839 -31.5773 -31.5366 -31.5285
   -31.5237 -31.4918 -31.4491 -31.4453 -31.3954 -31.3695 -31.3615 -31.3529
   -31.3393 -31.3121 -31.3030 -31.3008 -31.2790 -31.2685 -31.2666 -31.2647
   -31.2603 -31.2381 -31.2230 -31.2206 -31.2185 -31.2025 -31.1932 -31.1873
   -31.1819 -31.1484 -31.1410 -31.1103 -31.1085 -31.0866 -31.0804 -31.0762
   -31.0033 -30.9091 -30.6320 -30.5486 -30.5208 -30.4497 -30.3634 -30.2515
   -19.1874 -16.3125 -15.8428 -15.6871 -15.5158 -15.4648 -15.3266 -15.2288
   -15.1266 -15.1104 -15.0443 -14.9404 -14.8914 -14.8764 -14.8680 -14.8092
   -14.7886 -14.7643 -14.7228 -14.6723 -14.6379 -14.6082 -14.5570 -14.4938
   -14.4775 -14.4471 -14.4359 -14.4117 -14.3954 -14.3846 -14.1674 -14.0030
   -12.7219 -12.6083  -9.1758  -7.6917  -6.8888  -6.1355  -4.2076  -3.7038
    -3.1173  -3.0017  -2.9370  -2.8948  -2.8781  -2.7799  -2.6369  -2.6097
    -2.5868  -2.5490  -2.5220  -2.4617  -2.3294  -2.3128  -2.2016  -2.1226
    -2.0393  -1.9888  -1.9248  -1.9043  -1.8696  -1.8114  -1.7940  -1.7496
    -1.7046  -1.6663  -1.6464  -1.6267  -1.6000  -1.5542  -1.5484  -1.5336
    -1.5205  -1.4839  -1.4426  -1.3293  -1.2942  -1.1903  -1.1466  -1.1289
    -1.0241  -0.9953  -0.9622  -0.8595  -0.8545  -0.7606  -0.7256  -0.6799
    -0.6659  -0.6010  -0.5814  -0.5519  -0.5286  -0.4294  -0.3917  -0.3697
    -0.3240  -0.2596  -0.1393  -0.0808  -0.0579   0.0290   0.0880   0.1105
     0.1586   0.2138   0.2363   0.2941   0.3282   0.3507   0.4328   0.4488
     0.4719   0.4895   0.5317   0.5516   0.6043   0.6139   0.6447   0.6960
     0.7405   0.8023   0.8379   0.8924   0.9503   0.9990   1.0454   1.0968
     1.1731   1.3305   1.4413   1.6810   1.7511   1.8119   1.9603   2.2568
     2.3319   3.8543   3.9396   4.0350   4.1077   4.2362   4.2525   4.3029
     4.3206   4.3231   4.3299   4.4084

          k = 0.0380 0.0419 0.0000 ( 17878 PWs)   bands (ev):

   -55.3851 -55.2407 -55.2167 -55.1154 -55.0902 -55.0797 -55.0700 -55.0461
   -55.0317 -54.9898 -54.9587 -54.9201 -54.8730 -54.7421 -54.2210 -54.1970
   -31.6875 -31.6782 -31.6002 -31.5842 -31.5599 -31.5369 -31.5317 -31.5152
   -31.4841 -31.4711 -31.4174 -31.4099 -31.4089 -31.3820 -31.3610 -31.3479
   -31.3331 -31.3300 -31.3191 -31.3168 -31.2835 -31.2823 -31.2756 -31.2741
   -31.2631 -31.2580 -31.2410 -31.2330 -31.2210 -31.2188 -31.2118 -31.1941
   -31.1897 -31.1887 -31.1450 -31.1382 -31.1087 -31.1055 -31.0921 -31.0776
   -31.0033 -30.9425 -30.5780 -30.5444 -30.5249 -30.4372 -30.3761 -30.3087
   -19.1859 -16.3067 -15.7260 -15.5789 -15.4386 -15.3872 -15.2320 -15.1635
   -15.1038 -15.0662 -15.0376 -14.9844 -14.9219 -14.9056 -14.8710 -14.8109
   -14.7664 -14.7562 -14.7195 -14.7074 -14.6730 -14.5902 -14.5833 -14.5561
   -14.5379 -14.4986 -14.4901 -14.4606 -14.4279 -14.4046 -14.2166 -14.0978
   -12.7269 -12.6484  -9.1721  -7.6916  -6.8843  -6.1386  -4.3177  -3.5910
    -2.9493  -2.8560  -2.8113  -2.7317  -2.7038  -2.6361  -2.4846  -2.4624
    -2.4206  -2.3976  -2.3479  -2.2872  -2.2641  -2.1827  -2.1406  -2.1169
    -2.0996  -2.0921  -2.0259  -1.9887  -1.9635  -1.9386  -1.9183  -1.8862
    -1.8736  -1.8304  -1.7930  -1.7768  -1.7168  -1.6697  -1.6339  -1.6196
    -1.5203  -1.4497  -1.3859  -1.3580  -1.3264  -1.2558  -1.2064  -1.0340
    -0.9781  -0.9363  -0.9030  -0.8734  -0.7459  -0.6698  -0.6288  -0.5892
    -0.5671  -0.5120  -0.4788  -0.4643  -0.4242  -0.3783  -0.3443  -0.3071
    -0.2594  -0.2334  -0.2050  -0.1422  -0.0968  -0.0503  -0.0128   0.0146
     0.0445   0.0754   0.0983   0.1465   0.1668   0.2230   0.2933   0.3368
     0.3527   0.3915   0.4298   0.4856   0.5211   0.5542   0.5800   0.6681
     0.7685   0.8195   0.8848   0.9158   0.9757   1.0276   1.0664   1.0980
     1.1700   1.1849   1.3028   1.3829   1.6362   1.9985   2.0833   2.2460
     2.3064   3.8752   4.0618   4.0723   4.1147   4.2899   4.3162   4.3268
     4.3915   4.4261   4.4513   4.4822

          k = 0.0380-0.0839 0.0000 ( 17916 PWs)   bands (ev):

   -55.3848 -55.2290 -55.2285 -55.1060 -55.0997 -55.0800 -55.0585 -55.0577
   -55.0280 -54.9935 -54.9582 -54.9171 -54.8761 -54.7428 -54.2095 -54.2087
   -31.6530 -31.5976 -31.5868 -31.5460 -31.5456 -31.5224 -31.5219 -31.5016
   -31.4383 -31.4130 -31.3937 -31.3814 -31.3788 -31.3718 -31.3595 -31.3500
   -31.3493 -31.3395 -31.3379 -31.3302 -31.3271 -31.3161 -31.3056 -31.2926
   -31.2869 -31.2866 -31.2541 -31.2354 -31.2339 -31.2302 -31.2219 -31.2187
   -31.2103 -31.1993 -31.1831 -31.1464 -31.1198 -31.1030 -31.0942 -31.0792
   -31.0033 -30.9814 -30.5348 -30.5343 -30.4459 -30.4447 -30.4070 -30.4064
   -19.1844 -16.3043 -15.4993 -15.4558 -15.3203 -15.2968 -15.2312 -15.1509
   -15.0844 -15.0672 -15.0117 -14.9923 -14.9473 -14.9249 -14.8926 -14.8368
   -14.7920 -14.7658 -14.7069 -14.6669 -14.6596 -14.6397 -14.6087 -14.6006
   -14.5845 -14.5607 -14.5417 -14.4959 -14.4495 -14.4156 -14.2858 -14.2375
   -12.7108 -12.7103  -9.1741  -7.6959  -6.8915  -6.1373  -4.2160  -3.6871
    -2.6788  -2.6400  -2.5532  -2.4686  -2.4339  -2.4174  -2.3689  -2.3494
    -2.3399  -2.3352  -2.3090  -2.2588  -2.2421  -2.2086  -2.1735  -2.1481
    -2.1410  -2.1243  -2.1102  -2.0950  -2.0658  -2.0166  -1.9777  -1.9451
    -1.9241  -1.9109  -1.8927  -1.8284  -1.7906  -1.6142  -1.5422  -1.4525
    -1.3999  -1.3761  -1.3439  -1.2896  -1.2194  -1.1782  -1.1279  -1.0771
    -1.0554  -1.0350  -1.0084  -0.9675  -0.9394  -0.8966  -0.8827  -0.7725
    -0.7435  -0.6437  -0.5958  -0.5388  -0.4776  -0.4252  -0.3702  -0.3318
    -0.2662  -0.1986  -0.1303  -0.0814  -0.0723  -0.0248   0.0069   0.0363
     0.0548   0.0759   0.1043   0.1374   0.1489   0.1784   0.2054   0.2401
     0.3097   0.3308   0.4052   0.4717   0.5258   0.5466   0.6239   0.6583
     0.7865   0.8204   0.8593   0.8803   0.8987   0.9537   1.0028   1.0304
     1.0681   1.1651   1.2417   1.4221   1.4300   2.1428   2.1508   2.2485
     2.2496   3.8058   4.1231   4.2668   4.2986   4.3049   4.3443   4.4049
     4.4504   4.4692   4.5034   4.5311

          k = 0.0380-0.0419 0.0000 ( 17876 PWs)   bands (ev):

   -55.3851 -55.2407 -55.2167 -55.1154 -55.0902 -55.0797 -55.0700 -55.0461
   -55.0317 -54.9898 -54.9587 -54.9201 -54.8730 -54.7421 -54.2210 -54.1970
   -31.6875 -31.6782 -31.6001 -31.5842 -31.5599 -31.5369 -31.5317 -31.5152
   -31.4841 -31.4711 -31.4180 -31.4099 -31.4088 -31.3820 -31.3611 -31.3480
   -31.3324 -31.3300 -31.3192 -31.3168 -31.2829 -31.2819 -31.2758 -31.2742
   -31.2632 -31.2580 -31.2408 -31.2332 -31.2211 -31.2191 -31.2118 -31.1941
   -31.1898 -31.1886 -31.1450 -31.1381 -31.1085 -31.1057 -31.0924 -31.0775
   -31.0034 -30.9425 -30.5780 -30.5444 -30.5248 -30.4372 -30.3761 -30.3087
   -19.1858 -16.3095 -15.7270 -15.5813 -15.4397 -15.3899 -15.2304 -15.1599
   -15.1033 -15.0721 -15.0381 -14.9760 -14.9155 -14.9067 -14.8671 -14.7949
   -14.7661 -14.7563 -14.7168 -14.7053 -14.6729 -14.6066 -14.5839 -14.5584
   -14.5401 -14.4990 -14.4901 -14.4608 -14.4277 -14.4120 -14.2157 -14.0965
   -12.7269 -12.6484  -9.1778  -7.6959  -6.8953  -6.1345  -3.9927  -3.9135
    -2.9487  -2.8566  -2.7970  -2.7318  -2.7031  -2.6363  -2.4924  -2.4692
    -2.4218  -2.3794  -2.3416  -2.2932  -2.2690  -2.1724  -2.1416  -2.1268
    -2.1096  -2.0654  -2.0467  -1.9926  -1.9624  -1.9295  -1.9159  -1.8849
    -1.8751  -1.8463  -1.8089  -1.7808  -1.7068  -1.6753  -1.6504  -1.5974
    -1.5012  -1.4547  -1.4007  -1.3475  -1.3130  -1.2475  -1.2044  -1.0456
    -0.9726  -0.9349  -0.9043  -0.8606  -0.7580  -0.6768  -0.6497  -0.6098
    -0.5723  -0.5401  -0.4818  -0.4555  -0.4214  -0.3706  -0.3331  -0.3017
    -0.2569  -0.2049  -0.1785  -0.1722  -0.0893  -0.0689  -0.0049   0.0067
     0.0460   0.0662   0.0907   0.1573   0.1643   0.2218   0.2852   0.3314
     0.3686   0.3982   0.4252   0.4752   0.5134   0.5467   0.5874   0.6472
     0.8013   0.8194   0.8829   0.9116   0.9823   1.0303   1.0607   1.0997
     1.1838   1.1988   1.3048   1.3839   1.6365   1.9985   2.0834   2.2457
     2.3071   3.9095   4.0617   4.0742   4.1459   4.2846   4.3198   4.3380
     4.3847   4.4298   4.4513   4.4822

          k =-0.0760-0.0000 0.0000 ( 17886 PWs)   bands (ev):

   -55.3854 -55.2457 -55.2117 -55.1204 -55.0853 -55.0794 -55.0748 -55.0411
   -55.0350 -54.9866 -54.9593 -54.9228 -54.8703 -54.7415 -54.2260 -54.1920
   -31.7331 -31.7174 -31.6167 -31.6001 -31.5838 -31.5775 -31.5364 -31.5288
   -31.5285 -31.4918 -31.4493 -31.4461 -31.3925 -31.3692 -31.3528 -31.3524
   -31.3121 -31.3034 -31.3011 -31.3005 -31.2770 -31.2720 -31.2668 -31.2656
   -31.2603 -31.2590 -31.2268 -31.2232 -31.2188 -31.2024 -31.1932 -31.1868
   -31.1831 -31.1486 -31.1413 -31.1166 -31.1098 -31.0866 -31.0805 -31.0756
   -31.0040 -30.9091 -30.6316 -30.5519 -30.5195 -30.4497 -30.3633 -30.2516
   -19.1868 -16.3106 -15.6779 -15.6562 -15.4739 -15.4408 -15.2898 -15.2080
   -15.1624 -15.1014 -15.0500 -15.0235 -14.9626 -14.9596 -14.9306 -14.9255
   -14.7655 -14.7539 -14.7367 -14.6831 -14.6258 -14.5832 -14.5748 -14.5131
   -14.5018 -14.4276 -14.4185 -14.4043 -14.3994 -14.3472 -14.1667 -14.0034
   -12.7188 -12.6080  -9.1734  -7.6978  -6.8858  -6.1369  -4.0017  -3.9220
    -3.0705  -2.9353  -2.7663  -2.7217  -2.6891  -2.6322  -2.5979  -2.5945
    -2.5633  -2.5479  -2.5095  -2.4941  -2.4897  -2.2108  -2.1419  -2.0683
    -1.9430  -1.8835  -1.8531  -1.8470  -1.8069  -1.7460  -1.7343  -1.7158
    -1.6678  -1.6500  -1.6264  -1.5995  -1.5524  -1.5309  -1.4973  -1.4784
    -1.4754  -1.4492  -1.4244  -1.4060  -1.3749  -1.3248  -1.2592  -1.1700
    -0.9945  -0.8685  -0.8490  -0.8414  -0.8319  -0.7908  -0.7664  -0.7186
    -0.7120  -0.6727  -0.6585  -0.5847  -0.5499  -0.5255  -0.4853  -0.4537
    -0.3691  -0.3562  -0.2256  -0.1597  -0.1312  -0.0269   0.0187   0.0521
     0.1247   0.1586   0.1742   0.2306   0.3113   0.3166   0.3217   0.3895
     0.4130   0.4479   0.4775   0.4995   0.5267   0.5511   0.6052   0.6485
     0.6943   0.7634   0.7677   0.8811   0.9490   0.9611   0.9909   1.1314
     1.2246   1.3760   1.3972   1.4444   1.7562   1.8329   1.9359   2.1294
     2.2768   3.8544   3.8965   3.9715   4.1439   4.1536   4.2007   4.2085
     4.2320   4.3218   4.4183   4.4307

          k =-0.0760 0.0419 0.0000 ( 17914 PWs)   bands (ev):

   -55.3851 -55.2407 -55.2167 -55.1154 -55.0902 -55.0797 -55.0699 -55.0461
   -55.0318 -54.9898 -54.9588 -54.9201 -54.8730 -54.7421 -54.2211 -54.1970
   -31.6890 -31.6792 -31.5981 -31.5842 -31.5621 -31.5372 -31.5318 -31.5154
   -31.4842 -31.4770 -31.4179 -31.4102 -31.4098 -31.3799 -31.3610 -31.3400
   -31.3341 -31.3192 -31.3167 -31.3015 -31.2835 -31.2760 -31.2721 -31.2681
   -31.2635 -31.2621 -31.2571 -31.2376 -31.2248 -31.2206 -31.2119 -31.1952
   -31.1927 -31.1896 -31.1452 -31.1380 -31.1119 -31.1084 -31.0922 -31.0788
   -31.0044 -30.9425 -30.5778 -30.5472 -30.5242 -30.4372 -30.3761 -30.3088
   -19.1855 -16.3060 -15.5871 -15.5514 -15.4015 -15.3492 -15.2152 -15.1540
   -15.1025 -15.0318 -15.0098 -14.9934 -14.9793 -14.9550 -14.9126 -14.8849
   -14.8413 -14.7845 -14.7409 -14.7356 -14.6659 -14.5909 -14.5707 -14.5575
   -14.5405 -14.5115 -14.4973 -14.4542 -14.4296 -14.4210 -14.2156 -14.0982
   -12.7248 -12.6487  -9.1697  -7.6974  -6.8816  -6.1400  -4.2251  -3.6965
    -2.9121  -2.8091  -2.5554  -2.5264  -2.4989  -2.4769  -2.4198  -2.3836
    -2.3420  -2.3316  -2.2941  -2.2910  -2.2086  -2.1993  -2.1848  -2.1145
    -2.0892  -1.9967  -1.9828  -1.9568  -1.9239  -1.8907  -1.8642  -1.8450
    -1.7889  -1.7638  -1.7506  -1.7368  -1.7026  -1.6660  -1.6363  -1.5524
    -1.4848  -1.4289  -1.3548  -1.3083  -1.2526  -1.2399  -1.1975  -1.1729
    -1.0345  -0.9755  -0.8653  -0.8323  -0.8019  -0.7577  -0.7157  -0.6344
    -0.6008  -0.5777  -0.5600  -0.5169  -0.4902  -0.4836  -0.4746  -0.4349
    -0.4240  -0.3831  -0.3591  -0.3061  -0.2551  -0.2052  -0.1628  -0.1371
    -0.0434  -0.0179   0.0304   0.0697   0.1083   0.1351   0.1736   0.2082
     0.2806   0.3626   0.4161   0.4919   0.5385   0.5647   0.6119   0.6357
     0.7658   0.7888   0.8825   0.9391   1.0477   1.0916   1.1140   1.1824
     1.2523   1.2639   1.2793   1.3692   1.4519   2.0123   2.0854   2.1688
     2.2957   3.8670   4.0475   4.0630   4.0839   4.1900   4.2470   4.2595
     4.3119   4.3850   4.5260   4.5455

          k =-0.0760-0.0839 0.0000 ( 17948 PWs)   bands (ev):

   -55.3848 -55.2290 -55.2285 -55.1060 -55.0997 -55.0800 -55.0584 -55.0577
   -55.0281 -54.9936 -54.9582 -54.9172 -54.8761 -54.7428 -54.2095 -54.2087
   -31.6542 -31.5958 -31.5870 -31.5468 -31.5464 -31.5224 -31.5219 -31.5016
   -31.4401 -31.4149 -31.3937 -31.3815 -31.3784 -31.3748 -31.3670 -31.3489
   -31.3481 -31.3442 -31.3416 -31.3309 -31.3274 -31.3088 -31.3015 -31.2805
   -31.2675 -31.2601 -31.2538 -31.2443 -31.2354 -31.2335 -31.2302 -31.2233
   -31.2149 -31.2097 -31.1831 -31.1463 -31.1199 -31.1066 -31.0941 -31.0828
   -31.0046 -30.9814 -30.5358 -30.5353 -30.4459 -30.4447 -30.4071 -30.4064
   -19.1841 -16.3016 -15.4564 -15.4090 -15.2222 -15.2190 -15.1934 -15.1305
   -15.0921 -15.0405 -15.0239 -14.9881 -14.9497 -14.9330 -14.9083 -14.8368
   -14.7932 -14.7669 -14.7555 -14.7192 -14.7033 -14.7026 -14.6710 -14.6486
   -14.6385 -14.5722 -14.5598 -14.4925 -14.4366 -14.4120 -14.2830 -14.2397
   -12.7106 -12.7101  -9.1661  -7.6969  -6.8776  -6.1430  -4.3326  -3.5853
    -2.6463  -2.6421  -2.4438  -2.4109  -2.3455  -2.2749  -2.2411  -2.2213
    -2.1736  -2.1667  -2.1272  -2.1048  -2.0682  -2.0401  -2.0325  -2.0151
    -1.9985  -1.9758  -1.9540  -1.9367  -1.9309  -1.9014  -1.8802  -1.8699
    -1.8272  -1.8200  -1.7952  -1.7771  -1.7432  -1.6794  -1.6186  -1.4978
    -1.4602  -1.4317  -1.4115  -1.3967  -1.3686  -1.3326  -1.3169  -1.3026
    -1.2735  -1.2605  -1.1517  -1.0040  -0.9927  -0.8976  -0.8633  -0.8583
    -0.7527  -0.7203  -0.6867  -0.6614  -0.6095  -0.5680  -0.4673  -0.4558
    -0.4141  -0.3462  -0.2492  -0.2392  -0.2235  -0.1947  -0.1715  -0.1649
    -0.1069  -0.0688  -0.0322   0.0193   0.0395   0.0620   0.0941   0.1879
     0.2178   0.3312   0.4547   0.4923   0.5174   0.5483   0.6821   0.7357
     0.7809   0.8547   0.9181   0.9380   1.0413   1.0596   1.0911   1.1459
     1.2168   1.2667   1.2828   1.3109   1.3238   2.1610   2.1691   2.2340
     2.2343   3.7973   4.0032   4.2547   4.3280   4.3494   4.3788   4.4010
     4.4333   4.4590   4.5025   4.5177

     the Fermi energy is     3.8761 ev

!    total energy              =   -2975.12439596 Ry
     estimated scf accuracy    <       0.00000005 Ry
     smearing contrib. (-TS)   =      -0.03103598 Ry
     internal energy E=F+TS    =   -2975.09335998 Ry

     The total energy is F=E-TS. E is the sum of the following terms:
     one-electron contribution =  -23510.22821968 Ry
     hartree contribution      =   11853.41665578 Ry
     xc contribution           =    -494.85344344 Ry
     ewald contribution        =    9176.56808243 Ry
     electric field correction =       0.00356494 Ry

     convergence has been achieved in  76 iterations

     Forces acting on atoms (cartesian axes, Ry/au):

     atom    1 type  1   force =     0.00014071   -0.00020832    0.09451311
     atom    2 type  1   force =    -0.00007850    0.00040307   -0.17563575
     atom    3 type  2   force =     0.00003408   -0.00003219   -0.02144277
     atom    4 type  2   force =     0.00000350   -0.00223325    0.05508787
     atom    5 type  2   force =    -0.00785133   -0.00313581    0.00369191
     atom    6 type  2   force =     0.00957382   -0.00256302    0.00358385
     atom    7 type  1   force =     0.00003254   -0.00298303    0.00576291
     atom    8 type  1   force =    -0.00023289    0.00257567    0.00566185
     atom    9 type  2   force =    -0.00035228   -0.00026845    0.00001381
     atom   10 type  2   force =    -0.00116064   -0.00256975   -0.00855853
     atom   11 type  2   force =    -0.00071496   -0.00069531   -0.00015131
     atom   12 type  2   force =     0.00031309   -0.00070065   -0.00006595
     atom   13 type  1   force =     0.00009091    0.00004949    0.00042438
     atom   14 type  1   force =    -0.00015597   -0.00034527    0.00016316
     atom   15 type  2   force =     0.00012365   -0.00041932    0.00007267
     atom   16 type  2   force =     0.00006150   -0.00073084   -0.00026565
     atom   17 type  2   force =     0.00013743    0.00031069   -0.00028967
     atom   18 type  2   force =    -0.00049218    0.00029125   -0.00046005
     atom   19 type  1   force =     0.00031366    0.00031211   -0.00006089
     atom   20 type  1   force =     0.00018016   -0.00046616   -0.00013273
     atom   21 type  2   force =     0.00005384    0.00002770    0.10330101
     atom   22 type  2   force =    -0.00000833    0.00082527   -0.00067956
     atom   23 type  2   force =    -0.07175367   -0.00020005   -0.02724841
     atom   24 type  2   force =     0.07158861    0.00024286   -0.02731201
     atom   25 type  1   force =     0.00006583   -0.00034255    0.09390170
     atom   26 type  1   force =    -0.00016781   -0.00123251   -0.17591129
     atom   27 type  2   force =     0.00013780   -0.00023857   -0.02016433
     atom   28 type  2   force =     0.00003629   -0.00055961    0.05061199
     atom   29 type  2   force =    -0.00679950    0.00147519    0.00205324
     atom   30 type  2   force =     0.00849625    0.00183116    0.00196798
     atom   31 type  1   force =     0.00014816    0.00700568   -0.00369596
     atom   32 type  1   force =    -0.00027872   -0.00257956    0.00512233
     atom   33 type  2   force =    -0.00000438    0.00031323   -0.00012589
     atom   34 type  2   force =    -0.00011964    0.00279324   -0.00828288
     atom   35 type  2   force =     0.00025477    0.00067215   -0.00030045
     atom   36 type  2   force =    -0.00101084    0.00054651   -0.00044698
     atom   37 type  1   force =     0.00013629   -0.00043335    0.00012695
     atom   38 type  1   force =    -0.00015769   -0.00009768   -0.00009437
     atom   39 type  2   force =    -0.00008758   -0.00001336    0.00015515
     atom   40 type  2   force =    -0.00046858    0.00013237   -0.00003668
     atom   41 type  2   force =    -0.00001075    0.00030180   -0.00027752
     atom   42 type  2   force =     0.00039248    0.00028988    0.00024790
     atom   43 type  1   force =     0.00028997    0.00061568   -0.00001208
     atom   44 type  1   force =    -0.00006811   -0.00037104   -0.00005853
     atom   45 type  2   force =     0.00001640   -0.00010997    0.10306502
     atom   46 type  2   force =    -0.07181880   -0.00003980   -0.02730369
     atom   47 type  2   force =     0.07165661    0.00035468   -0.02734272
     atom   48 type  3   force =     0.00048258    0.00002410   -0.00078011
     atom   49 type  4   force =     0.00590823   -0.00577378   -0.00196896
     atom   50 type  5   force =     0.00058113   -0.00051728   -0.00070317
     atom   51 type  5   force =    -0.00740607    0.00624673    0.00142870
     atom   52 type  3   force =     0.00021131    0.00016963   -0.00081455
     atom   53 type  5   force =    -0.00071925    0.00050173   -0.00050280
     atom   54 type  5   force =     0.00034254    0.00023689    0.00082290
     atom   55 type  5   force =     0.00029219    0.00019846    0.00012086
     atom   56 type  2   force =     0.00039412    0.00141456    0.00024930
     atom   57 type  5   force =    -0.00057198   -0.00030128   -0.00102430

     Total force =     0.362908     Total SCF correction =     0.000588
  @ DRIVER MODE: Message from server: STATUS
  @ DRIVER MODE: Message from server: GETFORCE
  @ DRIVER MODE: Returning v,forces,stress,ensemble 

     Writing output data file ./calc.save/
  @ DRIVER MODE: Message from server: EXIT
  @ DRIVE MODE: Exiting  
 
     init_run     :     13.59s CPU     13.98s WALL (       1 calls)
     electrons    :   1501.13s CPU   1537.31s WALL (       1 calls)
     forces       :      3.00s CPU      3.12s WALL (       1 calls)

     Called by init_run:
     wfcinit      :      5.95s CPU      6.10s WALL (       1 calls)
     potinit      :      6.88s CPU      6.98s WALL (       1 calls)
     hinit0       :      0.36s CPU      0.38s WALL (       1 calls)

     Called by electrons:
     c_bands      :   1272.06s CPU   1292.07s WALL (      76 calls)
     sum_band     :    155.81s CPU    163.66s WALL (      76 calls)
     v_of_rho     :     55.08s CPU     57.28s WALL (      77 calls)
     newd         :     22.11s CPU     28.23s WALL (      77 calls)
     mix_rho      :      2.04s CPU      2.10s WALL (      76 calls)
     vdW_kernel   :      5.85s CPU      5.87s WALL (       1 calls)

     Called by c_bands:
     init_us_2    :      9.32s CPU      9.40s WALL (    1540 calls)
     cegterg      :   1246.17s CPU   1265.57s WALL (     778 calls)

     Called by *egterg:
     cdiaghg      :    193.38s CPU    194.59s WALL (    7555 calls)
     h_psi        :    684.58s CPU    696.29s WALL (    7570 calls)
     s_psi        :     89.64s CPU     90.09s WALL (    7570 calls)
     g_psi        :      2.49s CPU      2.51s WALL (    6782 calls)

     Called by h_psi:
     h_psi:calbec :     84.08s CPU     85.67s WALL (    7570 calls)
     vloc_psi     :    506.42s CPU    511.86s WALL (    7570 calls)
     add_vuspsi   :     90.21s CPU     92.31s WALL (    7570 calls)

     General routines
     calbec       :    110.96s CPU    112.69s WALL (    8370 calls)
     fft          :     28.28s CPU     28.49s WALL (    4851 calls)
     ffts         :      0.18s CPU      0.19s WALL (     153 calls)
     fftw         :    565.45s CPU    571.51s WALL ( 1049370 calls)
     interpolate  :      0.57s CPU      0.57s WALL (      77 calls)
     davcio       :      0.00s CPU      0.38s WALL (      10 calls)
 
     Parallel routines
 
     PWSCF        :  25m17.93s CPU  25m55.90s WALL

 
   This run was terminated on:  20:33:57  23Sep2021            

=------------------------------------------------------------------------------=
   JOB DONE.
=------------------------------------------------------------------------------=
