
     Program PWSCF v.6.7GPU starts on  9Sep2021 at  6:48: 5 

     This program is part of the open-source Quantum ESPRESSO suite
     for quantum simulation of materials; please cite
         "P. Giannozzi et al., J. Phys.:Condens. Matter 21 395502 (2009);
         "P. Giannozzi et al., J. Phys.:Condens. Matter 29 465901 (2017);
         "P. Giannozzi et al., J. Chem. Phys. 152 154105 (2020);
          URL http://www.quantum-espresso.org", 
     in publications or presentations arising from this work. More details at
     http://www.quantum-espresso.org/quote

     Parallel version (MPI), running on    10 processors

     MPI processes distributed on     1 nodes
     R & G space division:  proc/nbgrp/npool/nimage =      10
     Reading input from /storage/home/hcoda1/3/ntian30/research/carbon/CxH_vib/CH_calc/ads_slab/CHN2H_a/out_0027/pw.inp
Warning: card &CELL ignored
Warning: card   CELL_DYNAMICS='IPI', ignored
Warning: card / ignored

     Current dimensions of program PWSCF are:
     Max number of different atomic species (ntypx) = 10
     Max number of k-points (npk) =  40000
     Max angular momentum in pseudopotentials (lmaxx) =  3
     Presently no symmetry can be used with electric field

     Message from routine cell_base_init:
     DEPRECATED: use true lattice parameter, not A to a.u. conversion factor

     **************************************************************************
     Initializing libbeef V0.1.2 with the BEEF-vdW functional.
     Citation: Wellendorff et al., PRB 85, 235149 (2012).
     **************************************************************************


     IMPORTANT: XC functional enforced from input :
     Exchange-correlation= BEEF-VDW
                           (   1   4  43  14   2   0   0)
     Any further DFT definition will be discarded
     Please, verify this is what you really want


     Subspace diagonalization in iterative solution of the eigenvalue problem:
     one sub-group per band group will be used
     scalapack distributed-memory algorithm (size of sub-group:  3*  3 procs)

  @ DRIVER MODE: Connecting to 
 qe_1139763_2767376.sched-torque.pace.gatech.eduwnc4fgpg_scratch
  using UNIX socket
  @ DRIVER MODE: Message from server: STATUS
  @ DRIVER MODE: Message from server: INIT
  @ DRIVER MODE: Receiving replica           0          -1
  @ DRIVER MODE: Receiving encoded integer          25
  @ DRIVER MODE:  SCF:  T  FORCE:  T  STRESS:  F  VC:  F  ENSEMBLE:  F
  @ DRIVER MODE:  SCF:  T  FORCE:  T  STRESS:  F  VC:  F  ENSEMBLE:  F
 
     Parallelization info
     --------------------
     sticks:   dense  smooth     PW     G-vecs:    dense   smooth      PW
     Min         327     131     37                56683    14340    2191
     Max         328     133     38                56694    14346    2206
     Sum        3275    1317    379               566857   143421   21985
 
     Using Slab Decomposition
 


     bravais-lattice index     =            0
     lattice parameter (alat)  =       1.8897  a.u.
     unit-cell volume          =    6658.9804 (a.u.)^3
     number of atoms/cell      =           52
     number of atomic types    =            5
     number of electrons       =       394.00
     number of Kohn-Sham states=          207
     kinetic-energy cutoff     =      29.3995  Ry
     charge density cutoff     =     293.9946  Ry
     scf convergence threshold =      7.3E-08
     mixing beta               =       0.0500
     number of iterations used =            8  plain     mixing
     Exchange-correlation= BEEF-VDW
                           (   1   4  43  14   2   0   0)

     celldm(1)=   1.889726  celldm(2)=   0.000000  celldm(3)=   0.000000
     celldm(4)=   0.000000  celldm(5)=   0.000000  celldm(6)=   0.000000

     crystal axes: (cart. coord. in units of alat)
               a(1) = (   6.579727   0.000000   0.000000 )  
               a(2) = (  -0.000775   5.961596   0.000000 )  
               a(3) = (   0.000000   0.000000  25.155947 )  

     reciprocal axes: (cart. coord. in units 2 pi/alat)
               b(1) = (  0.151982  0.000020  0.000000 )  
               b(2) = (  0.000000  0.167740  0.000000 )  
               b(3) = (  0.000000  0.000000  0.039752 )  


     PseudoPot. # 1 for Ti read from file:
     /storage/coda1/p-amedford6/0/shared/rich_project_chbe-medford/medford-share/data/pseudos_module/espresso/nninc/pbe/van/Ti.UPF
     MD5 check sum: 8e4df49b7f0d34bbd5052bf3f5ea0213
     Pseudo is Ultrasoft, Zval = 12.0
     Generated by new atomic code, or converted to UPF format
     Using radial grid of  851 points,  6 beta functions with: 
                l(1) =   0
                l(2) =   0
                l(3) =   1
                l(4) =   1
                l(5) =   2
                l(6) =   2
     Q(r) pseudized with  8 coefficients,  rinner =    1.000   1.000   1.000
                                                       1.000   1.000

     PseudoPot. # 2 for O  read from file:
     /storage/coda1/p-amedford6/0/shared/rich_project_chbe-medford/medford-share/data/pseudos_module/espresso/nninc/pbe/van/O.UPF
     MD5 check sum: 78c19812648e8988a0fe644b0f25305e
     Pseudo is Ultrasoft, Zval =  6.0
     Generated by new atomic code, or converted to UPF format
     Using radial grid of  737 points,  4 beta functions with: 
                l(1) =   0
                l(2) =   0
                l(3) =   1
                l(4) =   1
     Q(r) pseudized with  8 coefficients,  rinner =    0.800   0.800   0.800


     PseudoPot. # 3 for N  read from file:
     /storage/coda1/p-amedford6/0/shared/rich_project_chbe-medford/medford-share/data/pseudos_module/espresso/nninc/pbe/van/N.UPF
     MD5 check sum: 90d10febe142ad51ac9d5be1deb811c4
     Pseudo is Ultrasoft, Zval =  5.0
     Generated by new atomic code, or converted to UPF format
     Using radial grid of  729 points,  4 beta functions with: 
                l(1) =   0
                l(2) =   0
                l(3) =   1
                l(4) =   1
     Q(r) pseudized with  8 coefficients,  rinner =    0.800   0.800   0.800


     PseudoPot. # 4 for C  read from file:
     /storage/coda1/p-amedford6/0/shared/rich_project_chbe-medford/medford-share/data/pseudos_module/espresso/nninc/pbe/van/C.UPF
     MD5 check sum: 1a69bf6b8db32088f5b2163dbdb77a27
     Pseudo is Ultrasoft, Zval =  4.0
     Generated by new atomic code, or converted to UPF format
     Using radial grid of  721 points,  4 beta functions with: 
                l(1) =   0
                l(2) =   0
                l(3) =   1
                l(4) =   1
     Q(r) pseudized with  8 coefficients,  rinner =    0.800   0.800   0.800


     PseudoPot. # 5 for H  read from file:
     /storage/coda1/p-amedford6/0/shared/rich_project_chbe-medford/medford-share/data/pseudos_module/espresso/nninc/pbe/van/H.UPF
     MD5 check sum: b5ee9d7bfd3a09ee7748110bda690ff7
     Pseudo is Ultrasoft, Zval =  1.0
     Generated by new atomic code, or converted to UPF format
     Using radial grid of  615 points,  1 beta functions with: 
                l(1) =   0
     Q(r) pseudized with  8 coefficients,  rinner =    0.800

     atomic species   valence    mass     pseudopotential
        Ti1           12.00    47.86700     Ti( 1.00)
        O1             6.00    15.99900     O ( 1.00)
        N1             5.00    14.00700     N ( 1.00)
        C1             4.00    12.01100     C ( 1.00)
        H1             1.00     1.00800     H ( 1.00)

     No symmetry found



   Cartesian axes

     site n.     atom                  positions (alat units)
         1           Ti1 tau(   1) = (   0.0004258   2.9801865   6.0000000  )
         2           Ti1 tau(   2) = (   3.2906075   1.4906267   6.0002472  )
         3           O1  tau(   3) = (   0.0006271   0.0005054   7.9858123  )
         4           O1  tau(   4) = (   3.2906025   0.0005020   7.3038282  )
         5           O1  tau(   5) = (   4.5942328   1.4918067   9.2879030  )
         6           O1  tau(   6) = (   1.9868534   1.4903216   9.2879459  )
         7           Ti1 tau(   7) = (   3.2907910   2.8959150   9.1758416  )
         8           Ti1 tau(   8) = (   0.0015273   1.4827037   9.2680791  )
         9           O1  tau(   9) = (   3.3079035   5.9465650  11.3667630  )
        10           O1  tau(  10) = (   0.0116148   5.9584955  10.6183126  )
        11           O1  tau(  11) = (   1.3159687   1.4802111  12.6598234  )
        12           O1  tau(  12) = (   5.3141237   1.4785834  12.6569702  )
        13           Ti1 tau(  13) = (   0.0356438   2.9569522  12.5500042  )
        14           Ti1 tau(  14) = (   3.3321116   1.4682926  12.5176941  )
        15           O1  tau(  15) = (   0.0287262   5.9365737  14.6848071  )
        16           O1  tau(  16) = (   3.3260766   5.9477468  13.9918032  )
        17           O1  tau(  17) = (   4.5788076   1.5006004  16.1778977  )
        18           O1  tau(  18) = (   2.0653823   1.4932191  16.1519216  )
        19           Ti1 tau(  19) = (   3.3252840   2.9629899  15.7366588  )
        20           Ti1 tau(  20) = (   0.0567170   1.3280226  15.9864722  )
        21           O1  tau(  21) = (   3.2904802   0.0005063   4.7018136  )
        22           O1  tau(  22) = (   0.0395201   5.9563027  17.2132275  )
        23           O1  tau(  23) = (   1.3043587   1.4918075   6.0039043  )
        24           O1  tau(  24) = (   5.2767064   1.4903225   6.0039473  )
        25           Ti1 tau(  25) = (   0.0000382   5.9609847   6.0000000  )
        26           Ti1 tau(  26) = (   3.2902200   4.4714249   6.0002472  )
        27           O1  tau(  27) = (   0.0002396   2.9813036   7.9858123  )
        28           O1  tau(  28) = (   3.2902150   2.9813002   7.3038282  )
        29           O1  tau(  29) = (   4.5938453   4.4726049   9.2879030  )
        30           O1  tau(  30) = (   1.9864658   4.4711199   9.2879459  )
        31           Ti1 tau(  31) = (   3.2891106   5.8743827   9.1763621  )
        32           Ti1 tau(  32) = (   0.0006254   4.4649316   9.2693709  )
        33           O1  tau(  33) = (   3.3109971   2.9638951  11.3609806  )
        34           O1  tau(  34) = (   0.0092240   2.9805883  10.6323155  )
        35           O1  tau(  35) = (   1.3172493   4.4579999  12.6547637  )
        36           O1  tau(  36) = (   5.3123203   4.4599931  12.6537913  )
        37           Ti1 tau(  37) = (   0.0349292   5.9384232  12.5038109  )
        38           Ti1 tau(  38) = (   3.3308216   4.4462378  12.5132791  )
        39           O1  tau(  39) = (   0.0262156   2.9786664  14.8481040  )
        40           O1  tau(  40) = (   3.3240488   2.9673873  13.9486158  )
        41           O1  tau(  41) = (   4.5778164   4.4375445  16.1741249  )
        42           O1  tau(  42) = (   2.0647505   4.4412733  16.1578575  )
        43           Ti1 tau(  43) = (   3.3314326   5.9455663  15.7867969  )
        44           Ti1 tau(  44) = (   0.0345939   4.5236910  15.9072353  )
        45           O1  tau(  45) = (   3.2900926   2.9813045   4.7018136  )
        46           O1  tau(  46) = (   1.3039711   4.4726057   6.0039043  )
        47           O1  tau(  47) = (   5.2763189   4.4711207   6.0039473  )
        48           N1  tau(  48) = (   0.8843530   3.1395628  18.6524426  )
        49           C1  tau(  49) = (   1.8908588   3.1194352  19.2834450  )
        50           H1  tau(  50) = (   2.4245030   3.8971110  19.8100181  )
        51           N1  tau(  51) = (   6.5588057   2.9807634  17.7841789  )
        52           H1  tau(  52) = (   5.6432114   2.8791999  18.2270943  )

     number of k points=    10  Fermi-Dirac smearing, width (Ry)=  0.0073
                       cart. coord. in units 2pi/alat
        k(    1) = (   0.0000000   0.0000000   0.0000000), wk =   0.1250000
        k(    2) = (   0.0000000   0.0419351   0.0000000), wk =   0.2500000
        k(    3) = (   0.0000000  -0.0838702   0.0000000), wk =   0.1250000
        k(    4) = (   0.0379955   0.0000049   0.0000000), wk =   0.2500000
        k(    5) = (   0.0379955   0.0419400   0.0000000), wk =   0.2500000
        k(    6) = (   0.0379955  -0.0838652   0.0000000), wk =   0.2500000
        k(    7) = (   0.0379955  -0.0419301   0.0000000), wk =   0.2500000
        k(    8) = (  -0.0759910  -0.0000099   0.0000000), wk =   0.1250000
        k(    9) = (  -0.0759910   0.0419252   0.0000000), wk =   0.2500000
        k(   10) = (  -0.0759910  -0.0838800   0.0000000), wk =   0.1250000

     Dense  grid:   566857 G-vectors     FFT dimensions: (  72,  64, 270)

     Smooth grid:   143421 G-vectors     FFT dimensions: (  45,  40, 180)

     Estimated max dynamical RAM per process >     363.38 MB

     Estimated total dynamical RAM >       3.55 GB
     Cannot read rho : file not found

     Initial potential from superposition of free atoms

     starting charge  377.99917, renormalised to  394.00000

     negative rho (up, down):  1.653E-02 0.000E+00


     %%%%%%%%%%%%%%%%%%%%%%%%%%%%%%%%%%%%%%%%%%%%%%%%%%%%%%%%%%%%%%%%%%%%%%%%
     %                                                                      %
     % You are using vdW-DF, which was implemented by the Thonhauser group. %
     % Please cite the following two papers that made this development      %
     % possible and the two reviews that describe the various versions:     %
     %                                                                      %
     %   T. Thonhauser et al., PRL 115, 136402 (2015).                      %
     %   T. Thonhauser et al., PRB 76, 125112 (2007).                       %
     %   K. Berland et al., Rep. Prog. Phys. 78, 066501 (2015).             %
     %   D.C. Langreth et al., J. Phys.: Condens. Matter 21, 084203 (2009). %
     %                                                                      %
     %                                                                      %
     % If you are calculating the stress with vdW-DF, please also cite:     %
     %                                                                      %
     %   R. Sabatini et al., J. Phys.: Condens. Matter 24, 424209 (2012).   %
     %                                                                      %
     %%%%%%%%%%%%%%%%%%%%%%%%%%%%%%%%%%%%%%%%%%%%%%%%%%%%%%%%%%%%%%%%%%%%%%%%


 
     Adding external electric field

     Computed dipole along edir(3) : 
        Dipole               -8.4995 Ry au,        -21.6035 Debye
        Dipole field         -0.0160 Ry au, 
 
        Potential amp.        1.4869 Ry
        Total length         46.3494 bohr
 
     Starting wfcs are  298 atomic wfcs
  @ DRIVER MODE: Message from server: STATUS
  @ DRIVER MODE: Message from server: POSDATA
  @ DRIVER MODE: Reading and sharing cell 
  @ DRIVER MODE: Reading and sharing positions 
  @ DRIVER MODE: Received positions 

     total cpu time spent up to now is       11.5 secs

     Self-consistent Calculation

     iteration #  1     ecut=    29.40 Ry     beta= 0.05
     Davidson diagonalization with overlap
     c_bands:  1 eigenvalues not converged
     c_bands:  1 eigenvalues not converged
     c_bands:  2 eigenvalues not converged
     c_bands:  2 eigenvalues not converged
     c_bands:  2 eigenvalues not converged
     c_bands:  1 eigenvalues not converged
     ethr =  1.00E-05,  avg # of iterations = 19.0

     negative rho (up, down):  1.502E-02 0.000E+00
 
     Adding external electric field

     Computed dipole along edir(3) : 
        Dipole               37.3552 Ry au,         94.9475 Debye
        Dipole field          0.0705 Ry au, 
 
        Potential amp.       -6.5347 Ry
        Total length         46.3494 bohr
 

     total cpu time spent up to now is       51.0 secs

     total energy              =   -2624.27016342 Ry
     estimated scf accuracy    <    3488.43588720 Ry

     iteration #  2     ecut=    29.40 Ry     beta= 0.05
     Davidson diagonalization with overlap
     c_bands:  1 eigenvalues not converged
     c_bands:  2 eigenvalues not converged
     c_bands:  4 eigenvalues not converged
     ethr =  1.00E-02,  avg # of iterations = 21.2

     negative rho (up, down):  5.191E-03 0.000E+00
 
     Adding external electric field

     Computed dipole along edir(3) : 
        Dipole               -3.2892 Ry au,         -8.3603 Debye
        Dipole field         -0.0062 Ry au, 
 
        Potential amp.        0.5754 Ry
        Total length         46.3494 bohr
 

     total cpu time spent up to now is      118.1 secs

     total energy              =   -2457.54428785 Ry
     estimated scf accuracy    <   63060.56547949 Ry

     iteration #  3     ecut=    29.40 Ry     beta= 0.05
     Davidson diagonalization with overlap
     ethr =  1.00E-02,  avg # of iterations = 14.4

     negative rho (up, down):  5.250E-03 0.000E+00
 
     Adding external electric field

     Computed dipole along edir(3) : 
        Dipole               -5.0363 Ry au,        -12.8009 Debye
        Dipole field         -0.0095 Ry au, 
 
        Potential amp.        0.8810 Ry
        Total length         46.3494 bohr
 

     total cpu time spent up to now is      162.8 secs

     total energy              =   -2916.43464529 Ry
     estimated scf accuracy    <    3618.55781609 Ry

     iteration #  4     ecut=    29.40 Ry     beta= 0.05
     Davidson diagonalization with overlap
     c_bands:  1 eigenvalues not converged
     c_bands:  4 eigenvalues not converged
     ethr =  1.00E-02,  avg # of iterations = 15.9

     negative rho (up, down):  5.282E-03 0.000E+00
 
     Adding external electric field

     Computed dipole along edir(3) : 
        Dipole               -5.8683 Ry au,        -14.9156 Debye
        Dipole field         -0.0111 Ry au, 
 
        Potential amp.        1.0266 Ry
        Total length         46.3494 bohr
 

     total cpu time spent up to now is      183.3 secs

     total energy              =   -2932.06138433 Ry
     estimated scf accuracy    <     476.73071149 Ry

     iteration #  5     ecut=    29.40 Ry     beta= 0.05
     Davidson diagonalization with overlap
     ethr =  1.00E-02,  avg # of iterations =  4.9

     negative rho (up, down):  5.277E-03 0.000E+00
 
     Adding external electric field

     Computed dipole along edir(3) : 
        Dipole               -6.3357 Ry au,        -16.1038 Debye
        Dipole field         -0.0120 Ry au, 
 
        Potential amp.        1.1083 Ry
        Total length         46.3494 bohr
 

     total cpu time spent up to now is      194.8 secs

     total energy              =   -2931.95478997 Ry
     estimated scf accuracy    <     272.88148681 Ry

     iteration #  6     ecut=    29.40 Ry     beta= 0.05
     Davidson diagonalization with overlap
     ethr =  1.00E-02,  avg # of iterations =  7.2

     negative rho (up, down):  5.296E-03 0.000E+00
 
     Adding external electric field

     Computed dipole along edir(3) : 
        Dipole               -6.3324 Ry au,        -16.0953 Debye
        Dipole field         -0.0120 Ry au, 
 
        Potential amp.        1.1078 Ry
        Total length         46.3494 bohr
 

     total cpu time spent up to now is      207.4 secs

     total energy              =   -2934.44590003 Ry
     estimated scf accuracy    <     116.01012622 Ry

     iteration #  7     ecut=    29.40 Ry     beta= 0.05
     Davidson diagonalization with overlap
     ethr =  1.00E-02,  avg # of iterations =  4.3

     negative rho (up, down):  5.271E-03 0.000E+00
 
     Adding external electric field

     Computed dipole along edir(3) : 
        Dipole               -5.9722 Ry au,        -15.1798 Debye
        Dipole field         -0.0113 Ry au, 
 
        Potential amp.        1.0447 Ry
        Total length         46.3494 bohr
 

     total cpu time spent up to now is      219.1 secs

     total energy              =   -2937.85732407 Ry
     estimated scf accuracy    <      28.26965934 Ry

     iteration #  8     ecut=    29.40 Ry     beta= 0.05
     Davidson diagonalization with overlap
     ethr =  7.18E-03,  avg # of iterations =  2.5

     negative rho (up, down):  5.298E-03 0.000E+00
 
     Adding external electric field

     Computed dipole along edir(3) : 
        Dipole               -7.0082 Ry au,        -17.8130 Debye
        Dipole field         -0.0132 Ry au, 
 
        Potential amp.        1.2260 Ry
        Total length         46.3494 bohr
 

     total cpu time spent up to now is      230.0 secs

     total energy              =   -2939.50722456 Ry
     estimated scf accuracy    <      12.28648336 Ry

     iteration #  9     ecut=    29.40 Ry     beta= 0.05
     Davidson diagonalization with overlap
     c_bands:  5 eigenvalues not converged
     c_bands:  1 eigenvalues not converged
     ethr =  3.12E-03,  avg # of iterations = 10.0

     negative rho (up, down):  5.744E-03 0.000E+00
 
     Adding external electric field

     Computed dipole along edir(3) : 
        Dipole               -6.7874 Ry au,        -17.2517 Debye
        Dipole field         -0.0128 Ry au, 
 
        Potential amp.        1.1873 Ry
        Total length         46.3494 bohr
 

     total cpu time spent up to now is      244.5 secs

     total energy              =   -2941.43172269 Ry
     estimated scf accuracy    <      76.14724649 Ry

     iteration # 10     ecut=    29.40 Ry     beta= 0.05
     Davidson diagonalization with overlap
     ethr =  3.12E-03,  avg # of iterations =  1.9

     negative rho (up, down):  2.941E-02 0.000E+00
 
     Adding external electric field

     Computed dipole along edir(3) : 
        Dipole               -3.0768 Ry au,         -7.8205 Debye
        Dipole field         -0.0058 Ry au, 
 
        Potential amp.        0.5382 Ry
        Total length         46.3494 bohr
 

     total cpu time spent up to now is      254.9 secs

     total energy              =   -2936.05139888 Ry
     estimated scf accuracy    <      75.97076679 Ry

     iteration # 11     ecut=    29.40 Ry     beta= 0.05
     Davidson diagonalization with overlap
     c_bands:  3 eigenvalues not converged
     ethr =  3.12E-03,  avg # of iterations = 11.9

     negative rho (up, down):  7.787E-02 0.000E+00
 
     Adding external electric field

     Computed dipole along edir(3) : 
        Dipole               -3.0913 Ry au,         -7.8574 Debye
        Dipole field         -0.0058 Ry au, 
 
        Potential amp.        0.5408 Ry
        Total length         46.3494 bohr
 

     total cpu time spent up to now is      271.5 secs

     total energy              =   -2943.32924759 Ry
     estimated scf accuracy    <     209.32962108 Ry

     iteration # 12     ecut=    29.40 Ry     beta= 0.05
     Davidson diagonalization with overlap
     ethr =  3.12E-03,  avg # of iterations =  6.5

     negative rho (up, down):  1.007E-01 0.000E+00
 
     Adding external electric field

     Computed dipole along edir(3) : 
        Dipole               -6.6220 Ry au,        -16.8315 Debye
        Dipole field         -0.0125 Ry au, 
 
        Potential amp.        1.1584 Ry
        Total length         46.3494 bohr
 

     total cpu time spent up to now is      284.4 secs

     total energy              =   -2929.63841663 Ry
     estimated scf accuracy    <     217.27464341 Ry

     iteration # 13     ecut=    29.40 Ry     beta= 0.05
     Davidson diagonalization with overlap
     ethr =  3.12E-03,  avg # of iterations = 13.0

     negative rho (up, down):  6.839E-02 0.000E+00
 
     Adding external electric field

     Computed dipole along edir(3) : 
        Dipole               -3.9159 Ry au,         -9.9532 Debye
        Dipole field         -0.0074 Ry au, 
 
        Potential amp.        0.6850 Ry
        Total length         46.3494 bohr
 

     total cpu time spent up to now is      310.5 secs

     total energy              =   -2930.20755445 Ry
     estimated scf accuracy    <    1147.11598564 Ry

     iteration # 14     ecut=    29.40 Ry     beta= 0.05
     Davidson diagonalization with overlap
     c_bands:  2 eigenvalues not converged
     c_bands:  1 eigenvalues not converged
     c_bands:  4 eigenvalues not converged
     ethr =  3.12E-03,  avg # of iterations = 17.5

     negative rho (up, down):  5.319E-02 0.000E+00
 
     Adding external electric field

     Computed dipole along edir(3) : 
        Dipole               -3.8246 Ry au,         -9.7211 Debye
        Dipole field         -0.0072 Ry au, 
 
        Potential amp.        0.6691 Ry
        Total length         46.3494 bohr
 

     total cpu time spent up to now is      330.1 secs

     total energy              =   -2938.00472830 Ry
     estimated scf accuracy    <      53.88472572 Ry

     iteration # 15     ecut=    29.40 Ry     beta= 0.05
     Davidson diagonalization with overlap
     c_bands:  1 eigenvalues not converged
     ethr =  3.12E-03,  avg # of iterations =  9.0

     negative rho (up, down):  7.529E-02 0.000E+00
 
     Adding external electric field

     Computed dipole along edir(3) : 
        Dipole               -2.6519 Ry au,         -6.7404 Debye
        Dipole field         -0.0050 Ry au, 
 
        Potential amp.        0.4639 Ry
        Total length         46.3494 bohr
 

     total cpu time spent up to now is      342.9 secs

     total energy              =   -2938.05004137 Ry
     estimated scf accuracy    <      26.99683548 Ry

     iteration # 16     ecut=    29.40 Ry     beta= 0.05
     Davidson diagonalization with overlap
     ethr =  3.12E-03,  avg # of iterations =  5.5

     negative rho (up, down):  5.317E-02 0.000E+00
 
     Adding external electric field

     Computed dipole along edir(3) : 
        Dipole               -4.0402 Ry au,        -10.2692 Debye
        Dipole field         -0.0076 Ry au, 
 
        Potential amp.        0.7068 Ry
        Total length         46.3494 bohr
 

     total cpu time spent up to now is      354.4 secs

     total energy              =   -2936.43623442 Ry
     estimated scf accuracy    <      23.67351741 Ry

     iteration # 17     ecut=    29.40 Ry     beta= 0.05
     Davidson diagonalization with overlap
     c_bands:  1 eigenvalues not converged
     c_bands:  1 eigenvalues not converged
     ethr =  3.12E-03,  avg # of iterations = 14.1

     negative rho (up, down):  4.379E-02 0.000E+00
 
     Adding external electric field

     Computed dipole along edir(3) : 
        Dipole               -4.6334 Ry au,        -11.7769 Debye
        Dipole field         -0.0087 Ry au, 
 
        Potential amp.        0.8105 Ry
        Total length         46.3494 bohr
 

     total cpu time spent up to now is      369.9 secs

     total energy              =   -2939.01428420 Ry
     estimated scf accuracy    <      24.79608048 Ry

     iteration # 18     ecut=    29.40 Ry     beta= 0.05
     Davidson diagonalization with overlap
     ethr =  3.12E-03,  avg # of iterations =  8.9

     negative rho (up, down):  7.069E-02 0.000E+00
 
     Adding external electric field

     Computed dipole along edir(3) : 
        Dipole               -3.1256 Ry au,         -7.9444 Debye
        Dipole field         -0.0059 Ry au, 
 
        Potential amp.        0.5468 Ry
        Total length         46.3494 bohr
 

     total cpu time spent up to now is      387.4 secs

     total energy              =   -2932.75707290 Ry
     estimated scf accuracy    <     581.28661271 Ry

     iteration # 19     ecut=    29.40 Ry     beta= 0.05
     Davidson diagonalization with overlap
     ethr =  3.12E-03,  avg # of iterations =  8.6

     negative rho (up, down):  9.365E-02 0.000E+00
 
     Adding external electric field

     Computed dipole along edir(3) : 
        Dipole               -2.9247 Ry au,         -7.4338 Debye
        Dipole field         -0.0055 Ry au, 
 
        Potential amp.        0.5116 Ry
        Total length         46.3494 bohr
 

     total cpu time spent up to now is      401.0 secs

     total energy              =   -2937.60204364 Ry
     estimated scf accuracy    <      44.19178150 Ry

     iteration # 20     ecut=    29.40 Ry     beta= 0.05
     Davidson diagonalization with overlap
     ethr =  3.12E-03,  avg # of iterations =  1.8

     negative rho (up, down):  1.068E-01 0.000E+00
 
     Adding external electric field

     Computed dipole along edir(3) : 
        Dipole               -2.8012 Ry au,         -7.1200 Debye
        Dipole field         -0.0053 Ry au, 
 
        Potential amp.        0.4900 Ry
        Total length         46.3494 bohr
 

     total cpu time spent up to now is      411.4 secs

     total energy              =   -2937.07852448 Ry
     estimated scf accuracy    <      39.52862051 Ry

     iteration # 21     ecut=    29.40 Ry     beta= 0.05
     Davidson diagonalization with overlap
     ethr =  3.12E-03,  avg # of iterations =  5.4

     negative rho (up, down):  1.508E-01 0.000E+00
 
     Adding external electric field

     Computed dipole along edir(3) : 
        Dipole               -1.8881 Ry au,         -4.7990 Debye
        Dipole field         -0.0036 Ry au, 
 
        Potential amp.        0.3303 Ry
        Total length         46.3494 bohr
 

     total cpu time spent up to now is      422.9 secs

     total energy              =   -2936.38245122 Ry
     estimated scf accuracy    <      20.76908960 Ry

     iteration # 22     ecut=    29.40 Ry     beta= 0.05
     Davidson diagonalization with overlap
     c_bands:  1 eigenvalues not converged
     c_bands:  1 eigenvalues not converged
     ethr =  3.12E-03,  avg # of iterations = 15.4

     negative rho (up, down):  1.370E-01 0.000E+00
 
     Adding external electric field

     Computed dipole along edir(3) : 
        Dipole               -1.8995 Ry au,         -4.8281 Debye
        Dipole field         -0.0036 Ry au, 
 
        Potential amp.        0.3323 Ry
        Total length         46.3494 bohr
 

     total cpu time spent up to now is      439.6 secs

     total energy              =   -2937.89304426 Ry
     estimated scf accuracy    <       2.23123013 Ry

     iteration # 23     ecut=    29.40 Ry     beta= 0.05
     Davidson diagonalization with overlap
     c_bands:  1 eigenvalues not converged
     c_bands:  2 eigenvalues not converged
     c_bands:  4 eigenvalues not converged
     c_bands:  1 eigenvalues not converged
     c_bands:  1 eigenvalues not converged
     c_bands:  4 eigenvalues not converged
     ethr =  5.66E-04,  avg # of iterations = 18.9

     negative rho (up, down):  1.376E-01 0.000E+00
 
     Adding external electric field

     Computed dipole along edir(3) : 
        Dipole               -2.2359 Ry au,         -5.6831 Debye
        Dipole field         -0.0042 Ry au, 
 
        Potential amp.        0.3911 Ry
        Total length         46.3494 bohr
 

     total cpu time spent up to now is      457.6 secs

     total energy              =   -2937.90337701 Ry
     estimated scf accuracy    <       1.75684945 Ry

     iteration # 24     ecut=    29.40 Ry     beta= 0.05
     Davidson diagonalization with overlap
     ethr =  4.46E-04,  avg # of iterations =  7.2

     negative rho (up, down):  1.379E-01 0.000E+00
 
     Adding external electric field

     Computed dipole along edir(3) : 
        Dipole               -2.0710 Ry au,         -5.2639 Debye
        Dipole field         -0.0039 Ry au, 
 
        Potential amp.        0.3623 Ry
        Total length         46.3494 bohr
 

     total cpu time spent up to now is      469.7 secs

     total energy              =   -2937.86820055 Ry
     estimated scf accuracy    <       1.30899298 Ry

     iteration # 25     ecut=    29.40 Ry     beta= 0.05
     Davidson diagonalization with overlap
     c_bands:  1 eigenvalues not converged
     c_bands:  3 eigenvalues not converged
     c_bands:  1 eigenvalues not converged
     ethr =  3.32E-04,  avg # of iterations = 14.3

     negative rho (up, down):  1.379E-01 0.000E+00
 
     Adding external electric field

     Computed dipole along edir(3) : 
        Dipole               -1.9998 Ry au,         -5.0829 Debye
        Dipole field         -0.0038 Ry au, 
 
        Potential amp.        0.3498 Ry
        Total length         46.3494 bohr
 

     total cpu time spent up to now is      485.1 secs

     total energy              =   -2937.93599485 Ry
     estimated scf accuracy    <       1.60321041 Ry

     iteration # 26     ecut=    29.40 Ry     beta= 0.05
     Davidson diagonalization with overlap
     ethr =  3.32E-04,  avg # of iterations =  1.5

     negative rho (up, down):  1.293E-01 0.000E+00
 
     Adding external electric field

     Computed dipole along edir(3) : 
        Dipole               -1.8093 Ry au,         -4.5988 Debye
        Dipole field         -0.0034 Ry au, 
 
        Potential amp.        0.3165 Ry
        Total length         46.3494 bohr
 

     total cpu time spent up to now is      495.1 secs

     total energy              =   -2937.88271455 Ry
     estimated scf accuracy    <       1.43667217 Ry

     iteration # 27     ecut=    29.40 Ry     beta= 0.05
     Davidson diagonalization with overlap
     ethr =  3.32E-04,  avg # of iterations =  1.4

     negative rho (up, down):  9.903E-02 0.000E+00
 
     Adding external electric field

     Computed dipole along edir(3) : 
        Dipole               -0.6378 Ry au,         -1.6211 Debye
        Dipole field         -0.0012 Ry au, 
 
        Potential amp.        0.1116 Ry
        Total length         46.3494 bohr
 

     total cpu time spent up to now is      505.4 secs

     total energy              =   -2937.74387329 Ry
     estimated scf accuracy    <       1.53339638 Ry

     iteration # 28     ecut=    29.40 Ry     beta= 0.05
     Davidson diagonalization with overlap
     c_bands:  2 eigenvalues not converged
     c_bands:  2 eigenvalues not converged
     c_bands:  2 eigenvalues not converged
     c_bands:  4 eigenvalues not converged
     c_bands:  1 eigenvalues not converged
     c_bands:  2 eigenvalues not converged
     c_bands:  2 eigenvalues not converged
     ethr =  3.32E-04,  avg # of iterations = 19.6

     negative rho (up, down):  1.037E-01 0.000E+00
 
     Adding external electric field

     Computed dipole along edir(3) : 
        Dipole               -0.9868 Ry au,         -2.5083 Debye
        Dipole field         -0.0019 Ry au, 
 
        Potential amp.        0.1726 Ry
        Total length         46.3494 bohr
 

     total cpu time spent up to now is      525.3 secs

     total energy              =   -2937.85893978 Ry
     estimated scf accuracy    <       2.77957985 Ry

     iteration # 29     ecut=    29.40 Ry     beta= 0.05
     Davidson diagonalization with overlap
     ethr =  3.32E-04,  avg # of iterations =  6.7

     negative rho (up, down):  1.158E-01 0.000E+00
 
     Adding external electric field

     Computed dipole along edir(3) : 
        Dipole               -1.5967 Ry au,         -4.0583 Debye
        Dipole field         -0.0030 Ry au, 
 
        Potential amp.        0.2793 Ry
        Total length         46.3494 bohr
 

     total cpu time spent up to now is      537.3 secs

     total energy              =   -2937.72288287 Ry
     estimated scf accuracy    <       1.15104231 Ry

     iteration # 30     ecut=    29.40 Ry     beta= 0.05
     Davidson diagonalization with overlap
     c_bands:  2 eigenvalues not converged
     c_bands:  4 eigenvalues not converged
     c_bands:  1 eigenvalues not converged
     c_bands:  2 eigenvalues not converged
     c_bands:  2 eigenvalues not converged
     c_bands:  3 eigenvalues not converged
     c_bands:  2 eigenvalues not converged
     ethr =  2.92E-04,  avg # of iterations = 19.9

     negative rho (up, down):  1.155E-01 0.000E+00
 
     Adding external electric field

     Computed dipole along edir(3) : 
        Dipole               -1.2133 Ry au,         -3.0840 Debye
        Dipole field         -0.0023 Ry au, 
 
        Potential amp.        0.2123 Ry
        Total length         46.3494 bohr
 

     total cpu time spent up to now is      559.3 secs

     total energy              =   -2937.89097396 Ry
     estimated scf accuracy    <       4.57787744 Ry

     iteration # 31     ecut=    29.40 Ry     beta= 0.05
     Davidson diagonalization with overlap
     ethr =  2.92E-04,  avg # of iterations =  6.4

     negative rho (up, down):  8.712E-02 0.000E+00
 
     Adding external electric field

     Computed dipole along edir(3) : 
        Dipole               -0.0844 Ry au,         -0.2144 Debye
        Dipole field         -0.0002 Ry au, 
 
        Potential amp.        0.0148 Ry
        Total length         46.3494 bohr
 

     total cpu time spent up to now is      571.5 secs

     total energy              =   -2937.73274386 Ry
     estimated scf accuracy    <       2.38778749 Ry

     iteration # 32     ecut=    29.40 Ry     beta= 0.05
     Davidson diagonalization with overlap
     c_bands:  3 eigenvalues not converged
     c_bands:  1 eigenvalues not converged
     c_bands:  2 eigenvalues not converged
     c_bands:  1 eigenvalues not converged
     c_bands:  1 eigenvalues not converged
     c_bands:  2 eigenvalues not converged
     ethr =  2.92E-04,  avg # of iterations = 19.0

     negative rho (up, down):  8.303E-02 0.000E+00
 
     Adding external electric field

     Computed dipole along edir(3) : 
        Dipole                0.2805 Ry au,          0.7131 Debye
        Dipole field          0.0005 Ry au, 
 
        Potential amp.       -0.0491 Ry
        Total length         46.3494 bohr
 

     total cpu time spent up to now is      589.7 secs

     total energy              =   -2937.80133235 Ry
     estimated scf accuracy    <       0.67451045 Ry

     iteration # 33     ecut=    29.40 Ry     beta= 0.05
     Davidson diagonalization with overlap
     c_bands:  2 eigenvalues not converged
     ethr =  1.71E-04,  avg # of iterations =  5.3

     negative rho (up, down):  8.084E-02 0.000E+00
 
     Adding external electric field

     Computed dipole along edir(3) : 
        Dipole                0.1945 Ry au,          0.4944 Debye
        Dipole field          0.0004 Ry au, 
 
        Potential amp.       -0.0340 Ry
        Total length         46.3494 bohr
 

     total cpu time spent up to now is      601.3 secs

     total energy              =   -2937.81670466 Ry
     estimated scf accuracy    <       0.44123912 Ry

     iteration # 34     ecut=    29.40 Ry     beta= 0.05
     Davidson diagonalization with overlap
     c_bands:  2 eigenvalues not converged
     ethr =  1.12E-04,  avg # of iterations = 15.9

     negative rho (up, down):  7.531E-02 0.000E+00
 
     Adding external electric field

     Computed dipole along edir(3) : 
        Dipole                0.2213 Ry au,          0.5626 Debye
        Dipole field          0.0004 Ry au, 
 
        Potential amp.       -0.0387 Ry
        Total length         46.3494 bohr
 

     total cpu time spent up to now is      617.0 secs

     total energy              =   -2937.83915530 Ry
     estimated scf accuracy    <       0.95154898 Ry

     iteration # 35     ecut=    29.40 Ry     beta= 0.05
     Davidson diagonalization with overlap
     ethr =  1.12E-04,  avg # of iterations =  2.5

     negative rho (up, down):  4.133E-02 0.000E+00
 
     Adding external electric field

     Computed dipole along edir(3) : 
        Dipole                0.8110 Ry au,          2.0613 Debye
        Dipole field          0.0015 Ry au, 
 
        Potential amp.       -0.1419 Ry
        Total length         46.3494 bohr
 

     total cpu time spent up to now is      627.4 secs

     total energy              =   -2937.77988044 Ry
     estimated scf accuracy    <       1.01763325 Ry

     iteration # 36     ecut=    29.40 Ry     beta= 0.05
     Davidson diagonalization with overlap
     c_bands:  1 eigenvalues not converged
     c_bands:  1 eigenvalues not converged
     c_bands:  1 eigenvalues not converged
     c_bands:  1 eigenvalues not converged
     c_bands:  3 eigenvalues not converged
     c_bands:  2 eigenvalues not converged
     ethr =  1.12E-04,  avg # of iterations = 15.1

     negative rho (up, down):  4.155E-02 0.000E+00
 
     Adding external electric field

     Computed dipole along edir(3) : 
        Dipole                0.7556 Ry au,          1.9207 Debye
        Dipole field          0.0014 Ry au, 
 
        Potential amp.       -0.1322 Ry
        Total length         46.3494 bohr
 

     total cpu time spent up to now is      643.6 secs

     total energy              =   -2937.81094907 Ry
     estimated scf accuracy    <       0.55408689 Ry

     iteration # 37     ecut=    29.40 Ry     beta= 0.05
     Davidson diagonalization with overlap
     ethr =  1.12E-04,  avg # of iterations =  2.7

     negative rho (up, down):  4.302E-02 0.000E+00
 
     Adding external electric field

     Computed dipole along edir(3) : 
        Dipole                0.6898 Ry au,          1.7532 Debye
        Dipole field          0.0013 Ry au, 
 
        Potential amp.       -0.1207 Ry
        Total length         46.3494 bohr
 

     total cpu time spent up to now is      654.2 secs

     total energy              =   -2937.81035320 Ry
     estimated scf accuracy    <       0.41380252 Ry

     iteration # 38     ecut=    29.40 Ry     beta= 0.05
     Davidson diagonalization with overlap
     ethr =  1.05E-04,  avg # of iterations =  1.0

     negative rho (up, down):  4.301E-02 0.000E+00
 
     Adding external electric field

     Computed dipole along edir(3) : 
        Dipole                0.7950 Ry au,          2.0208 Debye
        Dipole field          0.0015 Ry au, 
 
        Potential amp.       -0.1391 Ry
        Total length         46.3494 bohr
 

     total cpu time spent up to now is      664.1 secs

     total energy              =   -2937.80935165 Ry
     estimated scf accuracy    <       0.14750203 Ry

     iteration # 39     ecut=    29.40 Ry     beta= 0.05
     Davidson diagonalization with overlap
     c_bands:  4 eigenvalues not converged
     c_bands:  5 eigenvalues not converged
     c_bands:  3 eigenvalues not converged
     ethr =  3.74E-05,  avg # of iterations = 12.9

     negative rho (up, down):  5.124E-02 0.000E+00
 
     Adding external electric field

     Computed dipole along edir(3) : 
        Dipole                0.6161 Ry au,          1.5659 Debye
        Dipole field          0.0012 Ry au, 
 
        Potential amp.       -0.1078 Ry
        Total length         46.3494 bohr
 

     total cpu time spent up to now is      679.1 secs

     total energy              =   -2937.78197235 Ry
     estimated scf accuracy    <       0.86410552 Ry

     iteration # 40     ecut=    29.40 Ry     beta= 0.05
     Davidson diagonalization with overlap
     c_bands:  1 eigenvalues not converged
     c_bands:  1 eigenvalues not converged
     ethr =  3.74E-05,  avg # of iterations = 11.4

     negative rho (up, down):  3.043E-02 0.000E+00
 
     Adding external electric field

     Computed dipole along edir(3) : 
        Dipole                0.9297 Ry au,          2.3631 Debye
        Dipole field          0.0018 Ry au, 
 
        Potential amp.       -0.1626 Ry
        Total length         46.3494 bohr
 

     total cpu time spent up to now is      692.9 secs

     total energy              =   -2937.80518852 Ry
     estimated scf accuracy    <       0.13397903 Ry

     iteration # 41     ecut=    29.40 Ry     beta= 0.05
     Davidson diagonalization with overlap
     ethr =  3.40E-05,  avg # of iterations =  8.4

     negative rho (up, down):  2.711E-02 0.000E+00
 
     Adding external electric field

     Computed dipole along edir(3) : 
        Dipole                1.0234 Ry au,          2.6013 Debye
        Dipole field          0.0019 Ry au, 
 
        Potential amp.       -0.1790 Ry
        Total length         46.3494 bohr
 

     total cpu time spent up to now is      705.4 secs

     total energy              =   -2937.80499382 Ry
     estimated scf accuracy    <       0.03405393 Ry

     iteration # 42     ecut=    29.40 Ry     beta= 0.05
     Davidson diagonalization with overlap
     c_bands:  2 eigenvalues not converged
     c_bands:  2 eigenvalues not converged
     c_bands:  2 eigenvalues not converged
     c_bands:  1 eigenvalues not converged
     ethr =  8.64E-06,  avg # of iterations = 16.2

     negative rho (up, down):  2.895E-02 0.000E+00
 
     Adding external electric field

     Computed dipole along edir(3) : 
        Dipole                1.0032 Ry au,          2.5500 Debye
        Dipole field          0.0019 Ry au, 
 
        Potential amp.       -0.1755 Ry
        Total length         46.3494 bohr
 

     total cpu time spent up to now is      722.0 secs

     total energy              =   -2937.80699878 Ry
     estimated scf accuracy    <       0.04919087 Ry

     iteration # 43     ecut=    29.40 Ry     beta= 0.05
     Davidson diagonalization with overlap
     ethr =  8.64E-06,  avg # of iterations =  5.2

     negative rho (up, down):  2.413E-02 0.000E+00
 
     Adding external electric field

     Computed dipole along edir(3) : 
        Dipole                1.1070 Ry au,          2.8137 Debye
        Dipole field          0.0021 Ry au, 
 
        Potential amp.       -0.1937 Ry
        Total length         46.3494 bohr
 

     total cpu time spent up to now is      733.5 secs

     total energy              =   -2937.80719734 Ry
     estimated scf accuracy    <       0.01595467 Ry

     iteration # 44     ecut=    29.40 Ry     beta= 0.05
     Davidson diagonalization with overlap
     c_bands:  1 eigenvalues not converged
     c_bands:  3 eigenvalues not converged
     c_bands:  1 eigenvalues not converged
     ethr =  4.05E-06,  avg # of iterations =  9.2

     negative rho (up, down):  2.214E-02 0.000E+00
 
     Adding external electric field

     Computed dipole along edir(3) : 
        Dipole                1.1885 Ry au,          3.0210 Debye
        Dipole field          0.0022 Ry au, 
 
        Potential amp.       -0.2079 Ry
        Total length         46.3494 bohr
 

     total cpu time spent up to now is      746.4 secs

     total energy              =   -2937.80793579 Ry
     estimated scf accuracy    <       0.00382176 Ry

     iteration # 45     ecut=    29.40 Ry     beta= 0.05
     Davidson diagonalization with overlap
     c_bands:  1 eigenvalues not converged
     c_bands:  1 eigenvalues not converged
     c_bands:  2 eigenvalues not converged
     c_bands:  1 eigenvalues not converged
     c_bands:  1 eigenvalues not converged
     c_bands:  1 eigenvalues not converged
     ethr =  9.70E-07,  avg # of iterations = 18.0

     negative rho (up, down):  2.035E-02 0.000E+00
 
     Adding external electric field

     Computed dipole along edir(3) : 
        Dipole                1.1848 Ry au,          3.0116 Debye
        Dipole field          0.0022 Ry au, 
 
        Potential amp.       -0.2073 Ry
        Total length         46.3494 bohr
 

     total cpu time spent up to now is      766.9 secs

     total energy              =   -2937.80779526 Ry
     estimated scf accuracy    <       0.02053493 Ry

     iteration # 46     ecut=    29.40 Ry     beta= 0.05
     Davidson diagonalization with overlap
     c_bands:  1 eigenvalues not converged
     c_bands:  1 eigenvalues not converged
     c_bands:  1 eigenvalues not converged
     ethr =  9.70E-07,  avg # of iterations = 13.1

     negative rho (up, down):  1.870E-02 0.000E+00
 
     Adding external electric field

     Computed dipole along edir(3) : 
        Dipole                1.2301 Ry au,          3.1267 Debye
        Dipole field          0.0023 Ry au, 
 
        Potential amp.       -0.2152 Ry
        Total length         46.3494 bohr
 

     total cpu time spent up to now is      781.8 secs

     total energy              =   -2937.80812062 Ry
     estimated scf accuracy    <       0.00364545 Ry

     iteration # 47     ecut=    29.40 Ry     beta= 0.05
     Davidson diagonalization with overlap
     ethr =  9.25E-07,  avg # of iterations = 10.7

     negative rho (up, down):  1.874E-02 0.000E+00
 
     Adding external electric field

     Computed dipole along edir(3) : 
        Dipole                1.2539 Ry au,          3.1871 Debye
        Dipole field          0.0024 Ry au, 
 
        Potential amp.       -0.2193 Ry
        Total length         46.3494 bohr
 

     total cpu time spent up to now is      795.5 secs

     total energy              =   -2937.80829188 Ry
     estimated scf accuracy    <       0.00101445 Ry

     iteration # 48     ecut=    29.40 Ry     beta= 0.05
     Davidson diagonalization with overlap
     c_bands:  1 eigenvalues not converged
     c_bands:  1 eigenvalues not converged
     c_bands:  1 eigenvalues not converged
     c_bands:  1 eigenvalues not converged
     ethr =  2.57E-07,  avg # of iterations = 14.0

     negative rho (up, down):  1.852E-02 0.000E+00
 
     Adding external electric field

     Computed dipole along edir(3) : 
        Dipole                1.2728 Ry au,          3.2351 Debye
        Dipole field          0.0024 Ry au, 
 
        Potential amp.       -0.2227 Ry
        Total length         46.3494 bohr
 

     total cpu time spent up to now is      811.3 secs

     total energy              =   -2937.80836819 Ry
     estimated scf accuracy    <       0.00079937 Ry

     iteration # 49     ecut=    29.40 Ry     beta= 0.05
     Davidson diagonalization with overlap
     c_bands:  1 eigenvalues not converged
     ethr =  2.03E-07,  avg # of iterations = 12.8

     negative rho (up, down):  1.796E-02 0.000E+00
 
     Adding external electric field

     Computed dipole along edir(3) : 
        Dipole                1.2874 Ry au,          3.2724 Debye
        Dipole field          0.0024 Ry au, 
 
        Potential amp.       -0.2252 Ry
        Total length         46.3494 bohr
 

     total cpu time spent up to now is      825.4 secs

     total energy              =   -2937.80840366 Ry
     estimated scf accuracy    <       0.00037881 Ry

     iteration # 50     ecut=    29.40 Ry     beta= 0.05
     Davidson diagonalization with overlap
     ethr =  9.61E-08,  avg # of iterations = 14.4

     negative rho (up, down):  1.794E-02 0.000E+00
 
     Adding external electric field

     Computed dipole along edir(3) : 
        Dipole                1.2936 Ry au,          3.2880 Debye
        Dipole field          0.0024 Ry au, 
 
        Potential amp.       -0.2263 Ry
        Total length         46.3494 bohr
 

     total cpu time spent up to now is      843.0 secs

     total energy              =   -2937.80846481 Ry
     estimated scf accuracy    <       0.00035209 Ry

     iteration # 51     ecut=    29.40 Ry     beta= 0.05
     Davidson diagonalization with overlap
     ethr =  8.94E-08,  avg # of iterations =  1.9

     negative rho (up, down):  1.768E-02 0.000E+00
 
     Adding external electric field

     Computed dipole along edir(3) : 
        Dipole                1.2844 Ry au,          3.2645 Debye
        Dipole field          0.0024 Ry au, 
 
        Potential amp.       -0.2247 Ry
        Total length         46.3494 bohr
 

     total cpu time spent up to now is      853.7 secs

     total energy              =   -2937.80840352 Ry
     estimated scf accuracy    <       0.00025740 Ry

     iteration # 52     ecut=    29.40 Ry     beta= 0.05
     Davidson diagonalization with overlap
     c_bands:  1 eigenvalues not converged
     c_bands:  1 eigenvalues not converged
     ethr =  6.53E-08,  avg # of iterations = 13.9

     negative rho (up, down):  1.735E-02 0.000E+00
 
     Adding external electric field

     Computed dipole along edir(3) : 
        Dipole                1.2886 Ry au,          3.2753 Debye
        Dipole field          0.0024 Ry au, 
 
        Potential amp.       -0.2254 Ry
        Total length         46.3494 bohr
 

     total cpu time spent up to now is      873.2 secs

     total energy              =   -2937.80847112 Ry
     estimated scf accuracy    <       0.00061473 Ry

     iteration # 53     ecut=    29.40 Ry     beta= 0.05
     Davidson diagonalization with overlap
     ethr =  6.53E-08,  avg # of iterations =  6.6

     negative rho (up, down):  1.711E-02 0.000E+00
 
     Adding external electric field

     Computed dipole along edir(3) : 
        Dipole                1.2962 Ry au,          3.2945 Debye
        Dipole field          0.0024 Ry au, 
 
        Potential amp.       -0.2267 Ry
        Total length         46.3494 bohr
 

     total cpu time spent up to now is      885.4 secs

     total energy              =   -2937.80847052 Ry
     estimated scf accuracy    <       0.00024855 Ry

     iteration # 54     ecut=    29.40 Ry     beta= 0.05
     Davidson diagonalization with overlap
     ethr =  6.31E-08,  avg # of iterations =  9.6

     negative rho (up, down):  1.727E-02 0.000E+00
 
     Adding external electric field

     Computed dipole along edir(3) : 
        Dipole                1.3020 Ry au,          3.3093 Debye
        Dipole field          0.0025 Ry au, 
 
        Potential amp.       -0.2278 Ry
        Total length         46.3494 bohr
 

     total cpu time spent up to now is      900.2 secs

     total energy              =   -2937.80850564 Ry
     estimated scf accuracy    <       0.00008812 Ry

     iteration # 55     ecut=    29.40 Ry     beta= 0.05
     Davidson diagonalization with overlap
     ethr =  2.24E-08,  avg # of iterations = 10.4

     negative rho (up, down):  1.705E-02 0.000E+00
 
     Adding external electric field

     Computed dipole along edir(3) : 
        Dipole                1.2999 Ry au,          3.3041 Debye
        Dipole field          0.0025 Ry au, 
 
        Potential amp.       -0.2274 Ry
        Total length         46.3494 bohr
 

     total cpu time spent up to now is      914.1 secs

     total energy              =   -2937.80851167 Ry
     estimated scf accuracy    <       0.00005796 Ry

     iteration # 56     ecut=    29.40 Ry     beta= 0.05
     Davidson diagonalization with overlap
     ethr =  1.47E-08,  avg # of iterations = 10.8

     negative rho (up, down):  1.677E-02 0.000E+00
 
     Adding external electric field

     Computed dipole along edir(3) : 
        Dipole                1.2943 Ry au,          3.2898 Debye
        Dipole field          0.0024 Ry au, 
 
        Potential amp.       -0.2264 Ry
        Total length         46.3494 bohr
 

     total cpu time spent up to now is      929.6 secs

     total energy              =   -2937.80851382 Ry
     estimated scf accuracy    <       0.00005389 Ry

     iteration # 57     ecut=    29.40 Ry     beta= 0.05
     Davidson diagonalization with overlap
     ethr =  1.37E-08,  avg # of iterations =  8.0

     negative rho (up, down):  1.666E-02 0.000E+00
 
     Adding external electric field

     Computed dipole along edir(3) : 
        Dipole                1.2911 Ry au,          3.2816 Debye
        Dipole field          0.0024 Ry au, 
 
        Potential amp.       -0.2259 Ry
        Total length         46.3494 bohr
 

     total cpu time spent up to now is      942.7 secs

     total energy              =   -2937.80852319 Ry
     estimated scf accuracy    <       0.00001145 Ry

     iteration # 58     ecut=    29.40 Ry     beta= 0.05
     Davidson diagonalization with overlap
     c_bands:  1 eigenvalues not converged
     c_bands:  1 eigenvalues not converged
     ethr =  2.91E-09,  avg # of iterations = 14.6

     negative rho (up, down):  1.664E-02 0.000E+00
 
     Adding external electric field

     Computed dipole along edir(3) : 
        Dipole                1.2910 Ry au,          3.2814 Debye
        Dipole field          0.0024 Ry au, 
 
        Potential amp.       -0.2258 Ry
        Total length         46.3494 bohr
 

     total cpu time spent up to now is      961.8 secs

     total energy              =   -2937.80853022 Ry
     estimated scf accuracy    <       0.00001333 Ry

     iteration # 59     ecut=    29.40 Ry     beta= 0.05
     Davidson diagonalization with overlap
     ethr =  2.91E-09,  avg # of iterations =  1.5

     negative rho (up, down):  1.649E-02 0.000E+00
 
     Adding external electric field

     Computed dipole along edir(3) : 
        Dipole                1.2934 Ry au,          3.2874 Debye
        Dipole field          0.0024 Ry au, 
 
        Potential amp.       -0.2263 Ry
        Total length         46.3494 bohr
 

     total cpu time spent up to now is      972.2 secs

     total energy              =   -2937.80853530 Ry
     estimated scf accuracy    <       0.00001242 Ry

     iteration # 60     ecut=    29.40 Ry     beta= 0.05
     Davidson diagonalization with overlap
     c_bands:  1 eigenvalues not converged
     ethr =  2.91E-09,  avg # of iterations = 10.1

     negative rho (up, down):  1.640E-02 0.000E+00
 
     Adding external electric field

     Computed dipole along edir(3) : 
        Dipole                1.2948 Ry au,          3.2910 Debye
        Dipole field          0.0024 Ry au, 
 
        Potential amp.       -0.2265 Ry
        Total length         46.3494 bohr
 

     total cpu time spent up to now is      987.4 secs

     total energy              =   -2937.80854133 Ry
     estimated scf accuracy    <       0.00000629 Ry

     iteration # 61     ecut=    29.40 Ry     beta= 0.05
     Davidson diagonalization with overlap
     ethr =  1.60E-09,  avg # of iterations =  6.9

     negative rho (up, down):  1.636E-02 0.000E+00
 
     Adding external electric field

     Computed dipole along edir(3) : 
        Dipole                1.2954 Ry au,          3.2927 Debye
        Dipole field          0.0024 Ry au, 
 
        Potential amp.       -0.2266 Ry
        Total length         46.3494 bohr
 

     total cpu time spent up to now is     1000.0 secs

     total energy              =   -2937.80854603 Ry
     estimated scf accuracy    <       0.00000216 Ry

     iteration # 62     ecut=    29.40 Ry     beta= 0.05
     Davidson diagonalization with overlap
     c_bands:  1 eigenvalues not converged
     ethr =  5.48E-10,  avg # of iterations = 14.9

     negative rho (up, down):  1.635E-02 0.000E+00
 
     Adding external electric field

     Computed dipole along edir(3) : 
        Dipole                1.2947 Ry au,          3.2908 Debye
        Dipole field          0.0024 Ry au, 
 
        Potential amp.       -0.2265 Ry
        Total length         46.3494 bohr
 

     total cpu time spent up to now is     1019.1 secs

     total energy              =   -2937.80855019 Ry
     estimated scf accuracy    <       0.00000131 Ry

     iteration # 63     ecut=    29.40 Ry     beta= 0.05
     Davidson diagonalization with overlap
     ethr =  3.33E-10,  avg # of iterations =  9.6

     negative rho (up, down):  1.632E-02 0.000E+00
 
     Adding external electric field

     Computed dipole along edir(3) : 
        Dipole                1.2939 Ry au,          3.2888 Debye
        Dipole field          0.0024 Ry au, 
 
        Potential amp.       -0.2263 Ry
        Total length         46.3494 bohr
 

     total cpu time spent up to now is     1032.2 secs

     total energy              =   -2937.80855382 Ry
     estimated scf accuracy    <       0.00000087 Ry

     iteration # 64     ecut=    29.40 Ry     beta= 0.05
     Davidson diagonalization with overlap
     c_bands:  1 eigenvalues not converged
     ethr =  2.20E-10,  avg # of iterations = 10.9

     negative rho (up, down):  1.630E-02 0.000E+00
 
     Adding external electric field

     Computed dipole along edir(3) : 
        Dipole                1.2938 Ry au,          3.2886 Debye
        Dipole field          0.0024 Ry au, 
 
        Potential amp.       -0.2263 Ry
        Total length         46.3494 bohr
 

     total cpu time spent up to now is     1046.3 secs

     total energy              =   -2937.80855715 Ry
     estimated scf accuracy    <       0.00000062 Ry

     iteration # 65     ecut=    29.40 Ry     beta= 0.05
     Davidson diagonalization with overlap
     ethr =  1.57E-10,  avg # of iterations =  7.7

     negative rho (up, down):  1.625E-02 0.000E+00
 
     Adding external electric field

     Computed dipole along edir(3) : 
        Dipole                1.2944 Ry au,          3.2900 Debye
        Dipole field          0.0024 Ry au, 
 
        Potential amp.       -0.2264 Ry
        Total length         46.3494 bohr
 

     total cpu time spent up to now is     1058.9 secs

     total energy              =   -2937.80856028 Ry
     estimated scf accuracy    <       0.00000090 Ry

     iteration # 66     ecut=    29.40 Ry     beta= 0.05
     Davidson diagonalization with overlap
     c_bands:  1 eigenvalues not converged
     ethr =  1.57E-10,  avg # of iterations =  9.8

     negative rho (up, down):  1.625E-02 0.000E+00
 
     Adding external electric field

     Computed dipole along edir(3) : 
        Dipole                1.2946 Ry au,          3.2905 Debye
        Dipole field          0.0024 Ry au, 
 
        Potential amp.       -0.2265 Ry
        Total length         46.3494 bohr
 

     total cpu time spent up to now is     1073.6 secs

     total energy              =   -2937.80856294 Ry
     estimated scf accuracy    <       0.00000031 Ry

     iteration # 67     ecut=    29.40 Ry     beta= 0.05
     Davidson diagonalization with overlap
     ethr =  7.96E-11,  avg # of iterations =  8.2

     negative rho (up, down):  1.625E-02 0.000E+00
 
     Adding external electric field

     Computed dipole along edir(3) : 
        Dipole                1.2946 Ry au,          3.2907 Debye
        Dipole field          0.0024 Ry au, 
 
        Potential amp.       -0.2265 Ry
        Total length         46.3494 bohr
 

     total cpu time spent up to now is     1088.4 secs

     total energy              =   -2937.80856537 Ry
     estimated scf accuracy    <       0.00000013 Ry

     iteration # 68     ecut=    29.40 Ry     beta= 0.05
     Davidson diagonalization with overlap
     ethr =  3.21E-11,  avg # of iterations =  8.6

     negative rho (up, down):  1.624E-02 0.000E+00
 
     Adding external electric field

     Computed dipole along edir(3) : 
        Dipole                1.2945 Ry au,          3.2902 Debye
        Dipole field          0.0024 Ry au, 
 
        Potential amp.       -0.2265 Ry
        Total length         46.3494 bohr
 

     total cpu time spent up to now is     1101.6 secs

     total energy              =   -2937.80856756 Ry
     estimated scf accuracy    <       0.00000010 Ry

     iteration # 69     ecut=    29.40 Ry     beta= 0.05
     Davidson diagonalization with overlap
     ethr =  2.66E-11,  avg # of iterations = 10.1

     negative rho (up, down):  1.628E-02 0.000E+00
 
     Adding external electric field

     Computed dipole along edir(3) : 
        Dipole                1.2945 Ry au,          3.2903 Debye
        Dipole field          0.0024 Ry au, 
 
        Potential amp.       -0.2265 Ry
        Total length         46.3494 bohr
 

     total cpu time spent up to now is     1116.2 secs

     End of self-consistent calculation

          k = 0.0000 0.0000 0.0000 ( 18029 PWs)   bands (ev):

   -55.4337 -55.3977 -55.3976 -55.3635 -55.3273 -55.3113 -55.2683 -55.2466
   -55.2426 -55.2317 -55.2240 -55.2121 -55.1907 -55.1647 -54.4161 -54.3820
   -32.0027 -31.8882 -31.8281 -31.7971 -31.7532 -31.7455 -31.7359 -31.7269
   -31.6872 -31.6805 -31.6428 -31.6421 -31.6348 -31.6074 -31.5881 -31.5698
   -31.5658 -31.5594 -31.5509 -31.5453 -31.5109 -31.5097 -31.5001 -31.4915
   -31.4770 -31.4546 -31.4489 -31.4480 -31.4423 -31.4381 -31.4350 -31.4208
   -31.4128 -31.4066 -31.4008 -31.3958 -31.3751 -31.3612 -31.3594 -31.3534
   -31.3327 -31.2717 -30.8249 -30.7320 -30.7099 -30.6414 -30.5547 -30.4437
   -20.2351 -16.2486 -15.9763 -15.8327 -15.7091 -15.6243 -15.4976 -15.4594
   -15.3456 -15.3391 -15.2259 -15.1506 -15.0836 -15.0815 -15.0644 -15.0366
   -14.9864 -14.9691 -14.9666 -14.9243 -14.9221 -14.8801 -14.8606 -14.8265
   -14.8088 -14.7897 -14.7731 -14.6500 -14.5805 -14.5218 -14.1617 -12.9186
   -12.8014  -8.8152  -7.1595  -5.4332  -4.7226  -3.5936  -3.4337  -3.3469
    -3.3304  -3.3286  -3.1618  -3.0341  -2.8065  -2.7702  -2.6951  -2.6407
    -2.6228  -2.6010  -2.4233  -2.3989  -2.3393  -2.3123  -2.2745  -2.2442
    -2.2192  -2.2006  -2.1919  -2.1733  -2.1600  -1.9988  -1.9002  -1.8698
    -1.8338  -1.8196  -1.7601  -1.7271  -1.7213  -1.7192  -1.7102  -1.6670
    -1.6481  -1.5995  -1.4984  -1.4686  -1.4444  -1.3175  -1.2998  -1.1520
    -1.0665  -0.9819  -0.9745  -0.9078  -0.9030  -0.8693  -0.8177  -0.7938
    -0.7692  -0.6359  -0.5663  -0.5101  -0.4931  -0.4484  -0.4031  -0.3673
    -0.2743  -0.2095  -0.2018  -0.1899  -0.0252  -0.0112   0.0361   0.0855
     0.1096   0.1589   0.1832   0.2534   0.2871   0.3329   0.3631   0.4599
     0.4991   0.5199   0.5335   0.5532   0.5655   0.6256   0.6928   0.7114
     0.7595   0.8150   0.9275   1.1243   1.1871   1.1999   1.5164   1.5504
     1.6066   1.7919   2.1816   2.2293   3.6663   3.7378   3.8015   3.8166
     3.8252   3.9018   4.0783   4.1495   4.1651   4.1717   4.1830

          k = 0.0000 0.0419 0.0000 ( 17933 PWs)   bands (ev):

   -55.4284 -55.4029 -55.3925 -55.3684 -55.3256 -55.3075 -55.2719 -55.2416
   -55.2406 -55.2331 -55.2191 -55.2171 -55.1954 -55.1667 -54.4110 -54.3869
   -31.9455 -31.8342 -31.7907 -31.7428 -31.7421 -31.6960 -31.6873 -31.6861
   -31.6823 -31.6819 -31.6623 -31.6341 -31.6315 -31.6227 -31.6081 -31.5796
   -31.5665 -31.5554 -31.5509 -31.5369 -31.5309 -31.5073 -31.5014 -31.4864
   -31.4729 -31.4704 -31.4686 -31.4559 -31.4553 -31.4524 -31.4519 -31.4443
   -31.4172 -31.4155 -31.4124 -31.4112 -31.3981 -31.3923 -31.3878 -31.3690
   -31.3624 -31.3135 -30.7707 -30.7286 -30.7129 -30.6288 -30.5673 -30.5009
   -20.2346 -16.1172 -15.8589 -15.7354 -15.6414 -15.5165 -15.4658 -15.4151
   -15.3598 -15.3265 -15.2770 -15.2158 -15.1632 -15.1055 -15.0662 -15.0298
   -14.9908 -14.9798 -14.9343 -14.9217 -14.9095 -14.8857 -14.8757 -14.8656
   -14.8268 -14.8163 -14.7889 -14.7064 -14.6364 -14.5811 -14.2815 -12.9223
   -12.8407  -8.8159  -7.1591  -5.4316  -4.7132  -3.4028  -3.2679  -3.1918
    -3.1727  -3.1533  -3.0155  -2.8068  -2.7521  -2.6714  -2.6534  -2.5681
    -2.5623  -2.5326  -2.4868  -2.4399  -2.4079  -2.4056  -2.3850  -2.3612
    -2.2966  -2.2822  -2.2196  -2.1997  -2.1631  -2.1460  -2.0160  -1.9933
    -1.9753  -1.9728  -1.9142  -1.8788  -1.8579  -1.7641  -1.7279  -1.6848
    -1.5983  -1.5008  -1.3892  -1.3551  -1.3389  -1.2081  -1.1736  -1.1265
    -1.0968  -0.9786  -0.9349  -0.8121  -0.7869  -0.7391  -0.6777  -0.6373
    -0.6082  -0.5652  -0.5588  -0.4600  -0.4192  -0.3962  -0.3686  -0.3277
    -0.2856  -0.2516  -0.2377  -0.2084  -0.1032  -0.0517  -0.0017   0.0061
     0.0569   0.0835   0.1095   0.1895   0.2431   0.2753   0.3088   0.3335
     0.3370   0.3812   0.4172   0.4424   0.5509   0.5843   0.6194   0.6926
     0.7016   0.7978   0.8683   0.8853   0.9680   1.0863   1.2169   1.4252
     1.7914   1.8688   2.1363   2.1399   3.8596   3.8811   3.8947   3.9504
     3.9923   4.0476   4.0712   4.0811   4.1135   4.1650   4.1929

          k = 0.0000-0.0839 0.0000 ( 17884 PWs)   bands (ev):

   -55.4168 -55.4144 -55.3805 -55.3804 -55.3240 -55.3028 -55.2766 -55.2385
   -55.2346 -55.2304 -55.2281 -55.2074 -55.2070 -55.1688 -54.3991 -54.3988
   -31.8071 -31.8043 -31.7460 -31.7261 -31.7018 -31.7017 -31.6910 -31.6724
   -31.6724 -31.6347 -31.6241 -31.6197 -31.6076 -31.6021 -31.5972 -31.5815
   -31.5542 -31.5519 -31.5470 -31.5418 -31.5400 -31.5167 -31.5082 -31.5039
   -31.5029 -31.5026 -31.4962 -31.4944 -31.4940 -31.4788 -31.4661 -31.4634
   -31.4623 -31.4607 -31.4529 -31.4154 -31.3939 -31.3923 -31.3878 -31.3873
   -31.3656 -31.3641 -30.7206 -30.7204 -30.6377 -30.6375 -30.5981 -30.5980
   -20.2342 -15.8287 -15.7675 -15.6108 -15.5676 -15.5031 -15.4449 -15.4188
   -15.3545 -15.3089 -15.2937 -15.2604 -15.2402 -15.1963 -15.1636 -15.0289
   -15.0242 -15.0105 -14.9234 -14.9209 -14.9173 -14.8471 -14.8395 -14.8336
   -14.8302 -14.7762 -14.7689 -14.7267 -14.7204 -14.6678 -14.4962 -12.9034
   -12.9034  -8.8166  -7.1588  -5.4300  -4.7059  -2.9797  -2.9352  -2.8922
    -2.8790  -2.8540  -2.8438  -2.8167  -2.7870  -2.7403  -2.7130  -2.7107
    -2.6054  -2.5793  -2.5738  -2.5474  -2.5312  -2.4647  -2.4182  -2.3817
    -2.3593  -2.3041  -2.2807  -2.2689  -2.2584  -2.2360  -2.1185  -2.1000
    -2.0573  -2.0086  -1.9380  -1.8711  -1.8246  -1.8027  -1.6597  -1.5455
    -1.4651  -1.4427  -1.3263  -1.2412  -1.2005  -1.1864  -1.1718  -0.9969
    -0.9183  -0.9042  -0.8968  -0.8798  -0.8402  -0.8191  -0.7892  -0.7839
    -0.7339  -0.6600  -0.6456  -0.5626  -0.4407  -0.3761  -0.2804  -0.2144
    -0.1910  -0.1496  -0.1438  -0.1170  -0.0562  -0.0400  -0.0355   0.0062
     0.0399   0.0773   0.0935   0.1004   0.1601   0.1822   0.2038   0.2368
     0.2669   0.3298   0.3398   0.3528   0.3561   0.3980   0.4257   0.5788
     0.7251   0.7813   0.7844   0.7882   0.9613   1.0355   1.1430   1.1791
     1.9335   1.9341   2.0722   2.0725   3.8713   3.9583   3.9729   3.9904
     3.9942   4.0758   4.1452   4.1473   4.2527   4.2698   4.2738

          k = 0.0380 0.0000 0.0000 ( 17913 PWs)   bands (ev):

   -55.4336 -55.3976 -55.3975 -55.3634 -55.3271 -55.3113 -55.2682 -55.2463
   -55.2425 -55.2317 -55.2242 -55.2120 -55.1906 -55.1646 -54.4160 -54.3819
   -32.0028 -31.8891 -31.8282 -31.8025 -31.7530 -31.7485 -31.7401 -31.7272
   -31.6869 -31.6803 -31.6420 -31.6348 -31.6254 -31.6074 -31.5878 -31.5633
   -31.5593 -31.5521 -31.5472 -31.5260 -31.5108 -31.5094 -31.5085 -31.5000
   -31.4767 -31.4546 -31.4486 -31.4486 -31.4457 -31.4380 -31.4277 -31.4219
   -31.4201 -31.4127 -31.4070 -31.3968 -31.3790 -31.3596 -31.3590 -31.3534
   -31.3333 -31.2717 -30.8244 -30.7355 -30.7079 -30.6412 -30.5546 -30.4435
   -20.2349 -16.1726 -15.8894 -15.8067 -15.6849 -15.5224 -15.5011 -15.4781
   -15.3610 -15.3424 -15.2266 -15.2006 -15.1884 -15.1490 -15.1139 -15.1081
   -15.0842 -15.0461 -15.0167 -14.9411 -14.8799 -14.8300 -14.8053 -14.7741
   -14.7617 -14.7236 -14.6754 -14.6599 -14.6503 -14.6105 -14.1605 -12.9153
   -12.8011  -8.8077  -7.1701  -5.4262  -4.7240  -3.4937  -3.2861  -3.1941
    -3.1092  -3.0674  -3.0364  -3.0145  -2.9439  -2.8024  -2.7921  -2.7463
    -2.6886  -2.5809  -2.5105  -2.4729  -2.3708  -2.3659  -2.2183  -2.1991
    -2.1755  -2.1093  -2.0951  -2.0637  -2.0265  -1.9720  -1.8965  -1.8312
    -1.8116  -1.7761  -1.7292  -1.7110  -1.6825  -1.6766  -1.6411  -1.6086
    -1.5420  -1.5127  -1.4679  -1.4421  -1.3636  -1.3090  -1.2409  -1.2083
    -1.0826  -1.0609  -1.0170  -0.9341  -0.9072  -0.8644  -0.8533  -0.8345
    -0.7738  -0.7453  -0.7411  -0.5390  -0.5121  -0.4391  -0.3906  -0.3548
    -0.3007  -0.2879  -0.2710  -0.1261  -0.0761  -0.0462  -0.0231   0.0380
     0.0723   0.1151   0.1725   0.1993   0.2440   0.2540   0.3007   0.3398
     0.3633   0.3762   0.4019   0.4386   0.5393   0.5585   0.6554   0.6617
     0.6748   0.8023   0.8170   0.9113   1.0438   1.2340   1.4112   1.5220
     1.6185   1.7608   2.0692   2.1465   3.6844   3.7609   3.9078   3.9817
     3.9849   4.0590   4.0655   4.1052   4.1386   4.1607   4.1790

          k = 0.0380 0.0419 0.0000 ( 17878 PWs)   bands (ev):

   -55.4283 -55.4028 -55.3925 -55.3684 -55.3256 -55.3075 -55.2719 -55.2413
   -55.2404 -55.2332 -55.2192 -55.2170 -55.1955 -55.1667 -54.4110 -54.3869
   -31.9456 -31.8350 -31.7909 -31.7491 -31.7421 -31.6989 -31.6885 -31.6867
   -31.6850 -31.6820 -31.6625 -31.6344 -31.6234 -31.6170 -31.6082 -31.5699
   -31.5666 -31.5508 -31.5434 -31.5337 -31.5140 -31.5074 -31.5024 -31.5011
   -31.4724 -31.4683 -31.4682 -31.4560 -31.4524 -31.4509 -31.4474 -31.4430
   -31.4281 -31.4218 -31.4131 -31.4080 -31.4044 -31.3985 -31.3874 -31.3743
   -31.3624 -31.3133 -30.7704 -30.7313 -30.7119 -30.6286 -30.5673 -30.5007
   -20.2345 -16.0475 -15.7767 -15.7345 -15.5943 -15.4678 -15.4296 -15.4145
   -15.3589 -15.3353 -15.2943 -15.2150 -15.1889 -15.1329 -15.1002 -15.0919
   -15.0806 -15.0120 -14.9939 -14.9673 -14.9242 -14.8684 -14.8543 -14.8184
   -14.7784 -14.7704 -14.7541 -14.7181 -14.6979 -14.6643 -14.2807 -12.9200
   -12.8410  -8.8082  -7.1697  -5.4283  -4.7127  -3.3182  -3.1265  -3.0272
    -2.9482  -2.9097  -2.8675  -2.8138  -2.7758  -2.6983  -2.6569  -2.5984
    -2.5368  -2.4950  -2.4652  -2.4445  -2.4081  -2.3522  -2.3238  -2.2908
    -2.2416  -2.2226  -2.2065  -2.1818  -2.1236  -2.1162  -2.0564  -1.9970
    -1.9434  -1.9166  -1.8745  -1.8415  -1.8167  -1.7509  -1.7006  -1.6216
    -1.5103  -1.4852  -1.4306  -1.4074  -1.2392  -1.2091  -1.1810  -1.1193
    -1.0558  -0.9905  -0.9295  -0.8958  -0.8460  -0.8162  -0.7829  -0.7736
    -0.6926  -0.6428  -0.6081  -0.5531  -0.5015  -0.4828  -0.4023  -0.3826
    -0.3423  -0.3211  -0.2531  -0.1919  -0.1763  -0.1402  -0.1073  -0.0709
    -0.0619  -0.0430   0.0174   0.0619   0.1294   0.1566   0.1767   0.2319
     0.2621   0.3082   0.3639   0.4213   0.5055   0.6073   0.6383   0.6845
     0.7532   0.7597   0.8363   0.9079   0.9869   1.0315   1.1679   1.3745
     1.8022   1.8724   2.0585   2.1215   3.8488   3.8652   3.8946   3.9718
     4.0142   4.0461   4.0907   4.1010   4.1834   4.2356   4.2529

          k = 0.0380-0.0839 0.0000 ( 17916 PWs)   bands (ev):

   -55.4168 -55.4144 -55.3805 -55.3804 -55.3240 -55.3028 -55.2767 -55.2384
   -55.2347 -55.2303 -55.2280 -55.2076 -55.2071 -55.1689 -54.3991 -54.3989
   -31.8074 -31.8045 -31.7463 -31.7262 -31.7026 -31.7025 -31.6911 -31.6725
   -31.6725 -31.6361 -31.6347 -31.6253 -31.6225 -31.5840 -31.5784 -31.5725
   -31.5594 -31.5568 -31.5515 -31.5410 -31.5362 -31.5176 -31.5092 -31.5049
   -31.5014 -31.5011 -31.4949 -31.4882 -31.4760 -31.4738 -31.4638 -31.4632
   -31.4610 -31.4606 -31.4538 -31.4204 -31.4059 -31.4043 -31.3879 -31.3873
   -31.3737 -31.3631 -30.7216 -30.7215 -30.6376 -30.6374 -30.5981 -30.5980
   -20.2340 -15.7815 -15.7287 -15.5875 -15.5162 -15.5010 -15.4093 -15.3672
   -15.3457 -15.2854 -15.2818 -15.2634 -15.2288 -15.1548 -15.1233 -15.0529
   -15.0467 -15.0015 -14.9989 -14.9909 -14.9370 -14.8947 -14.8763 -14.8618
   -14.8522 -14.7962 -14.7877 -14.7764 -14.7734 -14.6548 -14.4887 -12.9032
   -12.9031  -8.8086  -7.1689  -5.4309  -4.7061  -2.9617  -2.8896  -2.8569
    -2.7004  -2.6932  -2.6742  -2.6290  -2.5922  -2.5868  -2.5546  -2.5170
    -2.5140  -2.5104  -2.5002  -2.4648  -2.4606  -2.3982  -2.3892  -2.3540
    -2.3151  -2.3004  -2.2681  -2.2561  -2.1872  -2.1550  -2.1149  -2.1043
    -2.0686  -2.0358  -1.9901  -1.8019  -1.7832  -1.6488  -1.6226  -1.5033
    -1.4403  -1.4229  -1.3820  -1.3583  -1.3231  -1.2806  -1.2563  -1.1707
    -1.1601  -1.1051  -1.1030  -0.9939  -0.9814  -0.8688  -0.8083  -0.7954
    -0.7546  -0.7377  -0.6645  -0.6252  -0.4845  -0.4652  -0.4097  -0.3944
    -0.3282  -0.3142  -0.2567  -0.2264  -0.2221  -0.2149  -0.1351  -0.1140
    -0.0600  -0.0519  -0.0088   0.0137   0.0490   0.0768   0.1020   0.1704
     0.2979   0.3251   0.3780   0.4296   0.4915   0.5957   0.6414   0.6542
     0.6919   0.7269   0.8199   0.8330   0.9303   0.9727   1.1347   1.1677
     1.9469   1.9475   2.0624   2.0631   3.8546   3.8788   3.9142   3.9868
     4.0089   4.0757   4.1223   4.1393   4.2593   4.2698   4.3156

          k = 0.0380-0.0419 0.0000 ( 17876 PWs)   bands (ev):

   -55.4283 -55.4028 -55.3925 -55.3684 -55.3255 -55.3075 -55.2719 -55.2413
   -55.2404 -55.2332 -55.2192 -55.2170 -55.1955 -55.1667 -54.4110 -54.3869
   -31.9456 -31.8350 -31.7909 -31.7491 -31.7421 -31.6990 -31.6885 -31.6867
   -31.6850 -31.6820 -31.6625 -31.6344 -31.6234 -31.6170 -31.6082 -31.5699
   -31.5666 -31.5508 -31.5431 -31.5338 -31.5139 -31.5074 -31.5023 -31.5012
   -31.4724 -31.4683 -31.4682 -31.4563 -31.4525 -31.4523 -31.4474 -31.4429
   -31.4283 -31.4201 -31.4130 -31.4078 -31.4044 -31.3985 -31.3874 -31.3747
   -31.3624 -31.3132 -30.7703 -30.7313 -30.7118 -30.6286 -30.5673 -30.5008
   -20.2345 -16.0476 -15.7768 -15.7346 -15.5924 -15.4680 -15.4286 -15.4142
   -15.3617 -15.3352 -15.2936 -15.2146 -15.1918 -15.1334 -15.1003 -15.0923
   -15.0814 -15.0037 -14.9993 -14.9674 -14.9237 -14.8683 -14.8539 -14.8188
   -14.7782 -14.7710 -14.7534 -14.7180 -14.6983 -14.6646 -14.2804 -12.9200
   -12.8410  -8.8081  -7.1691  -5.4289  -4.7150  -3.3182  -3.1263  -3.0274
    -2.9495  -2.9092  -2.8669  -2.8125  -2.7753  -2.6962  -2.6594  -2.5981
    -2.5361  -2.4943  -2.4647  -2.4438  -2.4085  -2.3524  -2.3235  -2.2895
    -2.2417  -2.2217  -2.2030  -2.1818  -2.1227  -2.1159  -2.0572  -1.9971
    -1.9454  -1.9247  -1.8830  -1.8471  -1.8160  -1.7344  -1.7055  -1.6216
    -1.5119  -1.4865  -1.4291  -1.4081  -1.2456  -1.2098  -1.1829  -1.1195
    -1.0587  -0.9878  -0.9244  -0.8899  -0.8476  -0.8145  -0.7818  -0.7772
    -0.6910  -0.6412  -0.6081  -0.5421  -0.5036  -0.4812  -0.4027  -0.3826
    -0.3440  -0.3179  -0.2463  -0.1942  -0.1774  -0.1377  -0.1103  -0.0709
    -0.0507  -0.0440   0.0172   0.0628   0.1323   0.1518   0.1837   0.2387
     0.2535   0.3099   0.3575   0.4172   0.5053   0.6060   0.6351   0.6842
     0.7502   0.7588   0.8343   0.9008   0.9866   1.0317   1.1682   1.3747
     1.8022   1.8724   2.0583   2.1221   3.8460   3.8672   3.8950   3.9599
     4.0135   4.0724   4.0964   4.1077   4.1797   4.2321   4.2532

          k =-0.0760-0.0000 0.0000 ( 17886 PWs)   bands (ev):

   -55.4335 -55.3976 -55.3974 -55.3634 -55.3270 -55.3113 -55.2682 -55.2460
   -55.2424 -55.2317 -55.2243 -55.2120 -55.1906 -55.1646 -54.4159 -54.3819
   -32.0030 -31.8900 -31.8285 -31.8077 -31.7529 -31.7514 -31.7441 -31.7275
   -31.6868 -31.6803 -31.6420 -31.6349 -31.6073 -31.6000 -31.5877 -31.5591
   -31.5577 -31.5441 -31.5352 -31.5340 -31.5107 -31.5094 -31.5000 -31.4887
   -31.4772 -31.4586 -31.4562 -31.4552 -31.4484 -31.4471 -31.4382 -31.4208
   -31.4204 -31.4128 -31.4093 -31.3992 -31.3813 -31.3588 -31.3582 -31.3535
   -31.3343 -31.2719 -30.8240 -30.7389 -30.7065 -30.6411 -30.5545 -30.4436
   -20.2348 -16.0583 -15.8816 -15.7107 -15.6395 -15.5092 -15.4765 -15.4445
   -15.3418 -15.3232 -15.2673 -15.2531 -15.2294 -15.1952 -15.1928 -15.1553
   -15.1500 -15.1405 -15.0506 -14.8904 -14.8779 -14.8344 -14.8175 -14.8050
   -14.7758 -14.7364 -14.6812 -14.6775 -14.5839 -14.5733 -14.1595 -12.9122
   -12.8008  -8.8003  -7.1809  -5.4198  -4.7254  -3.4654  -3.2547  -3.0632
    -2.9963  -2.9121  -2.8911  -2.8686  -2.8201  -2.8098  -2.8029  -2.7245
    -2.6847  -2.6689  -2.4979  -2.3688  -2.3302  -2.2686  -2.1823  -2.0666
    -2.0554  -2.0466  -1.9924  -1.9653  -1.9523  -1.9213  -1.9078  -1.8224
    -1.7930  -1.7850  -1.7690  -1.7531  -1.7281  -1.7222  -1.6997  -1.6447
    -1.5520  -1.5279  -1.5148  -1.4127  -1.2514  -1.2315  -1.1172  -1.1044
    -1.0665  -1.0507  -1.0406  -1.0039  -0.9647  -0.9369  -0.9177  -0.8819
    -0.8374  -0.7584  -0.7289  -0.6960  -0.6942  -0.6267  -0.5651  -0.3719
    -0.3347  -0.3280  -0.2955  -0.1728  -0.1668  -0.1332  -0.0506  -0.0261
     0.0098   0.0901   0.1076   0.1516   0.1735   0.2238   0.2393   0.2699
     0.2750   0.3229   0.3612   0.3711   0.4291   0.4922   0.5731   0.6286
     0.7127   0.7416   0.8991   0.9093   1.0766   1.1323   1.2546   1.5271
     1.6399   1.7360   1.9391   2.0913   3.6861   3.7225   3.8008   3.9431
     3.9522   4.0392   4.0492   4.1128   4.1549   4.1850   4.2093

          k =-0.0760 0.0419 0.0000 ( 17914 PWs)   bands (ev):

   -55.4283 -55.4028 -55.3925 -55.3684 -55.3255 -55.3075 -55.2719 -55.2410
   -55.2404 -55.2333 -55.2194 -55.2170 -55.1955 -55.1667 -54.4110 -54.3869
   -31.9459 -31.8361 -31.7912 -31.7553 -31.7422 -31.7021 -31.6920 -31.6875
   -31.6858 -31.6821 -31.6626 -31.6346 -31.6231 -31.6083 -31.5993 -31.5669
   -31.5606 -31.5508 -31.5314 -31.5282 -31.5218 -31.5073 -31.5013 -31.4769
   -31.4739 -31.4682 -31.4674 -31.4632 -31.4605 -31.4555 -31.4524 -31.4506
   -31.4241 -31.4176 -31.4129 -31.4122 -31.4094 -31.4049 -31.3886 -31.3804
   -31.3625 -31.3133 -30.7701 -30.7343 -30.7112 -30.6286 -30.5673 -30.5008
   -20.2343 -15.9412 -15.7955 -15.6316 -15.5498 -15.4666 -15.4044 -15.3680
   -15.3466 -15.3423 -15.2400 -15.2158 -15.2084 -15.1747 -15.1627 -15.1305
   -15.1216 -15.1164 -15.0439 -14.9838 -14.9431 -14.8715 -14.8536 -14.8480
   -14.8001 -14.7699 -14.7501 -14.7239 -14.6796 -14.6727 -14.2798 -12.9178
   -12.8413  -8.8004  -7.1799  -5.4260  -4.7146  -3.2985  -3.0998  -2.8127
    -2.8077  -2.7096  -2.7034  -2.6757  -2.6347  -2.6225  -2.5909  -2.5659
    -2.5323  -2.4681  -2.4433  -2.3964  -2.3855  -2.3587  -2.2862  -2.2471
    -2.1968  -2.1555  -2.1191  -2.1010  -2.0253  -2.0107  -1.9948  -1.9778
    -1.9683  -1.9111  -1.8870  -1.8645  -1.8055  -1.6297  -1.6141  -1.5941
    -1.5761  -1.5505  -1.4221  -1.3951  -1.2085  -1.1845  -1.1508  -1.1145
    -1.0510  -1.0198  -1.0030  -0.9850  -0.9305  -0.9136  -0.8288  -0.8142
    -0.7929  -0.7320  -0.7079  -0.6598  -0.6535  -0.6461  -0.6173  -0.5760
    -0.5154  -0.4881  -0.4005  -0.3512  -0.3143  -0.2206  -0.2152  -0.1969
    -0.1520  -0.1197  -0.0728   0.0149   0.0306   0.1164   0.1528   0.2002
     0.3232   0.3288   0.3450   0.3879   0.5265   0.5987   0.6451   0.7197
     0.8256   0.8516   0.8563   0.9595   1.0182   1.0653   1.0938   1.2393
     1.8174   1.8747   1.9809   2.1107   3.8397   3.8579   3.8856   3.9026
     3.9439   3.9915   4.0486   4.0648   4.1521   4.1937   4.2917

          k =-0.0760-0.0839 0.0000 ( 17948 PWs)   bands (ev):

   -55.4168 -55.4144 -55.3805 -55.3805 -55.3240 -55.3028 -55.2767 -55.2382
   -55.2349 -55.2302 -55.2279 -55.2077 -55.2073 -55.1689 -54.3991 -54.3989
   -31.8077 -31.8048 -31.7466 -31.7264 -31.7034 -31.7033 -31.6913 -31.6725
   -31.6725 -31.6443 -31.6349 -31.6294 -31.6264 -31.5861 -31.5641 -31.5609
   -31.5609 -31.5529 -31.5524 -31.5419 -31.5292 -31.5199 -31.5095 -31.5057
   -31.5014 -31.5000 -31.4998 -31.4951 -31.4711 -31.4635 -31.4633 -31.4607
   -31.4439 -31.4414 -31.4411 -31.4319 -31.4306 -31.4258 -31.3879 -31.3874
   -31.3829 -31.3632 -30.7226 -30.7225 -30.6376 -30.6374 -30.5981 -30.5980
   -20.2339 -15.7044 -15.6839 -15.6250 -15.4189 -15.4171 -15.4042 -15.3902
   -15.3735 -15.2317 -15.2127 -15.1965 -15.1786 -15.1363 -15.1329 -15.1178
   -15.1083 -15.0074 -15.0052 -15.0031 -15.0017 -14.9393 -14.9314 -14.9176
   -14.8830 -14.8798 -14.8508 -14.7809 -14.7780 -14.6460 -14.4825 -12.9029
   -12.9029  -8.8005  -7.1789  -5.4318  -4.7063  -2.9592  -2.8889  -2.8459
    -2.6361  -2.6133  -2.5987  -2.5159  -2.4666  -2.4045  -2.3971  -2.3911
    -2.3314  -2.2963  -2.2828  -2.2644  -2.2563  -2.2395  -2.2174  -2.2068
    -2.1608  -2.1490  -2.1394  -2.1052  -2.0914  -2.0729  -2.0496  -2.0323
    -2.0145  -2.0089  -1.9895  -1.8290  -1.7776  -1.7311  -1.6805  -1.6714
    -1.6257  -1.6182  -1.5242  -1.4896  -1.4609  -1.4336  -1.4249  -1.2340
    -1.2183  -1.1653  -1.1608  -1.1373  -0.9819  -0.9614  -0.9464  -0.9282
    -0.8828  -0.8008  -0.7941  -0.7564  -0.6505  -0.6192  -0.6125  -0.5620
    -0.4424  -0.4187  -0.3966  -0.3907  -0.3850  -0.2924  -0.2751  -0.2670
    -0.2340  -0.2001  -0.1495  -0.1430  -0.0904   0.0921   0.1363   0.2021
     0.2813   0.4492   0.4888   0.5163   0.5576   0.6188   0.6919   0.7076
     0.7727   0.8666   0.8815   0.9104   0.9836   1.0367   1.0445   1.0688
     1.9647   1.9654   2.0492   2.0493   3.8371   3.8477   3.9102   3.9474
     3.9962   4.0850   4.1852   4.2010   4.2462   4.2475   4.3279

     the Fermi energy is     3.7202 ev

!    total energy              =   -2937.80858737 Ry
     estimated scf accuracy    <       0.00000006 Ry
     smearing contrib. (-TS)   =      -0.03814301 Ry
     internal energy E=F+TS    =   -2937.77044437 Ry

     The total energy is F=E-TS. E is the sum of the following terms:
     one-electron contribution =  -24092.30340032 Ry
     hartree contribution      =   12136.22998306 Ry
     xc contribution           =    -484.38457508 Ry
     ewald contribution        =    9502.68438561 Ry
     electric field correction =       0.00316236 Ry

     convergence has been achieved in  69 iterations

     Forces acting on atoms (cartesian axes, Ry/au):

     atom    1 type  1   force =     0.00006347   -0.00011598    0.09410352
     atom    2 type  1   force =    -0.00016301   -0.00022865   -0.17761102
     atom    3 type  2   force =     0.00011106   -0.00020709   -0.02137062
     atom    4 type  2   force =     0.00002641   -0.00183873    0.05753900
     atom    5 type  2   force =    -0.01067345   -0.00139445    0.00632374
     atom    6 type  2   force =     0.01274177   -0.00074682    0.00660758
     atom    7 type  1   force =     0.00011546    0.00197322   -0.01405892
     atom    8 type  1   force =    -0.00046979    0.00582314    0.00394383
     atom    9 type  2   force =     0.00036164    0.00022898   -0.00009177
     atom   10 type  2   force =    -0.00023979    0.00021968   -0.00512797
     atom   11 type  2   force =     0.00004338   -0.00015812   -0.00044370
     atom   12 type  2   force =    -0.00028555    0.00000474    0.00009181
     atom   13 type  1   force =    -0.00025730    0.00001795   -0.00031913
     atom   14 type  1   force =    -0.00008604    0.00015356   -0.00017798
     atom   15 type  2   force =    -0.00048269   -0.00039641   -0.00012143
     atom   16 type  2   force =    -0.00018407    0.00019586    0.00005488
     atom   17 type  2   force =     0.00009433   -0.00015749   -0.00003678
     atom   18 type  2   force =    -0.00046216   -0.00012283   -0.00046237
     atom   19 type  1   force =    -0.00019668    0.00021285   -0.00026147
     atom   20 type  1   force =    -0.00022002   -0.00018681    0.00031325
     atom   21 type  2   force =     0.00001826    0.00002011    0.10380732
     atom   22 type  2   force =     0.00002647    0.00019575    0.00000718
     atom   23 type  2   force =    -0.07064470   -0.00007593   -0.02704646
     atom   24 type  2   force =     0.07053618    0.00036477   -0.02709726
     atom   25 type  1   force =     0.00001381   -0.00008301    0.09372916
     atom   26 type  1   force =    -0.00013423   -0.00015572   -0.17766900
     atom   27 type  2   force =     0.00013509   -0.00023933   -0.02036543
     atom   28 type  2   force =     0.00006857   -0.00155188    0.05701532
     atom   29 type  2   force =    -0.01101984   -0.00053678    0.00634609
     atom   30 type  2   force =     0.01294029   -0.00027570    0.00664102
     atom   31 type  1   force =     0.00029696    0.00520697   -0.01483619
     atom   32 type  1   force =    -0.00040298   -0.00657364    0.00411942
     atom   33 type  2   force =     0.00015755    0.00008244   -0.00032687
     atom   34 type  2   force =     0.00036172   -0.00102460   -0.00203902
     atom   35 type  2   force =    -0.00031601    0.00015583   -0.00020793
     atom   36 type  2   force =    -0.00003260    0.00000659    0.00012169
     atom   37 type  1   force =    -0.00007504    0.00024209   -0.00017290
     atom   38 type  1   force =     0.00006207    0.00024975    0.00020100
     atom   39 type  2   force =    -0.00006898    0.00019260    0.00013502
     atom   40 type  2   force =    -0.00030068    0.00009118   -0.00019433
     atom   41 type  2   force =    -0.00022325   -0.00004768    0.00003063
     atom   42 type  2   force =    -0.00029764    0.00013763   -0.00015381
     atom   43 type  1   force =    -0.00014753    0.00005380   -0.00014767
     atom   44 type  1   force =    -0.00017202   -0.00043038   -0.00005438
     atom   45 type  2   force =     0.00001281   -0.00000333    0.10381201
     atom   46 type  2   force =    -0.07066624   -0.00004128   -0.02705932
     atom   47 type  2   force =     0.07053910    0.00039631   -0.02709463
     atom   48 type  3   force =     0.00038249   -0.00037849    0.00065270
     atom   49 type  4   force =    -0.00102255    0.00056580   -0.00050589
     atom   50 type  5   force =    -0.00011552   -0.00004078   -0.00013489
     atom   51 type  3   force =    -0.00090330   -0.00066724   -0.00009203
     atom   52 type  5   force =     0.00115477    0.00088755   -0.00031496

     Total force =     0.365989     Total SCF correction =     0.000420
  @ DRIVER MODE: Message from server: STATUS
  @ DRIVER MODE: Message from server: GETFORCE
  @ DRIVER MODE: Returning v,forces,stress,ensemble 

     Writing output data file ./calc.save/
  @ DRIVER MODE: Message from server: EXIT
  @ DRIVE MODE: Exiting  
 
     init_run     :     10.85s CPU     11.16s WALL (       1 calls)
     electrons    :   1088.01s CPU   1104.77s WALL (       1 calls)
     forces       :      2.39s CPU      2.48s WALL (       1 calls)

     Called by init_run:
     wfcinit      :      4.80s CPU      4.91s WALL (       1 calls)
     potinit      :      5.41s CPU      5.48s WALL (       1 calls)
     hinit0       :      0.29s CPU      0.31s WALL (       1 calls)

     Called by electrons:
     c_bands      :    921.77s CPU    928.49s WALL (      69 calls)
     sum_band     :    111.68s CPU    115.64s WALL (      69 calls)
     v_of_rho     :     40.96s CPU     43.06s WALL (      70 calls)
     newd         :     16.51s CPU     20.37s WALL (      70 calls)
     mix_rho      :      1.52s CPU      1.63s WALL (      69 calls)
     vdW_kernel   :      4.55s CPU      4.56s WALL (       1 calls)

     Called by c_bands:
     init_us_2    :      7.68s CPU      7.74s WALL (    1400 calls)
     cegterg      :    901.83s CPU    908.15s WALL (     698 calls)

     Called by *egterg:
     cdiaghg      :    152.63s CPU    153.54s WALL (    7665 calls)
     h_psi        :    474.07s CPU    478.24s WALL (    7675 calls)
     s_psi        :     66.12s CPU     66.33s WALL (    7675 calls)
     g_psi        :      1.80s CPU      1.81s WALL (    6967 calls)

     Called by h_psi:
     h_psi:calbec :     62.03s CPU     62.34s WALL (    7675 calls)
     vloc_psi     :    341.24s CPU    344.48s WALL (    7675 calls)
     add_vuspsi   :     67.22s CPU     67.64s WALL (    7675 calls)

     General routines
     calbec       :     81.61s CPU     81.98s WALL (    8405 calls)
     fft          :     22.20s CPU     22.37s WALL (    4410 calls)
     ffts         :      0.14s CPU      0.14s WALL (     139 calls)
     fftw         :    383.81s CPU    387.47s WALL (  912560 calls)
     interpolate  :      0.44s CPU      0.44s WALL (      70 calls)
     davcio       :      0.00s CPU      0.11s WALL (      10 calls)
 
     Parallel routines
 
     PWSCF        :  18m21.54s CPU  18m39.05s WALL

 
   This run was terminated on:   7: 6:44   9Sep2021            

=------------------------------------------------------------------------------=
   JOB DONE.
=------------------------------------------------------------------------------=
