
     Program PWSCF v.6.7GPU starts on 22Sep2021 at  0:53:31 

     This program is part of the open-source Quantum ESPRESSO suite
     for quantum simulation of materials; please cite
         "P. Giannozzi et al., J. Phys.:Condens. Matter 21 395502 (2009);
         "P. Giannozzi et al., J. Phys.:Condens. Matter 29 465901 (2017);
         "P. Giannozzi et al., J. Chem. Phys. 152 154105 (2020);
          URL http://www.quantum-espresso.org", 
     in publications or presentations arising from this work. More details at
     http://www.quantum-espresso.org/quote

     Parallel version (MPI), running on    10 processors

     MPI processes distributed on     1 nodes
     R & G space division:  proc/nbgrp/npool/nimage =      10
     Reading input from /storage/home/hcoda1/3/ntian30/research/carbon/CxH_vib/CH_calc/ads_slab/CHNHNH2H2O_b/out_0008/pw.inp
Warning: card &CELL ignored
Warning: card   CELL_DYNAMICS='IPI', ignored
Warning: card / ignored

     Current dimensions of program PWSCF are:
     Max number of different atomic species (ntypx) = 10
     Max number of k-points (npk) =  40000
     Max angular momentum in pseudopotentials (lmaxx) =  3
     Presently no symmetry can be used with electric field

     Message from routine cell_base_init:
     DEPRECATED: use true lattice parameter, not A to a.u. conversion factor

     **************************************************************************
     Initializing libbeef V0.1.2 with the BEEF-vdW functional.
     Citation: Wellendorff et al., PRB 85, 235149 (2012).
     **************************************************************************


     IMPORTANT: XC functional enforced from input :
     Exchange-correlation= BEEF-VDW
                           (   1   4  43  14   2   0   0)
     Any further DFT definition will be discarded
     Please, verify this is what you really want


     Subspace diagonalization in iterative solution of the eigenvalue problem:
     one sub-group per band group will be used
     scalapack distributed-memory algorithm (size of sub-group:  3*  3 procs)

  @ DRIVER MODE: Connecting to 
 qe_1139763_2927425.sched-torque.pace.gatech.edu20te7tr3_scratch
  using UNIX socket
  @ DRIVER MODE: Message from server: STATUS
  @ DRIVER MODE: Message from server: INIT
  @ DRIVER MODE: Receiving replica           0          -1
  @ DRIVER MODE: Receiving encoded integer          25
  @ DRIVER MODE:  SCF:  T  FORCE:  T  STRESS:  F  VC:  F  ENSEMBLE:  F
  @ DRIVER MODE:  SCF:  T  FORCE:  T  STRESS:  F  VC:  F  ENSEMBLE:  F
 
     Parallelization info
     --------------------
     sticks:   dense  smooth     PW     G-vecs:    dense   smooth      PW
     Min         327     131     37                56683    14340    2191
     Max         328     133     38                56694    14346    2206
     Sum        3275    1317    379               566857   143421   21985
 
     Using Slab Decomposition
 


     bravais-lattice index     =            0
     lattice parameter (alat)  =       1.8897  a.u.
     unit-cell volume          =    6658.9804 (a.u.)^3
     number of atoms/cell      =           57
     number of atomic types    =            5
     number of electrons       =       404.00
     number of Kohn-Sham states=          212
     kinetic-energy cutoff     =      29.3995  Ry
     charge density cutoff     =     293.9946  Ry
     scf convergence threshold =      7.3E-08
     mixing beta               =       0.0500
     number of iterations used =            8  plain     mixing
     Exchange-correlation= BEEF-VDW
                           (   1   4  43  14   2   0   0)

     celldm(1)=   1.889726  celldm(2)=   0.000000  celldm(3)=   0.000000
     celldm(4)=   0.000000  celldm(5)=   0.000000  celldm(6)=   0.000000

     crystal axes: (cart. coord. in units of alat)
               a(1) = (   6.579727   0.000000   0.000000 )  
               a(2) = (  -0.000775   5.961596   0.000000 )  
               a(3) = (   0.000000   0.000000  25.155947 )  

     reciprocal axes: (cart. coord. in units 2 pi/alat)
               b(1) = (  0.151982  0.000020  0.000000 )  
               b(2) = (  0.000000  0.167740  0.000000 )  
               b(3) = (  0.000000  0.000000  0.039752 )  


     PseudoPot. # 1 for Ti read from file:
     /storage/coda1/p-amedford6/0/shared/rich_project_chbe-medford/medford-share/data/pseudos_module/espresso/nninc/pbe/van/Ti.UPF
     MD5 check sum: 8e4df49b7f0d34bbd5052bf3f5ea0213
     Pseudo is Ultrasoft, Zval = 12.0
     Generated by new atomic code, or converted to UPF format
     Using radial grid of  851 points,  6 beta functions with: 
                l(1) =   0
                l(2) =   0
                l(3) =   1
                l(4) =   1
                l(5) =   2
                l(6) =   2
     Q(r) pseudized with  8 coefficients,  rinner =    1.000   1.000   1.000
                                                       1.000   1.000

     PseudoPot. # 2 for O  read from file:
     /storage/coda1/p-amedford6/0/shared/rich_project_chbe-medford/medford-share/data/pseudos_module/espresso/nninc/pbe/van/O.UPF
     MD5 check sum: 78c19812648e8988a0fe644b0f25305e
     Pseudo is Ultrasoft, Zval =  6.0
     Generated by new atomic code, or converted to UPF format
     Using radial grid of  737 points,  4 beta functions with: 
                l(1) =   0
                l(2) =   0
                l(3) =   1
                l(4) =   1
     Q(r) pseudized with  8 coefficients,  rinner =    0.800   0.800   0.800


     PseudoPot. # 3 for N  read from file:
     /storage/coda1/p-amedford6/0/shared/rich_project_chbe-medford/medford-share/data/pseudos_module/espresso/nninc/pbe/van/N.UPF
     MD5 check sum: 90d10febe142ad51ac9d5be1deb811c4
     Pseudo is Ultrasoft, Zval =  5.0
     Generated by new atomic code, or converted to UPF format
     Using radial grid of  729 points,  4 beta functions with: 
                l(1) =   0
                l(2) =   0
                l(3) =   1
                l(4) =   1
     Q(r) pseudized with  8 coefficients,  rinner =    0.800   0.800   0.800


     PseudoPot. # 4 for C  read from file:
     /storage/coda1/p-amedford6/0/shared/rich_project_chbe-medford/medford-share/data/pseudos_module/espresso/nninc/pbe/van/C.UPF
     MD5 check sum: 1a69bf6b8db32088f5b2163dbdb77a27
     Pseudo is Ultrasoft, Zval =  4.0
     Generated by new atomic code, or converted to UPF format
     Using radial grid of  721 points,  4 beta functions with: 
                l(1) =   0
                l(2) =   0
                l(3) =   1
                l(4) =   1
     Q(r) pseudized with  8 coefficients,  rinner =    0.800   0.800   0.800


     PseudoPot. # 5 for H  read from file:
     /storage/coda1/p-amedford6/0/shared/rich_project_chbe-medford/medford-share/data/pseudos_module/espresso/nninc/pbe/van/H.UPF
     MD5 check sum: b5ee9d7bfd3a09ee7748110bda690ff7
     Pseudo is Ultrasoft, Zval =  1.0
     Generated by new atomic code, or converted to UPF format
     Using radial grid of  615 points,  1 beta functions with: 
                l(1) =   0
     Q(r) pseudized with  8 coefficients,  rinner =    0.800

     atomic species   valence    mass     pseudopotential
        Ti1           12.00    47.86700     Ti( 1.00)
        O1             6.00    15.99900     O ( 1.00)
        N1             5.00    14.00700     N ( 1.00)
        C1             4.00    12.01100     C ( 1.00)
        H1             1.00     1.00800     H ( 1.00)

     No symmetry found



   Cartesian axes

     site n.     atom                  positions (alat units)
         1           Ti1 tau(   1) = (   0.0004258   2.9801865   6.0000000  )
         2           Ti1 tau(   2) = (   3.2906075   1.4906267   6.0002472  )
         3           O1  tau(   3) = (   0.0006271   0.0005054   7.9858123  )
         4           O1  tau(   4) = (   3.2906025   0.0005020   7.3038282  )
         5           O1  tau(   5) = (   4.5942328   1.4918067   9.2879030  )
         6           O1  tau(   6) = (   1.9868534   1.4903216   9.2879459  )
         7           Ti1 tau(   7) = (   3.2907910   2.8959150   9.1758416  )
         8           Ti1 tau(   8) = (   0.0015273   1.4827037   9.2680791  )
         9           O1  tau(   9) = (   3.3066417   5.9496923  11.3845403  )
        10           O1  tau(  10) = (   0.0116148   5.9584955  10.6183126  )
        11           O1  tau(  11) = (   1.3010148   1.4986442  12.6442229  )
        12           O1  tau(  12) = (   5.3085967   1.5001388  12.6592367  )
        13           Ti1 tau(  13) = (   0.0282779   2.9853959  12.5065338  )
        14           Ti1 tau(  14) = (   3.3279724   1.4707331  12.5413945  )
        15           O1  tau(  15) = (   0.0378505   0.0859181  14.6860672  )
        16           O1  tau(  16) = (   3.3018867   0.0259462  14.0338077  )
        17           O1  tau(  17) = (   4.5998927   1.5484098  16.1661054  )
        18           O1  tau(  18) = (   2.0454451   1.5021798  16.2221046  )
        19           Ti1 tau(  19) = (   3.3206312   2.9825829  15.7321521  )
        20           Ti1 tau(  20) = (   0.0140791   1.4435866  15.9983415  )
        21           O1  tau(  21) = (   3.2904802   0.0005063   4.7018136  )
        22           O1  tau(  22) = (   6.5273045   5.8164216  17.2577718  )
        23           O1  tau(  23) = (   1.3043587   1.4918075   6.0039043  )
        24           O1  tau(  24) = (   5.2767064   1.4903225   6.0039473  )
        25           Ti1 tau(  25) = (   0.0000382   5.9609847   6.0000000  )
        26           Ti1 tau(  26) = (   3.2902200   4.4714249   6.0002472  )
        27           O1  tau(  27) = (   0.0002396   2.9813036   7.9858123  )
        28           O1  tau(  28) = (   3.2902150   2.9813002   7.3038282  )
        29           O1  tau(  29) = (   4.5938453   4.4726049   9.2879030  )
        30           O1  tau(  30) = (   1.9864658   4.4711199   9.2879459  )
        31           Ti1 tau(  31) = (   3.2891106   5.8743827   9.1763621  )
        32           Ti1 tau(  32) = (   0.0006254   4.4649316   9.2693709  )
        33           O1  tau(  33) = (   3.3068470   2.9864458  11.3814114  )
        34           O1  tau(  34) = (   0.0092240   2.9805883  10.6323155  )
        35           O1  tau(  35) = (   1.2982948   4.4740332  12.6840172  )
        36           O1  tau(  36) = (   5.3097620   4.4704985  12.6972095  )
        37           Ti1 tau(  37) = (   0.0348817   0.0130325  12.4954113  )
        38           Ti1 tau(  38) = (   3.3270268   4.4633798  12.5435021  )
        39           O1  tau(  39) = (   0.0563025   2.9439880  14.9425960  )
        40           O1  tau(  40) = (   3.2900316   2.9661073  13.9503945  )
        41           O1  tau(  41) = (   4.5967999   4.4093095  16.0633277  )
        42           O1  tau(  42) = (   2.0412097   4.4536800  16.1303113  )
        43           Ti1 tau(  43) = (   3.2964201   5.9600488  15.8742613  )
        44           Ti1 tau(  44) = (   0.0241369   4.6516137  15.8518307  )
        45           O1  tau(  45) = (   3.2900926   2.9813045   4.7018136  )
        46           O1  tau(  46) = (   1.3039711   4.4726057   6.0039043  )
        47           O1  tau(  47) = (   5.2763189   4.4711207   6.0039473  )
        48           N1  tau(  48) = (   1.4509408   2.7109095  18.7602185  )
        49           N1  tau(  49) = (   0.1017387   2.5303350  18.2207845  )
        50           C1  tau(  50) = (   1.9503960   3.7723240  19.2784661  )
        51           H1  tau(  51) = (   1.1612915   4.5273475  19.4152495  )
        52           H1  tau(  52) = (   2.0208952   1.9183395  18.4664618  )
        53           H1  tau(  53) = (   6.1377449   3.3539424  18.4987646  )
        54           H1  tau(  54) = (   6.2616785   1.7135167  18.6767212  )
        55           O1  tau(  55) = (   3.7012217   5.9496235  18.2853534  )
        56           H1  tau(  56) = (   4.6684668   5.8470116  18.1670174  )
        57           H1  tau(  57) = (   3.3852657   5.1278045  18.7338684  )

     number of k points=    10  Fermi-Dirac smearing, width (Ry)=  0.0073
                       cart. coord. in units 2pi/alat
        k(    1) = (   0.0000000   0.0000000   0.0000000), wk =   0.1250000
        k(    2) = (   0.0000000   0.0419351   0.0000000), wk =   0.2500000
        k(    3) = (   0.0000000  -0.0838702   0.0000000), wk =   0.1250000
        k(    4) = (   0.0379955   0.0000049   0.0000000), wk =   0.2500000
        k(    5) = (   0.0379955   0.0419400   0.0000000), wk =   0.2500000
        k(    6) = (   0.0379955  -0.0838652   0.0000000), wk =   0.2500000
        k(    7) = (   0.0379955  -0.0419301   0.0000000), wk =   0.2500000
        k(    8) = (  -0.0759910  -0.0000099   0.0000000), wk =   0.1250000
        k(    9) = (  -0.0759910   0.0419252   0.0000000), wk =   0.2500000
        k(   10) = (  -0.0759910  -0.0838800   0.0000000), wk =   0.1250000

     Dense  grid:   566857 G-vectors     FFT dimensions: (  72,  64, 270)

     Smooth grid:   143421 G-vectors     FFT dimensions: (  45,  40, 180)

     Estimated max dynamical RAM per process >     367.81 MB

     Estimated total dynamical RAM >       3.59 GB
     Cannot read rho : file not found

     Initial potential from superposition of free atoms

     starting charge  387.99913, renormalised to  404.00000

     negative rho (up, down):  1.598E-02 0.000E+00


     %%%%%%%%%%%%%%%%%%%%%%%%%%%%%%%%%%%%%%%%%%%%%%%%%%%%%%%%%%%%%%%%%%%%%%%%
     %                                                                      %
     % You are using vdW-DF, which was implemented by the Thonhauser group. %
     % Please cite the following two papers that made this development      %
     % possible and the two reviews that describe the various versions:     %
     %                                                                      %
     %   T. Thonhauser et al., PRL 115, 136402 (2015).                      %
     %   T. Thonhauser et al., PRB 76, 125112 (2007).                       %
     %   K. Berland et al., Rep. Prog. Phys. 78, 066501 (2015).             %
     %   D.C. Langreth et al., J. Phys.: Condens. Matter 21, 084203 (2009). %
     %                                                                      %
     %                                                                      %
     % If you are calculating the stress with vdW-DF, please also cite:     %
     %                                                                      %
     %   R. Sabatini et al., J. Phys.: Condens. Matter 24, 424209 (2012).   %
     %                                                                      %
     %%%%%%%%%%%%%%%%%%%%%%%%%%%%%%%%%%%%%%%%%%%%%%%%%%%%%%%%%%%%%%%%%%%%%%%%


 
     Adding external electric field

     Computed dipole along edir(3) : 
        Dipole              -14.3585 Ry au,        -36.4957 Debye
        Dipole field         -0.0271 Ry au, 
 
        Potential amp.        2.5118 Ry
        Total length         46.3494 bohr
 
     Starting wfcs are  306 atomic wfcs
  @ DRIVER MODE: Message from server: STATUS
  @ DRIVER MODE: Message from server: POSDATA
  @ DRIVER MODE: Reading and sharing cell 
  @ DRIVER MODE: Reading and sharing positions 
  @ DRIVER MODE: Received positions 

     total cpu time spent up to now is       12.8 secs

     Self-consistent Calculation

     iteration #  1     ecut=    29.40 Ry     beta= 0.05
     Davidson diagonalization with overlap
     c_bands:  3 eigenvalues not converged
     c_bands:  4 eigenvalues not converged
     c_bands:  4 eigenvalues not converged
     c_bands:  4 eigenvalues not converged
     c_bands:  5 eigenvalues not converged
     c_bands:  3 eigenvalues not converged
     c_bands:  2 eigenvalues not converged
     c_bands:  4 eigenvalues not converged
     ethr =  1.00E-05,  avg # of iterations = 21.9

     negative rho (up, down):  8.495E-03 0.000E+00
 
     Adding external electric field

     Computed dipole along edir(3) : 
        Dipole               60.0561 Ry au,        152.6473 Debye
        Dipole field          0.1133 Ry au, 
 
        Potential amp.      -10.5059 Ry
        Total length         46.3494 bohr
 

     total cpu time spent up to now is       58.3 secs

     total energy              =   -2220.93690260 Ry
     estimated scf accuracy    <    8587.45959049 Ry

     iteration #  2     ecut=    29.40 Ry     beta= 0.05
     Davidson diagonalization with overlap
     ethr =  1.00E-02,  avg # of iterations = 26.9

     negative rho (up, down):  2.967E-04 0.000E+00
 
     Adding external electric field

     Computed dipole along edir(3) : 
        Dipole                1.3483 Ry au,          3.4271 Debye
        Dipole field          0.0025 Ry au, 
 
        Potential amp.       -0.2359 Ry
        Total length         46.3494 bohr
 

     total cpu time spent up to now is      147.4 secs

     total energy              =   -2493.49657841 Ry
     estimated scf accuracy    <   73514.79749744 Ry

     iteration #  3     ecut=    29.40 Ry     beta= 0.05
     Davidson diagonalization with overlap
     ethr =  1.00E-02,  avg # of iterations = 16.8

     negative rho (up, down):  3.439E-04 0.000E+00
 
     Adding external electric field

     Computed dipole along edir(3) : 
        Dipole               -2.4676 Ry au,         -6.2720 Debye
        Dipole field         -0.0047 Ry au, 
 
        Potential amp.        0.4317 Ry
        Total length         46.3494 bohr
 

     total cpu time spent up to now is      197.1 secs

     total energy              =   -2962.92029642 Ry
     estimated scf accuracy    <    7740.74429152 Ry

     iteration #  4     ecut=    29.40 Ry     beta= 0.05
     Davidson diagonalization with overlap
     ethr =  1.00E-02,  avg # of iterations = 11.8

     negative rho (up, down):  3.631E-04 0.000E+00
 
     Adding external electric field

     Computed dipole along edir(3) : 
        Dipole               -4.4019 Ry au,        -11.1884 Debye
        Dipole field         -0.0083 Ry au, 
 
        Potential amp.        0.7700 Ry
        Total length         46.3494 bohr
 

     total cpu time spent up to now is      220.6 secs

     total energy              =   -2966.52296007 Ry
     estimated scf accuracy    <    2413.65385983 Ry

     iteration #  5     ecut=    29.40 Ry     beta= 0.05
     Davidson diagonalization with overlap
     ethr =  1.00E-02,  avg # of iterations =  6.7

     negative rho (up, down):  4.283E-04 0.000E+00
 
     Adding external electric field

     Computed dipole along edir(3) : 
        Dipole               -8.1464 Ry au,        -20.7060 Debye
        Dipole field         -0.0154 Ry au, 
 
        Potential amp.        1.4251 Ry
        Total length         46.3494 bohr
 

     total cpu time spent up to now is      233.2 secs

     total energy              =   -2930.52297527 Ry
     estimated scf accuracy    <    2015.00765864 Ry

     iteration #  6     ecut=    29.40 Ry     beta= 0.05
     Davidson diagonalization with overlap
     ethr =  1.00E-02,  avg # of iterations = 12.1

     negative rho (up, down):  4.019E-04 0.000E+00
 
     Adding external electric field

     Computed dipole along edir(3) : 
        Dipole               -5.7967 Ry au,        -14.7338 Debye
        Dipole field         -0.0109 Ry au, 
 
        Potential amp.        1.0141 Ry
        Total length         46.3494 bohr
 

     total cpu time spent up to now is      259.0 secs

     total energy              =   -2976.67276079 Ry
     estimated scf accuracy    <     465.29053834 Ry

     iteration #  7     ecut=    29.40 Ry     beta= 0.05
     Davidson diagonalization with overlap
     ethr =  1.00E-02,  avg # of iterations =  1.9

     negative rho (up, down):  4.035E-04 0.000E+00
 
     Adding external electric field

     Computed dipole along edir(3) : 
        Dipole               -4.9377 Ry au,        -12.5505 Debye
        Dipole field         -0.0093 Ry au, 
 
        Potential amp.        0.8638 Ry
        Total length         46.3494 bohr
 

     total cpu time spent up to now is      269.8 secs

     total energy              =   -2978.92743054 Ry
     estimated scf accuracy    <      62.73441301 Ry

     iteration #  8     ecut=    29.40 Ry     beta= 0.05
     Davidson diagonalization with overlap
     ethr =  1.00E-02,  avg # of iterations =  1.1

     negative rho (up, down):  4.092E-04 0.000E+00
 
     Adding external electric field

     Computed dipole along edir(3) : 
        Dipole               -3.8387 Ry au,         -9.7570 Debye
        Dipole field         -0.0072 Ry au, 
 
        Potential amp.        0.6715 Ry
        Total length         46.3494 bohr
 

     total cpu time spent up to now is      279.9 secs

     total energy              =   -2977.14739627 Ry
     estimated scf accuracy    <      56.83213317 Ry

     iteration #  9     ecut=    29.40 Ry     beta= 0.05
     Davidson diagonalization with overlap
     ethr =  1.00E-02,  avg # of iterations =  3.8

     negative rho (up, down):  4.405E-04 0.000E+00
 
     Adding external electric field

     Computed dipole along edir(3) : 
        Dipole               -0.7429 Ry au,         -1.8884 Debye
        Dipole field         -0.0014 Ry au, 
 
        Potential amp.        0.1300 Ry
        Total length         46.3494 bohr
 

     total cpu time spent up to now is      290.9 secs

     total energy              =   -2973.69936318 Ry
     estimated scf accuracy    <      40.11264755 Ry

     iteration # 10     ecut=    29.40 Ry     beta= 0.05
     Davidson diagonalization with overlap
     ethr =  9.93E-03,  avg # of iterations = 16.6

     negative rho (up, down):  5.388E-04 0.000E+00
 
     Adding external electric field

     Computed dipole along edir(3) : 
        Dipole                0.7786 Ry au,          1.9790 Debye
        Dipole field          0.0015 Ry au, 
 
        Potential amp.       -0.1362 Ry
        Total length         46.3494 bohr
 

     total cpu time spent up to now is      311.5 secs

     total energy              =   -2997.26111384 Ry
     estimated scf accuracy    <    1858.25296381 Ry

     iteration # 11     ecut=    29.40 Ry     beta= 0.05
     Davidson diagonalization with overlap
     ethr =  9.93E-03,  avg # of iterations =  4.3

     negative rho (up, down):  6.788E-04 0.000E+00
 
     Adding external electric field

     Computed dipole along edir(3) : 
        Dipole               -1.2919 Ry au,         -3.2836 Debye
        Dipole field         -0.0024 Ry au, 
 
        Potential amp.        0.2260 Ry
        Total length         46.3494 bohr
 

     total cpu time spent up to now is      323.2 secs

     total energy              =   -2962.92231391 Ry
     estimated scf accuracy    <    2662.59284057 Ry

     iteration # 12     ecut=    29.40 Ry     beta= 0.05
     Davidson diagonalization with overlap
     ethr =  9.93E-03,  avg # of iterations =  4.2

     negative rho (up, down):  7.272E-04 0.000E+00
 
     Adding external electric field

     Computed dipole along edir(3) : 
        Dipole                0.4520 Ry au,          1.1489 Debye
        Dipole field          0.0009 Ry au, 
 
        Potential amp.       -0.0791 Ry
        Total length         46.3494 bohr
 

     total cpu time spent up to now is      335.1 secs

     total energy              =   -2983.23258531 Ry
     estimated scf accuracy    <    1010.12447169 Ry

     iteration # 13     ecut=    29.40 Ry     beta= 0.05
     Davidson diagonalization with overlap
     ethr =  9.93E-03,  avg # of iterations =  1.4

     negative rho (up, down):  7.448E-04 0.000E+00
 
     Adding external electric field

     Computed dipole along edir(3) : 
        Dipole                0.6734 Ry au,          1.7117 Debye
        Dipole field          0.0013 Ry au, 
 
        Potential amp.       -0.1178 Ry
        Total length         46.3494 bohr
 

     total cpu time spent up to now is      345.4 secs

     total energy              =   -2984.40466981 Ry
     estimated scf accuracy    <    1749.25512867 Ry

     iteration # 14     ecut=    29.40 Ry     beta= 0.05
     Davidson diagonalization with overlap
     ethr =  9.93E-03,  avg # of iterations =  1.0

     negative rho (up, down):  7.183E-04 0.000E+00
 
     Adding external electric field

     Computed dipole along edir(3) : 
        Dipole               -2.9210 Ry au,         -7.4245 Debye
        Dipole field         -0.0055 Ry au, 
 
        Potential amp.        0.5110 Ry
        Total length         46.3494 bohr
 

     total cpu time spent up to now is      355.4 secs

     total energy              =   -2934.90267637 Ry
     estimated scf accuracy    <    1735.56162198 Ry

     iteration # 15     ecut=    29.40 Ry     beta= 0.05
     Davidson diagonalization with overlap
     ethr =  9.93E-03,  avg # of iterations = 12.2

     negative rho (up, down):  6.230E-04 0.000E+00
 
     Adding external electric field

     Computed dipole along edir(3) : 
        Dipole               -1.8879 Ry au,         -4.7986 Debye
        Dipole field         -0.0036 Ry au, 
 
        Potential amp.        0.3303 Ry
        Total length         46.3494 bohr
 

     total cpu time spent up to now is      379.4 secs

     total energy              =   -2970.66710993 Ry
     estimated scf accuracy    <     368.31355135 Ry

     iteration # 16     ecut=    29.40 Ry     beta= 0.05
     Davidson diagonalization with overlap
     ethr =  9.93E-03,  avg # of iterations =  2.0

     negative rho (up, down):  6.338E-04 0.000E+00
 
     Adding external electric field

     Computed dipole along edir(3) : 
        Dipole               -1.7572 Ry au,         -4.4663 Debye
        Dipole field         -0.0033 Ry au, 
 
        Potential amp.        0.3074 Ry
        Total length         46.3494 bohr
 

     total cpu time spent up to now is      390.3 secs

     total energy              =   -2976.20880640 Ry
     estimated scf accuracy    <      10.93444888 Ry

     iteration # 17     ecut=    29.40 Ry     beta= 0.05
     Davidson diagonalization with overlap
     ethr =  2.71E-03,  avg # of iterations =  1.9

     negative rho (up, down):  8.324E-04 0.000E+00
 
     Adding external electric field

     Computed dipole along edir(3) : 
        Dipole               -0.5349 Ry au,         -1.3596 Debye
        Dipole field         -0.0010 Ry au, 
 
        Potential amp.        0.0936 Ry
        Total length         46.3494 bohr
 

     total cpu time spent up to now is      401.1 secs

     total energy              =   -2973.99040781 Ry
     estimated scf accuracy    <      10.20203643 Ry

     iteration # 18     ecut=    29.40 Ry     beta= 0.05
     Davidson diagonalization with overlap
     c_bands:  1 eigenvalues not converged
     c_bands:  1 eigenvalues not converged
     c_bands:  1 eigenvalues not converged
     ethr =  2.53E-03,  avg # of iterations = 18.0

     negative rho (up, down):  9.817E-04 0.000E+00
 
     Adding external electric field

     Computed dipole along edir(3) : 
        Dipole               -0.6352 Ry au,         -1.6145 Debye
        Dipole field         -0.0012 Ry au, 
 
        Potential amp.        0.1111 Ry
        Total length         46.3494 bohr
 

     total cpu time spent up to now is      421.7 secs

     total energy              =   -2978.51226872 Ry
     estimated scf accuracy    <     116.09484678 Ry

     iteration # 19     ecut=    29.40 Ry     beta= 0.05
     Davidson diagonalization with overlap
     c_bands:  5 eigenvalues not converged
     c_bands:  4 eigenvalues not converged
     c_bands:  3 eigenvalues not converged
     ethr =  2.53E-03,  avg # of iterations = 14.9

     negative rho (up, down):  9.259E-04 0.000E+00
 
     Adding external electric field

     Computed dipole along edir(3) : 
        Dipole               -1.5742 Ry au,         -4.0013 Debye
        Dipole field         -0.0030 Ry au, 
 
        Potential amp.        0.2754 Ry
        Total length         46.3494 bohr
 

     total cpu time spent up to now is      438.5 secs

     total energy              =   -2974.24326914 Ry
     estimated scf accuracy    <     548.98288901 Ry

     iteration # 20     ecut=    29.40 Ry     beta= 0.05
     Davidson diagonalization with overlap
     ethr =  2.53E-03,  avg # of iterations =  6.2

     negative rho (up, down):  7.731E-04 0.000E+00
 
     Adding external electric field

     Computed dipole along edir(3) : 
        Dipole               -2.7939 Ry au,         -7.1013 Debye
        Dipole field         -0.0053 Ry au, 
 
        Potential amp.        0.4887 Ry
        Total length         46.3494 bohr
 

     total cpu time spent up to now is      450.6 secs

     total energy              =   -2968.36524840 Ry
     estimated scf accuracy    <     184.11340799 Ry

     iteration # 21     ecut=    29.40 Ry     beta= 0.05
     Davidson diagonalization with overlap
     ethr =  2.53E-03,  avg # of iterations = 16.7

     negative rho (up, down):  8.666E-04 0.000E+00
 
     Adding external electric field

     Computed dipole along edir(3) : 
        Dipole               -1.8142 Ry au,         -4.6112 Debye
        Dipole field         -0.0034 Ry au, 
 
        Potential amp.        0.3174 Ry
        Total length         46.3494 bohr
 

     total cpu time spent up to now is      473.3 secs

     total energy              =   -2975.16891864 Ry
     estimated scf accuracy    <       5.89605643 Ry

     iteration # 22     ecut=    29.40 Ry     beta= 0.05
     Davidson diagonalization with overlap
     ethr =  1.46E-03,  avg # of iterations =  1.4

     negative rho (up, down):  9.344E-04 0.000E+00
 
     Adding external electric field

     Computed dipole along edir(3) : 
        Dipole               -1.1634 Ry au,         -2.9570 Debye
        Dipole field         -0.0022 Ry au, 
 
        Potential amp.        0.2035 Ry
        Total length         46.3494 bohr
 

     total cpu time spent up to now is      483.6 secs

     total energy              =   -2975.15052861 Ry
     estimated scf accuracy    <       2.14339538 Ry

     iteration # 23     ecut=    29.40 Ry     beta= 0.05
     Davidson diagonalization with overlap
     c_bands:  1 eigenvalues not converged
     c_bands:  1 eigenvalues not converged
     c_bands:  3 eigenvalues not converged
     ethr =  5.31E-04,  avg # of iterations = 17.9

     negative rho (up, down):  9.838E-04 0.000E+00
 
     Adding external electric field

     Computed dipole along edir(3) : 
        Dipole               -0.9563 Ry au,         -2.4307 Debye
        Dipole field         -0.0018 Ry au, 
 
        Potential amp.        0.1673 Ry
        Total length         46.3494 bohr
 

     total cpu time spent up to now is      500.8 secs

     total energy              =   -2975.19675248 Ry
     estimated scf accuracy    <       1.26587814 Ry

     iteration # 24     ecut=    29.40 Ry     beta= 0.05
     Davidson diagonalization with overlap
     c_bands:  2 eigenvalues not converged
     c_bands:  1 eigenvalues not converged
     c_bands:  2 eigenvalues not converged
     ethr =  3.13E-04,  avg # of iterations = 16.5

     negative rho (up, down):  1.162E-03 0.000E+00
 
     Adding external electric field

     Computed dipole along edir(3) : 
        Dipole               -0.0924 Ry au,         -0.2350 Debye
        Dipole field         -0.0002 Ry au, 
 
        Potential amp.        0.0162 Ry
        Total length         46.3494 bohr
 

     total cpu time spent up to now is      516.3 secs

     total energy              =   -2975.27567102 Ry
     estimated scf accuracy    <       1.05145606 Ry

     iteration # 25     ecut=    29.40 Ry     beta= 0.05
     Davidson diagonalization with overlap
     c_bands:  3 eigenvalues not converged
     c_bands:  1 eigenvalues not converged
     c_bands:  4 eigenvalues not converged
     c_bands:  2 eigenvalues not converged
     c_bands:  1 eigenvalues not converged
     c_bands:  2 eigenvalues not converged
     ethr =  2.60E-04,  avg # of iterations = 19.5

     negative rho (up, down):  1.044E-03 0.000E+00
 
     Adding external electric field

     Computed dipole along edir(3) : 
        Dipole               -0.9159 Ry au,         -2.3279 Debye
        Dipole field         -0.0017 Ry au, 
 
        Potential amp.        0.1602 Ry
        Total length         46.3494 bohr
 

     total cpu time spent up to now is      538.4 secs

     total energy              =   -2973.93406155 Ry
     estimated scf accuracy    <      91.73272081 Ry

     iteration # 26     ecut=    29.40 Ry     beta= 0.05
     Davidson diagonalization with overlap
     ethr =  2.60E-04,  avg # of iterations = 13.8

     negative rho (up, down):  1.104E-03 0.000E+00
 
     Adding external electric field

     Computed dipole along edir(3) : 
        Dipole               -0.7284 Ry au,         -1.8515 Debye
        Dipole field         -0.0014 Ry au, 
 
        Potential amp.        0.1274 Ry
        Total length         46.3494 bohr
 

     total cpu time spent up to now is      555.5 secs

     total energy              =   -2975.17430778 Ry
     estimated scf accuracy    <       0.86538625 Ry

     iteration # 27     ecut=    29.40 Ry     beta= 0.05
     Davidson diagonalization with overlap
     ethr =  2.14E-04,  avg # of iterations =  1.1

     negative rho (up, down):  1.648E-03 0.000E+00
 
     Adding external electric field

     Computed dipole along edir(3) : 
        Dipole                0.0396 Ry au,          0.1007 Debye
        Dipole field          0.0001 Ry au, 
 
        Potential amp.       -0.0069 Ry
        Total length         46.3494 bohr
 

     total cpu time spent up to now is      565.5 secs

     total energy              =   -2975.01411914 Ry
     estimated scf accuracy    <       0.72105187 Ry

     iteration # 28     ecut=    29.40 Ry     beta= 0.05
     Davidson diagonalization with overlap
     c_bands:  1 eigenvalues not converged
     ethr =  1.78E-04,  avg # of iterations = 14.9

     negative rho (up, down):  1.630E-03 0.000E+00
 
     Adding external electric field

     Computed dipole along edir(3) : 
        Dipole               -0.0786 Ry au,         -0.1997 Debye
        Dipole field         -0.0001 Ry au, 
 
        Potential amp.        0.0137 Ry
        Total length         46.3494 bohr
 

     total cpu time spent up to now is      584.6 secs

     total energy              =   -2975.15020214 Ry
     estimated scf accuracy    <       0.46451913 Ry

     iteration # 29     ecut=    29.40 Ry     beta= 0.05
     Davidson diagonalization with overlap
     c_bands:  1 eigenvalues not converged
     c_bands:  4 eigenvalues not converged
     c_bands:  2 eigenvalues not converged
     c_bands:  2 eigenvalues not converged
     c_bands:  2 eigenvalues not converged
     c_bands:  2 eigenvalues not converged
     ethr =  1.15E-04,  avg # of iterations = 16.3

     negative rho (up, down):  1.752E-03 0.000E+00
 
     Adding external electric field

     Computed dipole along edir(3) : 
        Dipole                0.3720 Ry au,          0.9455 Debye
        Dipole field          0.0007 Ry au, 
 
        Potential amp.       -0.0651 Ry
        Total length         46.3494 bohr
 

     total cpu time spent up to now is      600.9 secs

     total energy              =   -2975.07455501 Ry
     estimated scf accuracy    <       1.96100534 Ry

     iteration # 30     ecut=    29.40 Ry     beta= 0.05
     Davidson diagonalization with overlap
     c_bands:  2 eigenvalues not converged
     c_bands:  1 eigenvalues not converged
     ethr =  1.15E-04,  avg # of iterations = 10.6

     negative rho (up, down):  1.768E-03 0.000E+00
 
     Adding external electric field

     Computed dipole along edir(3) : 
        Dipole                0.5487 Ry au,          1.3947 Debye
        Dipole field          0.0010 Ry au, 
 
        Potential amp.       -0.0960 Ry
        Total length         46.3494 bohr
 

     total cpu time spent up to now is      614.2 secs

     total energy              =   -2975.10799135 Ry
     estimated scf accuracy    <       0.98951524 Ry

     iteration # 31     ecut=    29.40 Ry     beta= 0.05
     Davidson diagonalization with overlap
     c_bands:  1 eigenvalues not converged
     c_bands:  1 eigenvalues not converged
     c_bands:  3 eigenvalues not converged
     c_bands:  3 eigenvalues not converged
     c_bands:  1 eigenvalues not converged
     ethr =  1.15E-04,  avg # of iterations = 14.5

     negative rho (up, down):  1.874E-03 0.000E+00
 
     Adding external electric field

     Computed dipole along edir(3) : 
        Dipole                0.5020 Ry au,          1.2758 Debye
        Dipole field          0.0009 Ry au, 
 
        Potential amp.       -0.0878 Ry
        Total length         46.3494 bohr
 

     total cpu time spent up to now is      629.8 secs

     total energy              =   -2975.12100470 Ry
     estimated scf accuracy    <       1.20472835 Ry

     iteration # 32     ecut=    29.40 Ry     beta= 0.05
     Davidson diagonalization with overlap
     ethr =  1.15E-04,  avg # of iterations =  3.2

     negative rho (up, down):  2.480E-03 0.000E+00
 
     Adding external electric field

     Computed dipole along edir(3) : 
        Dipole                0.6770 Ry au,          1.7207 Debye
        Dipole field          0.0013 Ry au, 
 
        Potential amp.       -0.1184 Ry
        Total length         46.3494 bohr
 

     total cpu time spent up to now is      640.7 secs

     total energy              =   -2975.10989763 Ry
     estimated scf accuracy    <       0.71070467 Ry

     iteration # 33     ecut=    29.40 Ry     beta= 0.05
     Davidson diagonalization with overlap
     ethr =  1.15E-04,  avg # of iterations =  2.5

     negative rho (up, down):  4.199E-03 0.000E+00
 
     Adding external electric field

     Computed dipole along edir(3) : 
        Dipole                0.9605 Ry au,          2.4414 Debye
        Dipole field          0.0018 Ry au, 
 
        Potential amp.       -0.1680 Ry
        Total length         46.3494 bohr
 

     total cpu time spent up to now is      651.5 secs

     total energy              =   -2975.10071084 Ry
     estimated scf accuracy    <       0.35685580 Ry

     iteration # 34     ecut=    29.40 Ry     beta= 0.05
     Davidson diagonalization with overlap
     c_bands:  1 eigenvalues not converged
     ethr =  8.83E-05,  avg # of iterations =  7.8

     negative rho (up, down):  3.845E-03 0.000E+00
 
     Adding external electric field

     Computed dipole along edir(3) : 
        Dipole                0.7348 Ry au,          1.8677 Debye
        Dipole field          0.0014 Ry au, 
 
        Potential amp.       -0.1285 Ry
        Total length         46.3494 bohr
 

     total cpu time spent up to now is      664.6 secs

     total energy              =   -2975.08715155 Ry
     estimated scf accuracy    <       0.39460728 Ry

     iteration # 35     ecut=    29.40 Ry     beta= 0.05
     Davidson diagonalization with overlap
     ethr =  8.83E-05,  avg # of iterations =  8.3

     negative rho (up, down):  3.819E-03 0.000E+00
 
     Adding external electric field

     Computed dipole along edir(3) : 
        Dipole                0.7278 Ry au,          1.8499 Debye
        Dipole field          0.0014 Ry au, 
 
        Potential amp.       -0.1273 Ry
        Total length         46.3494 bohr
 

     total cpu time spent up to now is      677.4 secs

     total energy              =   -2975.09901888 Ry
     estimated scf accuracy    <       0.05824559 Ry

     iteration # 36     ecut=    29.40 Ry     beta= 0.05
     Davidson diagonalization with overlap
     c_bands:  3 eigenvalues not converged
     c_bands:  1 eigenvalues not converged
     c_bands:  2 eigenvalues not converged
     c_bands:  3 eigenvalues not converged
     c_bands:  2 eigenvalues not converged
     c_bands:  3 eigenvalues not converged
     ethr =  1.44E-05,  avg # of iterations = 16.8

     negative rho (up, down):  3.979E-03 0.000E+00
 
     Adding external electric field

     Computed dipole along edir(3) : 
        Dipole                0.8059 Ry au,          2.0484 Debye
        Dipole field          0.0015 Ry au, 
 
        Potential amp.       -0.1410 Ry
        Total length         46.3494 bohr
 

     total cpu time spent up to now is      695.1 secs

     total energy              =   -2975.10166264 Ry
     estimated scf accuracy    <       0.06152768 Ry

     iteration # 37     ecut=    29.40 Ry     beta= 0.05
     Davidson diagonalization with overlap
     c_bands:  1 eigenvalues not converged
     c_bands:  1 eigenvalues not converged
     c_bands:  1 eigenvalues not converged
     c_bands:  2 eigenvalues not converged
     ethr =  1.44E-05,  avg # of iterations = 13.6

     negative rho (up, down):  3.918E-03 0.000E+00
 
     Adding external electric field

     Computed dipole along edir(3) : 
        Dipole                0.7264 Ry au,          1.8462 Debye
        Dipole field          0.0014 Ry au, 
 
        Potential amp.       -0.1271 Ry
        Total length         46.3494 bohr
 

     total cpu time spent up to now is      709.3 secs

     total energy              =   -2975.09641312 Ry
     estimated scf accuracy    <       0.06682933 Ry

     iteration # 38     ecut=    29.40 Ry     beta= 0.05
     Davidson diagonalization with overlap
     c_bands:  1 eigenvalues not converged
     c_bands:  1 eigenvalues not converged
     ethr =  1.44E-05,  avg # of iterations = 12.0

     negative rho (up, down):  7.505E-03 0.000E+00
 
     Adding external electric field

     Computed dipole along edir(3) : 
        Dipole                1.0471 Ry au,          2.6616 Debye
        Dipole field          0.0020 Ry au, 
 
        Potential amp.       -0.1832 Ry
        Total length         46.3494 bohr
 

     total cpu time spent up to now is      723.7 secs

     total energy              =   -2975.10110345 Ry
     estimated scf accuracy    <       0.04270353 Ry

     iteration # 39     ecut=    29.40 Ry     beta= 0.05
     Davidson diagonalization with overlap
     c_bands:  1 eigenvalues not converged
     c_bands:  1 eigenvalues not converged
     c_bands:  1 eigenvalues not converged
     c_bands:  1 eigenvalues not converged
     ethr =  1.06E-05,  avg # of iterations = 15.6

     negative rho (up, down):  8.407E-03 0.000E+00
 
     Adding external electric field

     Computed dipole along edir(3) : 
        Dipole                1.0482 Ry au,          2.6643 Debye
        Dipole field          0.0020 Ry au, 
 
        Potential amp.       -0.1834 Ry
        Total length         46.3494 bohr
 

     total cpu time spent up to now is      740.6 secs

     total energy              =   -2975.10580289 Ry
     estimated scf accuracy    <       0.12989854 Ry

     iteration # 40     ecut=    29.40 Ry     beta= 0.05
     Davidson diagonalization with overlap
     ethr =  1.06E-05,  avg # of iterations =  2.4

     negative rho (up, down):  9.099E-03 0.000E+00
 
     Adding external electric field

     Computed dipole along edir(3) : 
        Dipole                1.0352 Ry au,          2.6312 Debye
        Dipole field          0.0020 Ry au, 
 
        Potential amp.       -0.1811 Ry
        Total length         46.3494 bohr
 

     total cpu time spent up to now is      751.3 secs

     total energy              =   -2975.10481945 Ry
     estimated scf accuracy    <       0.06822983 Ry

     iteration # 41     ecut=    29.40 Ry     beta= 0.05
     Davidson diagonalization with overlap
     ethr =  1.06E-05,  avg # of iterations =  6.9

     negative rho (up, down):  1.181E-02 0.000E+00
 
     Adding external electric field

     Computed dipole along edir(3) : 
        Dipole                1.0480 Ry au,          2.6637 Debye
        Dipole field          0.0020 Ry au, 
 
        Potential amp.       -0.1833 Ry
        Total length         46.3494 bohr
 

     total cpu time spent up to now is      763.7 secs

     total energy              =   -2975.10456457 Ry
     estimated scf accuracy    <       0.03058006 Ry

     iteration # 42     ecut=    29.40 Ry     beta= 0.05
     Davidson diagonalization with overlap
     ethr =  7.57E-06,  avg # of iterations =  2.4

     negative rho (up, down):  1.212E-02 0.000E+00
 
     Adding external electric field

     Computed dipole along edir(3) : 
        Dipole                1.0812 Ry au,          2.7482 Debye
        Dipole field          0.0020 Ry au, 
 
        Potential amp.       -0.1891 Ry
        Total length         46.3494 bohr
 

     total cpu time spent up to now is      774.7 secs

     total energy              =   -2975.10575494 Ry
     estimated scf accuracy    <       0.01205716 Ry

     iteration # 43     ecut=    29.40 Ry     beta= 0.05
     Davidson diagonalization with overlap
     c_bands:  3 eigenvalues not converged
     c_bands:  1 eigenvalues not converged
     ethr =  2.98E-06,  avg # of iterations = 15.0

     negative rho (up, down):  1.264E-02 0.000E+00
 
     Adding external electric field

     Computed dipole along edir(3) : 
        Dipole                1.0461 Ry au,          2.6589 Debye
        Dipole field          0.0020 Ry au, 
 
        Potential amp.       -0.1830 Ry
        Total length         46.3494 bohr
 

     total cpu time spent up to now is      790.4 secs

     total energy              =   -2975.10484540 Ry
     estimated scf accuracy    <       0.04107309 Ry

     iteration # 44     ecut=    29.40 Ry     beta= 0.05
     Davidson diagonalization with overlap
     ethr =  2.98E-06,  avg # of iterations =  7.2

     negative rho (up, down):  1.216E-02 0.000E+00
 
     Adding external electric field

     Computed dipole along edir(3) : 
        Dipole                0.9777 Ry au,          2.4851 Debye
        Dipole field          0.0018 Ry au, 
 
        Potential amp.       -0.1710 Ry
        Total length         46.3494 bohr
 

     total cpu time spent up to now is      802.8 secs

     total energy              =   -2975.10393421 Ry
     estimated scf accuracy    <       0.01206954 Ry

     iteration # 45     ecut=    29.40 Ry     beta= 0.05
     Davidson diagonalization with overlap
     c_bands:  4 eigenvalues not converged
     c_bands:  1 eigenvalues not converged
     c_bands:  1 eigenvalues not converged
     c_bands:  1 eigenvalues not converged
     c_bands:  1 eigenvalues not converged
     c_bands:  3 eigenvalues not converged
     ethr =  2.98E-06,  avg # of iterations = 18.1

     negative rho (up, down):  1.317E-02 0.000E+00
 
     Adding external electric field

     Computed dipole along edir(3) : 
        Dipole                1.0059 Ry au,          2.5569 Debye
        Dipole field          0.0019 Ry au, 
 
        Potential amp.       -0.1760 Ry
        Total length         46.3494 bohr
 

     total cpu time spent up to now is      821.2 secs

     total energy              =   -2975.10478748 Ry
     estimated scf accuracy    <       0.01081776 Ry

     iteration # 46     ecut=    29.40 Ry     beta= 0.05
     Davidson diagonalization with overlap
     c_bands:  1 eigenvalues not converged
     ethr =  2.68E-06,  avg # of iterations =  6.0

     negative rho (up, down):  1.312E-02 0.000E+00
 
     Adding external electric field

     Computed dipole along edir(3) : 
        Dipole                0.9969 Ry au,          2.5339 Debye
        Dipole field          0.0019 Ry au, 
 
        Potential amp.       -0.1744 Ry
        Total length         46.3494 bohr
 

     total cpu time spent up to now is      833.0 secs

     total energy              =   -2975.10474612 Ry
     estimated scf accuracy    <       0.00314857 Ry

     iteration # 47     ecut=    29.40 Ry     beta= 0.05
     Davidson diagonalization with overlap
     c_bands:  1 eigenvalues not converged
     ethr =  7.79E-07,  avg # of iterations = 13.0

     negative rho (up, down):  1.190E-02 0.000E+00
 
     Adding external electric field

     Computed dipole along edir(3) : 
        Dipole                0.9783 Ry au,          2.4866 Debye
        Dipole field          0.0018 Ry au, 
 
        Potential amp.       -0.1711 Ry
        Total length         46.3494 bohr
 

     total cpu time spent up to now is      848.8 secs

     total energy              =   -2975.10471153 Ry
     estimated scf accuracy    <       0.00489873 Ry

     iteration # 48     ecut=    29.40 Ry     beta= 0.05
     Davidson diagonalization with overlap
     c_bands:  1 eigenvalues not converged
     ethr =  7.79E-07,  avg # of iterations =  3.7

     negative rho (up, down):  1.317E-02 0.000E+00
 
     Adding external electric field

     Computed dipole along edir(3) : 
        Dipole                0.9920 Ry au,          2.5214 Debye
        Dipole field          0.0019 Ry au, 
 
        Potential amp.       -0.1735 Ry
        Total length         46.3494 bohr
 

     total cpu time spent up to now is      860.0 secs

     total energy              =   -2975.10485423 Ry
     estimated scf accuracy    <       0.00420435 Ry

     iteration # 49     ecut=    29.40 Ry     beta= 0.05
     Davidson diagonalization with overlap
     c_bands:  1 eigenvalues not converged
     ethr =  7.79E-07,  avg # of iterations =  6.9

     negative rho (up, down):  1.467E-02 0.000E+00
 
     Adding external electric field

     Computed dipole along edir(3) : 
        Dipole                1.0078 Ry au,          2.5617 Debye
        Dipole field          0.0019 Ry au, 
 
        Potential amp.       -0.1763 Ry
        Total length         46.3494 bohr
 

     total cpu time spent up to now is      872.0 secs

     total energy              =   -2975.10480320 Ry
     estimated scf accuracy    <       0.00247132 Ry

     iteration # 50     ecut=    29.40 Ry     beta= 0.05
     Davidson diagonalization with overlap
     c_bands:  1 eigenvalues not converged
     c_bands:  3 eigenvalues not converged
     ethr =  6.12E-07,  avg # of iterations = 12.0

     negative rho (up, down):  1.429E-02 0.000E+00
 
     Adding external electric field

     Computed dipole along edir(3) : 
        Dipole                1.0104 Ry au,          2.5683 Debye
        Dipole field          0.0019 Ry au, 
 
        Potential amp.       -0.1768 Ry
        Total length         46.3494 bohr
 

     total cpu time spent up to now is      886.3 secs

     total energy              =   -2975.10484929 Ry
     estimated scf accuracy    <       0.00094446 Ry

     iteration # 51     ecut=    29.40 Ry     beta= 0.05
     Davidson diagonalization with overlap
     c_bands:  1 eigenvalues not converged
     c_bands:  3 eigenvalues not converged
     ethr =  2.34E-07,  avg # of iterations = 15.5

     negative rho (up, down):  1.415E-02 0.000E+00
 
     Adding external electric field

     Computed dipole along edir(3) : 
        Dipole                1.0117 Ry au,          2.5715 Debye
        Dipole field          0.0019 Ry au, 
 
        Potential amp.       -0.1770 Ry
        Total length         46.3494 bohr
 

     total cpu time spent up to now is      902.4 secs

     total energy              =   -2975.10490639 Ry
     estimated scf accuracy    <       0.00040380 Ry

     iteration # 52     ecut=    29.40 Ry     beta= 0.05
     Davidson diagonalization with overlap
     c_bands:  2 eigenvalues not converged
     ethr =  1.00E-07,  avg # of iterations = 10.7

     negative rho (up, down):  1.527E-02 0.000E+00
 
     Adding external electric field

     Computed dipole along edir(3) : 
        Dipole                1.0345 Ry au,          2.6293 Debye
        Dipole field          0.0020 Ry au, 
 
        Potential amp.       -0.1810 Ry
        Total length         46.3494 bohr
 

     total cpu time spent up to now is      916.0 secs

     total energy              =   -2975.10495345 Ry
     estimated scf accuracy    <       0.00027636 Ry

     iteration # 53     ecut=    29.40 Ry     beta= 0.05
     Davidson diagonalization with overlap
     c_bands:  3 eigenvalues not converged
     ethr =  6.84E-08,  avg # of iterations = 14.5

     negative rho (up, down):  1.536E-02 0.000E+00
 
     Adding external electric field

     Computed dipole along edir(3) : 
        Dipole                1.0249 Ry au,          2.6051 Debye
        Dipole field          0.0019 Ry au, 
 
        Potential amp.       -0.1793 Ry
        Total length         46.3494 bohr
 

     total cpu time spent up to now is      935.5 secs

     total energy              =   -2975.10493750 Ry
     estimated scf accuracy    <       0.00072778 Ry

     iteration # 54     ecut=    29.40 Ry     beta= 0.05
     Davidson diagonalization with overlap
     c_bands:  1 eigenvalues not converged
     ethr =  6.84E-08,  avg # of iterations = 12.4

     negative rho (up, down):  1.585E-02 0.000E+00
 
     Adding external electric field

     Computed dipole along edir(3) : 
        Dipole                1.0231 Ry au,          2.6006 Debye
        Dipole field          0.0019 Ry au, 
 
        Potential amp.       -0.1790 Ry
        Total length         46.3494 bohr
 

     total cpu time spent up to now is      952.2 secs

     total energy              =   -2975.10502517 Ry
     estimated scf accuracy    <       0.00013430 Ry

     iteration # 55     ecut=    29.40 Ry     beta= 0.05
     Davidson diagonalization with overlap
     ethr =  3.32E-08,  avg # of iterations = 12.0

     negative rho (up, down):  1.587E-02 0.000E+00
 
     Adding external electric field

     Computed dipole along edir(3) : 
        Dipole                1.0256 Ry au,          2.6068 Debye
        Dipole field          0.0019 Ry au, 
 
        Potential amp.       -0.1794 Ry
        Total length         46.3494 bohr
 

     total cpu time spent up to now is      969.3 secs

     total energy              =   -2975.10503417 Ry
     estimated scf accuracy    <       0.00012194 Ry

     iteration # 56     ecut=    29.40 Ry     beta= 0.05
     Davidson diagonalization with overlap
     ethr =  3.02E-08,  avg # of iterations =  7.4

     negative rho (up, down):  1.586E-02 0.000E+00
 
     Adding external electric field

     Computed dipole along edir(3) : 
        Dipole                1.0278 Ry au,          2.6124 Debye
        Dipole field          0.0019 Ry au, 
 
        Potential amp.       -0.1798 Ry
        Total length         46.3494 bohr
 

     total cpu time spent up to now is      982.4 secs

     total energy              =   -2975.10504254 Ry
     estimated scf accuracy    <       0.00004424 Ry

     iteration # 57     ecut=    29.40 Ry     beta= 0.05
     Davidson diagonalization with overlap
     c_bands:  1 eigenvalues not converged
     c_bands:  2 eigenvalues not converged
     c_bands:  2 eigenvalues not converged
     ethr =  1.10E-08,  avg # of iterations = 16.9

     negative rho (up, down):  1.575E-02 0.000E+00
 
     Adding external electric field

     Computed dipole along edir(3) : 
        Dipole                1.0256 Ry au,          2.6067 Debye
        Dipole field          0.0019 Ry au, 
 
        Potential amp.       -0.1794 Ry
        Total length         46.3494 bohr
 

     total cpu time spent up to now is     1003.7 secs

     total energy              =   -2975.10506308 Ry
     estimated scf accuracy    <       0.00005698 Ry

     iteration # 58     ecut=    29.40 Ry     beta= 0.05
     Davidson diagonalization with overlap
     ethr =  1.10E-08,  avg # of iterations =  6.1

     negative rho (up, down):  1.573E-02 0.000E+00
 
     Adding external electric field

     Computed dipole along edir(3) : 
        Dipole                1.0218 Ry au,          2.5971 Debye
        Dipole field          0.0019 Ry au, 
 
        Potential amp.       -0.1787 Ry
        Total length         46.3494 bohr
 

     total cpu time spent up to now is     1015.5 secs

     total energy              =   -2975.10506483 Ry
     estimated scf accuracy    <       0.00003501 Ry

     iteration # 59     ecut=    29.40 Ry     beta= 0.05
     Davidson diagonalization with overlap
     c_bands:  1 eigenvalues not converged
     ethr =  8.67E-09,  avg # of iterations = 14.0

     negative rho (up, down):  1.581E-02 0.000E+00
 
     Adding external electric field

     Computed dipole along edir(3) : 
        Dipole                1.0233 Ry au,          2.6010 Debye
        Dipole field          0.0019 Ry au, 
 
        Potential amp.       -0.1790 Ry
        Total length         46.3494 bohr
 

     total cpu time spent up to now is     1035.1 secs

     total energy              =   -2975.10507790 Ry
     estimated scf accuracy    <       0.00001117 Ry

     iteration # 60     ecut=    29.40 Ry     beta= 0.05
     Davidson diagonalization with overlap
     ethr =  2.77E-09,  avg # of iterations =  9.9

     negative rho (up, down):  1.581E-02 0.000E+00
 
     Adding external electric field

     Computed dipole along edir(3) : 
        Dipole                1.0234 Ry au,          2.6012 Debye
        Dipole field          0.0019 Ry au, 
 
        Potential amp.       -0.1790 Ry
        Total length         46.3494 bohr
 

     total cpu time spent up to now is     1050.9 secs

     total energy              =   -2975.10508684 Ry
     estimated scf accuracy    <       0.00000450 Ry

     iteration # 61     ecut=    29.40 Ry     beta= 0.05
     Davidson diagonalization with overlap
     ethr =  1.11E-09,  avg # of iterations = 11.6

     negative rho (up, down):  1.582E-02 0.000E+00
 
     Adding external electric field

     Computed dipole along edir(3) : 
        Dipole                1.0229 Ry au,          2.5999 Debye
        Dipole field          0.0019 Ry au, 
 
        Potential amp.       -0.1789 Ry
        Total length         46.3494 bohr
 

     total cpu time spent up to now is     1068.9 secs

     total energy              =   -2975.10509345 Ry
     estimated scf accuracy    <       0.00000627 Ry

     iteration # 62     ecut=    29.40 Ry     beta= 0.05
     Davidson diagonalization with overlap
     ethr =  1.11E-09,  avg # of iterations =  6.8

     negative rho (up, down):  1.581E-02 0.000E+00
 
     Adding external electric field

     Computed dipole along edir(3) : 
        Dipole                1.0221 Ry au,          2.5979 Debye
        Dipole field          0.0019 Ry au, 
 
        Potential amp.       -0.1788 Ry
        Total length         46.3494 bohr
 

     total cpu time spent up to now is     1081.4 secs

     total energy              =   -2975.10509920 Ry
     estimated scf accuracy    <       0.00000217 Ry

     iteration # 63     ecut=    29.40 Ry     beta= 0.05
     Davidson diagonalization with overlap
     ethr =  5.36E-10,  avg # of iterations = 10.2

     negative rho (up, down):  1.577E-02 0.000E+00
 
     Adding external electric field

     Computed dipole along edir(3) : 
        Dipole                1.0216 Ry au,          2.5967 Debye
        Dipole field          0.0019 Ry au, 
 
        Potential amp.       -0.1787 Ry
        Total length         46.3494 bohr
 

     total cpu time spent up to now is     1099.9 secs

     total energy              =   -2975.10510509 Ry
     estimated scf accuracy    <       0.00000209 Ry

     iteration # 64     ecut=    29.40 Ry     beta= 0.05
     Davidson diagonalization with overlap
     ethr =  5.18E-10,  avg # of iterations =  4.5

     negative rho (up, down):  1.577E-02 0.000E+00
 
     Adding external electric field

     Computed dipole along edir(3) : 
        Dipole                1.0218 Ry au,          2.5972 Debye
        Dipole field          0.0019 Ry au, 
 
        Potential amp.       -0.1787 Ry
        Total length         46.3494 bohr
 

     total cpu time spent up to now is     1111.4 secs

     total energy              =   -2975.10510970 Ry
     estimated scf accuracy    <       0.00000164 Ry

     iteration # 65     ecut=    29.40 Ry     beta= 0.05
     Davidson diagonalization with overlap
     ethr =  4.05E-10,  avg # of iterations =  5.3

     negative rho (up, down):  1.580E-02 0.000E+00
 
     Adding external electric field

     Computed dipole along edir(3) : 
        Dipole                1.0222 Ry au,          2.5981 Debye
        Dipole field          0.0019 Ry au, 
 
        Potential amp.       -0.1788 Ry
        Total length         46.3494 bohr
 

     total cpu time spent up to now is     1123.7 secs

     total energy              =   -2975.10511396 Ry
     estimated scf accuracy    <       0.00000062 Ry

     iteration # 66     ecut=    29.40 Ry     beta= 0.05
     Davidson diagonalization with overlap
     ethr =  1.52E-10,  avg # of iterations = 12.9

     negative rho (up, down):  1.580E-02 0.000E+00
 
     Adding external electric field

     Computed dipole along edir(3) : 
        Dipole                1.0219 Ry au,          2.5975 Debye
        Dipole field          0.0019 Ry au, 
 
        Potential amp.       -0.1788 Ry
        Total length         46.3494 bohr
 

     total cpu time spent up to now is     1143.5 secs

     total energy              =   -2975.10511786 Ry
     estimated scf accuracy    <       0.00000072 Ry

     iteration # 67     ecut=    29.40 Ry     beta= 0.05
     Davidson diagonalization with overlap
     ethr =  1.52E-10,  avg # of iterations =  5.0

     negative rho (up, down):  1.579E-02 0.000E+00
 
     Adding external electric field

     Computed dipole along edir(3) : 
        Dipole                1.0218 Ry au,          2.5970 Debye
        Dipole field          0.0019 Ry au, 
 
        Potential amp.       -0.1787 Ry
        Total length         46.3494 bohr
 

     total cpu time spent up to now is     1155.2 secs

     total energy              =   -2975.10512126 Ry
     estimated scf accuracy    <       0.00000042 Ry

     iteration # 68     ecut=    29.40 Ry     beta= 0.05
     Davidson diagonalization with overlap
     ethr =  1.04E-10,  avg # of iterations = 10.5

     negative rho (up, down):  1.577E-02 0.000E+00
 
     Adding external electric field

     Computed dipole along edir(3) : 
        Dipole                1.0217 Ry au,          2.5968 Debye
        Dipole field          0.0019 Ry au, 
 
        Potential amp.       -0.1787 Ry
        Total length         46.3494 bohr
 

     total cpu time spent up to now is     1169.7 secs

     total energy              =   -2975.10512437 Ry
     estimated scf accuracy    <       0.00000024 Ry

     iteration # 69     ecut=    29.40 Ry     beta= 0.05
     Davidson diagonalization with overlap
     ethr =  5.91E-11,  avg # of iterations =  5.1

     negative rho (up, down):  1.574E-02 0.000E+00
 
     Adding external electric field

     Computed dipole along edir(3) : 
        Dipole                1.0215 Ry au,          2.5965 Debye
        Dipole field          0.0019 Ry au, 
 
        Potential amp.       -0.1787 Ry
        Total length         46.3494 bohr
 

     total cpu time spent up to now is     1181.5 secs

     total energy              =   -2975.10512717 Ry
     estimated scf accuracy    <       0.00000018 Ry

     iteration # 70     ecut=    29.40 Ry     beta= 0.05
     Davidson diagonalization with overlap
     ethr =  4.44E-11,  avg # of iterations = 13.1

     negative rho (up, down):  1.576E-02 0.000E+00
 
     Adding external electric field

     Computed dipole along edir(3) : 
        Dipole                1.0215 Ry au,          2.5964 Debye
        Dipole field          0.0019 Ry au, 
 
        Potential amp.       -0.1787 Ry
        Total length         46.3494 bohr
 

     total cpu time spent up to now is     1199.2 secs

     total energy              =   -2975.10512963 Ry
     estimated scf accuracy    <       0.00000012 Ry

     iteration # 71     ecut=    29.40 Ry     beta= 0.05
     Davidson diagonalization with overlap
     ethr =  3.02E-11,  avg # of iterations =  6.9

     negative rho (up, down):  1.579E-02 0.000E+00
 
     Adding external electric field

     Computed dipole along edir(3) : 
        Dipole                1.0220 Ry au,          2.5977 Debye
        Dipole field          0.0019 Ry au, 
 
        Potential amp.       -0.1788 Ry
        Total length         46.3494 bohr
 

     total cpu time spent up to now is     1212.1 secs

     End of self-consistent calculation

          k = 0.0000 0.0000 0.0000 ( 18029 PWs)   bands (ev):

   -55.3864 -55.3506 -55.3465 -55.3124 -55.3093 -55.3036 -55.2684 -55.2331
   -55.2179 -55.1831 -55.1764 -55.1612 -55.1427 -55.1132 -54.3780 -54.3439
   -31.9454 -31.8814 -31.8392 -31.7580 -31.7093 -31.7065 -31.6823 -31.6794
   -31.6352 -31.5995 -31.5924 -31.5911 -31.5841 -31.5806 -31.5626 -31.5604
   -31.5357 -31.5277 -31.5248 -31.5134 -31.4992 -31.4926 -31.4738 -31.4688
   -31.4605 -31.4476 -31.4469 -31.4182 -31.4038 -31.4000 -31.3970 -31.3748
   -31.3709 -31.3668 -31.3633 -31.3420 -31.3310 -31.3191 -31.3041 -31.3040
   -31.2935 -31.2875 -30.7875 -30.6929 -30.6708 -30.6038 -30.5170 -30.4061
   -18.9438 -18.4524 -16.2213 -15.9739 -15.8379 -15.7335 -15.5960 -15.4979
   -15.3887 -15.2754 -15.2523 -15.1581 -15.0843 -15.0804 -15.0434 -15.0176
   -14.9548 -14.9335 -14.9097 -14.9038 -14.8892 -14.8790 -14.8424 -14.8315
   -14.7953 -14.7876 -14.7703 -14.6337 -14.6230 -14.5530 -14.4825 -14.3432
   -12.8805 -12.7630  -9.8543  -7.0385  -6.3730  -6.0555  -4.4324  -3.7405
    -3.5452  -3.4114  -3.3332  -3.3064  -3.2869  -3.1552  -3.0599  -2.9027
    -2.8642  -2.8076  -2.6748  -2.5990  -2.5925  -2.5046  -2.4320  -2.4089
    -2.3758  -2.2666  -2.2603  -2.2111  -2.1933  -2.1702  -2.1608  -2.1141
    -2.0681  -2.0410  -1.9559  -1.8544  -1.8106  -1.7910  -1.7544  -1.7318
    -1.7266  -1.6835  -1.6773  -1.6536  -1.6148  -1.5904  -1.5446  -1.4329
    -1.3908  -1.2324  -1.1960  -1.0411  -1.0207  -0.9814  -0.9609  -0.9149
    -0.8944  -0.8781  -0.8567  -0.7734  -0.7151  -0.6495  -0.5849  -0.4930
    -0.4830  -0.4095  -0.3838  -0.3187  -0.2300  -0.1864  -0.1767  -0.1521
    -0.1485  -0.0349   0.0099   0.0700   0.0886   0.1462   0.1621   0.1842
     0.2541   0.3076   0.3772   0.4081   0.4870   0.5053   0.5403   0.5495
     0.5819   0.5923   0.6687   0.6834   0.7116   0.8143   0.9118   1.0061
     1.2157   1.2173   1.2629   1.5497   1.5518   1.6449   1.8283   2.2212
     2.2697   3.7034   3.7818   3.8313   3.8490   3.8535   3.9384   4.1929
     4.2073   4.2199   4.2261   4.2667

          k = 0.0000 0.0419 0.0000 ( 17933 PWs)   bands (ev):

   -55.3811 -55.3558 -55.3414 -55.3173 -55.3082 -55.3027 -55.2635 -55.2379
   -55.2130 -55.1879 -55.1714 -55.1621 -55.1475 -55.1139 -54.3729 -54.3488
   -31.8887 -31.8423 -31.7851 -31.7031 -31.6696 -31.6580 -31.6533 -31.6397
   -31.6303 -31.6165 -31.5990 -31.5879 -31.5864 -31.5755 -31.5651 -31.5553
   -31.5505 -31.5358 -31.5315 -31.5172 -31.4988 -31.4975 -31.4852 -31.4778
   -31.4765 -31.4436 -31.4412 -31.4286 -31.4214 -31.4199 -31.4175 -31.4074
   -31.3870 -31.3701 -31.3660 -31.3630 -31.3586 -31.3496 -31.3415 -31.3345
   -31.3146 -31.3000 -30.7332 -30.6894 -30.6738 -30.5912 -30.5296 -30.4633
   -18.9414 -18.4537 -16.0977 -15.8650 -15.7595 -15.6533 -15.4918 -15.4320
   -15.3442 -15.2856 -15.2298 -15.1989 -15.1304 -15.0908 -15.0499 -15.0354
   -14.9909 -14.9609 -14.9370 -14.9019 -14.8922 -14.8777 -14.8774 -14.8442
   -14.8317 -14.8299 -14.7649 -14.6861 -14.6395 -14.6083 -14.5422 -14.4409
   -12.8841 -12.8023  -9.8591  -7.0439  -6.3803  -6.0178  -4.4518  -3.7096
    -3.3620  -3.2431  -3.1989  -3.1619  -3.1116  -3.0143  -2.9778  -2.7516
    -2.7290  -2.6852  -2.6227  -2.5567  -2.5402  -2.4817  -2.4505  -2.4182
    -2.4096  -2.3573  -2.3402  -2.3138  -2.2752  -2.2380  -2.1898  -2.1628
    -2.1441  -2.0949  -2.0637  -1.9947  -1.9817  -1.9607  -1.9454  -1.9297
    -1.8258  -1.7990  -1.7192  -1.6693  -1.5552  -1.4442  -1.4146  -1.3395
    -1.2535  -1.2108  -1.1523  -1.0892  -0.9997  -0.9608  -0.8431  -0.7761
    -0.7525  -0.7095  -0.7037  -0.6764  -0.6591  -0.6015  -0.5629  -0.4749
    -0.4007  -0.3851  -0.3457  -0.3293  -0.3142  -0.2402  -0.2171  -0.2007
    -0.1203  -0.0681  -0.0287  -0.0011   0.0529   0.0699   0.0987   0.1773
     0.1978   0.2569   0.3138   0.3533   0.3615   0.3962   0.4152   0.4268
     0.5380   0.5815   0.6139   0.6373   0.7216   0.7839   0.8674   0.9006
     0.9196   1.0836   1.2524   1.2560   1.4271   1.8284   1.9043   2.1762
     2.1800   3.8977   3.9099   3.9392   3.9964   4.0775   4.1022   4.1147
     4.1412   4.1889   4.2095   4.2650

          k = 0.0000-0.0839 0.0000 ( 17884 PWs)   bands (ev):

   -55.3696 -55.3672 -55.3294 -55.3293 -55.3072 -55.3019 -55.2546 -55.2467
   -55.2037 -55.1971 -55.1630 -55.1603 -55.1586 -55.1148 -54.3608 -54.3608
   -31.7957 -31.7573 -31.7431 -31.6527 -31.6526 -31.6390 -31.6275 -31.6204
   -31.6203 -31.5881 -31.5738 -31.5683 -31.5661 -31.5637 -31.5585 -31.5584
   -31.5476 -31.5463 -31.5305 -31.5241 -31.5233 -31.5169 -31.5011 -31.4803
   -31.4668 -31.4653 -31.4636 -31.4598 -31.4545 -31.4515 -31.4514 -31.4367
   -31.4278 -31.4272 -31.4215 -31.3796 -31.3598 -31.3568 -31.3568 -31.3402
   -31.3390 -31.2970 -30.6814 -30.6814 -30.6002 -30.6000 -30.5604 -30.5603
   -18.9391 -18.4551 -15.8899 -15.7484 -15.6052 -15.5482 -15.4278 -15.4162
   -15.3911 -15.3126 -15.2334 -15.2122 -15.2076 -15.1726 -15.0428 -15.0026
   -14.9940 -14.9826 -14.9765 -14.9463 -14.9176 -14.8975 -14.8328 -14.8134
   -14.8039 -14.8012 -14.7459 -14.7391 -14.6981 -14.6874 -14.6850 -14.5544
   -12.8650 -12.8649  -9.8639  -7.0495  -6.3860  -5.9823  -4.4701  -3.6868
    -3.0436  -2.9617  -2.9521  -2.8545  -2.8326  -2.8193  -2.7977  -2.7829
    -2.7289  -2.6704  -2.6692  -2.5991  -2.5915  -2.5595  -2.5523  -2.5373
    -2.5123  -2.4546  -2.4116  -2.3906  -2.3069  -2.2873  -2.2612  -2.2504
    -2.2429  -2.2116  -2.1654  -2.1404  -2.0361  -2.0033  -1.8485  -1.8343
    -1.7643  -1.7610  -1.5970  -1.5552  -1.5275  -1.4763  -1.3357  -1.2179
    -1.1843  -1.1698  -1.1599  -1.1368  -0.9366  -0.9119  -0.8748  -0.8677
    -0.8479  -0.8259  -0.7847  -0.7800  -0.7778  -0.6419  -0.5781  -0.5687
    -0.4858  -0.4165  -0.3418  -0.2772  -0.1430  -0.1130  -0.0865  -0.0383
    -0.0193  -0.0099   0.0129   0.0223   0.0610   0.1005   0.1212   0.1268
     0.1503   0.1935   0.2316   0.2358   0.2783   0.3122   0.3495   0.3609
     0.3927   0.3933   0.4186   0.4329   0.7186   0.7773   0.8162   0.8167
     0.9543   0.9803   1.1691   1.1767   1.2470   1.9698   1.9711   2.1119
     2.1119   3.9819   3.9960   4.0361   4.0553   4.1009   4.1283   4.1843
     4.1915   4.2745   4.2877   4.3149

          k = 0.0380 0.0000 0.0000 ( 17913 PWs)   bands (ev):

   -55.3863 -55.3505 -55.3464 -55.3123 -55.3088 -55.3039 -55.2683 -55.2330
   -55.2177 -55.1830 -55.1764 -55.1611 -55.1426 -55.1131 -54.3779 -54.3438
   -31.9455 -31.8815 -31.8401 -31.7633 -31.7130 -31.7106 -31.6826 -31.6791
   -31.6350 -31.5922 -31.5910 -31.5848 -31.5820 -31.5802 -31.5603 -31.5468
   -31.5356 -31.5263 -31.5195 -31.4972 -31.4928 -31.4925 -31.4812 -31.4687
   -31.4646 -31.4602 -31.4473 -31.4182 -31.4035 -31.3993 -31.3895 -31.3854
   -31.3746 -31.3708 -31.3663 -31.3380 -31.3297 -31.3186 -31.3103 -31.3040
   -31.2939 -31.2878 -30.7870 -30.6964 -30.6688 -30.6036 -30.5169 -30.4059
   -18.9424 -18.4534 -16.1418 -15.8930 -15.8436 -15.6698 -15.5196 -15.4817
   -15.3988 -15.3004 -15.2566 -15.2173 -15.1914 -15.1643 -15.0899 -15.0800
   -15.0645 -14.9952 -14.9113 -14.9050 -14.8834 -14.8413 -14.8250 -14.7919
   -14.7505 -14.7009 -14.6506 -14.6369 -14.6279 -14.6164 -14.5691 -14.3429
   -12.8772 -12.7627  -9.8547  -7.0444  -6.3687  -6.0376  -4.4304  -3.7235
    -3.4139  -3.3070  -3.1786  -3.1299  -3.0431  -3.0189  -3.0006  -2.9276
    -2.8771  -2.8589  -2.8170  -2.7546  -2.7121  -2.5300  -2.4708  -2.4552
    -2.3831  -2.2575  -2.1815  -2.1516  -2.1497  -2.0917  -2.0563  -2.0477
    -2.0128  -1.9837  -1.9142  -1.8218  -1.7833  -1.7474  -1.7323  -1.7167
    -1.7039  -1.6466  -1.6382  -1.6077  -1.5497  -1.4727  -1.4468  -1.3673
    -1.3105  -1.2331  -1.2050  -1.0871  -1.0385  -1.0228  -0.9805  -0.9290
    -0.9142  -0.8896  -0.8247  -0.8094  -0.8011  -0.7418  -0.7028  -0.6588
    -0.4709  -0.4282  -0.3742  -0.3242  -0.2963  -0.2630  -0.1963  -0.1456
    -0.1230  -0.1020  -0.0289   0.0037   0.0457   0.0814   0.1333   0.1645
     0.2151   0.2918   0.3140   0.3403   0.3626   0.3883   0.4261   0.4663
     0.5150   0.5588   0.5762   0.6180   0.6519   0.7209   0.7795   0.8114
     1.0463   1.2475   1.2678   1.4127   1.5560   1.6568   1.7971   2.1085
     2.1869   3.7168   3.8065   3.9233   4.0151   4.0482   4.0960   4.1446
     4.1482   4.1949   4.2046   4.2168

          k = 0.0380 0.0419 0.0000 ( 17878 PWs)   bands (ev):

   -55.3810 -55.3557 -55.3414 -55.3173 -55.3078 -55.3030 -55.2634 -55.2379
   -55.2128 -55.1879 -55.1714 -55.1620 -55.1475 -55.1139 -54.3728 -54.3488
   -31.8889 -31.8424 -31.7860 -31.7094 -31.6710 -31.6604 -31.6575 -31.6401
   -31.6301 -31.6165 -31.5989 -31.5867 -31.5765 -31.5734 -31.5650 -31.5504
   -31.5412 -31.5313 -31.5263 -31.5173 -31.4976 -31.4839 -31.4828 -31.4803
   -31.4775 -31.4576 -31.4433 -31.4261 -31.4217 -31.4172 -31.4099 -31.4073
   -31.3961 -31.3715 -31.3697 -31.3656 -31.3651 -31.3465 -31.3412 -31.3333
   -31.3146 -31.3072 -30.7329 -30.6922 -30.6728 -30.5910 -30.5296 -30.4632
   -18.9403 -18.4544 -16.0280 -15.8153 -15.7483 -15.5766 -15.4488 -15.3880
   -15.3475 -15.2831 -15.2565 -15.2077 -15.1817 -15.1454 -15.1118 -15.0634
   -15.0417 -14.9868 -14.9587 -14.9308 -14.9251 -14.8731 -14.8580 -14.8341
   -14.8048 -14.7537 -14.7191 -14.6864 -14.6767 -14.6467 -14.6230 -14.4404
   -12.8817 -12.8025  -9.8599  -7.0497  -6.3737  -5.9991  -4.4483  -3.6900
    -3.2448  -3.1618  -3.0529  -3.0111  -2.9097  -2.8890  -2.8297  -2.7664
    -2.7370  -2.6943  -2.6648  -2.5893  -2.5262  -2.4663  -2.4154  -2.3960
    -2.3793  -2.3274  -2.2808  -2.2408  -2.2296  -2.2016  -2.1832  -2.1547
    -2.0995  -2.0893  -2.0590  -2.0243  -1.9808  -1.9052  -1.9013  -1.8637
    -1.7982  -1.7428  -1.6860  -1.6003  -1.4624  -1.4421  -1.3934  -1.3550
    -1.2256  -1.1960  -1.1259  -1.1143  -1.0085  -0.9609  -0.9108  -0.8524
    -0.8275  -0.7844  -0.7640  -0.7350  -0.7085  -0.6605  -0.6257  -0.5598
    -0.5170  -0.4882  -0.4163  -0.3680  -0.3405  -0.3219  -0.3070  -0.1994
    -0.1688  -0.1368  -0.1028  -0.0890  -0.0545  -0.0117   0.0196   0.0395
     0.0833   0.0966   0.1881   0.2234   0.2707   0.3297   0.3541   0.4472
     0.4958   0.5665   0.5906   0.6658   0.7239   0.7559   0.8131   0.8757
     1.0241   1.0365   1.1991   1.2500   1.3808   1.8393   1.9076   2.0983
     2.1617   3.8729   3.8959   3.9265   4.0490   4.0957   4.1263   4.1400
     4.1903   4.2428   4.2717   4.3003

          k = 0.0380-0.0839 0.0000 ( 17916 PWs)   bands (ev):

   -55.3696 -55.3672 -55.3294 -55.3293 -55.3068 -55.3022 -55.2546 -55.2467
   -55.2037 -55.1971 -55.1630 -55.1604 -55.1587 -55.1148 -54.3609 -54.3608
   -31.7959 -31.7576 -31.7434 -31.6535 -31.6534 -31.6394 -31.6277 -31.6204
   -31.6204 -31.5919 -31.5913 -31.5838 -31.5683 -31.5605 -31.5483 -31.5371
   -31.5355 -31.5344 -31.5302 -31.5279 -31.5250 -31.5218 -31.5015 -31.4885
   -31.4687 -31.4673 -31.4506 -31.4505 -31.4492 -31.4432 -31.4396 -31.4365
   -31.4365 -31.4300 -31.4271 -31.3806 -31.3713 -31.3686 -31.3505 -31.3403
   -31.3391 -31.3058 -30.6825 -30.6824 -30.6001 -30.5999 -30.5604 -30.5604
   -18.9388 -18.4546 -15.8659 -15.7059 -15.5628 -15.4967 -15.4123 -15.3728
   -15.3354 -15.2857 -15.2394 -15.2252 -15.1662 -15.1403 -15.0565 -15.0352
   -15.0162 -15.0122 -14.9893 -14.9660 -14.9635 -14.8872 -14.8687 -14.8524
   -14.8303 -14.8257 -14.7665 -14.7601 -14.7389 -14.7377 -14.6948 -14.5519
   -12.8647 -12.8647  -9.8637  -7.0391  -6.3678  -6.0057  -4.4584  -3.6774
    -3.0229  -2.9205  -2.9108  -2.7107  -2.6845  -2.6708  -2.6556  -2.6074
    -2.5703  -2.5616  -2.5224  -2.5016  -2.4910  -2.4723  -2.4663  -2.4475
    -2.4337  -2.3925  -2.3766  -2.3362  -2.3024  -2.2802  -2.2386  -2.2304
    -2.1696  -2.1578  -2.1100  -2.0843  -2.0494  -2.0291  -1.9394  -1.8816
    -1.6993  -1.6165  -1.5890  -1.5698  -1.4745  -1.4340  -1.3610  -1.3251
    -1.2911  -1.2584  -1.2460  -1.1968  -1.1330  -1.0822  -1.0780  -1.0465
    -0.9820  -0.9463  -0.8788  -0.7578  -0.7418  -0.6878  -0.6585  -0.6222
    -0.5138  -0.4490  -0.4101  -0.3869  -0.3414  -0.2831  -0.2317  -0.2109
    -0.1963  -0.1820  -0.1624  -0.0671  -0.0406  -0.0342  -0.0036   0.0518
     0.0788   0.0887   0.1330   0.1437   0.2571   0.3257   0.3480   0.3898
     0.4904   0.5566   0.6628   0.6695   0.6757   0.7550   0.8216   0.8458
     0.9235   0.9412   1.1573   1.1654   1.2332   1.9833   1.9845   2.1023
     2.1030   3.8813   3.9631   3.9988   4.0412   4.1184   4.1384   4.1606
     4.2094   4.2842   4.3157   4.3566

          k = 0.0380-0.0419 0.0000 ( 17876 PWs)   bands (ev):

   -55.3810 -55.3557 -55.3414 -55.3173 -55.3078 -55.3030 -55.2634 -55.2378
   -55.2128 -55.1879 -55.1714 -55.1620 -55.1475 -55.1139 -54.3728 -54.3488
   -31.8888 -31.8424 -31.7860 -31.7094 -31.6711 -31.6604 -31.6575 -31.6401
   -31.6301 -31.6166 -31.5989 -31.5867 -31.5765 -31.5734 -31.5650 -31.5505
   -31.5407 -31.5313 -31.5263 -31.5172 -31.4976 -31.4838 -31.4827 -31.4802
   -31.4775 -31.4576 -31.4433 -31.4261 -31.4217 -31.4172 -31.4098 -31.4073
   -31.3963 -31.3715 -31.3713 -31.3657 -31.3651 -31.3444 -31.3412 -31.3337
   -31.3146 -31.3074 -30.7329 -30.6922 -30.6728 -30.5910 -30.5296 -30.4632
   -18.9409 -18.4535 -16.0279 -15.8153 -15.7482 -15.5763 -15.4486 -15.3879
   -15.3474 -15.2840 -15.2560 -15.2075 -15.1807 -15.1469 -15.1150 -15.0639
   -15.0423 -14.9879 -14.9589 -14.9310 -14.9252 -14.8729 -14.8557 -14.8328
   -14.8047 -14.7540 -14.7183 -14.6862 -14.6771 -14.6453 -14.6234 -14.4407
   -12.8817 -12.8025  -9.8583  -7.0331  -6.3617  -6.0445  -4.4418  -3.7052
    -3.2445  -3.1582  -3.0255  -3.0080  -2.8995  -2.8801  -2.8292  -2.7841
    -2.7354  -2.6917  -2.6700  -2.5973  -2.5227  -2.4653  -2.4150  -2.3988
    -2.3792  -2.3289  -2.2804  -2.2389  -2.2287  -2.1955  -2.1872  -2.1554
    -2.0976  -2.0893  -2.0589  -2.0242  -1.9795  -1.9084  -1.8921  -1.8568
    -1.8114  -1.7603  -1.6915  -1.5996  -1.4736  -1.4439  -1.4159  -1.3571
    -1.2202  -1.1876  -1.1270  -1.0734  -1.0124  -0.9707  -0.9021  -0.8471
    -0.8212  -0.7994  -0.7772  -0.7376  -0.7033  -0.6644  -0.6412  -0.5606
    -0.5264  -0.4569  -0.4018  -0.3672  -0.3356  -0.3192  -0.2983  -0.2023
    -0.1625  -0.1353  -0.1018  -0.0845  -0.0446  -0.0130   0.0236   0.0433
     0.0798   0.1029   0.1890   0.2105   0.2605   0.3292   0.3499   0.4628
     0.4847   0.5714   0.5829   0.6626   0.7190   0.7554   0.8104   0.8757
     1.0238   1.0321   1.1984   1.2494   1.3817   1.8393   1.9076   2.0981
     2.1623   3.8791   3.8976   3.9258   4.0487   4.0908   4.1236   4.1404
     4.2026   4.2397   4.2760   4.2998

          k =-0.0760-0.0000 0.0000 ( 17886 PWs)   bands (ev):

   -55.3862 -55.3505 -55.3463 -55.3123 -55.3082 -55.3044 -55.2683 -55.2330
   -55.2175 -55.1830 -55.1765 -55.1610 -55.1426 -55.1131 -54.3778 -54.3438
   -31.9457 -31.8817 -31.8410 -31.7684 -31.7166 -31.7145 -31.6829 -31.6789
   -31.6349 -31.5918 -31.5910 -31.5848 -31.5808 -31.5602 -31.5567 -31.5351
   -31.5260 -31.5219 -31.5142 -31.4987 -31.4934 -31.4924 -31.4904 -31.4686
   -31.4602 -31.4598 -31.4476 -31.4195 -31.4179 -31.4038 -31.3991 -31.3809
   -31.3747 -31.3709 -31.3701 -31.3315 -31.3289 -31.3231 -31.3150 -31.3039
   -31.2945 -31.2885 -30.7866 -30.6999 -30.6674 -30.6035 -30.5168 -30.4060
   -18.9409 -18.4545 -15.9787 -15.9625 -15.7583 -15.5894 -15.4716 -15.4434
   -15.3476 -15.3262 -15.2977 -15.2718 -15.2409 -15.2304 -15.1724 -15.1479
   -15.1117 -15.0678 -14.8980 -14.8924 -14.8584 -14.8450 -14.8305 -14.7965
   -14.7796 -14.7259 -14.6692 -14.6427 -14.6405 -14.5606 -14.5282 -14.3432
   -12.8741 -12.7624  -9.8552  -7.0503  -6.3639  -6.0203  -4.4291  -3.7172
    -3.3723  -3.2898  -3.0262  -3.0245  -2.9726  -2.9276  -2.8978  -2.8574
    -2.8430  -2.8291  -2.7649  -2.7080  -2.6418  -2.6257  -2.4430  -2.3573
    -2.2563  -2.2015  -2.1619  -2.0601  -2.0401  -2.0106  -2.0044  -1.9806
    -1.9160  -1.9088  -1.8949  -1.8747  -1.8587  -1.8004  -1.7511  -1.7321
    -1.7051  -1.6845  -1.6610  -1.5991  -1.5526  -1.5019  -1.3707  -1.2852
    -1.2394  -1.1770  -1.1073  -1.0584  -1.0374  -1.0327  -1.0137  -0.9825
    -0.9608  -0.9331  -0.9133  -0.8539  -0.8363  -0.7454  -0.7078  -0.6866
    -0.6722  -0.6567  -0.5841  -0.4028  -0.3340  -0.2832  -0.2517  -0.2112
    -0.1413  -0.1146  -0.0826  -0.0388   0.0057   0.0132   0.0787   0.1076
     0.1264   0.1749   0.1894   0.2713   0.2889   0.3543   0.4067   0.4089
     0.4441   0.4590   0.4909   0.5525   0.5864   0.7318   0.8428   0.8791
     1.0944   1.1316   1.2381   1.2932   1.5606   1.6782   1.7721   1.9783
     2.1318   3.7166   3.7640   3.8551   3.9731   4.0000   4.0869   4.1266
     4.1553   4.1935   4.2041   4.2928

          k =-0.0760 0.0419 0.0000 ( 17914 PWs)   bands (ev):

   -55.3810 -55.3557 -55.3414 -55.3173 -55.3073 -55.3035 -55.2635 -55.2379
   -55.2127 -55.1878 -55.1716 -55.1620 -55.1476 -55.1140 -54.3729 -54.3488
   -31.8892 -31.8427 -31.7871 -31.7154 -31.6735 -31.6624 -31.6616 -31.6406
   -31.6301 -31.6166 -31.5988 -31.5869 -31.5761 -31.5656 -31.5558 -31.5506
   -31.5310 -31.5177 -31.5175 -31.5171 -31.4994 -31.4975 -31.4807 -31.4780
   -31.4771 -31.4479 -31.4440 -31.4266 -31.4254 -31.4217 -31.4169 -31.4125
   -31.3847 -31.3830 -31.3736 -31.3703 -31.3659 -31.3423 -31.3411 -31.3293
   -31.3187 -31.3147 -30.7326 -30.6952 -30.6721 -30.5910 -30.5297 -30.4632
   -18.9398 -18.4544 -15.9009 -15.8655 -15.6640 -15.4983 -15.3951 -15.3679
   -15.2952 -15.2862 -15.2722 -15.2327 -15.2005 -15.1869 -15.1857 -15.1207
   -15.0925 -15.0428 -14.9617 -14.9494 -14.9179 -14.8776 -14.8655 -14.8315
   -14.8173 -14.7740 -14.7713 -14.6847 -14.6507 -14.6485 -14.6353 -14.4407
   -12.8796 -12.8029  -9.8593  -7.0391  -6.3561  -6.0250  -4.4384  -3.6915
    -3.2160  -3.1428  -2.9939  -2.8279  -2.7646  -2.7487  -2.6684  -2.6529
    -2.6410  -2.6125  -2.5896  -2.5309  -2.4572  -2.4252  -2.3828  -2.3514
    -2.3489  -2.2929  -2.2849  -2.2158  -2.2111  -2.1504  -2.1055  -2.0716
    -2.0631  -2.0479  -1.9956  -1.9585  -1.9511  -1.9317  -1.9096  -1.8580
    -1.8010  -1.6284  -1.5941  -1.5508  -1.5169  -1.4830  -1.3893  -1.2802
    -1.2287  -1.1864  -1.1607  -1.0683  -1.0311  -1.0025  -0.9856  -0.9671
    -0.8896  -0.8677  -0.8270  -0.7877  -0.7723  -0.7428  -0.7184  -0.6744
    -0.6342  -0.6156  -0.6015  -0.5685  -0.4763  -0.4649  -0.4047  -0.3833
    -0.3590  -0.2200  -0.1913  -0.1746  -0.1470  -0.1066  -0.0962  -0.0817
     0.0577   0.0642   0.0954   0.1924   0.2176   0.3279   0.3552   0.4240
     0.5104   0.5545   0.5761   0.7211   0.7740   0.8671   0.8782   0.9375
     1.0180   1.1010   1.1209   1.2386   1.2572   1.8545   1.9097   2.0204
     2.1508   3.8797   3.8940   3.9062   3.9295   4.0150   4.0931   4.1065
     4.1740   4.2206   4.2767   4.3451

          k =-0.0760-0.0839 0.0000 ( 17948 PWs)   bands (ev):

   -55.3696 -55.3672 -55.3294 -55.3293 -55.3064 -55.3027 -55.2547 -55.2468
   -55.2036 -55.1970 -55.1630 -55.1605 -55.1588 -55.1149 -54.3609 -54.3609
   -31.7961 -31.7578 -31.7437 -31.6543 -31.6542 -31.6398 -31.6278 -31.6205
   -31.6204 -31.5996 -31.5947 -31.5914 -31.5685 -31.5607 -31.5489 -31.5349
   -31.5318 -31.5292 -31.5253 -31.5172 -31.5126 -31.5105 -31.5095 -31.5017
   -31.4699 -31.4684 -31.4492 -31.4491 -31.4487 -31.4438 -31.4411 -31.4365
   -31.4272 -31.4157 -31.4100 -31.3933 -31.3916 -31.3813 -31.3404 -31.3393
   -31.3388 -31.3196 -30.6835 -30.6835 -30.6000 -30.5999 -30.5604 -30.5604
   -18.9386 -18.4542 -15.8408 -15.6541 -15.5027 -15.4309 -15.4106 -15.3274
   -15.2721 -15.2688 -15.1956 -15.1776 -15.1653 -15.1436 -15.1341 -15.0866
   -15.0496 -15.0129 -14.9942 -14.9715 -14.9284 -14.9056 -14.9040 -14.8972
   -14.8895 -14.8492 -14.8440 -14.8407 -14.7490 -14.7470 -14.6936 -14.5495
   -12.8645 -12.8645  -9.8634  -7.0282  -6.3480  -6.0307  -4.4468  -3.6698
    -3.0212  -2.9122  -2.9015  -2.6723  -2.6543  -2.5933  -2.5808  -2.4928
    -2.4771  -2.4165  -2.3931  -2.3427  -2.3201  -2.2819  -2.2682  -2.2464
    -2.2254  -2.2118  -2.1853  -2.1690  -2.1520  -2.1326  -2.1214  -2.1100
    -2.0547  -2.0489  -2.0402  -2.0151  -1.9919  -1.9559  -1.9459  -1.9300
    -1.7740  -1.7581  -1.7368  -1.6015  -1.5971  -1.5615  -1.5229  -1.4952
    -1.4373  -1.4290  -1.4006  -1.3416  -1.1466  -1.1369  -1.1254  -1.1062
    -1.0361  -0.9803  -0.9669  -0.9488  -0.8954  -0.8170  -0.7805  -0.7303
    -0.6382  -0.5902  -0.5802  -0.5545  -0.4333  -0.4105  -0.3680  -0.3501
    -0.3337  -0.2995  -0.2980  -0.2401  -0.1874  -0.1523  -0.1294  -0.1151
    -0.0782   0.0767   0.1289   0.1450   0.2598   0.2885   0.4667   0.5095
     0.5311   0.6361   0.7195   0.7477   0.7619   0.8884   0.9099   0.9120
     0.9803   1.0025   1.0627   1.0684   1.2209   2.0010   2.0023   2.0895
     2.0897   3.8286   3.9513   3.9956   4.0313   4.1074   4.1602   4.2172
     4.2763   4.2881   4.2914   4.3576

     the Fermi energy is     3.7655 ev

!    total energy              =   -2975.10515265 Ry
     estimated scf accuracy    <       0.00000004 Ry
     smearing contrib. (-TS)   =      -0.03671998 Ry
     internal energy E=F+TS    =   -2975.06843267 Ry

     The total energy is F=E-TS. E is the sum of the following terms:
     one-electron contribution =  -23505.57647068 Ry
     hartree contribution      =   11848.78997266 Ry
     xc contribution           =    -494.91830926 Ry
     ewald contribution        =    9176.63440344 Ry
     electric field correction =       0.00197118 Ry

     convergence has been achieved in  71 iterations

     Forces acting on atoms (cartesian axes, Ry/au):

     atom    1 type  1   force =     0.00001919   -0.00024924    0.09309717
     atom    2 type  1   force =    -0.00019514   -0.00032820   -0.17836909
     atom    3 type  2   force =     0.00006210   -0.00017088   -0.02025858
     atom    4 type  2   force =     0.00001861   -0.00203704    0.05923878
     atom    5 type  2   force =    -0.01034097   -0.00109910    0.00808713
     atom    6 type  2   force =     0.01218463   -0.00054401    0.00816759
     atom    7 type  1   force =     0.00015656    0.00328511   -0.01110392
     atom    8 type  1   force =    -0.00030677    0.00053332   -0.00561730
     atom    9 type  2   force =     0.00004254    0.00017749   -0.00014984
     atom   10 type  2   force =    -0.00146031   -0.00003633   -0.00171202
     atom   11 type  2   force =     0.00037337   -0.00003834   -0.00005946
     atom   12 type  2   force =    -0.00009113    0.00010215   -0.00008658
     atom   13 type  1   force =    -0.00010202   -0.00017245   -0.00026786
     atom   14 type  1   force =    -0.00022163   -0.00035531    0.00032396
     atom   15 type  2   force =     0.00008966   -0.00044067    0.00010842
     atom   16 type  2   force =     0.00022840    0.00009719    0.00024933
     atom   17 type  2   force =     0.00060303   -0.00005373    0.00035879
     atom   18 type  2   force =     0.00006393   -0.00017253   -0.00022797
     atom   19 type  1   force =    -0.00035861   -0.00041974    0.00004055
     atom   20 type  1   force =     0.00043026    0.00004575    0.00037468
     atom   21 type  2   force =    -0.00000037   -0.00007400    0.10401116
     atom   22 type  2   force =    -0.00015393   -0.00002815   -0.00026636
     atom   23 type  2   force =    -0.07033252   -0.00016391   -0.02683736
     atom   24 type  2   force =     0.07020497    0.00028379   -0.02691453
     atom   25 type  1   force =     0.00002987   -0.00016153    0.09274896
     atom   26 type  1   force =    -0.00015522   -0.00039878   -0.17831028
     atom   27 type  2   force =     0.00011453   -0.00030621   -0.01919602
     atom   28 type  2   force =     0.00004823   -0.00163269    0.05839032
     atom   29 type  2   force =    -0.01029010   -0.00064156    0.00729163
     atom   30 type  2   force =     0.01202953   -0.00030837    0.00742867
     atom   31 type  1   force =     0.00007932    0.00515314   -0.01466116
     atom   32 type  1   force =    -0.00013811   -0.00051920   -0.00595354
     atom   33 type  2   force =     0.00012786   -0.00039230   -0.00023871
     atom   34 type  2   force =    -0.00078538    0.00260953   -0.00103485
     atom   35 type  2   force =    -0.00007611   -0.00011015   -0.00012170
     atom   36 type  2   force =     0.00024157    0.00000860   -0.00014794
     atom   37 type  1   force =    -0.00043721    0.00008798    0.00002416
     atom   38 type  1   force =    -0.00003361   -0.00024250   -0.00025591
     atom   39 type  2   force =    -0.00033043   -0.00021910   -0.00012462
     atom   40 type  2   force =    -0.00013054   -0.00006098   -0.00002752
     atom   41 type  2   force =    -0.00009055   -0.00020014    0.00037691
     atom   42 type  2   force =    -0.00007150   -0.00026821    0.00012622
     atom   43 type  1   force =    -0.00005840   -0.00032680    0.00025040
     atom   44 type  1   force =     0.00002808    0.00006298    0.00024599
     atom   45 type  2   force =     0.00001196   -0.00011015    0.10397804
     atom   46 type  2   force =    -0.07035413   -0.00011480   -0.02685770
     atom   47 type  2   force =     0.07020352    0.00031987   -0.02692093
     atom   48 type  3   force =     0.00360553   -0.00035623    0.00104504
     atom   49 type  3   force =    -0.01630766    0.00085723    0.00374437
     atom   50 type  4   force =     0.00191030    0.00253813    0.00152923
     atom   51 type  5   force =    -0.00032651   -0.00083708   -0.00060472
     atom   52 type  5   force =     0.00094550   -0.00081528    0.00017393
     atom   53 type  5   force =     0.00523069   -0.00512299   -0.00257707
     atom   54 type  5   force =     0.00416990    0.00407750   -0.00278755
     atom   55 type  2   force =     0.00025790   -0.00002046    0.00043067
     atom   56 type  5   force =     0.00019902   -0.00037247   -0.00040144
     atom   57 type  5   force =    -0.00056169   -0.00031815    0.00025042

     Total force =     0.366717     Total SCF correction =     0.000608
  @ DRIVER MODE: Message from server: STATUS
  @ DRIVER MODE: Message from server: GETFORCE
  @ DRIVER MODE: Returning v,forces,stress,ensemble 

     Writing output data file ./calc.save/
  @ DRIVER MODE: Message from server: EXIT
  @ DRIVE MODE: Exiting  
 
     init_run     :     10.91s CPU     11.57s WALL (       1 calls)
     electrons    :   1181.38s CPU   1199.43s WALL (       1 calls)
     forces       :      2.37s CPU      2.65s WALL (       1 calls)

     Called by init_run:
     wfcinit      :      4.87s CPU      4.98s WALL (       1 calls)
     potinit      :      5.37s CPU      5.53s WALL (       1 calls)
     hinit0       :      0.30s CPU      0.44s WALL (       1 calls)

     Called by electrons:
     c_bands      :   1011.54s CPU   1019.71s WALL (      71 calls)
     sum_band     :    114.94s CPU    118.95s WALL (      71 calls)
     v_of_rho     :     40.95s CPU     43.05s WALL (      72 calls)
     newd         :     16.81s CPU     20.50s WALL (      72 calls)
     mix_rho      :      1.55s CPU      1.61s WALL (      71 calls)
     vdW_kernel   :      4.55s CPU      4.59s WALL (       1 calls)

     Called by c_bands:
     init_us_2    :      6.79s CPU      6.84s WALL (    1440 calls)
     cegterg      :    992.04s CPU    999.83s WALL (     722 calls)

     Called by *egterg:
     cdiaghg      :    170.41s CPU    171.44s WALL (    7856 calls)
     h_psi        :    518.45s CPU    523.69s WALL (    7868 calls)
     s_psi        :     70.18s CPU     70.44s WALL (    7868 calls)
     g_psi        :      1.91s CPU      1.92s WALL (    7136 calls)

     Called by h_psi:
     h_psi:calbec :     66.20s CPU     66.57s WALL (    7868 calls)
     vloc_psi     :    378.24s CPU    382.39s WALL (    7868 calls)
     add_vuspsi   :     70.54s CPU     71.01s WALL (    7868 calls)

     General routines
     calbec       :     86.59s CPU     87.04s WALL (    8618 calls)
     fft          :     21.26s CPU     21.47s WALL (    4536 calls)
     ffts         :      0.14s CPU      0.15s WALL (     143 calls)
     fftw         :    422.11s CPU    426.72s WALL ( 1004542 calls)
     interpolate  :      0.47s CPU      0.47s WALL (      72 calls)
     davcio       :      0.00s CPU      0.07s WALL (      10 calls)
 
     Parallel routines
 
     PWSCF        :  19m55.02s CPU  20m16.48s WALL

 
   This run was terminated on:   1:13:47  22Sep2021            

=------------------------------------------------------------------------------=
   JOB DONE.
=------------------------------------------------------------------------------=
