
     Program PWSCF v.6.7GPU starts on 15Sep2021 at 15:33:51 

     This program is part of the open-source Quantum ESPRESSO suite
     for quantum simulation of materials; please cite
         "P. Giannozzi et al., J. Phys.:Condens. Matter 21 395502 (2009);
         "P. Giannozzi et al., J. Phys.:Condens. Matter 29 465901 (2017);
         "P. Giannozzi et al., J. Chem. Phys. 152 154105 (2020);
          URL http://www.quantum-espresso.org", 
     in publications or presentations arising from this work. More details at
     http://www.quantum-espresso.org/quote

     Parallel version (MPI), running on    10 processors

     MPI processes distributed on     1 nodes
     R & G space division:  proc/nbgrp/npool/nimage =      10
     Reading input from /storage/home/hcoda1/3/ntian30/research/carbon/CxH_vib/CH_calc/ads_slab/CHNHNH2_b/out_0019/pw.inp
Warning: card &CELL ignored
Warning: card   CELL_DYNAMICS='IPI', ignored
Warning: card / ignored

     Current dimensions of program PWSCF are:
     Max number of different atomic species (ntypx) = 10
     Max number of k-points (npk) =  40000
     Max angular momentum in pseudopotentials (lmaxx) =  3
     Presently no symmetry can be used with electric field

     Message from routine cell_base_init:
     DEPRECATED: use true lattice parameter, not A to a.u. conversion factor

     **************************************************************************
     Initializing libbeef V0.1.2 with the BEEF-vdW functional.
     Citation: Wellendorff et al., PRB 85, 235149 (2012).
     **************************************************************************


     IMPORTANT: XC functional enforced from input :
     Exchange-correlation= BEEF-VDW
                           (   1   4  43  14   2   0   0)
     Any further DFT definition will be discarded
     Please, verify this is what you really want


     Subspace diagonalization in iterative solution of the eigenvalue problem:
     one sub-group per band group will be used
     scalapack distributed-memory algorithm (size of sub-group:  3*  3 procs)

  @ DRIVER MODE: Connecting to 
 qe_1139763_2850203.sched-torque.pace.gatech.edu_raxnfpr_scratch
  using UNIX socket
  @ DRIVER MODE: Message from server: STATUS
  @ DRIVER MODE: Message from server: INIT
  @ DRIVER MODE: Receiving replica           0          -1
  @ DRIVER MODE: Receiving encoded integer          25
  @ DRIVER MODE:  SCF:  T  FORCE:  T  STRESS:  F  VC:  F  ENSEMBLE:  F
  @ DRIVER MODE:  SCF:  T  FORCE:  T  STRESS:  F  VC:  F  ENSEMBLE:  F
 
     Parallelization info
     --------------------
     sticks:   dense  smooth     PW     G-vecs:    dense   smooth      PW
     Min         327     131     37                56683    14340    2191
     Max         328     133     38                56694    14346    2206
     Sum        3275    1317    379               566857   143421   21985
 
     Using Slab Decomposition
 


     bravais-lattice index     =            0
     lattice parameter (alat)  =       1.8897  a.u.
     unit-cell volume          =    6658.9804 (a.u.)^3
     number of atoms/cell      =           54
     number of atomic types    =            5
     number of electrons       =       396.00
     number of Kohn-Sham states=          208
     kinetic-energy cutoff     =      29.3995  Ry
     charge density cutoff     =     293.9946  Ry
     scf convergence threshold =      7.3E-08
     mixing beta               =       0.0500
     number of iterations used =            8  plain     mixing
     Exchange-correlation= BEEF-VDW
                           (   1   4  43  14   2   0   0)

     celldm(1)=   1.889726  celldm(2)=   0.000000  celldm(3)=   0.000000
     celldm(4)=   0.000000  celldm(5)=   0.000000  celldm(6)=   0.000000

     crystal axes: (cart. coord. in units of alat)
               a(1) = (   6.579727   0.000000   0.000000 )  
               a(2) = (  -0.000775   5.961596   0.000000 )  
               a(3) = (   0.000000   0.000000  25.155947 )  

     reciprocal axes: (cart. coord. in units 2 pi/alat)
               b(1) = (  0.151982  0.000020  0.000000 )  
               b(2) = (  0.000000  0.167740  0.000000 )  
               b(3) = (  0.000000  0.000000  0.039752 )  


     PseudoPot. # 1 for Ti read from file:
     /storage/coda1/p-amedford6/0/shared/rich_project_chbe-medford/medford-share/data/pseudos_module/espresso/nninc/pbe/van/Ti.UPF
     MD5 check sum: 8e4df49b7f0d34bbd5052bf3f5ea0213
     Pseudo is Ultrasoft, Zval = 12.0
     Generated by new atomic code, or converted to UPF format
     Using radial grid of  851 points,  6 beta functions with: 
                l(1) =   0
                l(2) =   0
                l(3) =   1
                l(4) =   1
                l(5) =   2
                l(6) =   2
     Q(r) pseudized with  8 coefficients,  rinner =    1.000   1.000   1.000
                                                       1.000   1.000

     PseudoPot. # 2 for O  read from file:
     /storage/coda1/p-amedford6/0/shared/rich_project_chbe-medford/medford-share/data/pseudos_module/espresso/nninc/pbe/van/O.UPF
     MD5 check sum: 78c19812648e8988a0fe644b0f25305e
     Pseudo is Ultrasoft, Zval =  6.0
     Generated by new atomic code, or converted to UPF format
     Using radial grid of  737 points,  4 beta functions with: 
                l(1) =   0
                l(2) =   0
                l(3) =   1
                l(4) =   1
     Q(r) pseudized with  8 coefficients,  rinner =    0.800   0.800   0.800


     PseudoPot. # 3 for N  read from file:
     /storage/coda1/p-amedford6/0/shared/rich_project_chbe-medford/medford-share/data/pseudos_module/espresso/nninc/pbe/van/N.UPF
     MD5 check sum: 90d10febe142ad51ac9d5be1deb811c4
     Pseudo is Ultrasoft, Zval =  5.0
     Generated by new atomic code, or converted to UPF format
     Using radial grid of  729 points,  4 beta functions with: 
                l(1) =   0
                l(2) =   0
                l(3) =   1
                l(4) =   1
     Q(r) pseudized with  8 coefficients,  rinner =    0.800   0.800   0.800


     PseudoPot. # 4 for C  read from file:
     /storage/coda1/p-amedford6/0/shared/rich_project_chbe-medford/medford-share/data/pseudos_module/espresso/nninc/pbe/van/C.UPF
     MD5 check sum: 1a69bf6b8db32088f5b2163dbdb77a27
     Pseudo is Ultrasoft, Zval =  4.0
     Generated by new atomic code, or converted to UPF format
     Using radial grid of  721 points,  4 beta functions with: 
                l(1) =   0
                l(2) =   0
                l(3) =   1
                l(4) =   1
     Q(r) pseudized with  8 coefficients,  rinner =    0.800   0.800   0.800


     PseudoPot. # 5 for H  read from file:
     /storage/coda1/p-amedford6/0/shared/rich_project_chbe-medford/medford-share/data/pseudos_module/espresso/nninc/pbe/van/H.UPF
     MD5 check sum: b5ee9d7bfd3a09ee7748110bda690ff7
     Pseudo is Ultrasoft, Zval =  1.0
     Generated by new atomic code, or converted to UPF format
     Using radial grid of  615 points,  1 beta functions with: 
                l(1) =   0
     Q(r) pseudized with  8 coefficients,  rinner =    0.800

     atomic species   valence    mass     pseudopotential
        Ti1           12.00    47.86700     Ti( 1.00)
        O1             6.00    15.99900     O ( 1.00)
        N1             5.00    14.00700     N ( 1.00)
        C1             4.00    12.01100     C ( 1.00)
        H1             1.00     1.00800     H ( 1.00)

     No symmetry found



   Cartesian axes

     site n.     atom                  positions (alat units)
         1           Ti1 tau(   1) = (   0.0004258   2.9801865   6.0000000  )
         2           Ti1 tau(   2) = (   3.2906075   1.4906267   6.0002472  )
         3           O1  tau(   3) = (   0.0006271   0.0005054   7.9858123  )
         4           O1  tau(   4) = (   3.2906025   0.0005020   7.3038282  )
         5           O1  tau(   5) = (   4.5942328   1.4918067   9.2879030  )
         6           O1  tau(   6) = (   1.9868534   1.4903216   9.2879459  )
         7           Ti1 tau(   7) = (   3.2907910   2.8959150   9.1758416  )
         8           Ti1 tau(   8) = (   0.0015273   1.4827037   9.2680791  )
         9           O1  tau(   9) = (   3.2793096   0.0109766  11.3808719  )
        10           O1  tau(  10) = (   0.0116148   5.9584955  10.6183126  )
        11           O1  tau(  11) = (   1.2765542   1.4933007  12.7034215  )
        12           O1  tau(  12) = (   5.2857700   1.4936877  12.6893616  )
        13           Ti1 tau(  13) = (   6.5704964   2.9736084  12.5041408  )
        14           Ti1 tau(  14) = (   3.2751742   1.4933391  12.5393049  )
        15           O1  tau(  15) = (   6.5372820   5.8718772  14.6936981  )
        16           O1  tau(  16) = (   3.2837545   5.9462538  13.9991140  )
        17           O1  tau(  17) = (   4.5218413   1.5222141  16.1415557  )
        18           O1  tau(  18) = (   2.0028246   1.5144184  16.0917912  )
        19           Ti1 tau(  19) = (   3.2608137   3.0032599  15.7731319  )
        20           Ti1 tau(  20) = (   6.5347537   1.3176600  15.8357148  )
        21           O1  tau(  21) = (   3.2904802   0.0005063   4.7018136  )
        22           O1  tau(  22) = (   0.0001116   0.1817366  17.2468837  )
        23           O1  tau(  23) = (   1.3043587   1.4918075   6.0039043  )
        24           O1  tau(  24) = (   5.2767064   1.4903225   6.0039473  )
        25           Ti1 tau(  25) = (   0.0000382   5.9609847   6.0000000  )
        26           Ti1 tau(  26) = (   3.2902200   4.4714249   6.0002472  )
        27           O1  tau(  27) = (   0.0002396   2.9813036   7.9858123  )
        28           O1  tau(  28) = (   3.2902150   2.9813002   7.3038282  )
        29           O1  tau(  29) = (   4.5938453   4.4726049   9.2879030  )
        30           O1  tau(  30) = (   1.9864658   4.4711199   9.2879459  )
        31           Ti1 tau(  31) = (   3.2891106   5.8743827   9.1763621  )
        32           Ti1 tau(  32) = (   0.0006254   4.4649316   9.2693709  )
        33           O1  tau(  33) = (   3.2784652   2.9723947  11.3763700  )
        34           O1  tau(  34) = (   0.0092240   2.9805883  10.6323155  )
        35           O1  tau(  35) = (   1.2785823   4.4627939  12.6603399  )
        36           O1  tau(  36) = (   5.2819334   4.4612839  12.6411408  )
        37           Ti1 tau(  37) = (   6.5651122   5.9414744  12.5010122  )
        38           Ti1 tau(  38) = (   3.2748416   4.4711967  12.5285960  )
        39           O1  tau(  39) = (   6.5535135   3.0442902  14.9788272  )
        40           O1  tau(  40) = (   3.2854610   3.0101546  13.9792171  )
        41           O1  tau(  41) = (   4.5276217   4.4805847  16.2446860  )
        42           O1  tau(  42) = (   2.0020726   4.4828838  16.2214318  )
        43           Ti1 tau(  43) = (   3.2599196   0.0196740  15.7976440  )
        44           Ti1 tau(  44) = (   6.5457193   4.5363361  16.0654255  )
        45           O1  tau(  45) = (   3.2900926   2.9813045   4.7018136  )
        46           O1  tau(  46) = (   1.3039711   4.4726057   6.0039043  )
        47           O1  tau(  47) = (   5.2763189   4.4711207   6.0039473  )
        48           N1  tau(  48) = (   1.1367570   2.6896871  18.7516802  )
        49           N1  tau(  49) = (   6.5001796   3.3781512  18.2049158  )
        50           C1  tau(  50) = (   2.1807708   3.2122984  19.2750733  )
        51           H1  tau(  51) = (   2.0327863   4.2979755  19.4033283  )
        52           H1  tau(  52) = (   1.0785778   1.7047639  18.4906217  )
        53           H1  tau(  53) = (   6.4055442   4.2515232  18.7250902  )
        54           H1  tau(  54) = (   5.6874363   2.7987760  18.4315970  )

     number of k points=    10  Fermi-Dirac smearing, width (Ry)=  0.0073
                       cart. coord. in units 2pi/alat
        k(    1) = (   0.0000000   0.0000000   0.0000000), wk =   0.1250000
        k(    2) = (   0.0000000   0.0419351   0.0000000), wk =   0.2500000
        k(    3) = (   0.0000000  -0.0838702   0.0000000), wk =   0.1250000
        k(    4) = (   0.0379955   0.0000049   0.0000000), wk =   0.2500000
        k(    5) = (   0.0379955   0.0419400   0.0000000), wk =   0.2500000
        k(    6) = (   0.0379955  -0.0838652   0.0000000), wk =   0.2500000
        k(    7) = (   0.0379955  -0.0419301   0.0000000), wk =   0.2500000
        k(    8) = (  -0.0759910  -0.0000099   0.0000000), wk =   0.1250000
        k(    9) = (  -0.0759910   0.0419252   0.0000000), wk =   0.2500000
        k(   10) = (  -0.0759910  -0.0838800   0.0000000), wk =   0.1250000

     Dense  grid:   566857 G-vectors     FFT dimensions: (  72,  64, 270)

     Smooth grid:   143421 G-vectors     FFT dimensions: (  45,  40, 180)

     Estimated max dynamical RAM per process >     363.73 MB

     Estimated total dynamical RAM >       3.55 GB
     Cannot read rho : file not found

     Initial potential from superposition of free atoms

     starting charge  379.99915, renormalised to  396.00000

     negative rho (up, down):  1.651E-02 0.000E+00


     %%%%%%%%%%%%%%%%%%%%%%%%%%%%%%%%%%%%%%%%%%%%%%%%%%%%%%%%%%%%%%%%%%%%%%%%
     %                                                                      %
     % You are using vdW-DF, which was implemented by the Thonhauser group. %
     % Please cite the following two papers that made this development      %
     % possible and the two reviews that describe the various versions:     %
     %                                                                      %
     %   T. Thonhauser et al., PRL 115, 136402 (2015).                      %
     %   T. Thonhauser et al., PRB 76, 125112 (2007).                       %
     %   K. Berland et al., Rep. Prog. Phys. 78, 066501 (2015).             %
     %   D.C. Langreth et al., J. Phys.: Condens. Matter 21, 084203 (2009). %
     %                                                                      %
     %                                                                      %
     % If you are calculating the stress with vdW-DF, please also cite:     %
     %                                                                      %
     %   R. Sabatini et al., J. Phys.: Condens. Matter 24, 424209 (2012).   %
     %                                                                      %
     %%%%%%%%%%%%%%%%%%%%%%%%%%%%%%%%%%%%%%%%%%%%%%%%%%%%%%%%%%%%%%%%%%%%%%%%


 
     Adding external electric field

     Computed dipole along edir(3) : 
        Dipole               -9.9915 Ry au,        -25.3958 Debye
        Dipole field         -0.0189 Ry au, 
 
        Potential amp.        1.7479 Ry
        Total length         46.3494 bohr
 
     Starting wfcs are  300 atomic wfcs
  @ DRIVER MODE: Message from server: STATUS
  @ DRIVER MODE: Message from server: POSDATA
  @ DRIVER MODE: Reading and sharing cell 
  @ DRIVER MODE: Reading and sharing positions 
  @ DRIVER MODE: Received positions 

     total cpu time spent up to now is       11.6 secs

     Self-consistent Calculation

     iteration #  1     ecut=    29.40 Ry     beta= 0.05
     Davidson diagonalization with overlap
     c_bands:  2 eigenvalues not converged
     c_bands:  2 eigenvalues not converged
     c_bands:  3 eigenvalues not converged
     c_bands:  2 eigenvalues not converged
     c_bands:  3 eigenvalues not converged
     c_bands:  1 eigenvalues not converged
     c_bands:  3 eigenvalues not converged
     c_bands:  2 eigenvalues not converged
     c_bands:  1 eigenvalues not converged
     c_bands:  1 eigenvalues not converged
     ethr =  1.00E-05,  avg # of iterations = 20.0

     negative rho (up, down):  1.263E-02 0.000E+00
 
     Adding external electric field

     Computed dipole along edir(3) : 
        Dipole               43.7429 Ry au,        111.1833 Debye
        Dipole field          0.0825 Ry au, 
 
        Potential amp.       -7.6522 Ry
        Total length         46.3494 bohr
 

     total cpu time spent up to now is       53.5 secs

     total energy              =   -2520.06494809 Ry
     estimated scf accuracy    <    4699.62737469 Ry

     iteration #  2     ecut=    29.40 Ry     beta= 0.05
     Davidson diagonalization with overlap
     ethr =  1.00E-02,  avg # of iterations = 25.3

     negative rho (up, down):  3.568E-03 0.000E+00
 
     Adding external electric field

     Computed dipole along edir(3) : 
        Dipole               -2.2404 Ry au,         -5.6946 Debye
        Dipole field         -0.0042 Ry au, 
 
        Potential amp.        0.3919 Ry
        Total length         46.3494 bohr
 

     total cpu time spent up to now is      129.6 secs

     total energy              =   -2461.52033927 Ry
     estimated scf accuracy    <   66303.76168675 Ry

     iteration #  3     ecut=    29.40 Ry     beta= 0.05
     Davidson diagonalization with overlap
     c_bands:  1 eigenvalues not converged
     ethr =  1.00E-02,  avg # of iterations = 15.7

     negative rho (up, down):  3.628E-03 0.000E+00
 
     Adding external electric field

     Computed dipole along edir(3) : 
        Dipole               -4.4127 Ry au,        -11.2160 Debye
        Dipole field         -0.0083 Ry au, 
 
        Potential amp.        0.7719 Ry
        Total length         46.3494 bohr
 

     total cpu time spent up to now is      177.6 secs

     total energy              =   -2925.69412928 Ry
     estimated scf accuracy    <    4175.67091422 Ry

     iteration #  4     ecut=    29.40 Ry     beta= 0.05
     Davidson diagonalization with overlap
     ethr =  1.00E-02,  avg # of iterations = 16.3

     negative rho (up, down):  3.669E-03 0.000E+00
 
     Adding external electric field

     Computed dipole along edir(3) : 
        Dipole               -5.8384 Ry au,        -14.8398 Debye
        Dipole field         -0.0110 Ry au, 
 
        Potential amp.        1.0213 Ry
        Total length         46.3494 bohr
 

     total cpu time spent up to now is      198.0 secs

     total energy              =   -2929.52868497 Ry
     estimated scf accuracy    <    1255.45059812 Ry

     iteration #  5     ecut=    29.40 Ry     beta= 0.05
     Davidson diagonalization with overlap
     c_bands:  3 eigenvalues not converged
     c_bands:  3 eigenvalues not converged
     ethr =  1.00E-02,  avg # of iterations = 12.4

     negative rho (up, down):  3.706E-03 0.000E+00
 
     Adding external electric field

     Computed dipole along edir(3) : 
        Dipole               -5.9870 Ry au,        -15.2173 Debye
        Dipole field         -0.0113 Ry au, 
 
        Potential amp.        1.0473 Ry
        Total length         46.3494 bohr
 

     total cpu time spent up to now is      214.0 secs

     total energy              =   -2936.19531228 Ry
     estimated scf accuracy    <     249.19152956 Ry

     iteration #  6     ecut=    29.40 Ry     beta= 0.05
     Davidson diagonalization with overlap
     ethr =  1.00E-02,  avg # of iterations =  2.2

     negative rho (up, down):  3.763E-03 0.000E+00
 
     Adding external electric field

     Computed dipole along edir(3) : 
        Dipole               -5.9998 Ry au,        -15.2499 Debye
        Dipole field         -0.0113 Ry au, 
 
        Potential amp.        1.0496 Ry
        Total length         46.3494 bohr
 

     total cpu time spent up to now is      224.8 secs

     total energy              =   -2934.55481058 Ry
     estimated scf accuracy    <     232.20216145 Ry

     iteration #  7     ecut=    29.40 Ry     beta= 0.05
     Davidson diagonalization with overlap
     ethr =  1.00E-02,  avg # of iterations =  1.9

     negative rho (up, down):  3.934E-03 0.000E+00
 
     Adding external electric field

     Computed dipole along edir(3) : 
        Dipole               -6.2767 Ry au,        -15.9538 Debye
        Dipole field         -0.0118 Ry au, 
 
        Potential amp.        1.0980 Ry
        Total length         46.3494 bohr
 

     total cpu time spent up to now is      235.3 secs

     total energy              =   -2930.16719884 Ry
     estimated scf accuracy    <     192.10047866 Ry

     iteration #  8     ecut=    29.40 Ry     beta= 0.05
     Davidson diagonalization with overlap
     ethr =  1.00E-02,  avg # of iterations =  7.8

     negative rho (up, down):  3.596E-03 0.000E+00
 
     Adding external electric field

     Computed dipole along edir(3) : 
        Dipole               -5.5381 Ry au,        -14.0764 Debye
        Dipole field         -0.0105 Ry au, 
 
        Potential amp.        0.9688 Ry
        Total length         46.3494 bohr
 

     total cpu time spent up to now is      251.7 secs

     total energy              =   -2942.20115226 Ry
     estimated scf accuracy    <      37.40089798 Ry

     iteration #  9     ecut=    29.40 Ry     beta= 0.05
     Davidson diagonalization with overlap
     ethr =  9.44E-03,  avg # of iterations =  1.4

     negative rho (up, down):  3.448E-03 0.000E+00
 
     Adding external electric field

     Computed dipole along edir(3) : 
        Dipole               -4.2914 Ry au,        -10.9075 Debye
        Dipole field         -0.0081 Ry au, 
 
        Potential amp.        0.7507 Ry
        Total length         46.3494 bohr
 

     total cpu time spent up to now is      262.2 secs

     total energy              =   -2941.12927178 Ry
     estimated scf accuracy    <      25.15940578 Ry

     iteration # 10     ecut=    29.40 Ry     beta= 0.05
     Davidson diagonalization with overlap
     ethr =  6.35E-03,  avg # of iterations =  1.6

     negative rho (up, down):  4.097E-03 0.000E+00
 
     Adding external electric field

     Computed dipole along edir(3) : 
        Dipole               -1.3708 Ry au,         -3.4841 Debye
        Dipole field         -0.0026 Ry au, 
 
        Potential amp.        0.2398 Ry
        Total length         46.3494 bohr
 

     total cpu time spent up to now is      273.0 secs

     total energy              =   -2939.06692951 Ry
     estimated scf accuracy    <      14.54475037 Ry

     iteration # 11     ecut=    29.40 Ry     beta= 0.05
     Davidson diagonalization with overlap
     ethr =  3.67E-03,  avg # of iterations =  8.0

     negative rho (up, down):  3.835E-03 0.000E+00
 
     Adding external electric field

     Computed dipole along edir(3) : 
        Dipole               -1.1507 Ry au,         -2.9249 Debye
        Dipole field         -0.0022 Ry au, 
 
        Potential amp.        0.2013 Ry
        Total length         46.3494 bohr
 

     total cpu time spent up to now is      286.3 secs

     total energy              =   -2940.17319301 Ry
     estimated scf accuracy    <       5.84452066 Ry

     iteration # 12     ecut=    29.40 Ry     beta= 0.05
     Davidson diagonalization with overlap
     ethr =  1.48E-03,  avg # of iterations =  4.5

     negative rho (up, down):  3.663E-03 0.000E+00
 
     Adding external electric field

     Computed dipole along edir(3) : 
        Dipole               -0.8343 Ry au,         -2.1206 Debye
        Dipole field         -0.0016 Ry au, 
 
        Potential amp.        0.1459 Ry
        Total length         46.3494 bohr
 

     total cpu time spent up to now is      298.1 secs

     total energy              =   -2940.05987209 Ry
     estimated scf accuracy    <       3.52365402 Ry

     iteration # 13     ecut=    29.40 Ry     beta= 0.05
     Davidson diagonalization with overlap
     ethr =  8.90E-04,  avg # of iterations =  8.1

     negative rho (up, down):  3.743E-03 0.000E+00
 
     Adding external electric field

     Computed dipole along edir(3) : 
        Dipole               -1.3047 Ry au,         -3.3162 Debye
        Dipole field         -0.0025 Ry au, 
 
        Potential amp.        0.2282 Ry
        Total length         46.3494 bohr
 

     total cpu time spent up to now is      311.2 secs

     total energy              =   -2940.45385218 Ry
     estimated scf accuracy    <       1.89109394 Ry

     iteration # 14     ecut=    29.40 Ry     beta= 0.05
     Davidson diagonalization with overlap
     c_bands:  2 eigenvalues not converged
     c_bands:  3 eigenvalues not converged
     c_bands:  1 eigenvalues not converged
     c_bands:  1 eigenvalues not converged
     ethr =  4.78E-04,  avg # of iterations = 20.0

     negative rho (up, down):  3.726E-03 0.000E+00
 
     Adding external electric field

     Computed dipole along edir(3) : 
        Dipole               -1.3884 Ry au,         -3.5290 Debye
        Dipole field         -0.0026 Ry au, 
 
        Potential amp.        0.2429 Ry
        Total length         46.3494 bohr
 

     total cpu time spent up to now is      332.5 secs

     total energy              =   -2940.60529974 Ry
     estimated scf accuracy    <       6.08766441 Ry

     iteration # 15     ecut=    29.40 Ry     beta= 0.05
     Davidson diagonalization with overlap
     ethr =  4.78E-04,  avg # of iterations =  1.7

     negative rho (up, down):  4.011E-03 0.000E+00
 
     Adding external electric field

     Computed dipole along edir(3) : 
        Dipole               -1.2934 Ry au,         -3.2874 Debye
        Dipole field         -0.0024 Ry au, 
 
        Potential amp.        0.2263 Ry
        Total length         46.3494 bohr
 

     total cpu time spent up to now is      343.1 secs

     total energy              =   -2940.32706846 Ry
     estimated scf accuracy    <       5.04887301 Ry

     iteration # 16     ecut=    29.40 Ry     beta= 0.05
     Davidson diagonalization with overlap
     ethr =  4.78E-04,  avg # of iterations =  5.8

     negative rho (up, down):  4.732E-03 0.000E+00
 
     Adding external electric field

     Computed dipole along edir(3) : 
        Dipole               -0.9003 Ry au,         -2.2884 Debye
        Dipole field         -0.0017 Ry au, 
 
        Potential amp.        0.1575 Ry
        Total length         46.3494 bohr
 

     total cpu time spent up to now is      355.1 secs

     total energy              =   -2940.28506954 Ry
     estimated scf accuracy    <       1.82013016 Ry

     iteration # 17     ecut=    29.40 Ry     beta= 0.05
     Davidson diagonalization with overlap
     c_bands:  2 eigenvalues not converged
     c_bands:  5 eigenvalues not converged
     c_bands:  5 eigenvalues not converged
     c_bands:  4 eigenvalues not converged
     c_bands:  5 eigenvalues not converged
     c_bands:  1 eigenvalues not converged
     c_bands:  2 eigenvalues not converged
     ethr =  4.60E-04,  avg # of iterations = 21.8

     negative rho (up, down):  4.665E-03 0.000E+00
 
     Adding external electric field

     Computed dipole along edir(3) : 
        Dipole               -0.4894 Ry au,         -1.2440 Debye
        Dipole field         -0.0009 Ry au, 
 
        Potential amp.        0.0856 Ry
        Total length         46.3494 bohr
 

     total cpu time spent up to now is      376.7 secs

     total energy              =   -2940.18925107 Ry
     estimated scf accuracy    <       1.55045560 Ry

     iteration # 18     ecut=    29.40 Ry     beta= 0.05
     Davidson diagonalization with overlap
     ethr =  3.92E-04,  avg # of iterations =  7.4

     negative rho (up, down):  5.108E-03 0.000E+00
 
     Adding external electric field

     Computed dipole along edir(3) : 
        Dipole               -0.2938 Ry au,         -0.7467 Debye
        Dipole field         -0.0006 Ry au, 
 
        Potential amp.        0.0514 Ry
        Total length         46.3494 bohr
 

     total cpu time spent up to now is      389.1 secs

     total energy              =   -2940.23846631 Ry
     estimated scf accuracy    <       0.82344346 Ry

     iteration # 19     ecut=    29.40 Ry     beta= 0.05
     Davidson diagonalization with overlap
     c_bands:  1 eigenvalues not converged
     c_bands:  4 eigenvalues not converged
     c_bands:  2 eigenvalues not converged
     c_bands:  1 eigenvalues not converged
     c_bands:  1 eigenvalues not converged
     ethr =  2.08E-04,  avg # of iterations = 19.0

     negative rho (up, down):  5.633E-03 0.000E+00
 
     Adding external electric field

     Computed dipole along edir(3) : 
        Dipole               -0.4316 Ry au,         -1.0971 Debye
        Dipole field         -0.0008 Ry au, 
 
        Potential amp.        0.0755 Ry
        Total length         46.3494 bohr
 

     total cpu time spent up to now is      407.3 secs

     total energy              =   -2940.21521052 Ry
     estimated scf accuracy    <       0.69169361 Ry

     iteration # 20     ecut=    29.40 Ry     beta= 0.05
     Davidson diagonalization with overlap
     c_bands:  2 eigenvalues not converged
     ethr =  1.75E-04,  avg # of iterations = 15.9

     negative rho (up, down):  5.232E-03 0.000E+00
 
     Adding external electric field

     Computed dipole along edir(3) : 
        Dipole               -0.3655 Ry au,         -0.9289 Debye
        Dipole field         -0.0007 Ry au, 
 
        Potential amp.        0.0639 Ry
        Total length         46.3494 bohr
 

     total cpu time spent up to now is      423.7 secs

     total energy              =   -2940.21964576 Ry
     estimated scf accuracy    <       0.89497184 Ry

     iteration # 21     ecut=    29.40 Ry     beta= 0.05
     Davidson diagonalization with overlap
     c_bands:  2 eigenvalues not converged
     c_bands:  1 eigenvalues not converged
     c_bands:  3 eigenvalues not converged
     c_bands:  1 eigenvalues not converged
     ethr =  1.75E-04,  avg # of iterations = 13.7

     negative rho (up, down):  6.646E-03 0.000E+00
 
     Adding external electric field

     Computed dipole along edir(3) : 
        Dipole               -0.0404 Ry au,         -0.1026 Debye
        Dipole field         -0.0001 Ry au, 
 
        Potential amp.        0.0071 Ry
        Total length         46.3494 bohr
 

     total cpu time spent up to now is      438.4 secs

     total energy              =   -2940.22017407 Ry
     estimated scf accuracy    <       0.60290760 Ry

     iteration # 22     ecut=    29.40 Ry     beta= 0.05
     Davidson diagonalization with overlap
     c_bands:  1 eigenvalues not converged
     ethr =  1.52E-04,  avg # of iterations =  5.8

     negative rho (up, down):  7.754E-03 0.000E+00
 
     Adding external electric field

     Computed dipole along edir(3) : 
        Dipole                0.3981 Ry au,          1.0119 Debye
        Dipole field          0.0008 Ry au, 
 
        Potential amp.       -0.0696 Ry
        Total length         46.3494 bohr
 

     total cpu time spent up to now is      450.6 secs

     total energy              =   -2940.20803104 Ry
     estimated scf accuracy    <       0.51683392 Ry

     iteration # 23     ecut=    29.40 Ry     beta= 0.05
     Davidson diagonalization with overlap
     c_bands:  3 eigenvalues not converged
     c_bands:  1 eigenvalues not converged
     ethr =  1.31E-04,  avg # of iterations = 10.8

     negative rho (up, down):  8.272E-03 0.000E+00
 
     Adding external electric field

     Computed dipole along edir(3) : 
        Dipole                0.4347 Ry au,          1.1050 Debye
        Dipole field          0.0008 Ry au, 
 
        Potential amp.       -0.0761 Ry
        Total length         46.3494 bohr
 

     total cpu time spent up to now is      464.5 secs

     total energy              =   -2940.24376071 Ry
     estimated scf accuracy    <       0.37425753 Ry

     iteration # 24     ecut=    29.40 Ry     beta= 0.05
     Davidson diagonalization with overlap
     ethr =  9.45E-05,  avg # of iterations =  1.4

     negative rho (up, down):  9.531E-03 0.000E+00
 
     Adding external electric field

     Computed dipole along edir(3) : 
        Dipole                0.6627 Ry au,          1.6845 Debye
        Dipole field          0.0013 Ry au, 
 
        Potential amp.       -0.1159 Ry
        Total length         46.3494 bohr
 

     total cpu time spent up to now is      475.1 secs

     total energy              =   -2940.24695845 Ry
     estimated scf accuracy    <       0.08866982 Ry

     iteration # 25     ecut=    29.40 Ry     beta= 0.05
     Davidson diagonalization with overlap
     c_bands:  2 eigenvalues not converged
     c_bands:  1 eigenvalues not converged
     c_bands:  3 eigenvalues not converged
     c_bands:  1 eigenvalues not converged
     c_bands:  1 eigenvalues not converged
     c_bands:  1 eigenvalues not converged
     c_bands:  2 eigenvalues not converged
     ethr =  2.24E-05,  avg # of iterations = 18.9

     negative rho (up, down):  9.737E-03 0.000E+00
 
     Adding external electric field

     Computed dipole along edir(3) : 
        Dipole                0.7216 Ry au,          1.8342 Debye
        Dipole field          0.0014 Ry au, 
 
        Potential amp.       -0.1262 Ry
        Total length         46.3494 bohr
 

     total cpu time spent up to now is      497.2 secs

     total energy              =   -2940.24894300 Ry
     estimated scf accuracy    <       0.09207430 Ry

     iteration # 26     ecut=    29.40 Ry     beta= 0.05
     Davidson diagonalization with overlap
     c_bands:  1 eigenvalues not converged
     c_bands:  1 eigenvalues not converged
     ethr =  2.24E-05,  avg # of iterations = 10.4

     negative rho (up, down):  8.823E-03 0.000E+00
 
     Adding external electric field

     Computed dipole along edir(3) : 
        Dipole                0.6225 Ry au,          1.5823 Debye
        Dipole field          0.0012 Ry au, 
 
        Potential amp.       -0.1089 Ry
        Total length         46.3494 bohr
 

     total cpu time spent up to now is      510.8 secs

     total energy              =   -2940.24884587 Ry
     estimated scf accuracy    <       0.03179244 Ry

     iteration # 27     ecut=    29.40 Ry     beta= 0.05
     Davidson diagonalization with overlap
     c_bands:  1 eigenvalues not converged
     c_bands:  4 eigenvalues not converged
     c_bands:  3 eigenvalues not converged
     c_bands:  3 eigenvalues not converged
     c_bands:  2 eigenvalues not converged
     ethr =  8.03E-06,  avg # of iterations = 18.0

     negative rho (up, down):  1.052E-02 0.000E+00
 
     Adding external electric field

     Computed dipole along edir(3) : 
        Dipole                0.6926 Ry au,          1.7605 Debye
        Dipole field          0.0013 Ry au, 
 
        Potential amp.       -0.1212 Ry
        Total length         46.3494 bohr
 

     total cpu time spent up to now is      530.9 secs

     total energy              =   -2940.25312013 Ry
     estimated scf accuracy    <       0.02382358 Ry

     iteration # 28     ecut=    29.40 Ry     beta= 0.05
     Davidson diagonalization with overlap
     c_bands:  2 eigenvalues not converged
     ethr =  6.02E-06,  avg # of iterations = 10.0

     negative rho (up, down):  1.279E-02 0.000E+00
 
     Adding external electric field

     Computed dipole along edir(3) : 
        Dipole                0.7501 Ry au,          1.9066 Debye
        Dipole field          0.0014 Ry au, 
 
        Potential amp.       -0.1312 Ry
        Total length         46.3494 bohr
 

     total cpu time spent up to now is      544.5 secs

     total energy              =   -2940.25399637 Ry
     estimated scf accuracy    <       0.00608122 Ry

     iteration # 29     ecut=    29.40 Ry     beta= 0.05
     Davidson diagonalization with overlap
     c_bands:  3 eigenvalues not converged
     c_bands:  1 eigenvalues not converged
     c_bands:  3 eigenvalues not converged
     c_bands:  1 eigenvalues not converged
     c_bands:  1 eigenvalues not converged
     c_bands:  2 eigenvalues not converged
     c_bands:  2 eigenvalues not converged
     c_bands:  2 eigenvalues not converged
     ethr =  1.54E-06,  avg # of iterations = 19.5

     negative rho (up, down):  1.370E-02 0.000E+00
 
     Adding external electric field

     Computed dipole along edir(3) : 
        Dipole                0.7788 Ry au,          1.9795 Debye
        Dipole field          0.0015 Ry au, 
 
        Potential amp.       -0.1362 Ry
        Total length         46.3494 bohr
 

     total cpu time spent up to now is      565.4 secs

     total energy              =   -2940.25501429 Ry
     estimated scf accuracy    <       0.00436323 Ry

     iteration # 30     ecut=    29.40 Ry     beta= 0.05
     Davidson diagonalization with overlap
     c_bands:  2 eigenvalues not converged
     c_bands:  1 eigenvalues not converged
     ethr =  1.10E-06,  avg # of iterations = 13.0

     negative rho (up, down):  1.495E-02 0.000E+00
 
     Adding external electric field

     Computed dipole along edir(3) : 
        Dipole                0.8298 Ry au,          2.1091 Debye
        Dipole field          0.0016 Ry au, 
 
        Potential amp.       -0.1452 Ry
        Total length         46.3494 bohr
 

     total cpu time spent up to now is      581.2 secs

     total energy              =   -2940.25456002 Ry
     estimated scf accuracy    <       0.00599409 Ry

     iteration # 31     ecut=    29.40 Ry     beta= 0.05
     Davidson diagonalization with overlap
     ethr =  1.10E-06,  avg # of iterations = 11.5

     negative rho (up, down):  1.487E-02 0.000E+00
 
     Adding external electric field

     Computed dipole along edir(3) : 
        Dipole                0.8069 Ry au,          2.0510 Debye
        Dipole field          0.0015 Ry au, 
 
        Potential amp.       -0.1412 Ry
        Total length         46.3494 bohr
 

     total cpu time spent up to now is      600.9 secs

     total energy              =   -2940.25515318 Ry
     estimated scf accuracy    <       0.00614533 Ry

     iteration # 32     ecut=    29.40 Ry     beta= 0.05
     Davidson diagonalization with overlap
     ethr =  1.10E-06,  avg # of iterations =  6.0

     negative rho (up, down):  1.498E-02 0.000E+00
 
     Adding external electric field

     Computed dipole along edir(3) : 
        Dipole                0.7752 Ry au,          1.9703 Debye
        Dipole field          0.0015 Ry au, 
 
        Potential amp.       -0.1356 Ry
        Total length         46.3494 bohr
 

     total cpu time spent up to now is      613.0 secs

     total energy              =   -2940.25496200 Ry
     estimated scf accuracy    <       0.00158076 Ry

     iteration # 33     ecut=    29.40 Ry     beta= 0.05
     Davidson diagonalization with overlap
     c_bands:  1 eigenvalues not converged
     ethr =  3.99E-07,  avg # of iterations = 15.9

     negative rho (up, down):  1.497E-02 0.000E+00
 
     Adding external electric field

     Computed dipole along edir(3) : 
        Dipole                0.7772 Ry au,          1.9753 Debye
        Dipole field          0.0015 Ry au, 
 
        Potential amp.       -0.1360 Ry
        Total length         46.3494 bohr
 

     total cpu time spent up to now is      636.7 secs

     total energy              =   -2940.25591911 Ry
     estimated scf accuracy    <       0.00322887 Ry

     iteration # 34     ecut=    29.40 Ry     beta= 0.05
     Davidson diagonalization with overlap
     ethr =  3.99E-07,  avg # of iterations =  1.6

     negative rho (up, down):  1.603E-02 0.000E+00
 
     Adding external electric field

     Computed dipole along edir(3) : 
        Dipole                0.8166 Ry au,          2.0755 Debye
        Dipole field          0.0015 Ry au, 
 
        Potential amp.       -0.1428 Ry
        Total length         46.3494 bohr
 

     total cpu time spent up to now is      647.4 secs

     total energy              =   -2940.25541802 Ry
     estimated scf accuracy    <       0.00306265 Ry

     iteration # 35     ecut=    29.40 Ry     beta= 0.05
     Davidson diagonalization with overlap
     ethr =  3.99E-07,  avg # of iterations = 12.2

     negative rho (up, down):  1.611E-02 0.000E+00
 
     Adding external electric field

     Computed dipole along edir(3) : 
        Dipole                0.8132 Ry au,          2.0671 Debye
        Dipole field          0.0015 Ry au, 
 
        Potential amp.       -0.1423 Ry
        Total length         46.3494 bohr
 

     total cpu time spent up to now is      665.2 secs

     total energy              =   -2940.25573391 Ry
     estimated scf accuracy    <       0.00039063 Ry

     iteration # 36     ecut=    29.40 Ry     beta= 0.05
     Davidson diagonalization with overlap
     ethr =  9.86E-08,  avg # of iterations =  9.7

     negative rho (up, down):  1.588E-02 0.000E+00
 
     Adding external electric field

     Computed dipole along edir(3) : 
        Dipole                0.8119 Ry au,          2.0638 Debye
        Dipole field          0.0015 Ry au, 
 
        Potential amp.       -0.1420 Ry
        Total length         46.3494 bohr
 

     total cpu time spent up to now is      681.6 secs

     total energy              =   -2940.25581400 Ry
     estimated scf accuracy    <       0.00024392 Ry

     iteration # 37     ecut=    29.40 Ry     beta= 0.05
     Davidson diagonalization with overlap
     ethr =  6.16E-08,  avg # of iterations =  1.6

     negative rho (up, down):  1.575E-02 0.000E+00
 
     Adding external electric field

     Computed dipole along edir(3) : 
        Dipole                0.8097 Ry au,          2.0579 Debye
        Dipole field          0.0015 Ry au, 
 
        Potential amp.       -0.1416 Ry
        Total length         46.3494 bohr
 

     total cpu time spent up to now is      692.4 secs

     total energy              =   -2940.25585615 Ry
     estimated scf accuracy    <       0.00020837 Ry

     iteration # 38     ecut=    29.40 Ry     beta= 0.05
     Davidson diagonalization with overlap
     ethr =  5.26E-08,  avg # of iterations =  1.7

     negative rho (up, down):  1.604E-02 0.000E+00
 
     Adding external electric field

     Computed dipole along edir(3) : 
        Dipole                0.8153 Ry au,          2.0723 Debye
        Dipole field          0.0015 Ry au, 
 
        Potential amp.       -0.1426 Ry
        Total length         46.3494 bohr
 

     total cpu time spent up to now is      703.2 secs

     total energy              =   -2940.25591103 Ry
     estimated scf accuracy    <       0.00021148 Ry

     iteration # 39     ecut=    29.40 Ry     beta= 0.05
     Davidson diagonalization with overlap
     ethr =  5.26E-08,  avg # of iterations =  3.0

     negative rho (up, down):  1.644E-02 0.000E+00
 
     Adding external electric field

     Computed dipole along edir(3) : 
        Dipole                0.8211 Ry au,          2.0871 Debye
        Dipole field          0.0015 Ry au, 
 
        Potential amp.       -0.1436 Ry
        Total length         46.3494 bohr
 

     total cpu time spent up to now is      714.5 secs

     total energy              =   -2940.25597002 Ry
     estimated scf accuracy    <       0.00017674 Ry

     iteration # 40     ecut=    29.40 Ry     beta= 0.05
     Davidson diagonalization with overlap
     ethr =  4.46E-08,  avg # of iterations =  1.7

     negative rho (up, down):  1.661E-02 0.000E+00
 
     Adding external electric field

     Computed dipole along edir(3) : 
        Dipole                0.8247 Ry au,          2.0963 Debye
        Dipole field          0.0016 Ry au, 
 
        Potential amp.       -0.1443 Ry
        Total length         46.3494 bohr
 

     total cpu time spent up to now is      725.3 secs

     total energy              =   -2940.25599883 Ry
     estimated scf accuracy    <       0.00014722 Ry

     iteration # 41     ecut=    29.40 Ry     beta= 0.05
     Davidson diagonalization with overlap
     ethr =  3.72E-08,  avg # of iterations = 10.2

     negative rho (up, down):  1.626E-02 0.000E+00
 
     Adding external electric field

     Computed dipole along edir(3) : 
        Dipole                0.8147 Ry au,          2.0707 Debye
        Dipole field          0.0015 Ry au, 
 
        Potential amp.       -0.1425 Ry
        Total length         46.3494 bohr
 

     total cpu time spent up to now is      740.9 secs

     total energy              =   -2940.25602199 Ry
     estimated scf accuracy    <       0.00013557 Ry

     iteration # 42     ecut=    29.40 Ry     beta= 0.05
     Davidson diagonalization with overlap
     ethr =  3.42E-08,  avg # of iterations =  5.8

     negative rho (up, down):  1.607E-02 0.000E+00
 
     Adding external electric field

     Computed dipole along edir(3) : 
        Dipole                0.8113 Ry au,          2.0622 Debye
        Dipole field          0.0015 Ry au, 
 
        Potential amp.       -0.1419 Ry
        Total length         46.3494 bohr
 

     total cpu time spent up to now is      753.5 secs

     total energy              =   -2940.25605382 Ry
     estimated scf accuracy    <       0.00007291 Ry

     iteration # 43     ecut=    29.40 Ry     beta= 0.05
     Davidson diagonalization with overlap
     ethr =  1.84E-08,  avg # of iterations = 11.4

     negative rho (up, down):  1.623E-02 0.000E+00
 
     Adding external electric field

     Computed dipole along edir(3) : 
        Dipole                0.8132 Ry au,          2.0669 Debye
        Dipole field          0.0015 Ry au, 
 
        Potential amp.       -0.1423 Ry
        Total length         46.3494 bohr
 

     total cpu time spent up to now is      768.5 secs

     total energy              =   -2940.25608351 Ry
     estimated scf accuracy    <       0.00004706 Ry

     iteration # 44     ecut=    29.40 Ry     beta= 0.05
     Davidson diagonalization with overlap
     ethr =  1.19E-08,  avg # of iterations =  8.9

     negative rho (up, down):  1.619E-02 0.000E+00
 
     Adding external electric field

     Computed dipole along edir(3) : 
        Dipole                0.8145 Ry au,          2.0703 Debye
        Dipole field          0.0015 Ry au, 
 
        Potential amp.       -0.1425 Ry
        Total length         46.3494 bohr
 

     total cpu time spent up to now is      781.3 secs

     total energy              =   -2940.25610913 Ry
     estimated scf accuracy    <       0.00005022 Ry

     iteration # 45     ecut=    29.40 Ry     beta= 0.05
     Davidson diagonalization with overlap
     ethr =  1.19E-08,  avg # of iterations =  5.9

     negative rho (up, down):  1.619E-02 0.000E+00
 
     Adding external electric field

     Computed dipole along edir(3) : 
        Dipole                0.8136 Ry au,          2.0681 Debye
        Dipole field          0.0015 Ry au, 
 
        Potential amp.       -0.1423 Ry
        Total length         46.3494 bohr
 

     total cpu time spent up to now is      793.9 secs

     total energy              =   -2940.25612795 Ry
     estimated scf accuracy    <       0.00003129 Ry

     iteration # 46     ecut=    29.40 Ry     beta= 0.05
     Davidson diagonalization with overlap
     ethr =  7.90E-09,  avg # of iterations =  5.5

     negative rho (up, down):  1.614E-02 0.000E+00
 
     Adding external electric field

     Computed dipole along edir(3) : 
        Dipole                0.8121 Ry au,          2.0641 Debye
        Dipole field          0.0015 Ry au, 
 
        Potential amp.       -0.1421 Ry
        Total length         46.3494 bohr
 

     total cpu time spent up to now is      806.2 secs

     total energy              =   -2940.25614513 Ry
     estimated scf accuracy    <       0.00000868 Ry

     iteration # 47     ecut=    29.40 Ry     beta= 0.05
     Davidson diagonalization with overlap
     c_bands:  3 eigenvalues not converged
     ethr =  2.19E-09,  avg # of iterations = 12.7

     negative rho (up, down):  1.616E-02 0.000E+00
 
     Adding external electric field

     Computed dipole along edir(3) : 
        Dipole                0.8135 Ry au,          2.0677 Debye
        Dipole field          0.0015 Ry au, 
 
        Potential amp.       -0.1423 Ry
        Total length         46.3494 bohr
 

     total cpu time spent up to now is      825.8 secs

     total energy              =   -2940.25616114 Ry
     estimated scf accuracy    <       0.00001647 Ry

     iteration # 48     ecut=    29.40 Ry     beta= 0.05
     Davidson diagonalization with overlap
     ethr =  2.19E-09,  avg # of iterations =  8.1

     negative rho (up, down):  1.614E-02 0.000E+00
 
     Adding external electric field

     Computed dipole along edir(3) : 
        Dipole                0.8137 Ry au,          2.0682 Debye
        Dipole field          0.0015 Ry au, 
 
        Potential amp.       -0.1423 Ry
        Total length         46.3494 bohr
 

     total cpu time spent up to now is      840.0 secs

     total energy              =   -2940.25617615 Ry
     estimated scf accuracy    <       0.00000210 Ry

     iteration # 49     ecut=    29.40 Ry     beta= 0.05
     Davidson diagonalization with overlap
     c_bands:  1 eigenvalues not converged
     c_bands:  1 eigenvalues not converged
     ethr =  5.29E-10,  avg # of iterations = 14.2

     negative rho (up, down):  1.616E-02 0.000E+00
 
     Adding external electric field

     Computed dipole along edir(3) : 
        Dipole                0.8145 Ry au,          2.0702 Debye
        Dipole field          0.0015 Ry au, 
 
        Potential amp.       -0.1425 Ry
        Total length         46.3494 bohr
 

     total cpu time spent up to now is      858.1 secs

     total energy              =   -2940.25618869 Ry
     estimated scf accuracy    <       0.00000185 Ry

     iteration # 50     ecut=    29.40 Ry     beta= 0.05
     Davidson diagonalization with overlap
     ethr =  4.68E-10,  avg # of iterations =  6.5

     negative rho (up, down):  1.613E-02 0.000E+00
 
     Adding external electric field

     Computed dipole along edir(3) : 
        Dipole                0.8151 Ry au,          2.0717 Debye
        Dipole field          0.0015 Ry au, 
 
        Potential amp.       -0.1426 Ry
        Total length         46.3494 bohr
 

     total cpu time spent up to now is      870.6 secs

     total energy              =   -2940.25619981 Ry
     estimated scf accuracy    <       0.00000166 Ry

     iteration # 51     ecut=    29.40 Ry     beta= 0.05
     Davidson diagonalization with overlap
     c_bands:  3 eigenvalues not converged
     ethr =  4.19E-10,  avg # of iterations = 13.7

     negative rho (up, down):  1.609E-02 0.000E+00
 
     Adding external electric field

     Computed dipole along edir(3) : 
        Dipole                0.8144 Ry au,          2.0699 Debye
        Dipole field          0.0015 Ry au, 
 
        Potential amp.       -0.1425 Ry
        Total length         46.3494 bohr
 

     total cpu time spent up to now is      890.6 secs

     total energy              =   -2940.25621008 Ry
     estimated scf accuracy    <       0.00000165 Ry

     iteration # 52     ecut=    29.40 Ry     beta= 0.05
     Davidson diagonalization with overlap
     ethr =  4.17E-10,  avg # of iterations =  7.0

     negative rho (up, down):  1.607E-02 0.000E+00
 
     Adding external electric field

     Computed dipole along edir(3) : 
        Dipole                0.8138 Ry au,          2.0686 Debye
        Dipole field          0.0015 Ry au, 
 
        Potential amp.       -0.1424 Ry
        Total length         46.3494 bohr
 

     total cpu time spent up to now is      904.2 secs

     total energy              =   -2940.25621934 Ry
     estimated scf accuracy    <       0.00000054 Ry

     iteration # 53     ecut=    29.40 Ry     beta= 0.05
     Davidson diagonalization with overlap
     ethr =  1.35E-10,  avg # of iterations = 11.2

     negative rho (up, down):  1.606E-02 0.000E+00
 
     Adding external electric field

     Computed dipole along edir(3) : 
        Dipole                0.8139 Ry au,          2.0688 Debye
        Dipole field          0.0015 Ry au, 
 
        Potential amp.       -0.1424 Ry
        Total length         46.3494 bohr
 

     total cpu time spent up to now is      921.2 secs

     total energy              =   -2940.25622763 Ry
     estimated scf accuracy    <       0.00000027 Ry

     iteration # 54     ecut=    29.40 Ry     beta= 0.05
     Davidson diagonalization with overlap
     ethr =  6.77E-11,  avg # of iterations =  6.5

     negative rho (up, down):  1.604E-02 0.000E+00
 
     Adding external electric field

     Computed dipole along edir(3) : 
        Dipole                0.8136 Ry au,          2.0680 Debye
        Dipole field          0.0015 Ry au, 
 
        Potential amp.       -0.1423 Ry
        Total length         46.3494 bohr
 

     total cpu time spent up to now is      933.7 secs

     total energy              =   -2940.25623514 Ry
     estimated scf accuracy    <       0.00000019 Ry

     iteration # 55     ecut=    29.40 Ry     beta= 0.05
     Davidson diagonalization with overlap
     c_bands:  2 eigenvalues not converged
     ethr =  4.74E-11,  avg # of iterations =  7.8

     negative rho (up, down):  1.603E-02 0.000E+00
 
     Adding external electric field

     Computed dipole along edir(3) : 
        Dipole                0.8138 Ry au,          2.0684 Debye
        Dipole field          0.0015 Ry au, 
 
        Potential amp.       -0.1424 Ry
        Total length         46.3494 bohr
 

     total cpu time spent up to now is      947.5 secs

     total energy              =   -2940.25624187 Ry
     estimated scf accuracy    <       0.00000022 Ry

     iteration # 56     ecut=    29.40 Ry     beta= 0.05
     Davidson diagonalization with overlap
     ethr =  4.74E-11,  avg # of iterations =  6.2

     negative rho (up, down):  1.613E-02 0.000E+00
 
     Adding external electric field

     Computed dipole along edir(3) : 
        Dipole                0.8127 Ry au,          2.0656 Debye
        Dipole field          0.0015 Ry au, 
 
        Potential amp.       -0.1422 Ry
        Total length         46.3494 bohr
 

     total cpu time spent up to now is      959.8 secs

     End of self-consistent calculation

          k = 0.0000 0.0000 0.0000 ( 18029 PWs)   bands (ev):

   -55.6659 -55.6288 -55.6169 -55.5853 -55.5828 -55.5477 -55.5427 -55.5082
   -55.4892 -55.4787 -55.4548 -55.4485 -55.4148 -55.3307 -54.6489 -54.6148
   -32.2310 -32.1234 -32.1099 -32.0309 -31.9787 -31.9774 -31.9746 -31.9547
   -31.9058 -31.8997 -31.8748 -31.8711 -31.8618 -31.8500 -31.8329 -31.8214
   -31.8194 -31.8106 -31.8027 -31.7852 -31.7696 -31.7666 -31.7315 -31.7312
   -31.7207 -31.7196 -31.7075 -31.6915 -31.6742 -31.6735 -31.6688 -31.6485
   -31.6474 -31.6447 -31.6380 -31.6356 -31.6026 -31.5944 -31.5766 -31.5599
   -31.5387 -31.5263 -31.0584 -30.9638 -30.9418 -30.8747 -30.7879 -30.6771
   -18.4996 -16.4964 -16.2350 -16.0898 -15.9779 -15.8666 -15.7540 -15.7111
   -15.5970 -15.5229 -15.3944 -15.3600 -15.3228 -15.3077 -15.2949 -15.2940
   -15.2133 -15.2075 -15.1888 -15.1645 -15.1615 -15.1182 -15.1069 -15.0663
   -15.0422 -15.0110 -14.9133 -14.8279 -14.7542 -14.5896 -14.5090 -13.1515
   -13.0340  -9.5960  -6.7394  -5.8051  -4.1074  -3.9072  -3.8208  -3.6872
    -3.5819  -3.5590  -3.5038  -3.4219  -3.2481  -3.1122  -3.0602  -2.9548
    -2.8757  -2.8642  -2.8333  -2.7089  -2.6645  -2.6215  -2.5491  -2.5309
    -2.4732  -2.4516  -2.4347  -2.4183  -2.3974  -2.3867  -2.2974  -2.2363
    -2.1374  -2.0877  -2.0692  -2.0203  -2.0057  -1.9791  -1.9562  -1.9468
    -1.8941  -1.8896  -1.8615  -1.8126  -1.6943  -1.5604  -1.5283  -1.4281
    -1.3062  -1.2684  -1.2493  -1.1600  -1.1493  -1.1233  -1.0740  -1.0443
    -1.0082  -0.9309  -0.8782  -0.7874  -0.7459  -0.7398  -0.6765  -0.6556
    -0.5664  -0.4807  -0.4479  -0.4333  -0.4085  -0.2959  -0.2738  -0.2090
    -0.1499  -0.1392  -0.1313  -0.0513  -0.0066   0.0672   0.0997   0.1208
     0.2124   0.2339   0.2640   0.2656   0.2974   0.3182   0.3633   0.4054
     0.4318   0.5190   0.6355   0.8588   0.9437   0.9481   1.2703   1.2782
     1.3739   1.5572   1.6257   1.9503   1.9986   3.4310   3.5025   3.5770
     3.5811   3.5949   3.6670   3.9099   3.9305   3.9378   3.9406   3.9662

          k = 0.0000 0.0419 0.0000 ( 17933 PWs)   bands (ev):

   -55.6608 -55.6337 -55.6119 -55.5878 -55.5846 -55.5455 -55.5376 -55.5131
   -55.4841 -55.4807 -55.4598 -55.4435 -55.4197 -55.3312 -54.6438 -54.6198
   -32.1740 -32.0863 -32.0558 -31.9762 -31.9637 -31.9260 -31.9249 -31.9116
   -31.9091 -31.9008 -31.8927 -31.8635 -31.8577 -31.8548 -31.8426 -31.8362
   -31.8140 -31.8123 -31.8061 -31.7879 -31.7705 -31.7704 -31.7557 -31.7326
   -31.7167 -31.7153 -31.7145 -31.7023 -31.6950 -31.6916 -31.6880 -31.6809
   -31.6586 -31.6561 -31.6492 -31.6385 -31.6346 -31.6306 -31.6141 -31.5870
   -31.5640 -31.5372 -31.0042 -30.9604 -30.9448 -30.8621 -30.8005 -30.7342
   -18.4977 -16.3681 -16.1212 -16.0007 -15.9022 -15.7604 -15.7058 -15.6763
   -15.5755 -15.5247 -15.4817 -15.3968 -15.3555 -15.3405 -15.2890 -15.2760
   -15.2413 -15.2354 -15.1833 -15.1675 -15.1518 -15.1505 -15.1253 -15.1021
   -15.0511 -15.0380 -14.9690 -14.8830 -14.8140 -14.6894 -14.5223 -13.1550
   -13.0732  -9.5933  -6.7406  -5.8023  -4.1032  -3.8437  -3.6402  -3.5193
    -3.4255  -3.3828  -3.3787  -3.2774  -3.0260  -3.0108  -2.9672  -2.9103
    -2.8387  -2.8147  -2.7617  -2.7427  -2.6861  -2.6815  -2.6338  -2.6168
    -2.6086  -2.5671  -2.5355  -2.4659  -2.4435  -2.4133  -2.3851  -2.3136
    -2.2708  -2.2265  -2.2228  -2.1821  -2.1625  -2.0940  -2.0224  -1.9787
    -1.9376  -1.8229  -1.6962  -1.6043  -1.5979  -1.4927  -1.4759  -1.4108
    -1.3387  -1.2525  -1.2003  -1.0555  -1.0207  -1.0104  -0.9901  -0.9106
    -0.8864  -0.8473  -0.8392  -0.7831  -0.6781  -0.6671  -0.6527  -0.5987
    -0.5849  -0.5003  -0.4889  -0.4861  -0.4434  -0.3775  -0.2959  -0.2664
    -0.2606  -0.1766  -0.1671  -0.1162  -0.0703  -0.0213   0.0627   0.0705
     0.0841   0.1200   0.1381   0.1618   0.2648   0.2872   0.3270   0.3627
     0.4409   0.5107   0.6282   0.6397   0.7002   0.8188   0.9814   1.1458
     1.5572   1.6171   1.6330   1.9052   1.9089   3.6281   3.6369   3.6663
     3.7229   3.8048   3.8107   3.8448   3.8616   3.9154   3.9263   4.0010

          k = 0.0000-0.0839 0.0000 ( 17884 PWs)   bands (ev):

   -55.6520 -55.6424 -55.6000 -55.5996 -55.5839 -55.5432 -55.5269 -55.5238
   -55.4830 -55.4733 -55.4705 -55.4317 -55.4314 -55.3318 -54.6320 -54.6316
   -32.0428 -32.0385 -32.0307 -31.9432 -31.9235 -31.9232 -31.9207 -31.8910
   -31.8908 -31.8623 -31.8515 -31.8496 -31.8378 -31.8372 -31.8367 -31.8297
   -31.8089 -31.8053 -31.8048 -31.7972 -31.7939 -31.7900 -31.7584 -31.7431
   -31.7387 -31.7349 -31.7345 -31.7320 -31.7307 -31.7221 -31.7217 -31.7059
   -31.7034 -31.7003 -31.6963 -31.6636 -31.6312 -31.6289 -31.6128 -31.6122
   -31.6042 -31.5358 -30.9525 -30.9522 -30.8711 -30.8708 -30.8314 -30.8312
   -18.4959 -16.1254 -15.9964 -15.8737 -15.8076 -15.7647 -15.6704 -15.6560
   -15.5627 -15.5280 -15.5196 -15.4917 -15.4494 -15.4187 -15.2847 -15.2783
   -15.2635 -15.2603 -15.2006 -15.1336 -15.1187 -15.1099 -15.0918 -15.0756
   -15.0738 -15.0247 -15.0097 -14.9601 -14.9558 -14.8635 -14.5274 -13.1359
   -13.1358  -9.5910  -6.7419  -5.7996  -4.0947  -3.7992  -3.2128  -3.2017
    -3.1441  -3.1069  -3.0897  -3.0798  -3.0438  -3.0067  -2.9884  -2.9404
    -2.9385  -2.8713  -2.8675  -2.8257  -2.8157  -2.7854  -2.7258  -2.6723
    -2.6476  -2.6055  -2.5516  -2.5410  -2.5164  -2.5124  -2.4953  -2.3999
    -2.3931  -2.3025  -2.2787  -2.1565  -2.1073  -2.0767  -2.0372  -1.8443
    -1.8004  -1.7282  -1.6954  -1.5801  -1.4675  -1.4420  -1.4248  -1.4146
    -1.1865  -1.1817  -1.1735  -1.1519  -1.1300  -1.0931  -1.0592  -1.0556
    -1.0416  -0.8940  -0.8688  -0.8397  -0.7912  -0.7236  -0.5944  -0.4986
    -0.4693  -0.4137  -0.3797  -0.3723  -0.3125  -0.2914  -0.2736  -0.2733
    -0.2217  -0.1802  -0.1478  -0.1423  -0.0934  -0.0658  -0.0509  -0.0334
    -0.0271   0.0272   0.0616   0.0838   0.1208   0.1213   0.1477   0.1534
     0.4812   0.5281   0.5419   0.5467   0.7062   0.7203   0.8894   0.8977
     1.6024   1.6991   1.6995   1.8408   1.8409   3.6919   3.7033   3.7542
     3.7598   3.8141   3.8558   3.9129   3.9158   4.0075   4.0200   4.0322

          k = 0.0380 0.0000 0.0000 ( 17913 PWs)   bands (ev):

   -55.6657 -55.6287 -55.6168 -55.5851 -55.5827 -55.5477 -55.5427 -55.5081
   -55.4889 -55.4786 -55.4547 -55.4486 -55.4147 -55.3306 -54.6488 -54.6147
   -32.2311 -32.1234 -32.1108 -32.0363 -31.9826 -31.9808 -31.9748 -31.9550
   -31.9056 -31.8996 -31.8711 -31.8618 -31.8579 -31.8498 -31.8328 -31.8190
   -31.8104 -31.8051 -31.7962 -31.7680 -31.7665 -31.7642 -31.7402 -31.7379
   -31.7309 -31.7193 -31.7073 -31.6915 -31.6739 -31.6727 -31.6613 -31.6570
   -31.6483 -31.6472 -31.6445 -31.6381 -31.6014 -31.5940 -31.5765 -31.5602
   -31.5413 -31.5263 -31.0579 -30.9674 -30.9398 -30.8745 -30.7878 -30.6768
   -18.4990 -16.4164 -16.1486 -16.0916 -15.9314 -15.7784 -15.7540 -15.7109
   -15.6183 -15.5265 -15.4564 -15.4479 -15.4200 -15.3667 -15.3620 -15.3355
   -15.2962 -15.2639 -15.1690 -15.1641 -15.1134 -15.0715 -15.0456 -15.0340
   -14.9880 -14.9260 -14.9029 -14.8875 -14.8404 -14.5896 -14.5112 -13.1482
   -13.0337  -9.5943  -6.7325  -5.8050  -4.1095  -3.8530  -3.7072  -3.5470
    -3.4537  -3.3341  -3.3149  -3.2706  -3.2283  -3.1956  -3.1119  -3.0665
    -3.0078  -2.9569  -2.8130  -2.7422  -2.7320  -2.6432  -2.5917  -2.4592
    -2.4366  -2.4234  -2.3795  -2.3391  -2.3260  -2.2655  -2.2545  -2.1923
    -2.0842  -2.0498  -2.0226  -2.0046  -1.9807  -1.9694  -1.9085  -1.8888
    -1.8294  -1.7740  -1.7429  -1.7104  -1.6337  -1.5955  -1.4775  -1.4675
    -1.3417  -1.3015  -1.2789  -1.2194  -1.1833  -1.1431  -1.1119  -1.0807
    -1.0634  -1.0178  -0.9870  -0.8210  -0.7577  -0.7098  -0.6673  -0.6000
    -0.5505  -0.5436  -0.5180  -0.4985  -0.3704  -0.3496  -0.3019  -0.2720
    -0.2450  -0.1707  -0.1379  -0.1187  -0.0627  -0.0088   0.0216   0.0632
     0.0693   0.0959   0.1506   0.1884   0.2645   0.2749   0.2991   0.3386
     0.3525   0.4393   0.5205   0.6191   0.7686   0.9955   1.1306   1.2836
     1.3858   1.5260   1.5835   1.8376   1.9158   3.4462   3.5359   3.6931
     3.7309   3.7655   3.8227   3.8721   3.8850   3.9220   3.9347   3.9419

          k = 0.0380 0.0419 0.0000 ( 17878 PWs)   bands (ev):

   -55.6607 -55.6337 -55.6118 -55.5877 -55.5845 -55.5455 -55.5376 -55.5131
   -55.4839 -55.4807 -55.4597 -55.4436 -55.4197 -55.3312 -54.6438 -54.6197
   -32.1741 -32.0864 -32.0567 -31.9826 -31.9635 -31.9301 -31.9291 -31.9120
   -31.9092 -31.9006 -31.8928 -31.8580 -31.8555 -31.8495 -31.8424 -31.8363
   -31.8060 -31.8027 -31.7992 -31.7880 -31.7706 -31.7547 -31.7516 -31.7384
   -31.7309 -31.7166 -31.7149 -31.6997 -31.6952 -31.6877 -31.6833 -31.6791
   -31.6678 -31.6575 -31.6485 -31.6432 -31.6380 -31.6370 -31.6138 -31.5870
   -31.5638 -31.5401 -31.0038 -30.9632 -30.9438 -30.8619 -30.8006 -30.7341
   -18.4972 -16.2952 -16.0502 -16.0106 -15.8355 -15.7169 -15.6789 -15.6548
   -15.5856 -15.5432 -15.4796 -15.4360 -15.4182 -15.3611 -15.3392 -15.3186
   -15.3118 -15.2349 -15.2269 -15.2003 -15.1454 -15.1181 -15.0874 -15.0724
   -15.0405 -14.9928 -14.9592 -14.9508 -14.8943 -14.6861 -14.5258 -13.1527
   -13.0735  -9.5915  -6.7341  -5.8023  -4.1080  -3.8189  -3.5314  -3.3977
    -3.2876  -3.1768  -3.1611  -3.0995  -3.0644  -3.0098  -2.9689  -2.9293
    -2.8611  -2.7918  -2.7506  -2.7053  -2.6880  -2.6619  -2.6122  -2.5681
    -2.5323  -2.4942  -2.4703  -2.4495  -2.4272  -2.3726  -2.3644  -2.3129
    -2.2830  -2.2548  -2.1771  -2.1379  -2.1092  -2.0649  -1.9703  -1.9446
    -1.8726  -1.7350  -1.6771  -1.6535  -1.5984  -1.4836  -1.4539  -1.3886
    -1.3084  -1.2466  -1.1995  -1.1521  -1.0934  -1.0856  -1.0280  -1.0114
    -0.9696  -0.9422  -0.9049  -0.8401  -0.7928  -0.7510  -0.7064  -0.6386
    -0.6149  -0.6075  -0.5590  -0.4656  -0.4446  -0.4243  -0.3740  -0.3553
    -0.3221  -0.2958  -0.2811  -0.2477  -0.1980  -0.1181  -0.1049  -0.0576
    -0.0180   0.0519   0.0731   0.1463   0.2164   0.2836   0.3109   0.3905
     0.4373   0.4815   0.5793   0.6186   0.7523   0.7606   0.9259   1.1016
     1.5681   1.5773   1.6360   1.8273   1.8906   3.6144   3.6268   3.6566
     3.7702   3.7965   3.8411   3.8630   3.9450   3.9836   4.0007   4.0289

          k = 0.0380-0.0839 0.0000 ( 17916 PWs)   bands (ev):

   -55.6520 -55.6424 -55.6000 -55.5996 -55.5839 -55.5433 -55.5269 -55.5239
   -55.4830 -55.4733 -55.4704 -55.4318 -55.4315 -55.3318 -54.6320 -54.6316
   -32.0430 -32.0388 -32.0310 -31.9433 -31.9243 -31.9240 -31.9209 -31.8911
   -31.8909 -31.8670 -31.8625 -31.8576 -31.8532 -31.8316 -31.8162 -31.8118
   -31.8096 -31.8032 -31.8004 -31.7978 -31.7957 -31.7944 -31.7540 -31.7447
   -31.7406 -31.7334 -31.7318 -31.7212 -31.7208 -31.7145 -31.7117 -31.7091
   -31.7058 -31.7047 -31.7033 -31.6662 -31.6429 -31.6405 -31.6128 -31.6122
   -31.6037 -31.5395 -30.9536 -30.9532 -30.8710 -30.8708 -30.8314 -30.8312
   -18.4954 -16.0880 -15.9484 -15.8536 -15.7601 -15.7494 -15.6288 -15.6016
   -15.5557 -15.5235 -15.5129 -15.4800 -15.4124 -15.3783 -15.2950 -15.2913
   -15.2830 -15.2634 -15.2546 -15.2158 -15.1684 -15.1456 -15.1059 -15.0988
   -15.0820 -15.0439 -15.0306 -15.0103 -15.0093 -14.8516 -14.5295 -13.1357
   -13.1356  -9.5892  -6.7347  -5.7997  -4.0992  -3.7944  -3.1573  -3.1488
    -3.1210  -2.9636  -2.9332  -2.9211  -2.8718  -2.8579  -2.8246  -2.8032
    -2.7862  -2.7671  -2.7463  -2.7426  -2.7171  -2.7093  -2.6513  -2.6476
    -2.6025  -2.5825  -2.5539  -2.5199  -2.5071  -2.4404  -2.4025  -2.3679
    -2.3481  -2.3232  -2.2881  -2.2338  -2.1875  -1.9438  -1.8834  -1.8639
    -1.7943  -1.7089  -1.6571  -1.6192  -1.5955  -1.5507  -1.5300  -1.4392
    -1.4097  -1.3725  -1.3499  -1.3446  -1.2395  -1.2294  -1.1279  -1.0747
    -1.0179  -0.9931  -0.9609  -0.9181  -0.7755  -0.7466  -0.7001  -0.6297
    -0.6054  -0.5794  -0.5176  -0.4908  -0.4707  -0.4617  -0.4184  -0.3554
    -0.3125  -0.3058  -0.2767  -0.2317  -0.1980  -0.1833  -0.1539  -0.1365
    -0.0023   0.0585   0.0593   0.0927   0.2050   0.2276   0.3908   0.3952
     0.4212   0.4789   0.5528   0.5790   0.6594   0.6704   0.8798   0.8873
     1.5617   1.7125   1.7129   1.8313   1.8320   3.6033   3.6967   3.7166
     3.7505   3.8332   3.8581   3.8898   3.9168   4.0175   4.0346   4.0872

          k = 0.0380-0.0419 0.0000 ( 17876 PWs)   bands (ev):

   -55.6607 -55.6337 -55.6118 -55.5877 -55.5845 -55.5455 -55.5376 -55.5131
   -55.4839 -55.4807 -55.4597 -55.4436 -55.4197 -55.3312 -54.6438 -54.6197
   -32.1741 -32.0864 -32.0567 -31.9826 -31.9635 -31.9301 -31.9291 -31.9120
   -31.9092 -31.9006 -31.8928 -31.8580 -31.8555 -31.8495 -31.8424 -31.8363
   -31.8060 -31.8026 -31.7993 -31.7880 -31.7706 -31.7547 -31.7515 -31.7383
   -31.7309 -31.7165 -31.7149 -31.6997 -31.6952 -31.6877 -31.6833 -31.6791
   -31.6680 -31.6574 -31.6486 -31.6430 -31.6381 -31.6370 -31.6138 -31.5870
   -31.5638 -31.5401 -31.0038 -30.9632 -30.9437 -30.8619 -30.8006 -30.7341
   -18.4972 -16.2954 -16.0507 -16.0101 -15.8362 -15.7168 -15.6786 -15.6546
   -15.5853 -15.5435 -15.4796 -15.4370 -15.4187 -15.3591 -15.3390 -15.3183
   -15.3123 -15.2337 -15.2268 -15.2002 -15.1454 -15.1179 -15.0875 -15.0720
   -15.0405 -14.9921 -14.9590 -14.9511 -14.8947 -14.6899 -14.5241 -13.1527
   -13.0735  -9.5916  -6.7330  -5.8024  -4.1043  -3.8193  -3.5307  -3.3985
    -3.2876  -3.1814  -3.1596  -3.0983  -3.0639  -3.0083  -2.9682  -2.9295
    -2.8641  -2.7924  -2.7504  -2.7075  -2.6885  -2.6601  -2.6119  -2.5688
    -2.5344  -2.4960  -2.4708  -2.4464  -2.4279  -2.3726  -2.3643  -2.3124
    -2.2848  -2.2548  -2.1776  -2.1327  -2.1061  -2.0676  -1.9850  -1.9375
    -1.8753  -1.7354  -1.6776  -1.6586  -1.5900  -1.4835  -1.4526  -1.3895
    -1.3324  -1.2477  -1.1914  -1.1521  -1.0967  -1.0839  -1.0501  -1.0137
    -0.9714  -0.9391  -0.8610  -0.8364  -0.7949  -0.7556  -0.6858  -0.6296
    -0.6180  -0.6009  -0.5724  -0.4629  -0.4447  -0.4256  -0.3757  -0.3614
    -0.3180  -0.2918  -0.2799  -0.2503  -0.1941  -0.1322  -0.1045  -0.0617
    -0.0160   0.0534   0.0715   0.1506   0.2101   0.2825   0.3120   0.3952
     0.4367   0.4831   0.5772   0.6152   0.7520   0.7610   0.9263   1.1021
     1.5681   1.5772   1.6360   1.8271   1.8913   3.6182   3.6291   3.6582
     3.7717   3.7988   3.8420   3.8621   3.9431   3.9711   4.0019   4.0241

          k =-0.0760-0.0000 0.0000 ( 17886 PWs)   bands (ev):

   -55.6656 -55.6287 -55.6168 -55.5850 -55.5827 -55.5477 -55.5427 -55.5081
   -55.4888 -55.4786 -55.4547 -55.4486 -55.4147 -55.3305 -54.6487 -54.6147
   -32.2313 -32.1237 -32.1117 -32.0415 -31.9865 -31.9842 -31.9747 -31.9553
   -31.9054 -31.8996 -31.8712 -31.8618 -31.8503 -31.8329 -31.8327 -31.8189
   -31.8099 -31.7907 -31.7761 -31.7665 -31.7639 -31.7635 -31.7617 -31.7315
   -31.7309 -31.7196 -31.7073 -31.6915 -31.6910 -31.6742 -31.6725 -31.6527
   -31.6488 -31.6474 -31.6446 -31.6419 -31.6005 -31.5939 -31.5764 -31.5609
   -31.5439 -31.5264 -31.0575 -30.9708 -30.9384 -30.8745 -30.7877 -30.6769
   -18.4984 -16.2724 -16.1905 -16.0110 -15.8650 -15.7283 -15.7105 -15.7077
   -15.5787 -15.5647 -15.5251 -15.5048 -15.4763 -15.4475 -15.4188 -15.3821
   -15.3634 -15.2796 -15.1644 -15.1100 -15.1048 -15.0778 -15.0765 -15.0738
   -15.0005 -14.9527 -14.9120 -14.8356 -14.7992 -14.5900 -14.5133 -13.1451
   -13.0334  -9.5928  -6.7258  -5.8049  -4.1128  -3.8230  -3.6708  -3.5251
    -3.3060  -3.2133  -3.1716  -3.1582  -3.1559  -3.1274  -3.0880  -3.0527
    -2.9831  -2.9128  -2.8968  -2.7306  -2.6034  -2.5861  -2.5119  -2.4371
    -2.3829  -2.3131  -2.2720  -2.2528  -2.2355  -2.2098  -2.1718  -2.1464
    -2.1299  -2.0488  -2.0349  -2.0215  -2.0034  -1.9804  -1.9652  -1.9578
    -1.8699  -1.8070  -1.7478  -1.6373  -1.5378  -1.4759  -1.3924  -1.3622
    -1.3157  -1.3090  -1.2836  -1.2749  -1.2312  -1.2220  -1.1919  -1.1468
    -1.1076  -1.0359  -1.0086  -0.9623  -0.9470  -0.8730  -0.8090  -0.6614
    -0.6093  -0.5600  -0.5243  -0.5089  -0.4509  -0.3914  -0.3663  -0.3261
    -0.2705  -0.2249  -0.2033  -0.1794  -0.1667  -0.0988  -0.0796  -0.0102
     0.0160   0.0753   0.1090   0.1309   0.1663   0.1761   0.2318   0.2733
     0.3343   0.4546   0.5641   0.5804   0.8148   0.8549   1.0220   1.2882
     1.4072   1.5011   1.5453   1.7073   1.8608   3.4461   3.4929   3.5767
     3.7010   3.7539   3.8164   3.8717   3.9068   3.9211   3.9410   4.0154

          k =-0.0760 0.0419 0.0000 ( 17914 PWs)   bands (ev):

   -55.6607 -55.6337 -55.6118 -55.5877 -55.5844 -55.5456 -55.5377 -55.5132
   -55.4838 -55.4807 -55.4597 -55.4437 -55.4197 -55.3312 -54.6438 -54.6198
   -32.1744 -32.0866 -32.0577 -31.9888 -31.9637 -31.9341 -31.9334 -31.9125
   -31.9092 -31.9006 -31.8929 -31.8582 -31.8552 -31.8432 -31.8364 -31.8319
   -31.8057 -31.7935 -31.7882 -31.7764 -31.7707 -31.7538 -31.7511 -31.7504
   -31.7196 -31.7167 -31.7158 -31.6990 -31.6982 -31.6953 -31.6875 -31.6860
   -31.6576 -31.6565 -31.6548 -31.6487 -31.6452 -31.6385 -31.6144 -31.5871
   -31.5637 -31.5434 -31.0035 -30.9662 -30.9431 -30.8619 -30.8006 -30.7342
   -18.4967 -16.1557 -16.1156 -15.9249 -15.7735 -15.6808 -15.6334 -15.6316
   -15.5791 -15.5288 -15.4750 -15.4676 -15.4600 -15.4276 -15.3957 -15.3639
   -15.3539 -15.2825 -15.2220 -15.2075 -15.1426 -15.1275 -15.0986 -15.0956
   -15.0504 -15.0480 -14.9562 -14.9233 -14.9063 -14.6872 -14.5277 -13.1506
   -13.0739  -9.5899  -6.7266  -5.8024  -4.1099  -3.8037  -3.5042  -3.3808
    -3.0862  -3.0451  -2.9872  -2.9645  -2.9297  -2.8965  -2.8887  -2.8700
    -2.8150  -2.7665  -2.6969  -2.6699  -2.6382  -2.6224  -2.6094  -2.5563
    -2.4880  -2.4777  -2.3929  -2.3870  -2.3452  -2.3138  -2.2667  -2.2470
    -2.2265  -2.2146  -2.1925  -2.1617  -2.1269  -2.0176  -1.8889  -1.8436
    -1.8324  -1.8128  -1.7431  -1.6407  -1.5072  -1.4373  -1.4258  -1.4053
    -1.3214  -1.2995  -1.2593  -1.2378  -1.1960  -1.1693  -1.0812  -1.0748
    -1.0520  -1.0115  -0.9885  -0.9471  -0.9262  -0.8797  -0.8733  -0.8401
    -0.7599  -0.7428  -0.7033  -0.6537  -0.6297  -0.5112  -0.4682  -0.4531
    -0.4277  -0.4014  -0.3682  -0.3489  -0.2227  -0.1878  -0.1430  -0.1130
    -0.0381   0.0558   0.0909   0.1518   0.2139   0.2413   0.3052   0.4202
     0.5413   0.5590   0.6010   0.6582   0.7434   0.8295   0.8442   0.9845
     1.5391   1.5834   1.6381   1.7494   1.8798   3.6066   3.6286   3.6509
     3.6611   3.7472   3.7920   3.8338   3.8954   3.9687   4.0123   4.0622

          k =-0.0760-0.0839 0.0000 ( 17948 PWs)   bands (ev):

   -55.6520 -55.6424 -55.6000 -55.5996 -55.5838 -55.5433 -55.5270 -55.5239
   -55.4830 -55.4732 -55.4704 -55.4319 -55.4316 -55.3319 -54.6320 -54.6316
   -32.0432 -32.0391 -32.0313 -31.9435 -31.9251 -31.9248 -31.9212 -31.8911
   -31.8910 -31.8750 -31.8652 -31.8626 -31.8549 -31.8318 -31.8193 -31.8068
   -31.8058 -31.8021 -31.7988 -31.7910 -31.7895 -31.7859 -31.7460 -31.7435
   -31.7419 -31.7388 -31.7326 -31.7210 -31.7198 -31.7193 -31.7155 -31.7058
   -31.7033 -31.6862 -31.6831 -31.6680 -31.6656 -31.6629 -31.6128 -31.6123
   -31.6033 -31.5434 -30.9546 -30.9543 -30.8710 -30.8707 -30.8314 -30.8312
   -18.4950 -16.0409 -15.8860 -15.8583 -15.7085 -15.6750 -15.6315 -15.6172
   -15.5102 -15.4566 -15.4365 -15.4184 -15.4178 -15.3684 -15.3668 -15.3616
   -15.2896 -15.2706 -15.2679 -15.2421 -15.1864 -15.1798 -15.1732 -15.1681
   -15.1164 -15.1127 -15.0709 -15.0218 -15.0185 -14.8429 -14.5317 -13.1355
   -13.1354  -9.5874  -6.7276  -5.7999  -4.1040  -3.7913  -3.1497  -3.1386
    -3.1188  -2.9236  -2.8549  -2.8251  -2.8216  -2.7286  -2.6878  -2.6501
    -2.6478  -2.5855  -2.5747  -2.5470  -2.5135  -2.5015  -2.4855  -2.4646
    -2.4318  -2.4017  -2.3913  -2.3800  -2.3786  -2.3265  -2.3139  -2.3023
    -2.2696  -2.2496  -2.2305  -2.2196  -2.1508  -2.0506  -2.0335  -1.9500
    -1.8759  -1.8716  -1.7997  -1.7746  -1.7361  -1.7089  -1.7002  -1.6352
    -1.4740  -1.4380  -1.4141  -1.4030  -1.2938  -1.2729  -1.2473  -1.1856
    -1.1729  -1.1517  -1.0245  -0.9889  -0.9759  -0.8917  -0.8813  -0.8011
    -0.7590  -0.6914  -0.6695  -0.6229  -0.6211  -0.5789  -0.5697  -0.5023
    -0.4712  -0.4356  -0.4020  -0.3882  -0.3508  -0.1557  -0.1430  -0.1340
     0.0043   0.0216   0.1853   0.2121   0.2654   0.3619   0.3868   0.4440
     0.4775   0.6195   0.6384   0.6453   0.7072   0.7193   0.7835   0.7948
     1.5214   1.7302   1.7307   1.8185   1.8187   3.5746   3.6867   3.7014
     3.7352   3.8449   3.8706   3.9489   3.9781   4.0158   4.0189   4.0850

     the Fermi energy is     3.4948 ev

!    total energy              =   -2940.25630388 Ry
     estimated scf accuracy    <       0.00000005 Ry
     smearing contrib. (-TS)   =      -0.03710001 Ry
     internal energy E=F+TS    =   -2940.21920387 Ry

     The total energy is F=E-TS. E is the sum of the following terms:
     one-electron contribution =  -23762.79567511 Ry
     hartree contribution      =   11970.28851017 Ry
     xc contribution           =    -485.99183176 Ry
     ewald contribution        =    9338.27854649 Ry
     electric field correction =       0.00124633 Ry

     convergence has been achieved in  56 iterations

     Forces acting on atoms (cartesian axes, Ry/au):

     atom    1 type  1   force =     0.00022821   -0.00025104    0.09315498
     atom    2 type  1   force =    -0.00000239   -0.00048727   -0.17828660
     atom    3 type  2   force =     0.00007722   -0.00040548   -0.02008885
     atom    4 type  2   force =     0.00004067   -0.00192889    0.05907718
     atom    5 type  2   force =    -0.01030540   -0.00072849    0.00827248
     atom    6 type  2   force =     0.01152764   -0.00007834    0.00661762
     atom    7 type  1   force =    -0.00058479    0.00210554   -0.01394064
     atom    8 type  1   force =     0.00069352   -0.00093478   -0.00578199
     atom    9 type  2   force =     0.00007365   -0.00012228    0.00006430
     atom   10 type  2   force =    -0.00260019    0.00236993    0.00051729
     atom   11 type  2   force =    -0.00007137   -0.00005709    0.00006195
     atom   12 type  2   force =     0.00004555    0.00019048   -0.00006754
     atom   13 type  1   force =    -0.00008439    0.00007711    0.00005207
     atom   14 type  1   force =    -0.00010339   -0.00034988   -0.00002367
     atom   15 type  2   force =    -0.00014712    0.00011351    0.00010845
     atom   16 type  2   force =     0.00017606   -0.00003134    0.00019696
     atom   17 type  2   force =    -0.00000550   -0.00001319   -0.00002095
     atom   18 type  2   force =     0.00011618   -0.00012197    0.00027590
     atom   19 type  1   force =     0.00014141   -0.00008692   -0.00000007
     atom   20 type  1   force =    -0.00027188    0.00023151   -0.00024688
     atom   21 type  2   force =     0.00014078   -0.00010661    0.10399192
     atom   22 type  2   force =     0.00003502    0.00023326    0.00010079
     atom   23 type  2   force =    -0.07027805   -0.00020447   -0.02687841
     atom   24 type  2   force =     0.07032075    0.00025754   -0.02691254
     atom   25 type  1   force =     0.00023146   -0.00018993    0.09283538
     atom   26 type  1   force =     0.00002994   -0.00045321   -0.17842704
     atom   27 type  2   force =     0.00012962   -0.00024787   -0.01915564
     atom   28 type  2   force =     0.00006982   -0.00174220    0.05851635
     atom   29 type  2   force =    -0.01093378   -0.00101300    0.00903071
     atom   30 type  2   force =     0.01205314   -0.00059170    0.00744522
     atom   31 type  1   force =    -0.00057460    0.00640024   -0.01467154
     atom   32 type  1   force =     0.00075010    0.00031900   -0.00608545
     atom   33 type  2   force =    -0.00008500   -0.00017004    0.00005151
     atom   34 type  2   force =    -0.00184754   -0.00250875   -0.00039458
     atom   35 type  2   force =    -0.00009720    0.00021437   -0.00008974
     atom   36 type  2   force =     0.00013139    0.00009341   -0.00015024
     atom   37 type  1   force =     0.00008438    0.00012816   -0.00000509
     atom   38 type  1   force =     0.00007164   -0.00043586    0.00000355
     atom   39 type  2   force =     0.00014151    0.00014042   -0.00013174
     atom   40 type  2   force =    -0.00009606   -0.00007725    0.00017239
     atom   41 type  2   force =    -0.00004668    0.00002000    0.00004371
     atom   42 type  2   force =     0.00004018    0.00006375   -0.00005181
     atom   43 type  1   force =     0.00034087   -0.00016529    0.00013574
     atom   44 type  1   force =     0.00021788    0.00023396   -0.00007280
     atom   45 type  2   force =     0.00012739   -0.00011095    0.10395576
     atom   46 type  2   force =    -0.07026842   -0.00011250   -0.02687090
     atom   47 type  2   force =     0.07025819    0.00029496   -0.02688298
     atom   48 type  3   force =    -0.00126580   -0.00245352    0.00006322
     atom   49 type  3   force =     0.00021011   -0.00067070    0.00031035
     atom   50 type  4   force =    -0.00137054    0.00349126    0.00075931
     atom   51 type  5   force =     0.00176940   -0.00177185   -0.00037096
     atom   52 type  5   force =     0.00001016    0.00128754   -0.00049336
     atom   53 type  5   force =     0.00051621   -0.00033026    0.00009253
     atom   54 type  5   force =     0.00024005    0.00068695    0.00019439

     Total force =     0.366362     Total SCF correction =     0.000488
  @ DRIVER MODE: Message from server: STATUS
  @ DRIVER MODE: Message from server: GETFORCE
  @ DRIVER MODE: Returning v,forces,stress,ensemble 

     Writing output data file ./calc.save/
  @ DRIVER MODE: Message from server: EXIT
  @ DRIVE MODE: Exiting  
 
     init_run     :     10.89s CPU     11.37s WALL (       1 calls)
     electrons    :    921.06s CPU    948.21s WALL (       1 calls)
     forces       :      2.40s CPU      2.48s WALL (       1 calls)

     Called by init_run:
     wfcinit      :      4.92s CPU      5.02s WALL (       1 calls)
     potinit      :      5.33s CPU      5.59s WALL (       1 calls)
     hinit0       :      0.30s CPU      0.31s WALL (       1 calls)

     Called by electrons:
     c_bands      :    786.66s CPU    804.10s WALL (      56 calls)
     sum_band     :     91.49s CPU     95.99s WALL (      56 calls)
     v_of_rho     :     32.97s CPU     35.24s WALL (      57 calls)
     newd         :     13.44s CPU     16.53s WALL (      57 calls)
     mix_rho      :      1.18s CPU      1.25s WALL (      56 calls)
     vdW_kernel   :      4.54s CPU      4.71s WALL (       1 calls)

     Called by c_bands:
     init_us_2    :      5.13s CPU      5.24s WALL (    1140 calls)
     cegterg      :    771.70s CPU    788.63s WALL (     574 calls)

     Called by *egterg:
     cdiaghg      :    129.02s CPU    131.68s WALL (    6022 calls)
     h_psi        :    410.11s CPU    419.95s WALL (    6032 calls)
     s_psi        :     53.00s CPU     54.01s WALL (    6032 calls)
     g_psi        :      1.44s CPU      1.47s WALL (    5448 calls)

     Called by h_psi:
     h_psi:calbec :     50.68s CPU     51.74s WALL (    6032 calls)
     vloc_psi     :    303.65s CPU    311.08s WALL (    6032 calls)
     add_vuspsi   :     53.25s CPU     54.41s WALL (    6032 calls)

     General routines
     calbec       :     66.89s CPU     68.22s WALL (    6632 calls)
     fft          :     16.83s CPU     17.26s WALL (    3591 calls)
     ffts         :      0.11s CPU      0.11s WALL (     113 calls)
     fftw         :    339.80s CPU    348.14s WALL (  775682 calls)
     interpolate  :      0.32s CPU      0.34s WALL (      57 calls)
     davcio       :      0.00s CPU      0.07s WALL (      10 calls)
 
     Parallel routines
 
     PWSCF        :  15m36.14s CPU  16m14.34s WALL

 
   This run was terminated on:  15:50: 6  15Sep2021            

=------------------------------------------------------------------------------=
   JOB DONE.
=------------------------------------------------------------------------------=
