
     Program PWSCF v.6.7GPU starts on 23Sep2021 at 16:12:33 

     This program is part of the open-source Quantum ESPRESSO suite
     for quantum simulation of materials; please cite
         "P. Giannozzi et al., J. Phys.:Condens. Matter 21 395502 (2009);
         "P. Giannozzi et al., J. Phys.:Condens. Matter 29 465901 (2017);
         "P. Giannozzi et al., J. Chem. Phys. 152 154105 (2020);
          URL http://www.quantum-espresso.org", 
     in publications or presentations arising from this work. More details at
     http://www.quantum-espresso.org/quote

     Parallel version (MPI), running on     8 processors

     MPI processes distributed on     1 nodes
     R & G space division:  proc/nbgrp/npool/nimage =       8
     Reading input from /storage/home/hcoda1/3/ntian30/research/carbon/CxH_vib/H2O_calc/ads_slab/CH2N2HO_b/out_0014/pw.inp
Warning: card &CELL ignored
Warning: card   CELL_DYNAMICS='IPI', ignored
Warning: card / ignored

     Current dimensions of program PWSCF are:
     Max number of different atomic species (ntypx) = 10
     Max number of k-points (npk) =  40000
     Max angular momentum in pseudopotentials (lmaxx) =  3
     Presently no symmetry can be used with electric field

     Message from routine cell_base_init:
     DEPRECATED: use true lattice parameter, not A to a.u. conversion factor

     **************************************************************************
     Initializing libbeef V0.1.2 with the BEEF-vdW functional.
     Citation: Wellendorff et al., PRB 85, 235149 (2012).
     **************************************************************************


     IMPORTANT: XC functional enforced from input :
     Exchange-correlation= BEEF-VDW
                           (   1   4  43  14   2   0   0)
     Any further DFT definition will be discarded
     Please, verify this is what you really want


     Subspace diagonalization in iterative solution of the eigenvalue problem:
     one sub-group per band group will be used
     scalapack distributed-memory algorithm (size of sub-group:  2*  2 procs)

  @ DRIVER MODE: Connecting to 
 qe_1139763_2947312.sched-torque.pace.gatech.edu2ttgzibn_scratch
  using UNIX socket
  @ DRIVER MODE: Message from server: STATUS
  @ DRIVER MODE: Message from server: INIT
  @ DRIVER MODE: Receiving replica           0          -1
  @ DRIVER MODE: Receiving encoded integer          25
  @ DRIVER MODE:  SCF:  T  FORCE:  T  STRESS:  F  VC:  F  ENSEMBLE:  F
  @ DRIVER MODE:  SCF:  T  FORCE:  T  STRESS:  F  VC:  F  ENSEMBLE:  F
 
     Parallelization info
     --------------------
     sticks:   dense  smooth     PW     G-vecs:    dense   smooth      PW
     Min         409     164     47                70857    17926    2743
     Max         411     165     48                70858    17931    2751
     Sum        3275    1317    379               566857   143421   21985
 
     Using Slab Decomposition
 


     bravais-lattice index     =            0
     lattice parameter (alat)  =       1.8897  a.u.
     unit-cell volume          =    6658.9804 (a.u.)^3
     number of atoms/cell      =           54
     number of atomic types    =            5
     number of electrons       =       401.00
     number of Kohn-Sham states=          210
     kinetic-energy cutoff     =      29.3995  Ry
     charge density cutoff     =     293.9946  Ry
     scf convergence threshold =      7.3E-08
     mixing beta               =       0.0500
     number of iterations used =            8  plain     mixing
     Exchange-correlation= BEEF-VDW
                           (   1   4  43  14   2   0   0)

     celldm(1)=   1.889726  celldm(2)=   0.000000  celldm(3)=   0.000000
     celldm(4)=   0.000000  celldm(5)=   0.000000  celldm(6)=   0.000000

     crystal axes: (cart. coord. in units of alat)
               a(1) = (   6.579727   0.000000   0.000000 )  
               a(2) = (  -0.000775   5.961596   0.000000 )  
               a(3) = (   0.000000   0.000000  25.155947 )  

     reciprocal axes: (cart. coord. in units 2 pi/alat)
               b(1) = (  0.151982  0.000020  0.000000 )  
               b(2) = (  0.000000  0.167740  0.000000 )  
               b(3) = (  0.000000  0.000000  0.039752 )  


     PseudoPot. # 1 for Ti read from file:
     /storage/coda1/p-amedford6/0/shared/rich_project_chbe-medford/medford-share/data/pseudos_module/espresso/nninc/pbe/van/Ti.UPF
     MD5 check sum: 8e4df49b7f0d34bbd5052bf3f5ea0213
     Pseudo is Ultrasoft, Zval = 12.0
     Generated by new atomic code, or converted to UPF format
     Using radial grid of  851 points,  6 beta functions with: 
                l(1) =   0
                l(2) =   0
                l(3) =   1
                l(4) =   1
                l(5) =   2
                l(6) =   2
     Q(r) pseudized with  8 coefficients,  rinner =    1.000   1.000   1.000
                                                       1.000   1.000

     PseudoPot. # 2 for O  read from file:
     /storage/coda1/p-amedford6/0/shared/rich_project_chbe-medford/medford-share/data/pseudos_module/espresso/nninc/pbe/van/O.UPF
     MD5 check sum: 78c19812648e8988a0fe644b0f25305e
     Pseudo is Ultrasoft, Zval =  6.0
     Generated by new atomic code, or converted to UPF format
     Using radial grid of  737 points,  4 beta functions with: 
                l(1) =   0
                l(2) =   0
                l(3) =   1
                l(4) =   1
     Q(r) pseudized with  8 coefficients,  rinner =    0.800   0.800   0.800


     PseudoPot. # 3 for N  read from file:
     /storage/coda1/p-amedford6/0/shared/rich_project_chbe-medford/medford-share/data/pseudos_module/espresso/nninc/pbe/van/N.UPF
     MD5 check sum: 90d10febe142ad51ac9d5be1deb811c4
     Pseudo is Ultrasoft, Zval =  5.0
     Generated by new atomic code, or converted to UPF format
     Using radial grid of  729 points,  4 beta functions with: 
                l(1) =   0
                l(2) =   0
                l(3) =   1
                l(4) =   1
     Q(r) pseudized with  8 coefficients,  rinner =    0.800   0.800   0.800


     PseudoPot. # 4 for C  read from file:
     /storage/coda1/p-amedford6/0/shared/rich_project_chbe-medford/medford-share/data/pseudos_module/espresso/nninc/pbe/van/C.UPF
     MD5 check sum: 1a69bf6b8db32088f5b2163dbdb77a27
     Pseudo is Ultrasoft, Zval =  4.0
     Generated by new atomic code, or converted to UPF format
     Using radial grid of  721 points,  4 beta functions with: 
                l(1) =   0
                l(2) =   0
                l(3) =   1
                l(4) =   1
     Q(r) pseudized with  8 coefficients,  rinner =    0.800   0.800   0.800


     PseudoPot. # 5 for H  read from file:
     /storage/coda1/p-amedford6/0/shared/rich_project_chbe-medford/medford-share/data/pseudos_module/espresso/nninc/pbe/van/H.UPF
     MD5 check sum: b5ee9d7bfd3a09ee7748110bda690ff7
     Pseudo is Ultrasoft, Zval =  1.0
     Generated by new atomic code, or converted to UPF format
     Using radial grid of  615 points,  1 beta functions with: 
                l(1) =   0
     Q(r) pseudized with  8 coefficients,  rinner =    0.800

     atomic species   valence    mass     pseudopotential
        Ti1           12.00    47.86700     Ti( 1.00)
        O1             6.00    15.99900     O ( 1.00)
        N1             5.00    14.00700     N ( 1.00)
        C1             4.00    12.01100     C ( 1.00)
        H1             1.00     1.00800     H ( 1.00)

     No symmetry found



   Cartesian axes

     site n.     atom                  positions (alat units)
         1           Ti1 tau(   1) = (   0.0004258   2.9801865   6.0000000  )
         2           Ti1 tau(   2) = (   3.2906075   1.4906267   6.0002472  )
         3           O1  tau(   3) = (   0.0006271   0.0005054   7.9858123  )
         4           O1  tau(   4) = (   3.2906025   0.0005020   7.3038282  )
         5           O1  tau(   5) = (   4.5942328   1.4918067   9.2879030  )
         6           O1  tau(   6) = (   1.9868534   1.4903216   9.2879459  )
         7           Ti1 tau(   7) = (   3.2907910   2.8959150   9.1758416  )
         8           Ti1 tau(   8) = (   0.0015273   1.4827037   9.2680791  )
         9           O1  tau(   9) = (   3.2935892   5.9488104  11.3374186  )
        10           O1  tau(  10) = (   0.0116148   5.9584955  10.6183126  )
        11           O1  tau(  11) = (   1.2908913   1.5070562  12.6495475  )
        12           O1  tau(  12) = (   5.3136790   1.4931969  12.6373367  )
        13           Ti1 tau(  13) = (   0.0127878   2.8868139  12.6015941  )
        14           Ti1 tau(  14) = (   3.2987545   1.3040885  12.7026746  )
        15           O1  tau(  15) = (   0.0175227   0.0240941  14.6538407  )
        16           O1  tau(  16) = (   3.3064676   0.0741613  13.9771881  )
        17           O1  tau(  17) = (   4.5827780   1.5498142  16.1449436  )
        18           O1  tau(  18) = (   2.0366442   1.5898792  16.0867183  )
        19           Ti1 tau(  19) = (   3.3102262   3.0030951  15.6784192  )
        20           Ti1 tau(  20) = (   0.0574396   1.3488835  16.0050117  )
        21           O1  tau(  21) = (   3.2904802   0.0005063   4.7018136  )
        22           O1  tau(  22) = (   0.0721820   0.0083530  17.1768217  )
        23           O1  tau(  23) = (   1.3043587   1.4918075   6.0039043  )
        24           O1  tau(  24) = (   5.2767064   1.4903225   6.0039473  )
        25           Ti1 tau(  25) = (   0.0000382   5.9609847   6.0000000  )
        26           Ti1 tau(  26) = (   3.2902200   4.4714249   6.0002472  )
        27           O1  tau(  27) = (   0.0002396   2.9813036   7.9858123  )
        28           O1  tau(  28) = (   3.2902150   2.9813002   7.3038282  )
        29           O1  tau(  29) = (   4.5938453   4.4726049   9.2879030  )
        30           O1  tau(  30) = (   1.9864658   4.4711199   9.2879459  )
        31           Ti1 tau(  31) = (   3.2891106   5.8743827   9.1763621  )
        32           Ti1 tau(  32) = (   0.0006254   4.4649316   9.2693709  )
        33           O1  tau(  33) = (   3.2934580   3.0155445  11.2926531  )
        34           O1  tau(  34) = (   0.0092240   2.9805883  10.6323155  )
        35           O1  tau(  35) = (   1.2931599   4.4792858  12.6478595  )
        36           O1  tau(  36) = (   5.3056662   4.4876152  12.6363886  )
        37           Ti1 tau(  37) = (   6.5746511   5.8741161  12.5153022  )
        38           Ti1 tau(  38) = (   3.2863760   4.3878630  12.4273393  )
        39           O1  tau(  39) = (   6.5684735   3.0099032  14.7382625  )
        40           O1  tau(  40) = (   3.3273571   2.9915841  13.8999870  )
        41           O1  tau(  41) = (   4.5754576   4.4629145  16.1269992  )
        42           O1  tau(  42) = (   2.0375947   4.4358961  16.0236521  )
        43           Ti1 tau(  43) = (   3.3857405   0.0156461  16.2930207  )
        44           Ti1 tau(  44) = (   0.0840152   4.5257857  15.8004899  )
        45           O1  tau(  45) = (   3.2900926   2.9813045   4.7018136  )
        46           O1  tau(  46) = (   1.3039711   4.4726057   6.0039043  )
        47           O1  tau(  47) = (   5.2763189   4.4711207   6.0039473  )
        48           N1  tau(  48) = (   6.4876325   3.2951735  18.6921505  )
        49           N1  tau(  49) = (   0.0139976   3.0420413  17.5569154  )
        50           C1  tau(  50) = (   6.3159459   3.6199554  19.9036174  )
        51           H1  tau(  51) = (   5.2963100   3.8231348  20.2372398  )
        52           H1  tau(  52) = (   0.5840524   3.7151184  20.5547593  )
        53           O1  tau(  53) = (   3.1058724   5.9363815  18.1230642  )
        54           H1  tau(  54) = (   2.1709728   0.0855973  18.3648350  )

     number of k points=    10  Fermi-Dirac smearing, width (Ry)=  0.0073
                       cart. coord. in units 2pi/alat
        k(    1) = (   0.0000000   0.0000000   0.0000000), wk =   0.1250000
        k(    2) = (   0.0000000   0.0419351   0.0000000), wk =   0.2500000
        k(    3) = (   0.0000000  -0.0838702   0.0000000), wk =   0.1250000
        k(    4) = (   0.0379955   0.0000049   0.0000000), wk =   0.2500000
        k(    5) = (   0.0379955   0.0419400   0.0000000), wk =   0.2500000
        k(    6) = (   0.0379955  -0.0838652   0.0000000), wk =   0.2500000
        k(    7) = (   0.0379955  -0.0419301   0.0000000), wk =   0.2500000
        k(    8) = (  -0.0759910  -0.0000099   0.0000000), wk =   0.1250000
        k(    9) = (  -0.0759910   0.0419252   0.0000000), wk =   0.2500000
        k(   10) = (  -0.0759910  -0.0838800   0.0000000), wk =   0.1250000

     Dense  grid:   566857 G-vectors     FFT dimensions: (  72,  64, 270)

     Smooth grid:   143421 G-vectors     FFT dimensions: (  45,  40, 180)

     Estimated max dynamical RAM per process >     457.22 MB

     Estimated total dynamical RAM >       3.57 GB
     Cannot read rho : file not found

     Initial potential from superposition of free atoms

     starting charge  384.99916, renormalised to  401.00000

     negative rho (up, down):  1.407E-02 0.000E+00


     %%%%%%%%%%%%%%%%%%%%%%%%%%%%%%%%%%%%%%%%%%%%%%%%%%%%%%%%%%%%%%%%%%%%%%%%
     %                                                                      %
     % You are using vdW-DF, which was implemented by the Thonhauser group. %
     % Please cite the following two papers that made this development      %
     % possible and the two reviews that describe the various versions:     %
     %                                                                      %
     %   T. Thonhauser et al., PRL 115, 136402 (2015).                      %
     %   T. Thonhauser et al., PRB 76, 125112 (2007).                       %
     %   K. Berland et al., Rep. Prog. Phys. 78, 066501 (2015).             %
     %   D.C. Langreth et al., J. Phys.: Condens. Matter 21, 084203 (2009). %
     %                                                                      %
     %                                                                      %
     % If you are calculating the stress with vdW-DF, please also cite:     %
     %                                                                      %
     %   R. Sabatini et al., J. Phys.: Condens. Matter 24, 424209 (2012).   %
     %                                                                      %
     %%%%%%%%%%%%%%%%%%%%%%%%%%%%%%%%%%%%%%%%%%%%%%%%%%%%%%%%%%%%%%%%%%%%%%%%


 
     Adding external electric field

     Computed dipole along edir(3) : 
        Dipole              -11.8206 Ry au,        -30.0448 Debye
        Dipole field         -0.0223 Ry au, 
 
        Potential amp.        2.0678 Ry
        Total length         46.3494 bohr
 
     Starting wfcs are  303 atomic wfcs
  @ DRIVER MODE: Message from server: STATUS
  @ DRIVER MODE: Message from server: POSDATA
  @ DRIVER MODE: Reading and sharing cell 
  @ DRIVER MODE: Reading and sharing positions 
  @ DRIVER MODE: Received positions 

     total cpu time spent up to now is       14.2 secs

     Self-consistent Calculation

     iteration #  1     ecut=    29.40 Ry     beta= 0.05
     Davidson diagonalization with overlap
     c_bands:  3 eigenvalues not converged
     c_bands:  4 eigenvalues not converged
     c_bands:  1 eigenvalues not converged
     c_bands:  4 eigenvalues not converged
     c_bands:  4 eigenvalues not converged
     c_bands:  1 eigenvalues not converged
     c_bands:  2 eigenvalues not converged
     ethr =  1.00E-05,  avg # of iterations = 22.9

     negative rho (up, down):  9.142E-03 0.000E+00
 
     Adding external electric field

     Computed dipole along edir(3) : 
        Dipole               51.1070 Ry au,        129.9010 Debye
        Dipole field          0.0964 Ry au, 
 
        Potential amp.       -8.9404 Ry
        Total length         46.3494 bohr
 

     total cpu time spent up to now is       68.7 secs

     total energy              =   -2411.66124092 Ry
     estimated scf accuracy    <    6295.61941480 Ry

     iteration #  2     ecut=    29.40 Ry     beta= 0.05
     Davidson diagonalization with overlap
     ethr =  1.00E-02,  avg # of iterations = 23.1

     negative rho (up, down):  1.000E-03 0.000E+00
 
     Adding external electric field

     Computed dipole along edir(3) : 
        Dipole               -1.2027 Ry au,         -3.0570 Debye
        Dipole field         -0.0023 Ry au, 
 
        Potential amp.        0.2104 Ry
        Total length         46.3494 bohr
 

     total cpu time spent up to now is      165.8 secs

     total energy              =   -2465.86227687 Ry
     estimated scf accuracy    <   72126.61966316 Ry

     iteration #  3     ecut=    29.40 Ry     beta= 0.05
     Davidson diagonalization with overlap
     ethr =  1.00E-02,  avg # of iterations = 17.9

     negative rho (up, down):  1.067E-03 0.000E+00
 
     Adding external electric field

     Computed dipole along edir(3) : 
        Dipole               -3.9039 Ry au,         -9.9228 Debye
        Dipole field         -0.0074 Ry au, 
 
        Potential amp.        0.6829 Ry
        Total length         46.3494 bohr
 

     total cpu time spent up to now is      227.3 secs

     total energy              =   -2961.51604288 Ry
     estimated scf accuracy    <    5321.49597925 Ry

     iteration #  4     ecut=    29.40 Ry     beta= 0.05
     Davidson diagonalization with overlap
     ethr =  1.00E-02,  avg # of iterations =  9.6

     negative rho (up, down):  1.114E-03 0.000E+00
 
     Adding external electric field

     Computed dipole along edir(3) : 
        Dipole               -5.9028 Ry au,        -15.0035 Debye
        Dipole field         -0.0111 Ry au, 
 
        Potential amp.        1.0326 Ry
        Total length         46.3494 bohr
 

     total cpu time spent up to now is      249.8 secs

     total energy              =   -2953.72329541 Ry
     estimated scf accuracy    <    2314.96688412 Ry

     iteration #  5     ecut=    29.40 Ry     beta= 0.05
     Davidson diagonalization with overlap
     ethr =  1.00E-02,  avg # of iterations = 17.5

     negative rho (up, down):  1.126E-03 0.000E+00
 
     Adding external electric field

     Computed dipole along edir(3) : 
        Dipole               -5.3147 Ry au,        -13.5086 Debye
        Dipole field         -0.0100 Ry au, 
 
        Potential amp.        0.9297 Ry
        Total length         46.3494 bohr
 

     total cpu time spent up to now is      276.1 secs

     total energy              =   -2974.08642938 Ry
     estimated scf accuracy    <      75.21119566 Ry

     iteration #  6     ecut=    29.40 Ry     beta= 0.05
     Davidson diagonalization with overlap
     ethr =  1.00E-02,  avg # of iterations =  2.3

     negative rho (up, down):  1.124E-03 0.000E+00
 
     Adding external electric field

     Computed dipole along edir(3) : 
        Dipole               -5.0215 Ry au,        -12.7633 Debye
        Dipole field         -0.0095 Ry au, 
 
        Potential amp.        0.8784 Ry
        Total length         46.3494 bohr
 

     total cpu time spent up to now is      289.1 secs

     total energy              =   -2974.25899095 Ry
     estimated scf accuracy    <      55.08086420 Ry

     iteration #  7     ecut=    29.40 Ry     beta= 0.05
     Davidson diagonalization with overlap
     ethr =  1.00E-02,  avg # of iterations =  1.5

     negative rho (up, down):  1.228E-03 0.000E+00
 
     Adding external electric field

     Computed dipole along edir(3) : 
        Dipole               -2.7578 Ry au,         -7.0096 Debye
        Dipole field         -0.0052 Ry au, 
 
        Potential amp.        0.4824 Ry
        Total length         46.3494 bohr
 

     total cpu time spent up to now is      301.7 secs

     total energy              =   -2972.76538097 Ry
     estimated scf accuracy    <      54.52761361 Ry

     iteration #  8     ecut=    29.40 Ry     beta= 0.05
     Davidson diagonalization with overlap
     ethr =  1.00E-02,  avg # of iterations =  1.4

     negative rho (up, down):  1.379E-03 0.000E+00
 
     Adding external electric field

     Computed dipole along edir(3) : 
        Dipole               -1.3037 Ry au,         -3.3136 Debye
        Dipole field         -0.0025 Ry au, 
 
        Potential amp.        0.2281 Ry
        Total length         46.3494 bohr
 

     total cpu time spent up to now is      314.4 secs

     total energy              =   -2974.44037478 Ry
     estimated scf accuracy    <     309.29765194 Ry

     iteration #  9     ecut=    29.40 Ry     beta= 0.05
     Davidson diagonalization with overlap
     ethr =  1.00E-02,  avg # of iterations =  1.8

     negative rho (up, down):  1.487E-03 0.000E+00
 
     Adding external electric field

     Computed dipole along edir(3) : 
        Dipole               -1.2626 Ry au,         -3.2092 Debye
        Dipole field         -0.0024 Ry au, 
 
        Potential amp.        0.2209 Ry
        Total length         46.3494 bohr
 

     total cpu time spent up to now is      327.6 secs

     total energy              =   -2973.57181761 Ry
     estimated scf accuracy    <     742.57700120 Ry

     iteration # 10     ecut=    29.40 Ry     beta= 0.05
     Davidson diagonalization with overlap
     ethr =  1.00E-02,  avg # of iterations =  2.0

     negative rho (up, down):  1.701E-03 0.000E+00
 
     Adding external electric field

     Computed dipole along edir(3) : 
        Dipole               -0.6471 Ry au,         -1.6447 Debye
        Dipole field         -0.0012 Ry au, 
 
        Potential amp.        0.1132 Ry
        Total length         46.3494 bohr
 

     total cpu time spent up to now is      340.8 secs

     total energy              =   -2973.22038788 Ry
     estimated scf accuracy    <     565.45076843 Ry

     iteration # 11     ecut=    29.40 Ry     beta= 0.05
     Davidson diagonalization with overlap
     ethr =  1.00E-02,  avg # of iterations =  1.6

     negative rho (up, down):  1.643E-03 0.000E+00
 
     Adding external electric field

     Computed dipole along edir(3) : 
        Dipole               -1.3809 Ry au,         -3.5098 Debye
        Dipole field         -0.0026 Ry au, 
 
        Potential amp.        0.2416 Ry
        Total length         46.3494 bohr
 

     total cpu time spent up to now is      353.8 secs

     total energy              =   -2970.47262726 Ry
     estimated scf accuracy    <     440.40001841 Ry

     iteration # 12     ecut=    29.40 Ry     beta= 0.05
     Davidson diagonalization with overlap
     ethr =  1.00E-02,  avg # of iterations =  1.1

     negative rho (up, down):  1.668E-03 0.000E+00
 
     Adding external electric field

     Computed dipole along edir(3) : 
        Dipole               -0.8982 Ry au,         -2.2830 Debye
        Dipole field         -0.0017 Ry au, 
 
        Potential amp.        0.1571 Ry
        Total length         46.3494 bohr
 

     total cpu time spent up to now is      366.2 secs

     total energy              =   -2972.65369730 Ry
     estimated scf accuracy    <      87.29818366 Ry

     iteration # 13     ecut=    29.40 Ry     beta= 0.05
     Davidson diagonalization with overlap
     ethr =  1.00E-02,  avg # of iterations =  1.0

     negative rho (up, down):  1.605E-03 0.000E+00
 
     Adding external electric field

     Computed dipole along edir(3) : 
        Dipole               -1.7697 Ry au,         -4.4981 Debye
        Dipole field         -0.0033 Ry au, 
 
        Potential amp.        0.3096 Ry
        Total length         46.3494 bohr
 

     total cpu time spent up to now is      378.6 secs

     total energy              =   -2969.83730897 Ry
     estimated scf accuracy    <     236.87346494 Ry

     iteration # 14     ecut=    29.40 Ry     beta= 0.05
     Davidson diagonalization with overlap
     ethr =  1.00E-02,  avg # of iterations =  1.4

     negative rho (up, down):  1.648E-03 0.000E+00
 
     Adding external electric field

     Computed dipole along edir(3) : 
        Dipole               -2.2237 Ry au,         -5.6520 Debye
        Dipole field         -0.0042 Ry au, 
 
        Potential amp.        0.3890 Ry
        Total length         46.3494 bohr
 

     total cpu time spent up to now is      391.2 secs

     total energy              =   -2969.77746401 Ry
     estimated scf accuracy    <      53.10001048 Ry

     iteration # 15     ecut=    29.40 Ry     beta= 0.05
     Davidson diagonalization with overlap
     ethr =  1.00E-02,  avg # of iterations =  1.2

     negative rho (up, down):  1.686E-03 0.000E+00
 
     Adding external electric field

     Computed dipole along edir(3) : 
        Dipole               -2.4180 Ry au,         -6.1460 Debye
        Dipole field         -0.0046 Ry au, 
 
        Potential amp.        0.4230 Ry
        Total length         46.3494 bohr
 

     total cpu time spent up to now is      403.7 secs

     total energy              =   -2969.69192902 Ry
     estimated scf accuracy    <      43.79003576 Ry

     iteration # 16     ecut=    29.40 Ry     beta= 0.05
     Davidson diagonalization with overlap
     ethr =  1.00E-02,  avg # of iterations =  1.4

     negative rho (up, down):  1.800E-03 0.000E+00
 
     Adding external electric field

     Computed dipole along edir(3) : 
        Dipole               -2.6041 Ry au,         -6.6190 Debye
        Dipole field         -0.0049 Ry au, 
 
        Potential amp.        0.4556 Ry
        Total length         46.3494 bohr
 

     total cpu time spent up to now is      416.2 secs

     total energy              =   -2969.25762492 Ry
     estimated scf accuracy    <      38.12823976 Ry

     iteration # 17     ecut=    29.40 Ry     beta= 0.05
     Davidson diagonalization with overlap
     ethr =  9.51E-03,  avg # of iterations =  2.7

     negative rho (up, down):  1.860E-03 0.000E+00
 
     Adding external electric field

     Computed dipole along edir(3) : 
        Dipole               -2.5296 Ry au,         -6.4295 Debye
        Dipole field         -0.0048 Ry au, 
 
        Potential amp.        0.4425 Ry
        Total length         46.3494 bohr
 

     total cpu time spent up to now is      429.8 secs

     total energy              =   -2970.58679482 Ry
     estimated scf accuracy    <      10.77946442 Ry

     iteration # 18     ecut=    29.40 Ry     beta= 0.05
     Davidson diagonalization with overlap
     c_bands:  3 eigenvalues not converged
     c_bands:  1 eigenvalues not converged
     c_bands:  3 eigenvalues not converged
     ethr =  2.69E-03,  avg # of iterations =  9.5

     negative rho (up, down):  1.794E-03 0.000E+00
 
     Adding external electric field

     Computed dipole along edir(3) : 
        Dipole               -2.4934 Ry au,         -6.3375 Debye
        Dipole field         -0.0047 Ry au, 
 
        Potential amp.        0.4362 Ry
        Total length         46.3494 bohr
 

     total cpu time spent up to now is      447.3 secs

     total energy              =   -2971.90402414 Ry
     estimated scf accuracy    <       3.08554112 Ry

     iteration # 19     ecut=    29.40 Ry     beta= 0.05
     Davidson diagonalization with overlap
     ethr =  7.69E-04,  avg # of iterations =  5.7

     negative rho (up, down):  2.029E-03 0.000E+00
 
     Adding external electric field

     Computed dipole along edir(3) : 
        Dipole               -2.6546 Ry au,         -6.7474 Debye
        Dipole field         -0.0050 Ry au, 
 
        Potential amp.        0.4644 Ry
        Total length         46.3494 bohr
 

     total cpu time spent up to now is      461.8 secs

     total energy              =   -2971.98608215 Ry
     estimated scf accuracy    <       3.27861596 Ry

     iteration # 20     ecut=    29.40 Ry     beta= 0.05
     Davidson diagonalization with overlap
     c_bands:  3 eigenvalues not converged
     c_bands:  2 eigenvalues not converged
     c_bands:  1 eigenvalues not converged
     c_bands:  1 eigenvalues not converged
     c_bands:  5 eigenvalues not converged
     ethr =  7.69E-04,  avg # of iterations = 11.6

     negative rho (up, down):  1.959E-03 0.000E+00
 
     Adding external electric field

     Computed dipole along edir(3) : 
        Dipole               -2.4641 Ry au,         -6.2631 Debye
        Dipole field         -0.0047 Ry au, 
 
        Potential amp.        0.4311 Ry
        Total length         46.3494 bohr
 

     total cpu time spent up to now is      479.2 secs

     total energy              =   -2971.95645345 Ry
     estimated scf accuracy    <       4.41808286 Ry

     iteration # 21     ecut=    29.40 Ry     beta= 0.05
     Davidson diagonalization with overlap
     ethr =  7.69E-04,  avg # of iterations =  2.2

     negative rho (up, down):  1.838E-03 0.000E+00
 
     Adding external electric field

     Computed dipole along edir(3) : 
        Dipole               -2.3679 Ry au,         -6.0187 Debye
        Dipole field         -0.0045 Ry au, 
 
        Potential amp.        0.4142 Ry
        Total length         46.3494 bohr
 

     total cpu time spent up to now is      492.3 secs

     total energy              =   -2971.95294959 Ry
     estimated scf accuracy    <       3.71248231 Ry

     iteration # 22     ecut=    29.40 Ry     beta= 0.05
     Davidson diagonalization with overlap
     ethr =  7.69E-04,  avg # of iterations =  1.0

     negative rho (up, down):  1.906E-03 0.000E+00
 
     Adding external electric field

     Computed dipole along edir(3) : 
        Dipole               -2.1322 Ry au,         -5.4194 Debye
        Dipole field         -0.0040 Ry au, 
 
        Potential amp.        0.3730 Ry
        Total length         46.3494 bohr
 

     total cpu time spent up to now is      504.6 secs

     total energy              =   -2971.85672027 Ry
     estimated scf accuracy    <       3.31952651 Ry

     iteration # 23     ecut=    29.40 Ry     beta= 0.05
     Davidson diagonalization with overlap
     ethr =  7.69E-04,  avg # of iterations =  1.0

     negative rho (up, down):  2.551E-03 0.000E+00
 
     Adding external electric field

     Computed dipole along edir(3) : 
        Dipole               -1.2768 Ry au,         -3.2452 Debye
        Dipole field         -0.0024 Ry au, 
 
        Potential amp.        0.2234 Ry
        Total length         46.3494 bohr
 

     total cpu time spent up to now is      517.0 secs

     total energy              =   -2971.46848826 Ry
     estimated scf accuracy    <       2.81178740 Ry

     iteration # 24     ecut=    29.40 Ry     beta= 0.05
     Davidson diagonalization with overlap
     c_bands:  2 eigenvalues not converged
     ethr =  7.01E-04,  avg # of iterations = 12.5

     negative rho (up, down):  2.628E-03 0.000E+00
 
     Adding external electric field

     Computed dipole along edir(3) : 
        Dipole               -1.1894 Ry au,         -3.0232 Debye
        Dipole field         -0.0022 Ry au, 
 
        Potential amp.        0.2081 Ry
        Total length         46.3494 bohr
 

     total cpu time spent up to now is      535.6 secs

     total energy              =   -2972.07242660 Ry
     estimated scf accuracy    <      78.07189245 Ry

     iteration # 25     ecut=    29.40 Ry     beta= 0.05
     Davidson diagonalization with overlap
     ethr =  7.01E-04,  avg # of iterations =  8.6

     negative rho (up, down):  2.618E-03 0.000E+00
 
     Adding external electric field

     Computed dipole along edir(3) : 
        Dipole               -1.2353 Ry au,         -3.1397 Debye
        Dipole field         -0.0023 Ry au, 
 
        Potential amp.        0.2161 Ry
        Total length         46.3494 bohr
 

     total cpu time spent up to now is      551.1 secs

     total energy              =   -2972.12646301 Ry
     estimated scf accuracy    <     118.53212457 Ry

     iteration # 26     ecut=    29.40 Ry     beta= 0.05
     Davidson diagonalization with overlap
     ethr =  7.01E-04,  avg # of iterations =  1.3

     negative rho (up, down):  2.889E-03 0.000E+00
 
     Adding external electric field

     Computed dipole along edir(3) : 
        Dipole               -0.9160 Ry au,         -2.3282 Debye
        Dipole field         -0.0017 Ry au, 
 
        Potential amp.        0.1602 Ry
        Total length         46.3494 bohr
 

     total cpu time spent up to now is      563.8 secs

     total energy              =   -2972.41443714 Ry
     estimated scf accuracy    <     117.21656852 Ry

     iteration # 27     ecut=    29.40 Ry     beta= 0.05
     Davidson diagonalization with overlap
     c_bands:  1 eigenvalues not converged
     ethr =  7.01E-04,  avg # of iterations =  9.7

     negative rho (up, down):  2.821E-03 0.000E+00
 
     Adding external electric field

     Computed dipole along edir(3) : 
        Dipole               -0.9136 Ry au,         -2.3220 Debye
        Dipole field         -0.0017 Ry au, 
 
        Potential amp.        0.1598 Ry
        Total length         46.3494 bohr
 

     total cpu time spent up to now is      579.4 secs

     total energy              =   -2972.40513371 Ry
     estimated scf accuracy    <     221.02796538 Ry

     iteration # 28     ecut=    29.40 Ry     beta= 0.05
     Davidson diagonalization with overlap
     ethr =  7.01E-04,  avg # of iterations =  2.4

     negative rho (up, down):  2.900E-03 0.000E+00
 
     Adding external electric field

     Computed dipole along edir(3) : 
        Dipole               -0.6371 Ry au,         -1.6193 Debye
        Dipole field         -0.0012 Ry au, 
 
        Potential amp.        0.1114 Ry
        Total length         46.3494 bohr
 

     total cpu time spent up to now is      592.3 secs

     total energy              =   -2972.04469393 Ry
     estimated scf accuracy    <     183.29857417 Ry

     iteration # 29     ecut=    29.40 Ry     beta= 0.05
     Davidson diagonalization with overlap
     ethr =  7.01E-04,  avg # of iterations =  2.9

     negative rho (up, down):  2.940E-03 0.000E+00
 
     Adding external electric field

     Computed dipole along edir(3) : 
        Dipole               -0.9108 Ry au,         -2.3149 Debye
        Dipole field         -0.0017 Ry au, 
 
        Potential amp.        0.1593 Ry
        Total length         46.3494 bohr
 

     total cpu time spent up to now is      606.1 secs

     total energy              =   -2972.08865484 Ry
     estimated scf accuracy    <      91.17188802 Ry

     iteration # 30     ecut=    29.40 Ry     beta= 0.05
     Davidson diagonalization with overlap
     ethr =  7.01E-04,  avg # of iterations =  1.0

     negative rho (up, down):  2.915E-03 0.000E+00
 
     Adding external electric field

     Computed dipole along edir(3) : 
        Dipole               -0.8209 Ry au,         -2.0866 Debye
        Dipole field         -0.0015 Ry au, 
 
        Potential amp.        0.1436 Ry
        Total length         46.3494 bohr
 

     total cpu time spent up to now is      618.4 secs

     total energy              =   -2971.43565766 Ry
     estimated scf accuracy    <     110.68205767 Ry

     iteration # 31     ecut=    29.40 Ry     beta= 0.05
     Davidson diagonalization with overlap
     ethr =  7.01E-04,  avg # of iterations =  2.2

     negative rho (up, down):  3.171E-03 0.000E+00
 
     Adding external electric field

     Computed dipole along edir(3) : 
        Dipole               -0.8469 Ry au,         -2.1526 Debye
        Dipole field         -0.0016 Ry au, 
 
        Potential amp.        0.1482 Ry
        Total length         46.3494 bohr
 

     total cpu time spent up to now is      631.4 secs

     total energy              =   -2971.75961793 Ry
     estimated scf accuracy    <      11.84844309 Ry

     iteration # 32     ecut=    29.40 Ry     beta= 0.05
     Davidson diagonalization with overlap
     ethr =  7.01E-04,  avg # of iterations =  1.2

     negative rho (up, down):  2.932E-03 0.000E+00
 
     Adding external electric field

     Computed dipole along edir(3) : 
        Dipole               -1.0045 Ry au,         -2.5533 Debye
        Dipole field         -0.0019 Ry au, 
 
        Potential amp.        0.1757 Ry
        Total length         46.3494 bohr
 

     total cpu time spent up to now is      644.0 secs

     total energy              =   -2971.52761914 Ry
     estimated scf accuracy    <      32.17799259 Ry

     iteration # 33     ecut=    29.40 Ry     beta= 0.05
     Davidson diagonalization with overlap
     ethr =  7.01E-04,  avg # of iterations =  1.1

     negative rho (up, down):  2.906E-03 0.000E+00
 
     Adding external electric field

     Computed dipole along edir(3) : 
        Dipole               -0.9171 Ry au,         -2.3309 Debye
        Dipole field         -0.0017 Ry au, 
 
        Potential amp.        0.1604 Ry
        Total length         46.3494 bohr
 

     total cpu time spent up to now is      656.6 secs

     total energy              =   -2971.51155637 Ry
     estimated scf accuracy    <       8.82614712 Ry

     iteration # 34     ecut=    29.40 Ry     beta= 0.05
     Davidson diagonalization with overlap
     ethr =  7.01E-04,  avg # of iterations =  1.1

     negative rho (up, down):  2.865E-03 0.000E+00
 
     Adding external electric field

     Computed dipole along edir(3) : 
        Dipole               -0.8299 Ry au,         -2.1095 Debye
        Dipole field         -0.0016 Ry au, 
 
        Potential amp.        0.1452 Ry
        Total length         46.3494 bohr
 

     total cpu time spent up to now is      669.1 secs

     total energy              =   -2971.45946239 Ry
     estimated scf accuracy    <       6.95259646 Ry

     iteration # 35     ecut=    29.40 Ry     beta= 0.05
     Davidson diagonalization with overlap
     ethr =  7.01E-04,  avg # of iterations =  1.1

     negative rho (up, down):  2.872E-03 0.000E+00
 
     Adding external electric field

     Computed dipole along edir(3) : 
        Dipole               -0.5865 Ry au,         -1.4907 Debye
        Dipole field         -0.0011 Ry au, 
 
        Potential amp.        0.1026 Ry
        Total length         46.3494 bohr
 

     total cpu time spent up to now is      681.5 secs

     total energy              =   -2971.33075015 Ry
     estimated scf accuracy    <       6.67675395 Ry

     iteration # 36     ecut=    29.40 Ry     beta= 0.05
     Davidson diagonalization with overlap
     ethr =  7.01E-04,  avg # of iterations =  2.8

     negative rho (up, down):  2.931E-03 0.000E+00
 
     Adding external electric field

     Computed dipole along edir(3) : 
        Dipole               -0.5245 Ry au,         -1.3331 Debye
        Dipole field         -0.0010 Ry au, 
 
        Potential amp.        0.0918 Ry
        Total length         46.3494 bohr
 

     total cpu time spent up to now is      694.7 secs

     total energy              =   -2971.41159561 Ry
     estimated scf accuracy    <       3.17941003 Ry

     iteration # 37     ecut=    29.40 Ry     beta= 0.05
     Davidson diagonalization with overlap
     ethr =  7.01E-04,  avg # of iterations =  1.0

     negative rho (up, down):  2.969E-03 0.000E+00
 
     Adding external electric field

     Computed dipole along edir(3) : 
        Dipole               -0.4075 Ry au,         -1.0357 Debye
        Dipole field         -0.0008 Ry au, 
 
        Potential amp.        0.0713 Ry
        Total length         46.3494 bohr
 

     total cpu time spent up to now is      707.1 secs

     total energy              =   -2971.38777793 Ry
     estimated scf accuracy    <       2.95810806 Ry

     iteration # 38     ecut=    29.40 Ry     beta= 0.05
     Davidson diagonalization with overlap
     ethr =  7.01E-04,  avg # of iterations =  1.0

     negative rho (up, down):  2.940E-03 0.000E+00
 
     Adding external electric field

     Computed dipole along edir(3) : 
        Dipole               -0.3510 Ry au,         -0.8922 Debye
        Dipole field         -0.0007 Ry au, 
 
        Potential amp.        0.0614 Ry
        Total length         46.3494 bohr
 

     total cpu time spent up to now is      719.4 secs

     total energy              =   -2971.38392037 Ry
     estimated scf accuracy    <       2.66020163 Ry

     iteration # 39     ecut=    29.40 Ry     beta= 0.05
     Davidson diagonalization with overlap
     ethr =  6.63E-04,  avg # of iterations =  2.1

     negative rho (up, down):  2.986E-03 0.000E+00
 
     Adding external electric field

     Computed dipole along edir(3) : 
        Dipole               -0.2178 Ry au,         -0.5536 Debye
        Dipole field         -0.0004 Ry au, 
 
        Potential amp.        0.0381 Ry
        Total length         46.3494 bohr
 

     total cpu time spent up to now is      732.3 secs

     total energy              =   -2971.41773655 Ry
     estimated scf accuracy    <       1.76179252 Ry

     iteration # 40     ecut=    29.40 Ry     beta= 0.05
     Davidson diagonalization with overlap
     ethr =  4.39E-04,  avg # of iterations =  1.9

     negative rho (up, down):  3.370E-03 0.000E+00
 
     Adding external electric field

     Computed dipole along edir(3) : 
        Dipole                0.5363 Ry au,          1.3631 Debye
        Dipole field          0.0010 Ry au, 
 
        Potential amp.       -0.0938 Ry
        Total length         46.3494 bohr
 

     total cpu time spent up to now is      745.0 secs

     total energy              =   -2971.37538510 Ry
     estimated scf accuracy    <       1.27123631 Ry

     iteration # 41     ecut=    29.40 Ry     beta= 0.05
     Davidson diagonalization with overlap
     c_bands:  5 eigenvalues not converged
     c_bands:  2 eigenvalues not converged
     c_bands:  2 eigenvalues not converged
     c_bands:  4 eigenvalues not converged
     c_bands:  4 eigenvalues not converged
     ethr =  3.17E-04,  avg # of iterations = 17.7

     negative rho (up, down):  3.411E-03 0.000E+00
 
     Adding external electric field

     Computed dipole along edir(3) : 
        Dipole                0.5789 Ry au,          1.4714 Debye
        Dipole field          0.0011 Ry au, 
 
        Potential amp.       -0.1013 Ry
        Total length         46.3494 bohr
 

     total cpu time spent up to now is      766.7 secs

     total energy              =   -2971.52451988 Ry
     estimated scf accuracy    <       0.75002429 Ry

     iteration # 42     ecut=    29.40 Ry     beta= 0.05
     Davidson diagonalization with overlap
     ethr =  1.87E-04,  avg # of iterations =  3.3

     negative rho (up, down):  3.589E-03 0.000E+00
 
     Adding external electric field

     Computed dipole along edir(3) : 
        Dipole                0.5720 Ry au,          1.4540 Debye
        Dipole field          0.0011 Ry au, 
 
        Potential amp.       -0.1001 Ry
        Total length         46.3494 bohr
 

     total cpu time spent up to now is      780.3 secs

     total energy              =   -2971.50135343 Ry
     estimated scf accuracy    <       0.77827493 Ry

     iteration # 43     ecut=    29.40 Ry     beta= 0.05
     Davidson diagonalization with overlap
     ethr =  1.87E-04,  avg # of iterations =  1.3

     negative rho (up, down):  4.166E-03 0.000E+00
 
     Adding external electric field

     Computed dipole along edir(3) : 
        Dipole                0.3651 Ry au,          0.9279 Debye
        Dipole field          0.0007 Ry au, 
 
        Potential amp.       -0.0639 Ry
        Total length         46.3494 bohr
 

     total cpu time spent up to now is      792.9 secs

     total energy              =   -2971.44075446 Ry
     estimated scf accuracy    <       0.70264315 Ry

     iteration # 44     ecut=    29.40 Ry     beta= 0.05
     Davidson diagonalization with overlap
     c_bands:  3 eigenvalues not converged
     ethr =  1.75E-04,  avg # of iterations = 13.5

     negative rho (up, down):  4.255E-03 0.000E+00
 
     Adding external electric field

     Computed dipole along edir(3) : 
        Dipole                0.6479 Ry au,          1.6469 Debye
        Dipole field          0.0012 Ry au, 
 
        Potential amp.       -0.1133 Ry
        Total length         46.3494 bohr
 

     total cpu time spent up to now is      810.5 secs

     total energy              =   -2971.47726871 Ry
     estimated scf accuracy    <       0.31793959 Ry

     iteration # 45     ecut=    29.40 Ry     beta= 0.05
     Davidson diagonalization with overlap
     c_bands:  2 eigenvalues not converged
     c_bands:  1 eigenvalues not converged
     c_bands:  2 eigenvalues not converged
     ethr =  7.93E-05,  avg # of iterations = 10.8

     negative rho (up, down):  4.564E-03 0.000E+00
 
     Adding external electric field

     Computed dipole along edir(3) : 
        Dipole                0.8883 Ry au,          2.2577 Debye
        Dipole field          0.0017 Ry au, 
 
        Potential amp.       -0.1554 Ry
        Total length         46.3494 bohr
 

     total cpu time spent up to now is      827.2 secs

     total energy              =   -2971.48263370 Ry
     estimated scf accuracy    <       0.07662547 Ry

     iteration # 46     ecut=    29.40 Ry     beta= 0.05
     Davidson diagonalization with overlap
     c_bands:  1 eigenvalues not converged
     c_bands:  4 eigenvalues not converged
     c_bands:  1 eigenvalues not converged
     c_bands:  3 eigenvalues not converged
     c_bands:  4 eigenvalues not converged
     c_bands:  1 eigenvalues not converged
     c_bands:  3 eigenvalues not converged
     ethr =  1.91E-05,  avg # of iterations = 19.5

     negative rho (up, down):  4.850E-03 0.000E+00
 
     Adding external electric field

     Computed dipole along edir(3) : 
        Dipole                0.8001 Ry au,          2.0337 Debye
        Dipole field          0.0015 Ry au, 
 
        Potential amp.       -0.1400 Ry
        Total length         46.3494 bohr
 

     total cpu time spent up to now is      854.3 secs

     total energy              =   -2971.48621347 Ry
     estimated scf accuracy    <       0.50768602 Ry

     iteration # 47     ecut=    29.40 Ry     beta= 0.05
     Davidson diagonalization with overlap
     ethr =  1.91E-05,  avg # of iterations =  8.4

     negative rho (up, down):  4.860E-03 0.000E+00
 
     Adding external electric field

     Computed dipole along edir(3) : 
        Dipole                0.7860 Ry au,          1.9978 Debye
        Dipole field          0.0015 Ry au, 
 
        Potential amp.       -0.1375 Ry
        Total length         46.3494 bohr
 

     total cpu time spent up to now is      869.5 secs

     total energy              =   -2971.48912961 Ry
     estimated scf accuracy    <       0.08869568 Ry

     iteration # 48     ecut=    29.40 Ry     beta= 0.05
     Davidson diagonalization with overlap
     ethr =  1.91E-05,  avg # of iterations =  1.2

     negative rho (up, down):  5.232E-03 0.000E+00
 
     Adding external electric field

     Computed dipole along edir(3) : 
        Dipole                0.8273 Ry au,          2.1027 Debye
        Dipole field          0.0016 Ry au, 
 
        Potential amp.       -0.1447 Ry
        Total length         46.3494 bohr
 

     total cpu time spent up to now is      882.1 secs

     total energy              =   -2971.48723702 Ry
     estimated scf accuracy    <       0.06015331 Ry

     iteration # 49     ecut=    29.40 Ry     beta= 0.05
     Davidson diagonalization with overlap
     c_bands:  1 eigenvalues not converged
     c_bands:  1 eigenvalues not converged
     c_bands:  1 eigenvalues not converged
     c_bands:  1 eigenvalues not converged
     c_bands:  2 eigenvalues not converged
     c_bands:  1 eigenvalues not converged
     c_bands:  2 eigenvalues not converged
     c_bands:  3 eigenvalues not converged
     ethr =  1.50E-05,  avg # of iterations = 19.8

     negative rho (up, down):  6.199E-03 0.000E+00
 
     Adding external electric field

     Computed dipole along edir(3) : 
        Dipole                0.8742 Ry au,          2.2220 Debye
        Dipole field          0.0016 Ry au, 
 
        Potential amp.       -0.1529 Ry
        Total length         46.3494 bohr
 

     total cpu time spent up to now is      903.0 secs

     total energy              =   -2971.48781165 Ry
     estimated scf accuracy    <       0.01535707 Ry

     iteration # 50     ecut=    29.40 Ry     beta= 0.05
     Davidson diagonalization with overlap
     c_bands:  1 eigenvalues not converged
     c_bands:  3 eigenvalues not converged
     c_bands:  1 eigenvalues not converged
     c_bands:  1 eigenvalues not converged
     c_bands:  3 eigenvalues not converged
     c_bands:  1 eigenvalues not converged
     ethr =  3.83E-06,  avg # of iterations = 17.4

     negative rho (up, down):  8.137E-03 0.000E+00
 
     Adding external electric field

     Computed dipole along edir(3) : 
        Dipole                1.0956 Ry au,          2.7847 Debye
        Dipole field          0.0021 Ry au, 
 
        Potential amp.       -0.1917 Ry
        Total length         46.3494 bohr
 

     total cpu time spent up to now is      928.9 secs

     total energy              =   -2971.48456680 Ry
     estimated scf accuracy    <       0.10262464 Ry

     iteration # 51     ecut=    29.40 Ry     beta= 0.05
     Davidson diagonalization with overlap
     c_bands:  2 eigenvalues not converged
     c_bands:  1 eigenvalues not converged
     c_bands:  1 eigenvalues not converged
     c_bands:  1 eigenvalues not converged
     c_bands:  1 eigenvalues not converged
     ethr =  3.83E-06,  avg # of iterations = 17.8

     negative rho (up, down):  8.987E-03 0.000E+00
 
     Adding external electric field

     Computed dipole along edir(3) : 
        Dipole                1.0293 Ry au,          2.6161 Debye
        Dipole field          0.0019 Ry au, 
 
        Potential amp.       -0.1801 Ry
        Total length         46.3494 bohr
 

     total cpu time spent up to now is      952.6 secs

     total energy              =   -2971.48855528 Ry
     estimated scf accuracy    <       0.15841027 Ry

     iteration # 52     ecut=    29.40 Ry     beta= 0.05
     Davidson diagonalization with overlap
     c_bands:  1 eigenvalues not converged
     c_bands:  1 eigenvalues not converged
     c_bands:  3 eigenvalues not converged
     c_bands:  1 eigenvalues not converged
     c_bands:  2 eigenvalues not converged
     ethr =  3.83E-06,  avg # of iterations = 13.5

     negative rho (up, down):  9.075E-03 0.000E+00
 
     Adding external electric field

     Computed dipole along edir(3) : 
        Dipole                1.0253 Ry au,          2.6059 Debye
        Dipole field          0.0019 Ry au, 
 
        Potential amp.       -0.1794 Ry
        Total length         46.3494 bohr
 

     total cpu time spent up to now is      969.6 secs

     total energy              =   -2971.49023464 Ry
     estimated scf accuracy    <       0.00432068 Ry

     iteration # 53     ecut=    29.40 Ry     beta= 0.05
     Davidson diagonalization with overlap
     c_bands:  1 eigenvalues not converged
     ethr =  1.08E-06,  avg # of iterations = 13.6

     negative rho (up, down):  1.048E-02 0.000E+00
 
     Adding external electric field

     Computed dipole along edir(3) : 
        Dipole                1.0248 Ry au,          2.6049 Debye
        Dipole field          0.0019 Ry au, 
 
        Potential amp.       -0.1793 Ry
        Total length         46.3494 bohr
 

     total cpu time spent up to now is      991.0 secs

     total energy              =   -2971.49083396 Ry
     estimated scf accuracy    <       0.00269630 Ry

     iteration # 54     ecut=    29.40 Ry     beta= 0.05
     Davidson diagonalization with overlap
     c_bands:  1 eigenvalues not converged
     ethr =  6.72E-07,  avg # of iterations =  6.9

     negative rho (up, down):  1.301E-02 0.000E+00
 
     Adding external electric field

     Computed dipole along edir(3) : 
        Dipole                1.0666 Ry au,          2.7110 Debye
        Dipole field          0.0020 Ry au, 
 
        Potential amp.       -0.1866 Ry
        Total length         46.3494 bohr
 

     total cpu time spent up to now is     1006.2 secs

     total energy              =   -2971.49106815 Ry
     estimated scf accuracy    <       0.00172988 Ry

     iteration # 55     ecut=    29.40 Ry     beta= 0.05
     Davidson diagonalization with overlap
     c_bands:  1 eigenvalues not converged
     ethr =  4.31E-07,  avg # of iterations = 10.6

     negative rho (up, down):  1.295E-02 0.000E+00
 
     Adding external electric field

     Computed dipole along edir(3) : 
        Dipole                1.0491 Ry au,          2.6665 Debye
        Dipole field          0.0020 Ry au, 
 
        Potential amp.       -0.1835 Ry
        Total length         46.3494 bohr
 

     total cpu time spent up to now is     1022.7 secs

     total energy              =   -2971.49111958 Ry
     estimated scf accuracy    <       0.00632184 Ry

     iteration # 56     ecut=    29.40 Ry     beta= 0.05
     Davidson diagonalization with overlap
     c_bands:  1 eigenvalues not converged
     ethr =  4.31E-07,  avg # of iterations =  7.7

     negative rho (up, down):  1.301E-02 0.000E+00
 
     Adding external electric field

     Computed dipole along edir(3) : 
        Dipole                1.0531 Ry au,          2.6768 Debye
        Dipole field          0.0020 Ry au, 
 
        Potential amp.       -0.1842 Ry
        Total length         46.3494 bohr
 

     total cpu time spent up to now is     1037.6 secs

     total energy              =   -2971.49119782 Ry
     estimated scf accuracy    <       0.00030620 Ry

     iteration # 57     ecut=    29.40 Ry     beta= 0.05
     Davidson diagonalization with overlap
     ethr =  7.64E-08,  avg # of iterations =  6.8

     negative rho (up, down):  1.407E-02 0.000E+00
 
     Adding external electric field

     Computed dipole along edir(3) : 
        Dipole                1.0658 Ry au,          2.7090 Debye
        Dipole field          0.0020 Ry au, 
 
        Potential amp.       -0.1864 Ry
        Total length         46.3494 bohr
 

     total cpu time spent up to now is     1054.4 secs

     total energy              =   -2971.49127663 Ry
     estimated scf accuracy    <       0.00028581 Ry

     iteration # 58     ecut=    29.40 Ry     beta= 0.05
     Davidson diagonalization with overlap
     ethr =  7.13E-08,  avg # of iterations =  2.0

     negative rho (up, down):  1.444E-02 0.000E+00
 
     Adding external electric field

     Computed dipole along edir(3) : 
        Dipole                1.0703 Ry au,          2.7205 Debye
        Dipole field          0.0020 Ry au, 
 
        Potential amp.       -0.1872 Ry
        Total length         46.3494 bohr
 

     total cpu time spent up to now is     1068.0 secs

     total energy              =   -2971.49129792 Ry
     estimated scf accuracy    <       0.00015019 Ry

     iteration # 59     ecut=    29.40 Ry     beta= 0.05
     Davidson diagonalization with overlap
     ethr =  3.75E-08,  avg # of iterations =  7.6

     negative rho (up, down):  1.441E-02 0.000E+00
 
     Adding external electric field

     Computed dipole along edir(3) : 
        Dipole                1.0696 Ry au,          2.7187 Debye
        Dipole field          0.0020 Ry au, 
 
        Potential amp.       -0.1871 Ry
        Total length         46.3494 bohr
 

     total cpu time spent up to now is     1084.0 secs

     total energy              =   -2971.49131583 Ry
     estimated scf accuracy    <       0.00004063 Ry

     iteration # 60     ecut=    29.40 Ry     beta= 0.05
     Davidson diagonalization with overlap
     ethr =  1.01E-08,  avg # of iterations =  6.6

     negative rho (up, down):  1.436E-02 0.000E+00
 
     Adding external electric field

     Computed dipole along edir(3) : 
        Dipole                1.0662 Ry au,          2.7100 Debye
        Dipole field          0.0020 Ry au, 
 
        Potential amp.       -0.1865 Ry
        Total length         46.3494 bohr
 

     total cpu time spent up to now is     1099.9 secs

     total energy              =   -2971.49132178 Ry
     estimated scf accuracy    <       0.00003521 Ry

     iteration # 61     ecut=    29.40 Ry     beta= 0.05
     Davidson diagonalization with overlap
     ethr =  8.78E-09,  avg # of iterations =  7.3

     negative rho (up, down):  1.470E-02 0.000E+00
 
     Adding external electric field

     Computed dipole along edir(3) : 
        Dipole                1.0701 Ry au,          2.7200 Debye
        Dipole field          0.0020 Ry au, 
 
        Potential amp.       -0.1872 Ry
        Total length         46.3494 bohr
 

     total cpu time spent up to now is     1116.1 secs

     total energy              =   -2971.49133279 Ry
     estimated scf accuracy    <       0.00002506 Ry

     iteration # 62     ecut=    29.40 Ry     beta= 0.05
     Davidson diagonalization with overlap
     ethr =  6.25E-09,  avg # of iterations =  6.9

     negative rho (up, down):  1.455E-02 0.000E+00
 
     Adding external electric field

     Computed dipole along edir(3) : 
        Dipole                1.0689 Ry au,          2.7168 Debye
        Dipole field          0.0020 Ry au, 
 
        Potential amp.       -0.1870 Ry
        Total length         46.3494 bohr
 

     total cpu time spent up to now is     1135.2 secs

     total energy              =   -2971.49134096 Ry
     estimated scf accuracy    <       0.00001749 Ry

     iteration # 63     ecut=    29.40 Ry     beta= 0.05
     Davidson diagonalization with overlap
     ethr =  4.36E-09,  avg # of iterations =  4.7

     negative rho (up, down):  1.457E-02 0.000E+00
 
     Adding external electric field

     Computed dipole along edir(3) : 
        Dipole                1.0690 Ry au,          2.7170 Debye
        Dipole field          0.0020 Ry au, 
 
        Potential amp.       -0.1870 Ry
        Total length         46.3494 bohr
 

     total cpu time spent up to now is     1149.9 secs

     total energy              =   -2971.49134726 Ry
     estimated scf accuracy    <       0.00001093 Ry

     iteration # 64     ecut=    29.40 Ry     beta= 0.05
     Davidson diagonalization with overlap
     ethr =  2.73E-09,  avg # of iterations =  5.4

     negative rho (up, down):  1.453E-02 0.000E+00
 
     Adding external electric field

     Computed dipole along edir(3) : 
        Dipole                1.0665 Ry au,          2.7107 Debye
        Dipole field          0.0020 Ry au, 
 
        Potential amp.       -0.1866 Ry
        Total length         46.3494 bohr
 

     total cpu time spent up to now is     1164.8 secs

     total energy              =   -2971.49135148 Ry
     estimated scf accuracy    <       0.00000872 Ry

     iteration # 65     ecut=    29.40 Ry     beta= 0.05
     Davidson diagonalization with overlap
     ethr =  2.17E-09,  avg # of iterations =  6.2

     negative rho (up, down):  1.459E-02 0.000E+00
 
     Adding external electric field

     Computed dipole along edir(3) : 
        Dipole                1.0677 Ry au,          2.7137 Debye
        Dipole field          0.0020 Ry au, 
 
        Potential amp.       -0.1868 Ry
        Total length         46.3494 bohr
 

     total cpu time spent up to now is     1183.7 secs

     total energy              =   -2971.49135824 Ry
     estimated scf accuracy    <       0.00000457 Ry

     iteration # 66     ecut=    29.40 Ry     beta= 0.05
     Davidson diagonalization with overlap
     ethr =  1.14E-09,  avg # of iterations =  9.1

     negative rho (up, down):  1.460E-02 0.000E+00
 
     Adding external electric field

     Computed dipole along edir(3) : 
        Dipole                1.0684 Ry au,          2.7156 Debye
        Dipole field          0.0020 Ry au, 
 
        Potential amp.       -0.1869 Ry
        Total length         46.3494 bohr
 

     total cpu time spent up to now is     1200.6 secs

     total energy              =   -2971.49136225 Ry
     estimated scf accuracy    <       0.00000267 Ry

     iteration # 67     ecut=    29.40 Ry     beta= 0.05
     Davidson diagonalization with overlap
     ethr =  6.65E-10,  avg # of iterations =  5.2

     negative rho (up, down):  1.457E-02 0.000E+00
 
     Adding external electric field

     Computed dipole along edir(3) : 
        Dipole                1.0678 Ry au,          2.7142 Debye
        Dipole field          0.0020 Ry au, 
 
        Potential amp.       -0.1868 Ry
        Total length         46.3494 bohr
 

     total cpu time spent up to now is     1216.3 secs

     total energy              =   -2971.49136607 Ry
     estimated scf accuracy    <       0.00000134 Ry

     iteration # 68     ecut=    29.40 Ry     beta= 0.05
     Davidson diagonalization with overlap
     ethr =  3.33E-10,  avg # of iterations =  8.1

     negative rho (up, down):  1.457E-02 0.000E+00
 
     Adding external electric field

     Computed dipole along edir(3) : 
        Dipole                1.0673 Ry au,          2.7128 Debye
        Dipole field          0.0020 Ry au, 
 
        Potential amp.       -0.1867 Ry
        Total length         46.3494 bohr
 

     total cpu time spent up to now is     1233.4 secs

     total energy              =   -2971.49136970 Ry
     estimated scf accuracy    <       0.00000074 Ry

     iteration # 69     ecut=    29.40 Ry     beta= 0.05
     Davidson diagonalization with overlap
     ethr =  1.84E-10,  avg # of iterations =  9.4

     negative rho (up, down):  1.463E-02 0.000E+00
 
     Adding external electric field

     Computed dipole along edir(3) : 
        Dipole                1.0682 Ry au,          2.7152 Debye
        Dipole field          0.0020 Ry au, 
 
        Potential amp.       -0.1869 Ry
        Total length         46.3494 bohr
 

     total cpu time spent up to now is     1253.5 secs

     total energy              =   -2971.49137279 Ry
     estimated scf accuracy    <       0.00000140 Ry

     iteration # 70     ecut=    29.40 Ry     beta= 0.05
     Davidson diagonalization with overlap
     ethr =  1.84E-10,  avg # of iterations =  7.8

     negative rho (up, down):  1.462E-02 0.000E+00
 
     Adding external electric field

     Computed dipole along edir(3) : 
        Dipole                1.0680 Ry au,          2.7145 Debye
        Dipole field          0.0020 Ry au, 
 
        Potential amp.       -0.1868 Ry
        Total length         46.3494 bohr
 

     total cpu time spent up to now is     1273.1 secs

     total energy              =   -2971.49137572 Ry
     estimated scf accuracy    <       0.00000050 Ry

     iteration # 71     ecut=    29.40 Ry     beta= 0.05
     Davidson diagonalization with overlap
     ethr =  1.24E-10,  avg # of iterations =  2.0

     negative rho (up, down):  1.460E-02 0.000E+00
 
     Adding external electric field

     Computed dipole along edir(3) : 
        Dipole                1.0677 Ry au,          2.7139 Debye
        Dipole field          0.0020 Ry au, 
 
        Potential amp.       -0.1868 Ry
        Total length         46.3494 bohr
 

     total cpu time spent up to now is     1286.6 secs

     total energy              =   -2971.49137821 Ry
     estimated scf accuracy    <       0.00000017 Ry

     iteration # 72     ecut=    29.40 Ry     beta= 0.05
     Davidson diagonalization with overlap
     ethr =  4.32E-11,  avg # of iterations =  6.8

     negative rho (up, down):  1.461E-02 0.000E+00
 
     Adding external electric field

     Computed dipole along edir(3) : 
        Dipole                1.0679 Ry au,          2.7144 Debye
        Dipole field          0.0020 Ry au, 
 
        Potential amp.       -0.1868 Ry
        Total length         46.3494 bohr
 

     total cpu time spent up to now is     1306.0 secs

     total energy              =   -2971.49138048 Ry
     estimated scf accuracy    <       0.00000022 Ry

     iteration # 73     ecut=    29.40 Ry     beta= 0.05
     Davidson diagonalization with overlap
     ethr =  4.32E-11,  avg # of iterations =  1.7

     negative rho (up, down):  1.462E-02 0.000E+00
 
     Adding external electric field

     Computed dipole along edir(3) : 
        Dipole                1.0681 Ry au,          2.7148 Debye
        Dipole field          0.0020 Ry au, 
 
        Potential amp.       -0.1868 Ry
        Total length         46.3494 bohr
 

     total cpu time spent up to now is     1319.1 secs

     total energy              =   -2971.49138249 Ry
     estimated scf accuracy    <       0.00000016 Ry

     iteration # 74     ecut=    29.40 Ry     beta= 0.05
     Davidson diagonalization with overlap
     ethr =  3.99E-11,  avg # of iterations =  7.1

     negative rho (up, down):  1.459E-02 0.000E+00
 
     Adding external electric field

     Computed dipole along edir(3) : 
        Dipole                1.0676 Ry au,          2.7135 Debye
        Dipole field          0.0020 Ry au, 
 
        Potential amp.       -0.1868 Ry
        Total length         46.3494 bohr
 

     total cpu time spent up to now is     1338.1 secs

     total energy              =   -2971.49138441 Ry
     estimated scf accuracy    <       0.00000019 Ry

     iteration # 75     ecut=    29.40 Ry     beta= 0.05
     Davidson diagonalization with overlap
     ethr =  3.99E-11,  avg # of iterations =  7.3

     negative rho (up, down):  1.459E-02 0.000E+00
 
     Adding external electric field

     Computed dipole along edir(3) : 
        Dipole                1.0675 Ry au,          2.7133 Debye
        Dipole field          0.0020 Ry au, 
 
        Potential amp.       -0.1867 Ry
        Total length         46.3494 bohr
 

     total cpu time spent up to now is     1356.4 secs

     total energy              =   -2971.49138608 Ry
     estimated scf accuracy    <       0.00000012 Ry

     iteration # 76     ecut=    29.40 Ry     beta= 0.05
     Davidson diagonalization with overlap
     ethr =  3.02E-11,  avg # of iterations =  2.2

     negative rho (up, down):  1.460E-02 0.000E+00
 
     Adding external electric field

     Computed dipole along edir(3) : 
        Dipole                1.0680 Ry au,          2.7147 Debye
        Dipole field          0.0020 Ry au, 
 
        Potential amp.       -0.1868 Ry
        Total length         46.3494 bohr
 

     total cpu time spent up to now is     1369.9 secs

     End of self-consistent calculation

          k = 0.0000 0.0000 0.0000 ( 18029 PWs)   bands (ev):

   -55.6906 -55.6566 -55.4753 -55.4732 -55.4414 -55.3327 -55.3149 -55.2809
   -55.2796 -55.2240 -55.1789 -55.0940 -55.0849 -54.9789 -54.5984 -54.5644
   -32.1646 -31.9859 -31.9839 -31.9278 -31.8433 -31.8160 -31.8101 -31.7910
   -31.7872 -31.7548 -31.7491 -31.7467 -31.7121 -31.6945 -31.6814 -31.6492
   -31.6460 -31.6099 -31.5829 -31.5770 -31.5740 -31.5504 -31.5411 -31.5375
   -31.4931 -31.4854 -31.4803 -31.4691 -31.4569 -31.4425 -31.4393 -31.4234
   -31.4228 -31.3674 -31.3629 -31.3592 -31.2931 -31.2801 -31.2573 -31.2283
   -31.2030 -31.1898 -31.0013 -30.9227 -30.8998 -30.8193 -30.7334 -30.6215
   -20.7459 -16.2527 -16.1704 -15.9653 -15.7879 -15.6365 -15.5839 -15.4439
   -15.3727 -15.2731 -15.1926 -15.0933 -15.0730 -15.0326 -14.9966 -14.9947
   -14.9663 -14.9341 -14.9339 -14.9112 -14.8938 -14.8461 -14.7865 -14.7689
   -14.7244 -14.6968 -14.6576 -14.6443 -14.6167 -14.5140 -14.2460 -14.2317
   -13.0962 -12.9812  -7.4088  -6.0975  -5.6734  -5.0501  -3.7618  -3.5786
    -3.5039  -3.3548  -3.2760  -3.2001  -3.0670  -2.9844  -2.9069  -2.7466
    -2.6610  -2.6343  -2.5829  -2.5268  -2.4615  -2.4351  -2.3941  -2.3713
    -2.2924  -2.2512  -2.2286  -2.2069  -2.1530  -2.1239  -2.0886  -2.0032
    -1.9746  -1.9398  -1.8656  -1.8566  -1.8319  -1.8232  -1.7813  -1.7627
    -1.7496  -1.7306  -1.5946  -1.5864  -1.5083  -1.4695  -1.3230  -1.1994
    -1.1343  -1.0650  -1.0500  -0.9680  -0.9319  -0.8521  -0.8330  -0.8033
    -0.7656  -0.6988  -0.6344  -0.6119  -0.5668  -0.5302  -0.3946  -0.3724
    -0.3251  -0.3204  -0.2977  -0.2330  -0.1635  -0.0826  -0.0701  -0.0042
     0.0161   0.0982   0.1803   0.1874   0.2370   0.2606   0.3148   0.3378
     0.3564   0.3897   0.4196   0.4888   0.5518   0.5992   0.6046   0.6378
     0.7050   0.7725   0.8127   0.8459   0.9956   1.0242   1.0380   1.1296
     1.1404   1.2485   1.4065   1.4279   1.6319   1.6337   1.9879   2.0303
     3.4559   3.5859   3.6198   3.6935   3.7791   3.9074   3.9159   4.0434
     4.1630   4.1683

          k = 0.0000 0.0419 0.0000 ( 17933 PWs)   bands (ev):

   -55.6856 -55.6616 -55.4727 -55.4703 -55.4463 -55.3297 -55.3100 -55.2844
   -55.2837 -55.2243 -55.1771 -55.0957 -55.0836 -54.9801 -54.5933 -54.5693
   -32.1107 -31.9797 -31.9677 -31.8972 -31.8437 -31.8296 -31.7628 -31.7628
   -31.7616 -31.7555 -31.7428 -31.7163 -31.7022 -31.6817 -31.6813 -31.6576
   -31.6493 -31.6291 -31.6132 -31.5595 -31.5581 -31.5363 -31.5353 -31.5328
   -31.4955 -31.4926 -31.4890 -31.4872 -31.4846 -31.4761 -31.4610 -31.4531
   -31.4424 -31.3763 -31.3647 -31.3541 -31.2967 -31.2910 -31.2791 -31.2582
   -31.2260 -31.1894 -30.9474 -30.9192 -30.9029 -30.8068 -30.7459 -30.6785
   -20.7453 -16.2406 -16.0431 -15.8548 -15.6803 -15.5555 -15.5038 -15.4086
   -15.3950 -15.2535 -15.1928 -15.1367 -15.1330 -15.0497 -15.0391 -15.0105
   -14.9543 -14.9405 -14.9179 -14.9130 -14.8734 -14.8700 -14.8458 -14.8161
   -14.7265 -14.6915 -14.6713 -14.6618 -14.6573 -14.5756 -14.3402 -14.2922
   -13.1010 -13.0211  -7.4101  -6.0966  -5.6773  -5.0372  -3.7610  -3.3938
    -3.3283  -3.1961  -3.1178  -3.0891  -3.0543  -2.8548  -2.7382  -2.6224
    -2.6054  -2.6004  -2.5450  -2.5172  -2.4894  -2.4173  -2.3876  -2.3643
    -2.3536  -2.3253  -2.3174  -2.2529  -2.2302  -2.2034  -2.1730  -2.1627
    -2.0834  -2.0526  -2.0429  -1.9979  -1.9376  -1.9057  -1.7915  -1.7614
    -1.7343  -1.6651  -1.5730  -1.5417  -1.4247  -1.2487  -1.2295  -1.1824
    -1.1717  -1.1001  -0.9458  -0.9007  -0.8387  -0.7660  -0.7010  -0.6716
    -0.6409  -0.5985  -0.5284  -0.5190  -0.4926  -0.4428  -0.4266  -0.4209
    -0.3455  -0.2920  -0.2430  -0.2215  -0.1920  -0.1691  -0.1351  -0.0902
    -0.0407   0.0038   0.0460   0.1010   0.1787   0.1902   0.2240   0.2454
     0.2678   0.3624   0.3869   0.4416   0.4770   0.5162   0.6008   0.6177
     0.6479   0.6744   0.7552   0.7615   0.8363   0.8449   0.9221   0.9985
     1.0448   1.0591   1.1333   1.5182   1.6237   1.7287   1.9427   1.9452
     3.6612   3.7039   3.7087   3.8217   3.9477   4.0230   4.0554   4.1329
     4.2208   4.2311

          k = 0.0000-0.0839 0.0000 ( 17884 PWs)   bands (ev):

   -55.6741 -55.6730 -55.4723 -55.4595 -55.4570 -55.3264 -55.3012 -55.2931
   -55.2870 -55.2246 -55.1753 -55.0974 -55.0822 -54.9814 -54.5818 -54.5807
   -31.9790 -31.9784 -31.9700 -31.9691 -31.7969 -31.7956 -31.7802 -31.7747
   -31.7435 -31.7178 -31.6858 -31.6811 -31.6772 -31.6694 -31.6526 -31.6483
   -31.6470 -31.6269 -31.6138 -31.6125 -31.6097 -31.5503 -31.5284 -31.5271
   -31.5226 -31.5164 -31.5098 -31.5058 -31.4965 -31.4853 -31.4665 -31.4538
   -31.4452 -31.3890 -31.3664 -31.3518 -31.3401 -31.3250 -31.2900 -31.2780
   -31.2346 -31.1891 -30.9112 -30.9104 -30.8154 -30.8141 -30.7768 -30.7759
   -20.7448 -16.2323 -15.7364 -15.7042 -15.6152 -15.5947 -15.4332 -15.4021
   -15.3000 -15.2859 -15.2489 -15.2333 -15.1666 -15.1545 -15.0827 -14.9896
   -14.9892 -14.9650 -14.9500 -14.8871 -14.8333 -14.8180 -14.7959 -14.7868
   -14.7748 -14.7306 -14.7165 -14.6888 -14.6563 -14.5905 -14.5126 -14.3707
   -13.0841 -13.0835  -7.4114  -6.0957  -5.6812  -5.0264  -3.7608  -3.0713
    -2.9486  -2.9473  -2.9341  -2.8925  -2.8665  -2.8070  -2.7876  -2.7394
    -2.6869  -2.6506  -2.6038  -2.5846  -2.5673  -2.5200  -2.4906  -2.4560
    -2.4461  -2.4335  -2.3981  -2.3294  -2.3081  -2.2804  -2.1814  -2.1380
    -2.1241  -2.0679  -2.0229  -2.0157  -1.8891  -1.8059  -1.6978  -1.6458
    -1.5508  -1.4867  -1.4713  -1.3669  -1.2848  -1.2564  -1.1815  -1.1462
    -1.1269  -1.0204  -0.9948  -0.9559  -0.9216  -0.9115  -0.8699  -0.8294
    -0.7839  -0.7259  -0.6911  -0.5850  -0.5485  -0.4797  -0.4228  -0.2449
    -0.2267  -0.2186  -0.1871  -0.1067  -0.0960  -0.0796  -0.0486  -0.0124
    -0.0087   0.0283   0.0720   0.0931   0.1159   0.1322   0.1373   0.1759
     0.2083   0.2311   0.2570   0.2884   0.3347   0.3913   0.4305   0.4965
     0.5570   0.6368   0.6715   0.6991   0.7062   0.7870   0.7954   0.8700
     0.9408   1.0314   1.2674   1.2987   1.7669   1.7758   1.8788   1.8812
     3.6443   3.9214   3.9243   4.0554   4.0578   4.0729   4.1168   4.1921
     4.2244   4.3324

          k = 0.0380 0.0000 0.0000 ( 17913 PWs)   bands (ev):

   -55.6905 -55.6565 -55.4751 -55.4731 -55.4413 -55.3326 -55.3148 -55.2808
   -55.2795 -55.2239 -55.1789 -55.0939 -55.0848 -54.9788 -54.5983 -54.5643
   -32.1654 -31.9859 -31.9837 -31.9278 -31.8406 -31.8234 -31.8120 -31.7929
   -31.7869 -31.7572 -31.7488 -31.7414 -31.6969 -31.6941 -31.6811 -31.6462
   -31.6402 -31.6098 -31.5827 -31.5777 -31.5671 -31.5563 -31.5502 -31.5374
   -31.4932 -31.4854 -31.4806 -31.4668 -31.4566 -31.4390 -31.4354 -31.4229
   -31.4225 -31.3695 -31.3671 -31.3592 -31.2935 -31.2839 -31.2573 -31.2281
   -31.2029 -31.1905 -31.0009 -30.9258 -30.8979 -30.8191 -30.7333 -30.6212
   -20.7458 -16.2427 -16.0828 -15.8804 -15.6922 -15.6483 -15.5306 -15.4836
   -15.3714 -15.3498 -15.2724 -15.1613 -15.1410 -15.0908 -15.0723 -15.0411
   -15.0232 -14.9443 -14.9026 -14.8785 -14.8306 -14.7860 -14.7456 -14.7424
   -14.7176 -14.6941 -14.6660 -14.6432 -14.6398 -14.5567 -14.2434 -14.2313
   -13.0931 -12.9809  -7.4070  -6.1000  -5.6631  -5.0495  -3.7553  -3.3736
    -3.2768  -3.2048  -3.1716  -3.1244  -2.9619  -2.8891  -2.8704  -2.8648
    -2.7461  -2.7236  -2.6795  -2.6373  -2.5600  -2.5320  -2.4655  -2.3574
    -2.3027  -2.1751  -2.1318  -2.1302  -2.0777  -2.0173  -2.0033  -1.9762
    -1.9355  -1.9199  -1.8793  -1.8659  -1.8120  -1.7931  -1.7528  -1.7232
    -1.5875  -1.5634  -1.4944  -1.4275  -1.3893  -1.3412  -1.2690  -1.2573
    -1.1935  -1.1373  -1.0883  -1.0045  -0.9688  -0.9320  -0.8596  -0.8091
    -0.8068  -0.7867  -0.7395  -0.6934  -0.6638  -0.5792  -0.5739  -0.4673
    -0.4382  -0.3437  -0.2392  -0.1911  -0.1827  -0.1270  -0.0536   0.0163
     0.0633   0.1208   0.1299   0.1397   0.1686   0.2225   0.2362   0.2524
     0.3243   0.3315   0.3625   0.4284   0.4539   0.4977   0.5544   0.5899
     0.6809   0.7354   0.8008   0.8475   0.8749   0.9437   0.9913   1.0344
     1.1154   1.1377   1.4080   1.4396   1.5094   1.6026   1.8783   1.9488
     3.4903   3.5487   3.6478   3.8347   3.9120   3.9714   3.9998   4.0682
     4.1012   4.1180

          k = 0.0380 0.0419 0.0000 ( 17878 PWs)   bands (ev):

   -55.6855 -55.6615 -55.4727 -55.4702 -55.4463 -55.3297 -55.3099 -55.2844
   -55.2837 -55.2242 -55.1771 -55.0956 -55.0835 -54.9801 -54.5933 -54.5692
   -32.1115 -31.9795 -31.9678 -31.8973 -31.8438 -31.8272 -31.7725 -31.7628
   -31.7625 -31.7574 -31.7421 -31.7150 -31.6902 -31.6814 -31.6811 -31.6492
   -31.6447 -31.6293 -31.6133 -31.5587 -31.5534 -31.5485 -31.5373 -31.5327
   -31.4950 -31.4927 -31.4899 -31.4889 -31.4802 -31.4764 -31.4635 -31.4533
   -31.4331 -31.3767 -31.3688 -31.3541 -31.2972 -31.2924 -31.2824 -31.2580
   -31.2259 -31.1908 -30.9471 -30.9216 -30.9019 -30.8066 -30.7459 -30.6783
   -20.7452 -16.2354 -15.9612 -15.7780 -15.5921 -15.5759 -15.4358 -15.4258
   -15.4059 -15.3093 -15.2439 -15.1830 -15.0986 -15.0894 -15.0748 -15.0276
   -15.0081 -14.9805 -14.9475 -14.9019 -14.8725 -14.8567 -14.8016 -14.7845
   -14.7505 -14.7177 -14.6987 -14.6831 -14.6530 -14.5895 -14.3368 -14.2924
   -13.0988 -13.0213  -7.4087  -6.0992  -5.6713  -5.0370  -3.7517  -3.2046
    -3.1323  -3.1032  -3.0367  -2.9632  -2.8189  -2.7994  -2.7253  -2.6943
    -2.6143  -2.5851  -2.5561  -2.5000  -2.4688  -2.4204  -2.4014  -2.3472
    -2.3223  -2.3051  -2.2724  -2.2234  -2.1993  -2.1673  -2.1459  -2.1173
    -2.0990  -2.0636  -2.0108  -1.9379  -1.8714  -1.8515  -1.7609  -1.6975
    -1.6569  -1.6154  -1.5342  -1.5177  -1.4423  -1.2826  -1.2682  -1.1758
    -1.1267  -1.0191  -0.9838  -0.9599  -0.9152  -0.8451  -0.8038  -0.7582
    -0.7291  -0.6772  -0.6485  -0.5765  -0.5617  -0.5062  -0.5001  -0.4480
    -0.4110  -0.3848  -0.3501  -0.2960  -0.2685  -0.2384  -0.2089  -0.1657
    -0.1194  -0.0769  -0.0268   0.0105   0.0529   0.0946   0.1453   0.2096
     0.2459   0.2986   0.3312   0.3862   0.4277   0.5420   0.5640   0.6121
     0.6585   0.6853   0.7725   0.8033   0.8477   0.8863   0.9379   0.9674
     1.0241   1.0384   1.1139   1.4493   1.6336   1.7330   1.8659   1.9235
     3.5817   3.6803   3.7069   3.9796   4.0093   4.0492   4.0953   4.1209
     4.1528   4.1899

          k = 0.0380-0.0839 0.0000 ( 17916 PWs)   bands (ev):

   -55.6741 -55.6730 -55.4723 -55.4595 -55.4570 -55.3264 -55.3012 -55.2931
   -55.2870 -55.2246 -55.1753 -55.0975 -55.0823 -54.9814 -54.5819 -54.5807
   -31.9797 -31.9791 -31.9700 -31.9692 -31.7958 -31.7945 -31.7806 -31.7750
   -31.7422 -31.7191 -31.6879 -31.6861 -31.6821 -31.6687 -31.6526 -31.6480
   -31.6302 -31.6285 -31.6145 -31.6099 -31.6044 -31.5506 -31.5351 -31.5258
   -31.5225 -31.5146 -31.5127 -31.5050 -31.5035 -31.4853 -31.4651 -31.4548
   -31.4366 -31.3886 -31.3694 -31.3516 -31.3397 -31.3247 -31.2932 -31.2810
   -31.2346 -31.1912 -30.9122 -30.9113 -30.8153 -30.8140 -30.7768 -30.7759
   -20.7448 -16.2295 -15.6840 -15.6456 -15.5808 -15.5548 -15.3787 -15.3541
   -15.3270 -15.2745 -15.2292 -15.1975 -15.1527 -15.1340 -15.1006 -15.0485
   -15.0451 -14.9751 -14.9398 -14.9129 -14.8918 -14.8698 -14.8577 -14.8377
   -14.8067 -14.7799 -14.7387 -14.6669 -14.6540 -14.5805 -14.5008 -14.3676
   -13.0839 -13.0833  -7.4104  -6.0984  -5.6787  -5.0271  -3.7480  -3.0901
    -2.8973  -2.7925  -2.7615  -2.7424  -2.7046  -2.6485  -2.6340  -2.6026
    -2.5827  -2.5344  -2.4964  -2.4783  -2.4689  -2.4564  -2.4334  -2.4253
    -2.3866  -2.3522  -2.3120  -2.2991  -2.2473  -2.2274  -2.2156  -2.1860
    -2.1579  -2.0859  -2.0568  -1.9685  -1.7669  -1.7081  -1.6723  -1.6228
    -1.5306  -1.4851  -1.4325  -1.4079  -1.3789  -1.3313  -1.3019  -1.2579
    -1.2138  -1.1988  -1.1685  -1.1498  -1.1405  -1.0553  -1.0289  -0.9530
    -0.8043  -0.7273  -0.6401  -0.6371  -0.6223  -0.5472  -0.4809  -0.3997
    -0.3436  -0.3273  -0.2862  -0.2564  -0.2441  -0.2013  -0.1817  -0.1605
    -0.1541  -0.1291  -0.1230  -0.1129  -0.0415   0.0970   0.1170   0.1465
     0.2130   0.2538   0.2964   0.4027   0.4231   0.4857   0.5185   0.5825
     0.6252   0.6337   0.6515   0.7704   0.7897   0.8273   0.8545   0.8924
     0.9879   1.0196   1.2493   1.2595   1.7795   1.7876   1.8671   1.8691
     3.5402   3.9168   3.9196   4.0710   4.0874   4.1030   4.1218   4.1827
     4.1954   4.2424

          k = 0.0380-0.0419 0.0000 ( 17876 PWs)   bands (ev):

   -55.6855 -55.6615 -55.4727 -55.4702 -55.4463 -55.3297 -55.3099 -55.2843
   -55.2837 -55.2242 -55.1771 -55.0956 -55.0835 -54.9801 -54.5933 -54.5692
   -32.1114 -31.9795 -31.9678 -31.8973 -31.8437 -31.8273 -31.7725 -31.7632
   -31.7625 -31.7574 -31.7415 -31.7152 -31.6901 -31.6814 -31.6811 -31.6492
   -31.6447 -31.6293 -31.6133 -31.5588 -31.5534 -31.5486 -31.5374 -31.5327
   -31.4951 -31.4928 -31.4898 -31.4888 -31.4803 -31.4761 -31.4614 -31.4534
   -31.4355 -31.3761 -31.3692 -31.3541 -31.2966 -31.2927 -31.2825 -31.2579
   -31.2259 -31.1909 -30.9471 -30.9216 -30.9019 -30.8066 -30.7459 -30.6783
   -20.7452 -16.2354 -15.9610 -15.7773 -15.5920 -15.5762 -15.4376 -15.4252
   -15.4063 -15.3096 -15.2456 -15.1854 -15.0950 -15.0866 -15.0721 -15.0296
   -15.0075 -14.9801 -14.9479 -14.9057 -14.8765 -14.8523 -14.8015 -14.7835
   -14.7522 -14.7166 -14.6978 -14.6831 -14.6512 -14.5911 -14.3377 -14.2921
   -13.0988 -13.0213  -7.4086  -6.0991  -5.6709  -5.0370  -3.7509  -3.2044
    -3.1402  -3.1027  -3.0362  -2.9613  -2.8202  -2.7878  -2.7255  -2.6942
    -2.6211  -2.5831  -2.5565  -2.5058  -2.4642  -2.4155  -2.3996  -2.3562
    -2.3232  -2.3068  -2.2743  -2.2224  -2.2050  -2.1699  -2.1500  -2.1247
    -2.0896  -2.0646  -2.0097  -1.9349  -1.8838  -1.8506  -1.7679  -1.7010
    -1.6580  -1.6086  -1.5225  -1.4772  -1.4402  -1.2893  -1.2663  -1.1831
    -1.1227  -1.0102  -0.9849  -0.9606  -0.8966  -0.8583  -0.8080  -0.7739
    -0.7260  -0.6907  -0.6423  -0.5947  -0.5607  -0.5424  -0.4723  -0.4464
    -0.3946  -0.3740  -0.3582  -0.3026  -0.2738  -0.2297  -0.2002  -0.1578
    -0.1174  -0.0735  -0.0430   0.0351   0.0495   0.0976   0.1322   0.1990
     0.2478   0.2803   0.3431   0.3771   0.4274   0.5512   0.5674   0.6072
     0.6483   0.6744   0.7767   0.8084   0.8590   0.8974   0.9092   0.9656
     1.0314   1.0510   1.1189   1.4493   1.6336   1.7329   1.8657   1.9241
     3.5914   3.6814   3.7078   3.9797   4.0115   4.0497   4.0941   4.1226
     4.1736   4.1906

          k =-0.0760-0.0000 0.0000 ( 17886 PWs)   bands (ev):

   -55.6905 -55.6566 -55.4750 -55.4730 -55.4413 -55.3326 -55.3147 -55.2808
   -55.2795 -55.2238 -55.1788 -55.0939 -55.0848 -54.9788 -54.5982 -54.5642
   -32.1662 -31.9859 -31.9836 -31.9279 -31.8379 -31.8302 -31.8138 -31.7948
   -31.7868 -31.7586 -31.7492 -31.7374 -31.6941 -31.6808 -31.6769 -31.6465
   -31.6325 -31.6097 -31.5830 -31.5785 -31.5756 -31.5598 -31.5503 -31.5373
   -31.4933 -31.4853 -31.4812 -31.4651 -31.4565 -31.4390 -31.4283 -31.4228
   -31.4194 -31.3800 -31.3671 -31.3592 -31.2939 -31.2886 -31.2574 -31.2281
   -31.2030 -31.1914 -31.0005 -30.9288 -30.8966 -30.8190 -30.7332 -30.6213
   -20.7457 -16.2352 -15.9412 -15.7781 -15.7049 -15.5860 -15.5239 -15.4329
   -15.3983 -15.3695 -15.2965 -15.2588 -15.2433 -15.1516 -15.1456 -15.1138
   -15.0231 -14.9450 -14.9137 -14.8709 -14.8282 -14.8139 -14.7716 -14.7503
   -14.7066 -14.6756 -14.6416 -14.6318 -14.5851 -14.5601 -14.2411 -14.2321
   -13.0902 -12.9805  -7.4052  -6.1026  -5.6534  -5.0490  -3.7474  -3.3360
    -3.2211  -3.0616  -2.9726  -2.9100  -2.9009  -2.8856  -2.8598  -2.7768
    -2.7604  -2.7452  -2.7249  -2.6434  -2.5353  -2.4355  -2.4098  -2.3605
    -2.1455  -2.1398  -2.0882  -2.0619  -2.0112  -1.9799  -1.9599  -1.8958
    -1.8937  -1.8845  -1.8578  -1.8434  -1.8051  -1.7830  -1.7416  -1.7355
    -1.6639  -1.6095  -1.5599  -1.5343  -1.3258  -1.2424  -1.2349  -1.1927
    -1.1870  -1.1402  -1.1162  -1.0751  -1.0602  -0.9880  -0.9246  -0.8525
    -0.8087  -0.7927  -0.7500  -0.7370  -0.7229  -0.6763  -0.6509  -0.5484
    -0.4681  -0.4576  -0.3432  -0.2485  -0.1792  -0.1435  -0.1130  -0.0854
     0.0083   0.0107   0.0392   0.0623   0.1129   0.1763   0.1787   0.2321
     0.2399   0.2833   0.3362   0.3630   0.4811   0.5367   0.5915   0.6125
     0.6665   0.7362   0.7608   0.7906   0.8481   0.8982   1.0111   1.0217
     1.0723   1.1677   1.2429   1.4291   1.4602   1.5789   1.7537   1.8930
     3.4953   3.5105   3.6512   3.7875   3.8203   3.9114   4.0007   4.0679
     4.1174   4.1679

          k =-0.0760 0.0419 0.0000 ( 17914 PWs)   bands (ev):

   -55.6855 -55.6615 -55.4727 -55.4702 -55.4463 -55.3297 -55.3099 -55.2844
   -55.2837 -55.2242 -55.1772 -55.0956 -55.0835 -54.9801 -54.5933 -54.5693
   -32.1124 -31.9795 -31.9679 -31.8976 -31.8440 -31.8254 -31.7810 -31.7647
   -31.7624 -31.7594 -31.7412 -31.7138 -31.6814 -31.6810 -31.6754 -31.6496
   -31.6333 -31.6296 -31.6134 -31.5641 -31.5593 -31.5475 -31.5385 -31.5328
   -31.4953 -31.4933 -31.4919 -31.4893 -31.4780 -31.4755 -31.4639 -31.4536
   -31.4249 -31.3778 -31.3744 -31.3542 -31.2973 -31.2940 -31.2863 -31.2580
   -31.2260 -31.1923 -30.9469 -30.9242 -30.9013 -30.8066 -30.7459 -30.6784
   -20.7452 -16.2308 -15.8313 -15.6787 -15.6315 -15.5083 -15.4330 -15.3947
   -15.3825 -15.3125 -15.2425 -15.2187 -15.2084 -15.1344 -15.1219 -15.0757
   -15.0407 -14.9811 -14.9290 -14.9206 -14.9007 -14.8805 -14.8266 -14.7937
   -14.7687 -14.7182 -14.6942 -14.6531 -14.6479 -14.5913 -14.3343 -14.2937
   -13.0968 -13.0217  -7.4073  -6.1018  -5.6652  -5.0370  -3.7408  -3.1785
    -3.1516  -2.9369  -2.7198  -2.7059  -2.6867  -2.6524  -2.6065  -2.6024
    -2.5928  -2.5699  -2.5305  -2.5170  -2.4815  -2.4257  -2.3976  -2.3456
    -2.3188  -2.3020  -2.2500  -2.1935  -2.1337  -2.1011  -2.0671  -2.0528
    -2.0483  -2.0361  -2.0010  -1.9652  -1.8850  -1.8249  -1.7037  -1.5917
    -1.5828  -1.5570  -1.5289  -1.4369  -1.4358  -1.3948  -1.2944  -1.1554
    -1.1363  -1.0543  -1.0274  -1.0135  -0.9812  -0.8822  -0.8742  -0.8707
    -0.8247  -0.8073  -0.7442  -0.7186  -0.6849  -0.6430  -0.6069  -0.5797
    -0.5491  -0.5104  -0.4588  -0.4017  -0.3836  -0.3266  -0.3067  -0.2837
    -0.2762  -0.2139  -0.1177  -0.0806  -0.0517   0.0683   0.1329   0.1914
     0.2305   0.3023   0.3440   0.4096   0.4669   0.4975   0.5277   0.6353
     0.7085   0.7515   0.8255   0.8536   0.8666   0.9337   0.9525   0.9669
     1.0526   1.0937   1.1759   1.2260   1.6457   1.7355   1.7900   1.9127
     3.5359   3.6687   3.7041   3.8610   3.9107   3.9879   4.1179   4.1554
     4.2016   4.2451

          k =-0.0760-0.0839 0.0000 ( 17948 PWs)   bands (ev):

   -55.6741 -55.6730 -55.4724 -55.4595 -55.4570 -55.3264 -55.3012 -55.2931
   -55.2871 -55.2246 -55.1754 -55.0975 -55.0823 -54.9814 -54.5819 -54.5807
   -31.9804 -31.9798 -31.9701 -31.9692 -31.7947 -31.7934 -31.7809 -31.7753
   -31.7408 -31.7204 -31.6942 -31.6865 -31.6838 -31.6680 -31.6526 -31.6481
   -31.6300 -31.6163 -31.6155 -31.6099 -31.5924 -31.5508 -31.5459 -31.5234
   -31.5223 -31.5166 -31.5124 -31.5118 -31.5036 -31.4854 -31.4633 -31.4553
   -31.4278 -31.3876 -31.3739 -31.3514 -31.3394 -31.3244 -31.2965 -31.2842
   -31.2347 -31.1933 -30.9130 -30.9122 -30.8153 -30.8140 -30.7768 -30.7760
   -20.7448 -16.2269 -15.6160 -15.5484 -15.5276 -15.5185 -15.4042 -15.3715
   -15.2395 -15.2383 -15.2154 -15.1565 -15.1462 -15.1152 -15.1068 -15.0818
   -15.0491 -15.0241 -15.0013 -14.9712 -14.9606 -14.9169 -14.8903 -14.8866
   -14.8731 -14.8240 -14.7372 -14.6574 -14.6506 -14.5742 -14.4922 -14.3650
   -13.0837 -13.0831  -7.4094  -6.1010  -5.6763  -5.0278  -3.7351  -3.1019
    -2.8951  -2.7472  -2.7209  -2.5928  -2.5739  -2.4798  -2.4718  -2.4285
    -2.4150  -2.3753  -2.3481  -2.3309  -2.2885  -2.2710  -2.2558  -2.2515
    -2.2333  -2.2027  -2.1943  -2.1901  -2.1812  -2.1511  -2.1235  -2.1093
    -2.0930  -2.0465  -2.0196  -1.9191  -1.8156  -1.7905  -1.7171  -1.7123
    -1.7101  -1.6977  -1.6752  -1.6514  -1.5666  -1.4766  -1.4391  -1.3827
    -1.2082  -1.1943  -1.1716  -1.1497  -1.0930  -1.0447  -1.0162  -0.9645
    -0.9525  -0.9284  -0.8552  -0.7925  -0.7198  -0.6993  -0.6308  -0.5820
    -0.5647  -0.4740  -0.4607  -0.4278  -0.3872  -0.3729  -0.3438  -0.2902
    -0.2751  -0.2562  -0.2273  -0.1891  -0.1537   0.0155   0.1491   0.2121
     0.2304   0.2670   0.3211   0.3869   0.4108   0.5943   0.6070   0.6115
     0.6504   0.7095   0.7352   0.7521   0.8429   0.9585   0.9854   1.0218
     1.0493   1.0686   1.1493   1.2088   1.7988   1.8070   1.8499   1.8506
     3.4575   3.9928   4.0118   4.0132   4.0142   4.1094   4.1335   4.1418
     4.2064   4.2692

     the Fermi energy is     3.4502 ev

!    total energy              =   -2971.49140116 Ry
     estimated scf accuracy    <       0.00000006 Ry
     smearing contrib. (-TS)   =      -0.01885997 Ry
     internal energy E=F+TS    =   -2971.47254119 Ry

     The total energy is F=E-TS. E is the sum of the following terms:
     one-electron contribution =  -23618.29317784 Ry
     hartree contribution      =   11903.01049169 Ry
     xc contribution           =    -492.36840327 Ry
     ewald contribution        =    9236.17639555 Ry
     electric field correction =       0.00215267 Ry

     convergence has been achieved in  76 iterations

     Forces acting on atoms (cartesian axes, Ry/au):

     atom    1 type  1   force =     0.00001815   -0.00040532    0.09768020
     atom    2 type  1   force =    -0.00003876    0.00022470   -0.17213322
     atom    3 type  2   force =     0.00004979   -0.00005033   -0.02537471
     atom    4 type  2   force =     0.00001551   -0.00144492    0.04759513
     atom    5 type  2   force =    -0.00616531   -0.00240076   -0.00085444
     atom    6 type  2   force =     0.00778706   -0.00181837   -0.00151854
     atom    7 type  1   force =    -0.00008394   -0.00484746    0.01888906
     atom    8 type  1   force =     0.00022494    0.01221466    0.02701846
     atom    9 type  2   force =    -0.00010482   -0.00016829   -0.00011537
     atom   10 type  2   force =    -0.00111926    0.00132203   -0.02502423
     atom   11 type  2   force =     0.00014608   -0.00003445    0.00007768
     atom   12 type  2   force =     0.00005775   -0.00003805    0.00000541
     atom   13 type  1   force =     0.00034469   -0.00022030   -0.00017616
     atom   14 type  1   force =     0.00005250   -0.00014250   -0.00016219
     atom   15 type  2   force =    -0.00028797   -0.00018865   -0.00026443
     atom   16 type  2   force =    -0.00003360   -0.00009494   -0.00051008
     atom   17 type  2   force =    -0.00015736   -0.00007442   -0.00005700
     atom   18 type  2   force =     0.00000776   -0.00016218   -0.00004117
     atom   19 type  1   force =    -0.00013257   -0.00000799   -0.00041534
     atom   20 type  1   force =    -0.00023860   -0.00015508    0.00016661
     atom   21 type  2   force =     0.00005374    0.00008559    0.10224019
     atom   22 type  2   force =     0.00010483    0.00005669   -0.00021178
     atom   23 type  2   force =    -0.07352843   -0.00015986   -0.02809925
     atom   24 type  2   force =     0.07344743    0.00028190   -0.02817466
     atom   25 type  1   force =     0.00013870   -0.00033391    0.09747753
     atom   26 type  1   force =    -0.00003770   -0.00130830   -0.17227072
     atom   27 type  2   force =     0.00009395   -0.00030625   -0.02400838
     atom   28 type  2   force =     0.00004204    0.00030977    0.04322026
     atom   29 type  2   force =    -0.00505687    0.00403282   -0.00277681
     atom   30 type  2   force =     0.00656628    0.00442227   -0.00333316
     atom   31 type  1   force =     0.00001594    0.00580291    0.00692183
     atom   32 type  1   force =     0.00029193   -0.01518740    0.02659661
     atom   33 type  2   force =     0.00038286   -0.00004837    0.00009400
     atom   34 type  2   force =    -0.00138606    0.00099729   -0.02676130
     atom   35 type  2   force =     0.00038116    0.00005375    0.00004805
     atom   36 type  2   force =    -0.00029023   -0.00006080   -0.00007154
     atom   37 type  1   force =     0.00009930   -0.00052711   -0.00011603
     atom   38 type  1   force =     0.00024715    0.00013426    0.00011234
     atom   39 type  2   force =    -0.00012414   -0.00015845   -0.00006760
     atom   40 type  2   force =     0.00005493    0.00003053   -0.00012597
     atom   41 type  2   force =    -0.00018480    0.00009684   -0.00020029
     atom   42 type  2   force =    -0.00029314   -0.00011796    0.00003094
     atom   43 type  1   force =    -0.00007522    0.00021055   -0.00069356
     atom   44 type  1   force =    -0.00030243    0.00034528    0.00015696
     atom   45 type  2   force =     0.00004887   -0.00008182    0.10203700
     atom   46 type  2   force =    -0.07356777   -0.00007746   -0.02813616
     atom   47 type  2   force =     0.07347248    0.00036043   -0.02818418
     atom   48 type  3   force =     0.00277414   -0.00043841   -0.00198620
     atom   49 type  3   force =    -0.00041311   -0.00036286   -0.00044205
     atom   50 type  4   force =    -0.02316544    0.00173823   -0.00041994
     atom   51 type  5   force =     0.01080644   -0.00189902   -0.00230169
     atom   52 type  5   force =     0.00885238    0.00056616    0.00510211
     atom   53 type  2   force =     0.00034543    0.00069294   -0.00021252
     atom   54 type  5   force =    -0.00013667   -0.00065761   -0.00022971

     Total force =     0.366063     Total SCF correction =     0.000781
  @ DRIVER MODE: Message from server: STATUS
  @ DRIVER MODE: Message from server: GETFORCE
  @ DRIVER MODE: Returning v,forces,stress,ensemble 

     Writing output data file ./calc.save/
  @ DRIVER MODE: Message from server: EXIT
  @ DRIVE MODE: Exiting  
 
     init_run     :     13.36s CPU     13.71s WALL (       1 calls)
     electrons    :   1323.59s CPU   1355.69s WALL (       1 calls)
     forces       :      2.81s CPU      2.94s WALL (       1 calls)

     Called by init_run:
     wfcinit      :      5.81s CPU      5.95s WALL (       1 calls)
     potinit      :      6.79s CPU      6.87s WALL (       1 calls)
     hinit0       :      0.36s CPU      0.37s WALL (       1 calls)

     Called by electrons:
     c_bands      :   1102.32s CPU   1118.42s WALL (      76 calls)
     sum_band     :    150.90s CPU    158.56s WALL (      76 calls)
     v_of_rho     :     52.92s CPU     55.29s WALL (      77 calls)
     newd         :     21.41s CPU     27.36s WALL (      77 calls)
     mix_rho      :      1.94s CPU      1.99s WALL (      76 calls)
     vdW_kernel   :      5.84s CPU      5.86s WALL (       1 calls)

     Called by c_bands:
     init_us_2    :      7.54s CPU      7.57s WALL (    1540 calls)
     cegterg      :   1078.10s CPU   1093.72s WALL (     776 calls)

     Called by *egterg:
     cdiaghg      :    153.19s CPU    153.89s WALL (    5759 calls)
     h_psi        :    618.36s CPU    628.32s WALL (    5771 calls)
     s_psi        :     76.66s CPU     76.89s WALL (    5771 calls)
     g_psi        :      2.12s CPU      2.14s WALL (    4985 calls)

     Called by h_psi:
     h_psi:calbec :     74.09s CPU     75.33s WALL (    5771 calls)
     vloc_psi     :    464.34s CPU    468.54s WALL (    5771 calls)
     add_vuspsi   :     76.87s CPU     79.20s WALL (    5771 calls)

     General routines
     calbec       :    100.57s CPU    101.88s WALL (    6571 calls)
     fft          :     27.49s CPU     27.81s WALL (    4851 calls)
     ffts         :      0.17s CPU      0.18s WALL (     153 calls)
     fftw         :    523.66s CPU    528.49s WALL (  995032 calls)
     interpolate  :      0.54s CPU      0.55s WALL (      77 calls)
     davcio       :      0.00s CPU      0.44s WALL (      10 calls)
 
     Parallel routines
 
     PWSCF        :  22m20.07s CPU  22m54.06s WALL

 
   This run was terminated on:  16:35:27  23Sep2021            

=------------------------------------------------------------------------------=
   JOB DONE.
=------------------------------------------------------------------------------=
