
     Program PWSCF v.6.7GPU starts on 24Aug2021 at 12:10:25 

     This program is part of the open-source Quantum ESPRESSO suite
     for quantum simulation of materials; please cite
         "P. Giannozzi et al., J. Phys.:Condens. Matter 21 395502 (2009);
         "P. Giannozzi et al., J. Phys.:Condens. Matter 29 465901 (2017);
         "P. Giannozzi et al., J. Chem. Phys. 152 154105 (2020);
          URL http://www.quantum-espresso.org", 
     in publications or presentations arising from this work. More details at
     http://www.quantum-espresso.org/quote

     Parallel version (MPI), running on    72 processors

     MPI processes distributed on     4 nodes
     R & G space division:  proc/nbgrp/npool/nimage =      72
     Reading input from /storage/home/hcoda1/3/ntian30/research/carbon/CH2_vib/ads_slab/CH2NH_a/out_0007/pw.inp
Warning: card &CELL ignored
Warning: card   CELL_DYNAMICS='IPI', ignored
Warning: card / ignored

     Current dimensions of program PWSCF are:
     Max number of different atomic species (ntypx) = 10
     Max number of k-points (npk) =  40000
     Max angular momentum in pseudopotentials (lmaxx) =  3
     Presently no symmetry can be used with electric field

     Message from routine cell_base_init:
     DEPRECATED: use true lattice parameter, not A to a.u. conversion factor

     **************************************************************************
     Initializing libbeef V0.1.2 with the BEEF-vdW functional.
     Citation: Wellendorff et al., PRB 85, 235149 (2012).
     **************************************************************************


     IMPORTANT: XC functional enforced from input :
     Exchange-correlation= BEEF-VDW
                           (   1   4  43  14   2   0   0)
     Any further DFT definition will be discarded
     Please, verify this is what you really want


     Subspace diagonalization in iterative solution of the eigenvalue problem:
     one sub-group per band group will be used
     scalapack distributed-memory algorithm (size of sub-group:  8*  8 procs)

  @ DRIVER MODE: Connecting to 
 qe_1139763_2641438.sched-torque.pace.gatech.eduzuezj61c_scratch
  using UNIX socket
  @ DRIVER MODE: Message from server: STATUS
  @ DRIVER MODE: Message from server: INIT
  @ DRIVER MODE: Receiving replica           0          -1
  @ DRIVER MODE: Receiving encoded integer          25
  @ DRIVER MODE:  SCF:  T  FORCE:  T  STRESS:  F  VC:  F  ENSEMBLE:  F
  @ DRIVER MODE:  SCF:  T  FORCE:  T  STRESS:  F  VC:  F  ENSEMBLE:  F
 
     Parallelization info
     --------------------
     sticks:   dense  smooth     PW     G-vecs:    dense   smooth      PW
     Min          45      18      5                 7865     1988     295
     Max          46      19      6                 7884     2001     312
     Sum        3275    1317    379               566857   143421   21985
 
     Using Slab Decomposition
 


     bravais-lattice index     =            0
     lattice parameter (alat)  =       1.8897  a.u.
     unit-cell volume          =    6658.9804 (a.u.)^3
     number of atoms/cell      =           52
     number of atomic types    =            5
     number of electrons       =       390.00
     number of Kohn-Sham states=          205
     kinetic-energy cutoff     =      29.3995  Ry
     charge density cutoff     =     293.9946  Ry
     scf convergence threshold =      7.3E-08
     mixing beta               =       0.0500
     number of iterations used =            8  plain     mixing
     Exchange-correlation= BEEF-VDW
                           (   1   4  43  14   2   0   0)

     celldm(1)=   1.889726  celldm(2)=   0.000000  celldm(3)=   0.000000
     celldm(4)=   0.000000  celldm(5)=   0.000000  celldm(6)=   0.000000

     crystal axes: (cart. coord. in units of alat)
               a(1) = (   6.579727   0.000000   0.000000 )  
               a(2) = (  -0.000775   5.961596   0.000000 )  
               a(3) = (   0.000000   0.000000  25.155947 )  

     reciprocal axes: (cart. coord. in units 2 pi/alat)
               b(1) = (  0.151982  0.000020  0.000000 )  
               b(2) = (  0.000000  0.167740  0.000000 )  
               b(3) = (  0.000000  0.000000  0.039752 )  


     PseudoPot. # 1 for Ti read from file:
     /storage/coda1/p-amedford6/0/shared/rich_project_chbe-medford/medford-share/data/pseudos_module/espresso/nninc/pbe/van/Ti.UPF
     MD5 check sum: 8e4df49b7f0d34bbd5052bf3f5ea0213
     Pseudo is Ultrasoft, Zval = 12.0
     Generated by new atomic code, or converted to UPF format
     Using radial grid of  851 points,  6 beta functions with: 
                l(1) =   0
                l(2) =   0
                l(3) =   1
                l(4) =   1
                l(5) =   2
                l(6) =   2
     Q(r) pseudized with  8 coefficients,  rinner =    1.000   1.000   1.000
                                                       1.000   1.000

     PseudoPot. # 2 for O  read from file:
     /storage/coda1/p-amedford6/0/shared/rich_project_chbe-medford/medford-share/data/pseudos_module/espresso/nninc/pbe/van/O.UPF
     MD5 check sum: 78c19812648e8988a0fe644b0f25305e
     Pseudo is Ultrasoft, Zval =  6.0
     Generated by new atomic code, or converted to UPF format
     Using radial grid of  737 points,  4 beta functions with: 
                l(1) =   0
                l(2) =   0
                l(3) =   1
                l(4) =   1
     Q(r) pseudized with  8 coefficients,  rinner =    0.800   0.800   0.800


     PseudoPot. # 3 for N  read from file:
     /storage/coda1/p-amedford6/0/shared/rich_project_chbe-medford/medford-share/data/pseudos_module/espresso/nninc/pbe/van/N.UPF
     MD5 check sum: 90d10febe142ad51ac9d5be1deb811c4
     Pseudo is Ultrasoft, Zval =  5.0
     Generated by new atomic code, or converted to UPF format
     Using radial grid of  729 points,  4 beta functions with: 
                l(1) =   0
                l(2) =   0
                l(3) =   1
                l(4) =   1
     Q(r) pseudized with  8 coefficients,  rinner =    0.800   0.800   0.800


     PseudoPot. # 4 for C  read from file:
     /storage/coda1/p-amedford6/0/shared/rich_project_chbe-medford/medford-share/data/pseudos_module/espresso/nninc/pbe/van/C.UPF
     MD5 check sum: 1a69bf6b8db32088f5b2163dbdb77a27
     Pseudo is Ultrasoft, Zval =  4.0
     Generated by new atomic code, or converted to UPF format
     Using radial grid of  721 points,  4 beta functions with: 
                l(1) =   0
                l(2) =   0
                l(3) =   1
                l(4) =   1
     Q(r) pseudized with  8 coefficients,  rinner =    0.800   0.800   0.800


     PseudoPot. # 5 for H  read from file:
     /storage/coda1/p-amedford6/0/shared/rich_project_chbe-medford/medford-share/data/pseudos_module/espresso/nninc/pbe/van/H.UPF
     MD5 check sum: b5ee9d7bfd3a09ee7748110bda690ff7
     Pseudo is Ultrasoft, Zval =  1.0
     Generated by new atomic code, or converted to UPF format
     Using radial grid of  615 points,  1 beta functions with: 
                l(1) =   0
     Q(r) pseudized with  8 coefficients,  rinner =    0.800

     atomic species   valence    mass     pseudopotential
        Ti1           12.00    47.86700     Ti( 1.00)
        O1             6.00    15.99900     O ( 1.00)
        N1             5.00    14.00700     N ( 1.00)
        C1             4.00    12.01100     C ( 1.00)
        H1             1.00     1.00800     H ( 1.00)

     No symmetry found



   Cartesian axes

     site n.     atom                  positions (alat units)
         1           Ti1 tau(   1) = (   0.0004258   2.9801865   6.0000000  )
         2           Ti1 tau(   2) = (   3.2906075   1.4906267   6.0002472  )
         3           O1  tau(   3) = (   0.0006271   0.0005054   7.9858123  )
         4           O1  tau(   4) = (   3.2906025   0.0005020   7.3038282  )
         5           O1  tau(   5) = (   4.5942328   1.4918067   9.2879030  )
         6           O1  tau(   6) = (   1.9868534   1.4903216   9.2879459  )
         7           Ti1 tau(   7) = (   3.2907910   2.8959150   9.1758416  )
         8           Ti1 tau(   8) = (   0.0015273   1.4827037   9.2680791  )
         9           O1  tau(   9) = (   3.2859541   5.9290403  11.3715426  )
        10           O1  tau(  10) = (   0.0116148   5.9584955  10.6183126  )
        11           O1  tau(  11) = (   1.2917987   1.4688796  12.6526629  )
        12           O1  tau(  12) = (   5.2888266   1.4686376  12.6403033  )
        13           Ti1 tau(  13) = (   0.0074927   2.9495069  12.5376589  )
        14           Ti1 tau(  14) = (   3.2957121   1.4606513  12.5174744  )
        15           O1  tau(  15) = (   6.5702453   0.0264740  14.6787910  )
        16           O1  tau(  16) = (   3.3001739   5.9406727  13.9930656  )
        17           O1  tau(  17) = (   4.5367710   1.4643441  16.2106543  )
        18           O1  tau(  18) = (   2.0349547   1.4576396  16.1973481  )
        19           Ti1 tau(  19) = (   3.2821410   2.9383233  15.7467721  )
        20           Ti1 tau(  20) = (   6.5624771   1.3975196  16.0657228  )
        21           O1  tau(  21) = (   3.2904802   0.0005063   4.7018136  )
        22           O1  tau(  22) = (   0.0049924   5.8117904  17.2112648  )
        23           O1  tau(  23) = (   1.3043587   1.4918075   6.0039043  )
        24           O1  tau(  24) = (   5.2767064   1.4903225   6.0039473  )
        25           Ti1 tau(  25) = (   0.0000382   5.9609847   6.0000000  )
        26           Ti1 tau(  26) = (   3.2902200   4.4714249   6.0002472  )
        27           O1  tau(  27) = (   0.0002396   2.9813036   7.9858123  )
        28           O1  tau(  28) = (   3.2902150   2.9813002   7.3038282  )
        29           O1  tau(  29) = (   4.5938453   4.4726049   9.2879030  )
        30           O1  tau(  30) = (   1.9864658   4.4711199   9.2879459  )
        31           Ti1 tau(  31) = (   3.2891106   5.8743827   9.1763621  )
        32           Ti1 tau(  32) = (   0.0006254   4.4649316   9.2693709  )
        33           O1  tau(  33) = (   3.2878059   2.9597088  11.3652031  )
        34           O1  tau(  34) = (   0.0092240   2.9805883  10.6323155  )
        35           O1  tau(  35) = (   1.2887225   4.4431869  12.6829221  )
        36           O1  tau(  36) = (   5.2901277   4.4428847  12.6690855  )
        37           Ti1 tau(  37) = (   0.0035388   5.9380168  12.5099366  )
        38           Ti1 tau(  38) = (   3.2962120   4.4389810  12.5267566  )
        39           O1  tau(  39) = (   6.5655450   2.9014274  14.9049457  )
        40           O1  tau(  40) = (   3.2937888   2.9365130  13.9572806  )
        41           O1  tau(  41) = (   4.5374039   4.4072578  16.1608974  )
        42           O1  tau(  42) = (   2.0345115   4.4188705  16.1151926  )
        43           Ti1 tau(  43) = (   3.2925710   5.9161036  15.7896908  )
        44           Ti1 tau(  44) = (   0.0121651   4.6006060  15.8502786  )
        45           O1  tau(  45) = (   3.2900926   2.9813045   4.7018136  )
        46           O1  tau(  46) = (   1.3039711   4.4726057   6.0039043  )
        47           O1  tau(  47) = (   5.2763189   4.4711207   6.0039473  )
        48           N1  tau(  48) = (   6.5581919   2.6818180  17.9522317  )
        49           C1  tau(  49) = (   0.8303426   2.5546117  18.8965076  )
        50           H1  tau(  50) = (   0.6793733   2.9585088  19.8916666  )
        51           H1  tau(  51) = (   1.7584391   2.0155774  18.6961775  )
        52           H1  tau(  52) = (   5.7198555   3.1867788  18.2393814  )

     number of k points=    10  Fermi-Dirac smearing, width (Ry)=  0.0073
                       cart. coord. in units 2pi/alat
        k(    1) = (   0.0000000   0.0000000   0.0000000), wk =   0.1250000
        k(    2) = (   0.0000000   0.0419351   0.0000000), wk =   0.2500000
        k(    3) = (   0.0000000  -0.0838702   0.0000000), wk =   0.1250000
        k(    4) = (   0.0379955   0.0000049   0.0000000), wk =   0.2500000
        k(    5) = (   0.0379955   0.0419400   0.0000000), wk =   0.2500000
        k(    6) = (   0.0379955  -0.0838652   0.0000000), wk =   0.2500000
        k(    7) = (   0.0379955  -0.0419301   0.0000000), wk =   0.2500000
        k(    8) = (  -0.0759910  -0.0000099   0.0000000), wk =   0.1250000
        k(    9) = (  -0.0759910   0.0419252   0.0000000), wk =   0.2500000
        k(   10) = (  -0.0759910  -0.0838800   0.0000000), wk =   0.1250000

     Dense  grid:   566857 G-vectors     FFT dimensions: (  72,  64, 270)

     Smooth grid:   143421 G-vectors     FFT dimensions: (  45,  40, 180)

     Estimated max dynamical RAM per process >      56.41 MB

     Estimated total dynamical RAM >       3.97 GB
     Cannot read rho : file not found

     Initial potential from superposition of free atoms

     starting charge  373.99917, renormalised to  390.00000

     negative rho (up, down):  1.699E-02 0.000E+00


     %%%%%%%%%%%%%%%%%%%%%%%%%%%%%%%%%%%%%%%%%%%%%%%%%%%%%%%%%%%%%%%%%%%%%%%%
     %                                                                      %
     % You are using vdW-DF, which was implemented by the Thonhauser group. %
     % Please cite the following two papers that made this development      %
     % possible and the two reviews that describe the various versions:     %
     %                                                                      %
     %   T. Thonhauser et al., PRL 115, 136402 (2015).                      %
     %   T. Thonhauser et al., PRB 76, 125112 (2007).                       %
     %   K. Berland et al., Rep. Prog. Phys. 78, 066501 (2015).             %
     %   D.C. Langreth et al., J. Phys.: Condens. Matter 21, 084203 (2009). %
     %                                                                      %
     %                                                                      %
     % If you are calculating the stress with vdW-DF, please also cite:     %
     %                                                                      %
     %   R. Sabatini et al., J. Phys.: Condens. Matter 24, 424209 (2012).   %
     %                                                                      %
     %%%%%%%%%%%%%%%%%%%%%%%%%%%%%%%%%%%%%%%%%%%%%%%%%%%%%%%%%%%%%%%%%%%%%%%%


 
     Adding external electric field

     Computed dipole along edir(3) : 
        Dipole               -6.0480 Ry au,        -15.3725 Debye
        Dipole field         -0.0114 Ry au, 
 
        Potential amp.        1.0580 Ry
        Total length         46.3494 bohr
 
     Starting wfcs are  295 atomic wfcs
  @ DRIVER MODE: Message from server: STATUS
  @ DRIVER MODE: Message from server: POSDATA
  @ DRIVER MODE: Reading and sharing cell 
  @ DRIVER MODE: Reading and sharing positions 
  @ DRIVER MODE: Received positions 

     total cpu time spent up to now is       23.4 secs

     Self-consistent Calculation

     iteration #  1     ecut=    29.40 Ry     beta= 0.05
     Davidson diagonalization with overlap
     c_bands:  1 eigenvalues not converged
     c_bands:  1 eigenvalues not converged
     ethr =  1.00E-05,  avg # of iterations = 16.8

     negative rho (up, down):  1.630E-02 0.000E+00
 
     Adding external electric field

     Computed dipole along edir(3) : 
        Dipole               26.9562 Ry au,         68.5159 Debye
        Dipole field          0.0509 Ry au, 
 
        Potential amp.       -4.7156 Ry
        Total length         46.3494 bohr
 

     total cpu time spent up to now is       55.7 secs

     total energy              =   -2758.76286894 Ry
     estimated scf accuracy    <    1760.46339722 Ry

     iteration #  2     ecut=    29.40 Ry     beta= 0.05
     Davidson diagonalization with overlap
     c_bands:  1 eigenvalues not converged
     ethr =  1.00E-02,  avg # of iterations = 18.4

     negative rho (up, down):  6.037E-03 0.000E+00
 
     Adding external electric field

     Computed dipole along edir(3) : 
        Dipole               -2.5272 Ry au,         -6.4235 Debye
        Dipole field         -0.0048 Ry au, 
 
        Potential amp.        0.4421 Ry
        Total length         46.3494 bohr
 

     total cpu time spent up to now is       94.7 secs

     total energy              =   -2640.74916208 Ry
     estimated scf accuracy    <   37558.23009932 Ry

     iteration #  3     ecut=    29.40 Ry     beta= 0.05
     Davidson diagonalization with overlap
     ethr =  1.00E-02,  avg # of iterations = 14.8

     negative rho (up, down):  6.106E-03 0.000E+00
 
     Adding external electric field

     Computed dipole along edir(3) : 
        Dipole               -3.7095 Ry au,         -9.4286 Debye
        Dipole field         -0.0070 Ry au, 
 
        Potential amp.        0.6489 Ry
        Total length         46.3494 bohr
 

     total cpu time spent up to now is      200.8 secs

     total energy              =   -2906.86017844 Ry
     estimated scf accuracy    <    1564.99114764 Ry

     iteration #  4     ecut=    29.40 Ry     beta= 0.05
     Davidson diagonalization with overlap
     ethr =  1.00E-02,  avg # of iterations =  5.3

     negative rho (up, down):  6.301E-03 0.000E+00
 
     Adding external electric field

     Computed dipole along edir(3) : 
        Dipole               -4.9675 Ry au,        -12.6262 Debye
        Dipole field         -0.0094 Ry au, 
 
        Potential amp.        0.8690 Ry
        Total length         46.3494 bohr
 

     total cpu time spent up to now is      211.8 secs

     total energy              =   -2893.03142994 Ry
     estimated scf accuracy    <    1277.46700758 Ry

     iteration #  5     ecut=    29.40 Ry     beta= 0.05
     Davidson diagonalization with overlap
     ethr =  1.00E-02,  avg # of iterations = 12.3

     negative rho (up, down):  5.895E-03 0.000E+00
 
     Adding external electric field

     Computed dipole along edir(3) : 
        Dipole               -4.5475 Ry au,        -11.5587 Debye
        Dipole field         -0.0086 Ry au, 
 
        Potential amp.        0.7955 Ry
        Total length         46.3494 bohr
 

     total cpu time spent up to now is      223.9 secs

     total energy              =   -2921.92669925 Ry
     estimated scf accuracy    <      18.27745344 Ry

     iteration #  6     ecut=    29.40 Ry     beta= 0.05
     Davidson diagonalization with overlap
     ethr =  4.69E-03,  avg # of iterations =  1.4

     negative rho (up, down):  6.267E-03 0.000E+00
 
     Adding external electric field

     Computed dipole along edir(3) : 
        Dipole               -2.1809 Ry au,         -5.5434 Debye
        Dipole field         -0.0041 Ry au, 
 
        Potential amp.        0.3815 Ry
        Total length         46.3494 bohr
 

     total cpu time spent up to now is      227.7 secs

     total energy              =   -2917.96798787 Ry
     estimated scf accuracy    <      15.78068800 Ry

     iteration #  7     ecut=    29.40 Ry     beta= 0.05
     Davidson diagonalization with overlap
     ethr =  4.05E-03,  avg # of iterations = 14.9

     negative rho (up, down):  6.249E-03 0.000E+00
 
     Adding external electric field

     Computed dipole along edir(3) : 
        Dipole               -2.0831 Ry au,         -5.2947 Debye
        Dipole field         -0.0039 Ry au, 
 
        Potential amp.        0.3644 Ry
        Total length         46.3494 bohr
 

     total cpu time spent up to now is      240.1 secs

     total energy              =   -2921.09752399 Ry
     estimated scf accuracy    <     142.00227995 Ry

     iteration #  8     ecut=    29.40 Ry     beta= 0.05
     Davidson diagonalization with overlap
     ethr =  4.05E-03,  avg # of iterations =  1.4

     negative rho (up, down):  6.277E-03 0.000E+00
 
     Adding external electric field

     Computed dipole along edir(3) : 
        Dipole               -1.9971 Ry au,         -5.0761 Debye
        Dipole field         -0.0038 Ry au, 
 
        Potential amp.        0.3494 Ry
        Total length         46.3494 bohr
 

     total cpu time spent up to now is      253.9 secs

     total energy              =   -2921.48044396 Ry
     estimated scf accuracy    <     167.41580346 Ry

     iteration #  9     ecut=    29.40 Ry     beta= 0.05
     Davidson diagonalization with overlap
     ethr =  4.05E-03,  avg # of iterations =  1.0

     negative rho (up, down):  6.242E-03 0.000E+00
 
     Adding external electric field

     Computed dipole along edir(3) : 
        Dipole               -2.3570 Ry au,         -5.9908 Debye
        Dipole field         -0.0044 Ry au, 
 
        Potential amp.        0.4123 Ry
        Total length         46.3494 bohr
 

     total cpu time spent up to now is      270.9 secs

     total energy              =   -2918.92526395 Ry
     estimated scf accuracy    <     175.25255362 Ry

     iteration # 10     ecut=    29.40 Ry     beta= 0.05
     Davidson diagonalization with overlap
     ethr =  4.05E-03,  avg # of iterations =  1.2

     negative rho (up, down):  6.278E-03 0.000E+00
 
     Adding external electric field

     Computed dipole along edir(3) : 
        Dipole               -2.1697 Ry au,         -5.5148 Debye
        Dipole field         -0.0041 Ry au, 
 
        Potential amp.        0.3796 Ry
        Total length         46.3494 bohr
 

     total cpu time spent up to now is      284.8 secs

     total energy              =   -2918.94921823 Ry
     estimated scf accuracy    <      42.32475968 Ry

     iteration # 11     ecut=    29.40 Ry     beta= 0.05
     Davidson diagonalization with overlap
     ethr =  4.05E-03,  avg # of iterations =  2.5

     negative rho (up, down):  6.365E-03 0.000E+00
 
     Adding external electric field

     Computed dipole along edir(3) : 
        Dipole               -1.8498 Ry au,         -4.7016 Debye
        Dipole field         -0.0035 Ry au, 
 
        Potential amp.        0.3236 Ry
        Total length         46.3494 bohr
 

     total cpu time spent up to now is      289.8 secs

     total energy              =   -2918.20575507 Ry
     estimated scf accuracy    <      38.05623012 Ry

     iteration # 12     ecut=    29.40 Ry     beta= 0.05
     Davidson diagonalization with overlap
     c_bands:  1 eigenvalues not converged
     ethr =  4.05E-03,  avg # of iterations = 11.9

     negative rho (up, down):  6.333E-03 0.000E+00
 
     Adding external electric field

     Computed dipole along edir(3) : 
        Dipole               -1.5602 Ry au,         -3.9656 Debye
        Dipole field         -0.0029 Ry au, 
 
        Potential amp.        0.2729 Ry
        Total length         46.3494 bohr
 

     total cpu time spent up to now is      300.2 secs

     total energy              =   -2919.59659798 Ry
     estimated scf accuracy    <      12.09913091 Ry

     iteration # 13     ecut=    29.40 Ry     beta= 0.05
     Davidson diagonalization with overlap
     ethr =  3.10E-03,  avg # of iterations =  1.2

     negative rho (up, down):  6.445E-03 0.000E+00
 
     Adding external electric field

     Computed dipole along edir(3) : 
        Dipole               -1.8465 Ry au,         -4.6934 Debye
        Dipole field         -0.0035 Ry au, 
 
        Potential amp.        0.3230 Ry
        Total length         46.3494 bohr
 

     total cpu time spent up to now is      404.6 secs

     total energy              =   -2919.98654958 Ry
     estimated scf accuracy    <      19.75812232 Ry

     iteration # 14     ecut=    29.40 Ry     beta= 0.05
     Davidson diagonalization with overlap
     ethr =  3.10E-03,  avg # of iterations =  1.6

     negative rho (up, down):  6.130E-03 0.000E+00
 
     Adding external electric field

     Computed dipole along edir(3) : 
        Dipole               -1.4117 Ry au,         -3.5882 Debye
        Dipole field         -0.0027 Ry au, 
 
        Potential amp.        0.2470 Ry
        Total length         46.3494 bohr
 

     total cpu time spent up to now is      429.4 secs

     total energy              =   -2919.21813603 Ry
     estimated scf accuracy    <      30.02299206 Ry

     iteration # 15     ecut=    29.40 Ry     beta= 0.05
     Davidson diagonalization with overlap
     ethr =  3.10E-03,  avg # of iterations =  3.0

     negative rho (up, down):  5.820E-03 0.000E+00
 
     Adding external electric field

     Computed dipole along edir(3) : 
        Dipole               -1.0990 Ry au,         -2.7933 Debye
        Dipole field         -0.0021 Ry au, 
 
        Potential amp.        0.1922 Ry
        Total length         46.3494 bohr
 

     total cpu time spent up to now is      433.3 secs

     total energy              =   -2918.74362931 Ry
     estimated scf accuracy    <       8.20411447 Ry

     iteration # 16     ecut=    29.40 Ry     beta= 0.05
     Davidson diagonalization with overlap
     ethr =  2.10E-03,  avg # of iterations =  4.8

     negative rho (up, down):  5.805E-03 0.000E+00
 
     Adding external electric field

     Computed dipole along edir(3) : 
        Dipole               -0.9757 Ry au,         -2.4799 Debye
        Dipole field         -0.0018 Ry au, 
 
        Potential amp.        0.1707 Ry
        Total length         46.3494 bohr
 

     total cpu time spent up to now is      437.8 secs

     total energy              =   -2919.17639084 Ry
     estimated scf accuracy    <       2.15426635 Ry

     iteration # 17     ecut=    29.40 Ry     beta= 0.05
     Davidson diagonalization with overlap
     ethr =  5.52E-04,  avg # of iterations = 12.3

     negative rho (up, down):  5.934E-03 0.000E+00
 
     Adding external electric field

     Computed dipole along edir(3) : 
        Dipole               -1.1836 Ry au,         -3.0083 Debye
        Dipole field         -0.0022 Ry au, 
 
        Potential amp.        0.2070 Ry
        Total length         46.3494 bohr
 

     total cpu time spent up to now is      444.6 secs

     total energy              =   -2919.28664487 Ry
     estimated scf accuracy    <       2.13179968 Ry

     iteration # 18     ecut=    29.40 Ry     beta= 0.05
     Davidson diagonalization with overlap
     ethr =  5.47E-04,  avg # of iterations =  5.5

     negative rho (up, down):  6.081E-03 0.000E+00
 
     Adding external electric field

     Computed dipole along edir(3) : 
        Dipole               -1.2409 Ry au,         -3.1540 Debye
        Dipole field         -0.0023 Ry au, 
 
        Potential amp.        0.2171 Ry
        Total length         46.3494 bohr
 

     total cpu time spent up to now is      449.2 secs

     total energy              =   -2919.31877222 Ry
     estimated scf accuracy    <       2.41015840 Ry

     iteration # 19     ecut=    29.40 Ry     beta= 0.05
     Davidson diagonalization with overlap
     c_bands:  3 eigenvalues not converged
     c_bands:  2 eigenvalues not converged
     ethr =  5.47E-04,  avg # of iterations = 14.1

     negative rho (up, down):  6.121E-03 0.000E+00
 
     Adding external electric field

     Computed dipole along edir(3) : 
        Dipole               -0.5994 Ry au,         -1.5235 Debye
        Dipole field         -0.0011 Ry au, 
 
        Potential amp.        0.1049 Ry
        Total length         46.3494 bohr
 

     total cpu time spent up to now is      458.7 secs

     total energy              =   -2919.46857683 Ry
     estimated scf accuracy    <       3.18131939 Ry

     iteration # 20     ecut=    29.40 Ry     beta= 0.05
     Davidson diagonalization with overlap
     ethr =  5.47E-04,  avg # of iterations =  4.1

     negative rho (up, down):  5.943E-03 0.000E+00
 
     Adding external electric field

     Computed dipole along edir(3) : 
        Dipole               -0.9058 Ry au,         -2.3022 Debye
        Dipole field         -0.0017 Ry au, 
 
        Potential amp.        0.1584 Ry
        Total length         46.3494 bohr
 

     total cpu time spent up to now is      462.9 secs

     total energy              =   -2919.33562762 Ry
     estimated scf accuracy    <       3.94836716 Ry

     iteration # 21     ecut=    29.40 Ry     beta= 0.05
     Davidson diagonalization with overlap
     ethr =  5.47E-04,  avg # of iterations =  1.3

     negative rho (up, down):  5.766E-03 0.000E+00
 
     Adding external electric field

     Computed dipole along edir(3) : 
        Dipole               -0.8800 Ry au,         -2.2367 Debye
        Dipole field         -0.0017 Ry au, 
 
        Potential amp.        0.1539 Ry
        Total length         46.3494 bohr
 

     total cpu time spent up to now is      466.4 secs

     total energy              =   -2919.15535372 Ry
     estimated scf accuracy    <       2.84386567 Ry

     iteration # 22     ecut=    29.40 Ry     beta= 0.05
     Davidson diagonalization with overlap
     ethr =  5.47E-04,  avg # of iterations =  5.1

     negative rho (up, down):  6.052E-03 0.000E+00
 
     Adding external electric field

     Computed dipole along edir(3) : 
        Dipole               -1.0701 Ry au,         -2.7198 Debye
        Dipole field         -0.0020 Ry au, 
 
        Potential amp.        0.1872 Ry
        Total length         46.3494 bohr
 

     total cpu time spent up to now is      471.0 secs

     total energy              =   -2918.86148795 Ry
     estimated scf accuracy    <       1.60524143 Ry

     iteration # 23     ecut=    29.40 Ry     beta= 0.05
     Davidson diagonalization with overlap
     c_bands:  1 eigenvalues not converged
     c_bands:  2 eigenvalues not converged
     c_bands:  1 eigenvalues not converged
     c_bands:  1 eigenvalues not converged
     c_bands:  1 eigenvalues not converged
     c_bands:  1 eigenvalues not converged
     ethr =  4.12E-04,  avg # of iterations = 19.3

     negative rho (up, down):  5.991E-03 0.000E+00
 
     Adding external electric field

     Computed dipole along edir(3) : 
        Dipole               -1.0645 Ry au,         -2.7057 Debye
        Dipole field         -0.0020 Ry au, 
 
        Potential amp.        0.1862 Ry
        Total length         46.3494 bohr
 

     total cpu time spent up to now is      487.7 secs

     total energy              =   -2919.38667946 Ry
     estimated scf accuracy    <       6.46586064 Ry

     iteration # 24     ecut=    29.40 Ry     beta= 0.05
     Davidson diagonalization with overlap
     ethr =  4.12E-04,  avg # of iterations =  1.3

     negative rho (up, down):  6.010E-03 0.000E+00
 
     Adding external electric field

     Computed dipole along edir(3) : 
        Dipole               -0.7495 Ry au,         -1.9051 Debye
        Dipole field         -0.0014 Ry au, 
 
        Potential amp.        0.1311 Ry
        Total length         46.3494 bohr
 

     total cpu time spent up to now is      493.0 secs

     total energy              =   -2919.20848905 Ry
     estimated scf accuracy    <       3.96488775 Ry

     iteration # 25     ecut=    29.40 Ry     beta= 0.05
     Davidson diagonalization with overlap
     ethr =  4.12E-04,  avg # of iterations =  2.0

     negative rho (up, down):  6.118E-03 0.000E+00
 
     Adding external electric field

     Computed dipole along edir(3) : 
        Dipole               -0.2115 Ry au,         -0.5376 Debye
        Dipole field         -0.0004 Ry au, 
 
        Potential amp.        0.0370 Ry
        Total length         46.3494 bohr
 

     total cpu time spent up to now is      497.2 secs

     total energy              =   -2919.09504355 Ry
     estimated scf accuracy    <       2.33783237 Ry

     iteration # 26     ecut=    29.40 Ry     beta= 0.05
     Davidson diagonalization with overlap
     c_bands:  3 eigenvalues not converged
     c_bands:  2 eigenvalues not converged
     c_bands:  1 eigenvalues not converged
     c_bands:  3 eigenvalues not converged
     c_bands:  5 eigenvalues not converged
     c_bands:  2 eigenvalues not converged
     c_bands:  3 eigenvalues not converged
     ethr =  4.12E-04,  avg # of iterations = 20.0

     negative rho (up, down):  6.298E-03 0.000E+00
 
     Adding external electric field

     Computed dipole along edir(3) : 
        Dipole               -0.2105 Ry au,         -0.5350 Debye
        Dipole field         -0.0004 Ry au, 
 
        Potential amp.        0.0368 Ry
        Total length         46.3494 bohr
 

     total cpu time spent up to now is      511.7 secs

     total energy              =   -2919.11223259 Ry
     estimated scf accuracy    <       1.41414336 Ry

     iteration # 27     ecut=    29.40 Ry     beta= 0.05
     Davidson diagonalization with overlap
     ethr =  3.63E-04,  avg # of iterations =  3.5

     negative rho (up, down):  6.270E-03 0.000E+00
 
     Adding external electric field

     Computed dipole along edir(3) : 
        Dipole               -0.3085 Ry au,         -0.7841 Debye
        Dipole field         -0.0006 Ry au, 
 
        Potential amp.        0.0540 Ry
        Total length         46.3494 bohr
 

     total cpu time spent up to now is      520.9 secs

     total energy              =   -2919.18584246 Ry
     estimated scf accuracy    <       1.38736078 Ry

     iteration # 28     ecut=    29.40 Ry     beta= 0.05
     Davidson diagonalization with overlap
     ethr =  3.56E-04,  avg # of iterations =  3.4

     negative rho (up, down):  6.183E-03 0.000E+00
 
     Adding external electric field

     Computed dipole along edir(3) : 
        Dipole               -0.1531 Ry au,         -0.3892 Debye
        Dipole field         -0.0003 Ry au, 
 
        Potential amp.        0.0268 Ry
        Total length         46.3494 bohr
 

     total cpu time spent up to now is      524.9 secs

     total energy              =   -2919.11097541 Ry
     estimated scf accuracy    <       1.70821155 Ry

     iteration # 29     ecut=    29.40 Ry     beta= 0.05
     Davidson diagonalization with overlap
     ethr =  3.56E-04,  avg # of iterations =  2.0

     negative rho (up, down):  6.293E-03 0.000E+00
 
     Adding external electric field

     Computed dipole along edir(3) : 
        Dipole                0.7009 Ry au,          1.7816 Debye
        Dipole field          0.0013 Ry au, 
 
        Potential amp.       -0.1226 Ry
        Total length         46.3494 bohr
 

     total cpu time spent up to now is      529.6 secs

     total energy              =   -2919.00614148 Ry
     estimated scf accuracy    <       1.14845142 Ry

     iteration # 30     ecut=    29.40 Ry     beta= 0.05
     Davidson diagonalization with overlap
     c_bands:  4 eigenvalues not converged
     c_bands:  2 eigenvalues not converged
     c_bands:  1 eigenvalues not converged
     c_bands:  2 eigenvalues not converged
     c_bands:  1 eigenvalues not converged
     c_bands:  3 eigenvalues not converged
     c_bands:  4 eigenvalues not converged
     ethr =  2.94E-04,  avg # of iterations = 19.8

     negative rho (up, down):  6.276E-03 0.000E+00
 
     Adding external electric field

     Computed dipole along edir(3) : 
        Dipole                0.5831 Ry au,          1.4821 Debye
        Dipole field          0.0011 Ry au, 
 
        Potential amp.       -0.1020 Ry
        Total length         46.3494 bohr
 

     total cpu time spent up to now is      559.1 secs

     total energy              =   -2919.20312962 Ry
     estimated scf accuracy    <       2.42151203 Ry

     iteration # 31     ecut=    29.40 Ry     beta= 0.05
     Davidson diagonalization with overlap
     ethr =  2.94E-04,  avg # of iterations =  2.2

     negative rho (up, down):  6.281E-03 0.000E+00
 
     Adding external electric field

     Computed dipole along edir(3) : 
        Dipole                0.4459 Ry au,          1.1334 Debye
        Dipole field          0.0008 Ry au, 
 
        Potential amp.       -0.0780 Ry
        Total length         46.3494 bohr
 

     total cpu time spent up to now is      593.3 secs

     total energy              =   -2919.17327310 Ry
     estimated scf accuracy    <       1.89872171 Ry

     iteration # 32     ecut=    29.40 Ry     beta= 0.05
     Davidson diagonalization with overlap
     ethr =  2.94E-04,  avg # of iterations =  1.1

     negative rho (up, down):  6.344E-03 0.000E+00
 
     Adding external electric field

     Computed dipole along edir(3) : 
        Dipole                0.2512 Ry au,          0.6386 Debye
        Dipole field          0.0005 Ry au, 
 
        Potential amp.       -0.0440 Ry
        Total length         46.3494 bohr
 

     total cpu time spent up to now is      604.9 secs

     total energy              =   -2919.08028530 Ry
     estimated scf accuracy    <       1.58719242 Ry

     iteration # 33     ecut=    29.40 Ry     beta= 0.05
     Davidson diagonalization with overlap
     c_bands:  1 eigenvalues not converged
     c_bands:  2 eigenvalues not converged
     ethr =  2.94E-04,  avg # of iterations = 14.7

     negative rho (up, down):  6.465E-03 0.000E+00
 
     Adding external electric field

     Computed dipole along edir(3) : 
        Dipole                0.3330 Ry au,          0.8465 Debye
        Dipole field          0.0006 Ry au, 
 
        Potential amp.       -0.0583 Ry
        Total length         46.3494 bohr
 

     total cpu time spent up to now is      612.1 secs

     total energy              =   -2919.10259621 Ry
     estimated scf accuracy    <       0.27875569 Ry

     iteration # 34     ecut=    29.40 Ry     beta= 0.05
     Davidson diagonalization with overlap
     c_bands:  3 eigenvalues not converged
     c_bands:  1 eigenvalues not converged
     c_bands:  5 eigenvalues not converged
     c_bands:  3 eigenvalues not converged
     c_bands:  3 eigenvalues not converged
     c_bands:  1 eigenvalues not converged
     c_bands:  1 eigenvalues not converged
     c_bands:  2 eigenvalues not converged
     ethr =  7.15E-05,  avg # of iterations = 20.7

     negative rho (up, down):  6.539E-03 0.000E+00
 
     Adding external electric field

     Computed dipole along edir(3) : 
        Dipole                0.7691 Ry au,          1.9549 Debye
        Dipole field          0.0015 Ry au, 
 
        Potential amp.       -0.1345 Ry
        Total length         46.3494 bohr
 

     total cpu time spent up to now is      632.0 secs

     total energy              =   -2919.08062581 Ry
     estimated scf accuracy    <       0.28892577 Ry

     iteration # 35     ecut=    29.40 Ry     beta= 0.05
     Davidson diagonalization with overlap
     c_bands:  4 eigenvalues not converged
     c_bands:  2 eigenvalues not converged
     c_bands:  2 eigenvalues not converged
     c_bands:  1 eigenvalues not converged
     c_bands:  1 eigenvalues not converged
     c_bands:  1 eigenvalues not converged
     c_bands:  1 eigenvalues not converged
     c_bands:  2 eigenvalues not converged
     c_bands:  2 eigenvalues not converged
     c_bands:  1 eigenvalues not converged
     ethr =  7.15E-05,  avg # of iterations = 20.0

     negative rho (up, down):  6.708E-03 0.000E+00
 
     Adding external electric field

     Computed dipole along edir(3) : 
        Dipole                0.7639 Ry au,          1.9417 Debye
        Dipole field          0.0014 Ry au, 
 
        Potential amp.       -0.1336 Ry
        Total length         46.3494 bohr
 

     total cpu time spent up to now is      651.1 secs

     total energy              =   -2919.10284144 Ry
     estimated scf accuracy    <       1.13671902 Ry

     iteration # 36     ecut=    29.40 Ry     beta= 0.05
     Davidson diagonalization with overlap
     ethr =  7.15E-05,  avg # of iterations = 10.9

     negative rho (up, down):  6.992E-03 0.000E+00
 
     Adding external electric field

     Computed dipole along edir(3) : 
        Dipole                0.8938 Ry au,          2.2719 Debye
        Dipole field          0.0017 Ry au, 
 
        Potential amp.       -0.1564 Ry
        Total length         46.3494 bohr
 

     total cpu time spent up to now is      657.8 secs

     total energy              =   -2919.10933295 Ry
     estimated scf accuracy    <       0.48346464 Ry

     iteration # 37     ecut=    29.40 Ry     beta= 0.05
     Davidson diagonalization with overlap
     c_bands:  1 eigenvalues not converged
     ethr =  7.15E-05,  avg # of iterations =  9.7

     negative rho (up, down):  7.274E-03 0.000E+00
 
     Adding external electric field

     Computed dipole along edir(3) : 
        Dipole                0.9187 Ry au,          2.3350 Debye
        Dipole field          0.0017 Ry au, 
 
        Potential amp.       -0.1607 Ry
        Total length         46.3494 bohr
 

     total cpu time spent up to now is      680.6 secs

     total energy              =   -2919.11182654 Ry
     estimated scf accuracy    <       0.17142520 Ry

     iteration # 38     ecut=    29.40 Ry     beta= 0.05
     Davidson diagonalization with overlap
     c_bands:  4 eigenvalues not converged
     c_bands:  1 eigenvalues not converged
     c_bands:  2 eigenvalues not converged
     ethr =  4.40E-05,  avg # of iterations = 14.4

     negative rho (up, down):  7.503E-03 0.000E+00
 
     Adding external electric field

     Computed dipole along edir(3) : 
        Dipole                0.8702 Ry au,          2.2119 Debye
        Dipole field          0.0016 Ry au, 
 
        Potential amp.       -0.1522 Ry
        Total length         46.3494 bohr
 

     total cpu time spent up to now is      694.0 secs

     total energy              =   -2919.11479137 Ry
     estimated scf accuracy    <       0.08901153 Ry

     iteration # 39     ecut=    29.40 Ry     beta= 0.05
     Davidson diagonalization with overlap
     c_bands:  1 eigenvalues not converged
     c_bands:  2 eigenvalues not converged
     c_bands:  5 eigenvalues not converged
     c_bands:  2 eigenvalues not converged
     c_bands:  2 eigenvalues not converged
     c_bands:  3 eigenvalues not converged
     c_bands:  1 eigenvalues not converged
     c_bands:  4 eigenvalues not converged
     ethr =  2.28E-05,  avg # of iterations = 18.6

     negative rho (up, down):  7.505E-03 0.000E+00
 
     Adding external electric field

     Computed dipole along edir(3) : 
        Dipole                0.8091 Ry au,          2.0564 Debye
        Dipole field          0.0015 Ry au, 
 
        Potential amp.       -0.1415 Ry
        Total length         46.3494 bohr
 

     total cpu time spent up to now is      714.0 secs

     total energy              =   -2919.12010264 Ry
     estimated scf accuracy    <       0.33739997 Ry

     iteration # 40     ecut=    29.40 Ry     beta= 0.05
     Davidson diagonalization with overlap
     ethr =  2.28E-05,  avg # of iterations =  5.7

     negative rho (up, down):  8.079E-03 0.000E+00
 
     Adding external electric field

     Computed dipole along edir(3) : 
        Dipole                0.9698 Ry au,          2.4650 Debye
        Dipole field          0.0018 Ry au, 
 
        Potential amp.       -0.1697 Ry
        Total length         46.3494 bohr
 

     total cpu time spent up to now is      720.6 secs

     total energy              =   -2919.10056461 Ry
     estimated scf accuracy    <       0.38710821 Ry

     iteration # 41     ecut=    29.40 Ry     beta= 0.05
     Davidson diagonalization with overlap
     c_bands:  1 eigenvalues not converged
     c_bands:  3 eigenvalues not converged
     c_bands:  1 eigenvalues not converged
     c_bands:  1 eigenvalues not converged
     c_bands:  2 eigenvalues not converged
     c_bands:  2 eigenvalues not converged
     ethr =  2.28E-05,  avg # of iterations = 18.1

     negative rho (up, down):  8.380E-03 0.000E+00
 
     Adding external electric field

     Computed dipole along edir(3) : 
        Dipole                0.9979 Ry au,          2.5365 Debye
        Dipole field          0.0019 Ry au, 
 
        Potential amp.       -0.1746 Ry
        Total length         46.3494 bohr
 

     total cpu time spent up to now is      741.0 secs

     total energy              =   -2919.10962737 Ry
     estimated scf accuracy    <       0.23740887 Ry

     iteration # 42     ecut=    29.40 Ry     beta= 0.05
     Davidson diagonalization with overlap
     ethr =  2.28E-05,  avg # of iterations =  5.4

     negative rho (up, down):  8.730E-03 0.000E+00
 
     Adding external electric field

     Computed dipole along edir(3) : 
        Dipole                1.0914 Ry au,          2.7742 Debye
        Dipole field          0.0021 Ry au, 
 
        Potential amp.       -0.1909 Ry
        Total length         46.3494 bohr
 

     total cpu time spent up to now is      747.8 secs

     total energy              =   -2919.10930570 Ry
     estimated scf accuracy    <       0.02889854 Ry

     iteration # 43     ecut=    29.40 Ry     beta= 0.05
     Davidson diagonalization with overlap
     c_bands:  3 eigenvalues not converged
     c_bands:  2 eigenvalues not converged
     c_bands:  1 eigenvalues not converged
     c_bands:  4 eigenvalues not converged
     c_bands:  2 eigenvalues not converged
     c_bands:  1 eigenvalues not converged
     c_bands:  2 eigenvalues not converged
     ethr =  7.41E-06,  avg # of iterations = 18.6

     negative rho (up, down):  9.006E-03 0.000E+00
 
     Adding external electric field

     Computed dipole along edir(3) : 
        Dipole                1.0631 Ry au,          2.7021 Debye
        Dipole field          0.0020 Ry au, 
 
        Potential amp.       -0.1860 Ry
        Total length         46.3494 bohr
 

     total cpu time spent up to now is      786.1 secs

     total energy              =   -2919.11331169 Ry
     estimated scf accuracy    <       0.04039986 Ry

     iteration # 44     ecut=    29.40 Ry     beta= 0.05
     Davidson diagonalization with overlap
     ethr =  7.41E-06,  avg # of iterations =  3.9

     negative rho (up, down):  9.926E-03 0.000E+00
 
     Adding external electric field

     Computed dipole along edir(3) : 
        Dipole                1.1502 Ry au,          2.9236 Debye
        Dipole field          0.0022 Ry au, 
 
        Potential amp.       -0.2012 Ry
        Total length         46.3494 bohr
 

     total cpu time spent up to now is      815.0 secs

     total energy              =   -2919.11321324 Ry
     estimated scf accuracy    <       0.01916245 Ry

     iteration # 45     ecut=    29.40 Ry     beta= 0.05
     Davidson diagonalization with overlap
     ethr =  4.91E-06,  avg # of iterations = 11.6

     negative rho (up, down):  1.236E-02 0.000E+00
 
     Adding external electric field

     Computed dipole along edir(3) : 
        Dipole                1.1643 Ry au,          2.9592 Debye
        Dipole field          0.0022 Ry au, 
 
        Potential amp.       -0.2037 Ry
        Total length         46.3494 bohr
 

     total cpu time spent up to now is      824.0 secs

     total energy              =   -2919.11478588 Ry
     estimated scf accuracy    <       0.02061440 Ry

     iteration # 46     ecut=    29.40 Ry     beta= 0.05
     Davidson diagonalization with overlap
     ethr =  4.91E-06,  avg # of iterations = 12.3

     negative rho (up, down):  1.284E-02 0.000E+00
 
     Adding external electric field

     Computed dipole along edir(3) : 
        Dipole                1.1933 Ry au,          3.0331 Debye
        Dipole field          0.0023 Ry au, 
 
        Potential amp.       -0.2088 Ry
        Total length         46.3494 bohr
 

     total cpu time spent up to now is      878.9 secs

     total energy              =   -2919.11445455 Ry
     estimated scf accuracy    <       0.01975237 Ry

     iteration # 47     ecut=    29.40 Ry     beta= 0.05
     Davidson diagonalization with overlap
     ethr =  4.91E-06,  avg # of iterations =  7.9

     negative rho (up, down):  1.253E-02 0.000E+00
 
     Adding external electric field

     Computed dipole along edir(3) : 
        Dipole                1.1881 Ry au,          3.0198 Debye
        Dipole field          0.0022 Ry au, 
 
        Potential amp.       -0.2078 Ry
        Total length         46.3494 bohr
 

     total cpu time spent up to now is      897.7 secs

     total energy              =   -2919.11473424 Ry
     estimated scf accuracy    <       0.00543147 Ry

     iteration # 48     ecut=    29.40 Ry     beta= 0.05
     Davidson diagonalization with overlap
     c_bands:  1 eigenvalues not converged
     ethr =  1.39E-06,  avg # of iterations = 14.9

     negative rho (up, down):  1.235E-02 0.000E+00
 
     Adding external electric field

     Computed dipole along edir(3) : 
        Dipole                1.1949 Ry au,          3.0371 Debye
        Dipole field          0.0023 Ry au, 
 
        Potential amp.       -0.2090 Ry
        Total length         46.3494 bohr
 

     total cpu time spent up to now is      918.2 secs

     total energy              =   -2919.11502929 Ry
     estimated scf accuracy    <       0.00246631 Ry

     iteration # 49     ecut=    29.40 Ry     beta= 0.05
     Davidson diagonalization with overlap
     ethr =  6.32E-07,  avg # of iterations =  7.4

     negative rho (up, down):  1.243E-02 0.000E+00
 
     Adding external electric field

     Computed dipole along edir(3) : 
        Dipole                1.2031 Ry au,          3.0581 Debye
        Dipole field          0.0023 Ry au, 
 
        Potential amp.       -0.2105 Ry
        Total length         46.3494 bohr
 

     total cpu time spent up to now is      942.1 secs

     total energy              =   -2919.11513971 Ry
     estimated scf accuracy    <       0.00161264 Ry

     iteration # 50     ecut=    29.40 Ry     beta= 0.05
     Davidson diagonalization with overlap
     c_bands:  1 eigenvalues not converged
     c_bands:  3 eigenvalues not converged
     c_bands:  3 eigenvalues not converged
     c_bands:  1 eigenvalues not converged
     c_bands:  2 eigenvalues not converged
     ethr =  4.13E-07,  avg # of iterations = 18.2

     negative rho (up, down):  1.415E-02 0.000E+00
 
     Adding external electric field

     Computed dipole along edir(3) : 
        Dipole                1.2381 Ry au,          3.1469 Debye
        Dipole field          0.0023 Ry au, 
 
        Potential amp.       -0.2166 Ry
        Total length         46.3494 bohr
 

     total cpu time spent up to now is      961.5 secs

     total energy              =   -2919.11465678 Ry
     estimated scf accuracy    <       0.00667703 Ry

     iteration # 51     ecut=    29.40 Ry     beta= 0.05
     Davidson diagonalization with overlap
     c_bands:  1 eigenvalues not converged
     c_bands:  2 eigenvalues not converged
     ethr =  4.13E-07,  avg # of iterations = 16.9

     negative rho (up, down):  1.506E-02 0.000E+00
 
     Adding external electric field

     Computed dipole along edir(3) : 
        Dipole                1.2480 Ry au,          3.1722 Debye
        Dipole field          0.0024 Ry au, 
 
        Potential amp.       -0.2183 Ry
        Total length         46.3494 bohr
 

     total cpu time spent up to now is      992.0 secs

     total energy              =   -2919.11547705 Ry
     estimated scf accuracy    <       0.00153102 Ry

     iteration # 52     ecut=    29.40 Ry     beta= 0.05
     Davidson diagonalization with overlap
     ethr =  3.93E-07,  avg # of iterations =  3.9

     negative rho (up, down):  1.625E-02 0.000E+00
 
     Adding external electric field

     Computed dipole along edir(3) : 
        Dipole                1.2700 Ry au,          3.2280 Debye
        Dipole field          0.0024 Ry au, 
 
        Potential amp.       -0.2222 Ry
        Total length         46.3494 bohr
 

     total cpu time spent up to now is     1019.9 secs

     total energy              =   -2919.11550391 Ry
     estimated scf accuracy    <       0.00064259 Ry

     iteration # 53     ecut=    29.40 Ry     beta= 0.05
     Davidson diagonalization with overlap
     ethr =  1.65E-07,  avg # of iterations = 12.7

     negative rho (up, down):  1.651E-02 0.000E+00
 
     Adding external electric field

     Computed dipole along edir(3) : 
        Dipole                1.2719 Ry au,          3.2328 Debye
        Dipole field          0.0024 Ry au, 
 
        Potential amp.       -0.2225 Ry
        Total length         46.3494 bohr
 

     total cpu time spent up to now is     1043.0 secs

     total energy              =   -2919.11557518 Ry
     estimated scf accuracy    <       0.00046850 Ry

     iteration # 54     ecut=    29.40 Ry     beta= 0.05
     Davidson diagonalization with overlap
     ethr =  1.20E-07,  avg # of iterations = 12.1

     negative rho (up, down):  1.681E-02 0.000E+00
 
     Adding external electric field

     Computed dipole along edir(3) : 
        Dipole                1.2721 Ry au,          3.2333 Debye
        Dipole field          0.0024 Ry au, 
 
        Potential amp.       -0.2225 Ry
        Total length         46.3494 bohr
 

     total cpu time spent up to now is     1051.5 secs

     total energy              =   -2919.11560463 Ry
     estimated scf accuracy    <       0.00019921 Ry

     iteration # 55     ecut=    29.40 Ry     beta= 0.05
     Davidson diagonalization with overlap
     ethr =  5.11E-08,  avg # of iterations = 11.3

     negative rho (up, down):  1.708E-02 0.000E+00
 
     Adding external electric field

     Computed dipole along edir(3) : 
        Dipole                1.2735 Ry au,          3.2370 Debye
        Dipole field          0.0024 Ry au, 
 
        Potential amp.       -0.2228 Ry
        Total length         46.3494 bohr
 

     total cpu time spent up to now is     1083.6 secs

     total energy              =   -2919.11562728 Ry
     estimated scf accuracy    <       0.00010874 Ry

     iteration # 56     ecut=    29.40 Ry     beta= 0.05
     Davidson diagonalization with overlap
     ethr =  2.79E-08,  avg # of iterations = 12.2

     negative rho (up, down):  1.717E-02 0.000E+00
 
     Adding external electric field

     Computed dipole along edir(3) : 
        Dipole                1.2757 Ry au,          3.2426 Debye
        Dipole field          0.0024 Ry au, 
 
        Potential amp.       -0.2232 Ry
        Total length         46.3494 bohr
 

     total cpu time spent up to now is     1102.4 secs

     total energy              =   -2919.11564532 Ry
     estimated scf accuracy    <       0.00006050 Ry

     iteration # 57     ecut=    29.40 Ry     beta= 0.05
     Davidson diagonalization with overlap
     ethr =  1.55E-08,  avg # of iterations =  9.7

     negative rho (up, down):  1.718E-02 0.000E+00
 
     Adding external electric field

     Computed dipole along edir(3) : 
        Dipole                1.2744 Ry au,          3.2393 Debye
        Dipole field          0.0024 Ry au, 
 
        Potential amp.       -0.2229 Ry
        Total length         46.3494 bohr
 

     total cpu time spent up to now is     1135.2 secs

     total energy              =   -2919.11565065 Ry
     estimated scf accuracy    <       0.00004190 Ry

     iteration # 58     ecut=    29.40 Ry     beta= 0.05
     Davidson diagonalization with overlap
     ethr =  1.07E-08,  avg # of iterations = 12.9

     negative rho (up, down):  1.709E-02 0.000E+00
 
     Adding external electric field

     Computed dipole along edir(3) : 
        Dipole                1.2712 Ry au,          3.2311 Debye
        Dipole field          0.0024 Ry au, 
 
        Potential amp.       -0.2224 Ry
        Total length         46.3494 bohr
 

     total cpu time spent up to now is     1154.9 secs

     total energy              =   -2919.11565502 Ry
     estimated scf accuracy    <       0.00002807 Ry

     iteration # 59     ecut=    29.40 Ry     beta= 0.05
     Davidson diagonalization with overlap
     ethr =  7.20E-09,  avg # of iterations =  8.5

     negative rho (up, down):  1.711E-02 0.000E+00
 
     Adding external electric field

     Computed dipole along edir(3) : 
        Dipole                1.2695 Ry au,          3.2268 Debye
        Dipole field          0.0024 Ry au, 
 
        Potential amp.       -0.2221 Ry
        Total length         46.3494 bohr
 

     total cpu time spent up to now is     1173.7 secs

     total energy              =   -2919.11566133 Ry
     estimated scf accuracy    <       0.00001409 Ry

     iteration # 60     ecut=    29.40 Ry     beta= 0.05
     Davidson diagonalization with overlap
     ethr =  3.61E-09,  avg # of iterations = 11.8

     negative rho (up, down):  1.716E-02 0.000E+00
 
     Adding external electric field

     Computed dipole along edir(3) : 
        Dipole                1.2707 Ry au,          3.2299 Debye
        Dipole field          0.0024 Ry au, 
 
        Potential amp.       -0.2223 Ry
        Total length         46.3494 bohr
 

     total cpu time spent up to now is     1190.7 secs

     total energy              =   -2919.11566658 Ry
     estimated scf accuracy    <       0.00001324 Ry

     iteration # 61     ecut=    29.40 Ry     beta= 0.05
     Davidson diagonalization with overlap
     ethr =  3.40E-09,  avg # of iterations = 11.2

     negative rho (up, down):  1.718E-02 0.000E+00
 
     Adding external electric field

     Computed dipole along edir(3) : 
        Dipole                1.2713 Ry au,          3.2312 Debye
        Dipole field          0.0024 Ry au, 
 
        Potential amp.       -0.2224 Ry
        Total length         46.3494 bohr
 

     total cpu time spent up to now is     1217.4 secs

     total energy              =   -2919.11567172 Ry
     estimated scf accuracy    <       0.00000434 Ry

     iteration # 62     ecut=    29.40 Ry     beta= 0.05
     Davidson diagonalization with overlap
     ethr =  1.11E-09,  avg # of iterations = 11.4

     negative rho (up, down):  1.723E-02 0.000E+00
 
     Adding external electric field

     Computed dipole along edir(3) : 
        Dipole                1.2714 Ry au,          3.2315 Debye
        Dipole field          0.0024 Ry au, 
 
        Potential amp.       -0.2224 Ry
        Total length         46.3494 bohr
 

     total cpu time spent up to now is     1248.5 secs

     total energy              =   -2919.11567622 Ry
     estimated scf accuracy    <       0.00000340 Ry

     iteration # 63     ecut=    29.40 Ry     beta= 0.05
     Davidson diagonalization with overlap
     ethr =  8.71E-10,  avg # of iterations =  8.5

     negative rho (up, down):  1.726E-02 0.000E+00
 
     Adding external electric field

     Computed dipole along edir(3) : 
        Dipole                1.2714 Ry au,          3.2316 Debye
        Dipole field          0.0024 Ry au, 
 
        Potential amp.       -0.2224 Ry
        Total length         46.3494 bohr
 

     total cpu time spent up to now is     1289.3 secs

     total energy              =   -2919.11567969 Ry
     estimated scf accuracy    <       0.00000148 Ry

     iteration # 64     ecut=    29.40 Ry     beta= 0.05
     Davidson diagonalization with overlap
     ethr =  3.79E-10,  avg # of iterations = 13.5

     negative rho (up, down):  1.723E-02 0.000E+00
 
     Adding external electric field

     Computed dipole along edir(3) : 
        Dipole                1.2713 Ry au,          3.2313 Debye
        Dipole field          0.0024 Ry au, 
 
        Potential amp.       -0.2224 Ry
        Total length         46.3494 bohr
 

     total cpu time spent up to now is     1301.5 secs

     total energy              =   -2919.11568271 Ry
     estimated scf accuracy    <       0.00000126 Ry

     iteration # 65     ecut=    29.40 Ry     beta= 0.05
     Davidson diagonalization with overlap
     ethr =  3.23E-10,  avg # of iterations =  8.5

     negative rho (up, down):  1.724E-02 0.000E+00
 
     Adding external electric field

     Computed dipole along edir(3) : 
        Dipole                1.2714 Ry au,          3.2316 Debye
        Dipole field          0.0024 Ry au, 
 
        Potential amp.       -0.2224 Ry
        Total length         46.3494 bohr
 

     total cpu time spent up to now is     1307.0 secs

     total energy              =   -2919.11568544 Ry
     estimated scf accuracy    <       0.00000078 Ry

     iteration # 66     ecut=    29.40 Ry     beta= 0.05
     Davidson diagonalization with overlap
     ethr =  2.00E-10,  avg # of iterations =  8.8

     negative rho (up, down):  1.722E-02 0.000E+00
 
     Adding external electric field

     Computed dipole along edir(3) : 
        Dipole                1.2713 Ry au,          3.2313 Debye
        Dipole field          0.0024 Ry au, 
 
        Potential amp.       -0.2224 Ry
        Total length         46.3494 bohr
 

     total cpu time spent up to now is     1313.0 secs

     total energy              =   -2919.11568791 Ry
     estimated scf accuracy    <       0.00000079 Ry

     iteration # 67     ecut=    29.40 Ry     beta= 0.05
     Davidson diagonalization with overlap
     ethr =  2.00E-10,  avg # of iterations =  4.5

     negative rho (up, down):  1.723E-02 0.000E+00
 
     Adding external electric field

     Computed dipole along edir(3) : 
        Dipole                1.2713 Ry au,          3.2314 Debye
        Dipole field          0.0024 Ry au, 
 
        Potential amp.       -0.2224 Ry
        Total length         46.3494 bohr
 

     total cpu time spent up to now is     1321.8 secs

     total energy              =   -2919.11569004 Ry
     estimated scf accuracy    <       0.00000039 Ry

     iteration # 68     ecut=    29.40 Ry     beta= 0.05
     Davidson diagonalization with overlap
     ethr =  1.00E-10,  avg # of iterations = 10.0

     negative rho (up, down):  1.722E-02 0.000E+00
 
     Adding external electric field

     Computed dipole along edir(3) : 
        Dipole                1.2713 Ry au,          3.2313 Debye
        Dipole field          0.0024 Ry au, 
 
        Potential amp.       -0.2224 Ry
        Total length         46.3494 bohr
 

     total cpu time spent up to now is     1346.6 secs

     total energy              =   -2919.11569196 Ry
     estimated scf accuracy    <       0.00000023 Ry

     iteration # 69     ecut=    29.40 Ry     beta= 0.05
     Davidson diagonalization with overlap
     ethr =  5.94E-11,  avg # of iterations = 10.3

     negative rho (up, down):  1.720E-02 0.000E+00
 
     Adding external electric field

     Computed dipole along edir(3) : 
        Dipole                1.2712 Ry au,          3.2311 Debye
        Dipole field          0.0024 Ry au, 
 
        Potential amp.       -0.2224 Ry
        Total length         46.3494 bohr
 

     total cpu time spent up to now is     1357.5 secs

     total energy              =   -2919.11569373 Ry
     estimated scf accuracy    <       0.00000009 Ry

     iteration # 70     ecut=    29.40 Ry     beta= 0.05
     Davidson diagonalization with overlap
     ethr =  2.43E-11,  avg # of iterations =  9.7

     negative rho (up, down):  1.722E-02 0.000E+00
 
     Adding external electric field

     Computed dipole along edir(3) : 
        Dipole                1.2710 Ry au,          3.2304 Debye
        Dipole field          0.0024 Ry au, 
 
        Potential amp.       -0.2223 Ry
        Total length         46.3494 bohr
 

     total cpu time spent up to now is     1363.7 secs

     End of self-consistent calculation

          k = 0.0000 0.0000 0.0000 ( 18029 PWs)   bands (ev):

   -55.5379 -55.5012 -55.4995 -55.4654 -55.4305 -55.4134 -55.3759 -55.3531
   -55.3530 -55.3280 -55.3185 -55.3083 -55.2946 -55.1265 -54.5205 -54.4864
   -32.1046 -31.9905 -31.9010 -31.8595 -31.8531 -31.8423 -31.8352 -31.8298
   -31.7892 -31.7781 -31.7462 -31.7445 -31.7442 -31.7089 -31.6913 -31.6733
   -31.6687 -31.6603 -31.6540 -31.6500 -31.6119 -31.6089 -31.5935 -31.5832
   -31.5566 -31.5559 -31.5550 -31.5450 -31.5402 -31.5357 -31.5246 -31.5163
   -31.5081 -31.5063 -31.5019 -31.4747 -31.4673 -31.4650 -31.4565 -31.4378
   -31.3497 -31.2679 -30.9295 -30.8362 -30.8141 -30.7459 -30.6592 -30.5483
   -16.6281 -16.3368 -16.0691 -15.8956 -15.7885 -15.7272 -15.5911 -15.5166
   -15.4376 -15.3347 -15.2443 -15.1778 -15.1631 -15.1437 -15.1376 -15.0750
   -15.0714 -15.0512 -15.0301 -15.0286 -14.9747 -14.9665 -14.9348 -14.9228
   -14.9117 -14.8420 -14.7557 -14.6865 -14.6261 -14.2054 -13.0233 -12.9060
    -9.2963  -6.3255  -4.6777  -3.6929  -3.5395  -3.4452  -3.4338  -3.4139
    -3.2639  -3.1266  -2.9222  -2.8418  -2.7942  -2.7454  -2.7163  -2.6989
    -2.6319  -2.5130  -2.4415  -2.3953  -2.3729  -2.3599  -2.3445  -2.3170
    -2.3066  -2.2717  -2.2348  -2.2007  -2.0882  -1.9989  -1.9608  -1.9229
    -1.8668  -1.8581  -1.8291  -1.8219  -1.8152  -1.7965  -1.7564  -1.7481
    -1.6986  -1.5661  -1.5467  -1.4288  -1.3944  -1.2845  -1.1820  -1.1723
    -1.0859  -1.0832  -1.0139  -0.9646  -0.9315  -0.9210  -0.8705  -0.8259
    -0.7331  -0.6410  -0.5797  -0.5377  -0.5026  -0.4740  -0.4083  -0.3140
    -0.3094  -0.2984  -0.2003  -0.1182  -0.0949  -0.0438  -0.0099   0.0335
     0.0498   0.1594   0.2009   0.2446   0.2612   0.3394   0.3630   0.4188
     0.4238   0.4591   0.4673   0.5305   0.5814   0.6010   0.6467   0.6696
     0.8272   1.0808   1.0865   1.1309   1.4109   1.4410   1.5018   1.6869
     2.0774   2.1252   3.5616   3.6340   3.6992   3.7120   3.7524   3.7985
     3.9690   4.0463   4.0629   4.0671   4.0986

          k = 0.0000 0.0419 0.0000 ( 17933 PWs)   bands (ev):

   -55.5328 -55.5062 -55.4945 -55.4704 -55.4285 -55.4089 -55.3803 -55.3549
   -55.3480 -55.3236 -55.3230 -55.3074 -55.2994 -55.1273 -54.5154 -54.4913
   -32.0475 -31.9364 -31.8464 -31.8414 -31.8086 -31.7976 -31.7908 -31.7885
   -31.7851 -31.7843 -31.7678 -31.7371 -31.7349 -31.7275 -31.7114 -31.6831
   -31.6687 -31.6581 -31.6534 -31.6398 -31.6359 -31.6142 -31.5877 -31.5790
   -31.5737 -31.5707 -31.5638 -31.5607 -31.5585 -31.5519 -31.5358 -31.5287
   -31.5233 -31.5169 -31.5038 -31.5036 -31.4981 -31.4916 -31.4748 -31.4665
   -31.3490 -31.3063 -30.8753 -30.8328 -30.8171 -30.7333 -30.6718 -30.6055
   -16.6193 -16.2063 -15.9509 -15.7981 -15.7150 -15.6188 -15.5601 -15.4976
   -15.4179 -15.3761 -15.3213 -15.2394 -15.2015 -15.1718 -15.1140 -15.0954
   -15.0833 -15.0383 -15.0282 -15.0145 -14.9892 -14.9710 -14.9668 -14.9276
   -14.8972 -14.8858 -14.8121 -14.7423 -14.6855 -14.3276 -13.0270 -12.9453
    -9.2963  -6.3237  -4.6740  -3.5013  -3.3720  -3.2899  -3.2593  -3.2542
    -3.1152  -2.8996  -2.8511  -2.7560  -2.7483  -2.6681  -2.6570  -2.6325
    -2.6002  -2.5426  -2.5358  -2.5002  -2.4918  -2.4562  -2.4284  -2.3830
    -2.3416  -2.3239  -2.2788  -2.2660  -2.2443  -2.1164  -2.0837  -2.0798
    -2.0184  -1.9776  -1.9603  -1.9378  -1.8441  -1.8207  -1.7800  -1.6731
    -1.5516  -1.4746  -1.4284  -1.3934  -1.3036  -1.2696  -1.2030  -1.1202
    -1.0491  -0.9217  -0.8878  -0.8437  -0.7854  -0.7682  -0.7177  -0.7079
    -0.6460  -0.6361  -0.5187  -0.5016  -0.4889  -0.4709  -0.4282  -0.3566
    -0.3376  -0.3046  -0.2743  -0.1984  -0.1351  -0.0971  -0.0708  -0.0302
     0.0118   0.0823   0.1224   0.1492   0.2141   0.2316   0.2336   0.2759
     0.3320   0.3469   0.4537   0.4647   0.5301   0.5930   0.6018   0.6905
     0.7624   0.7799   0.9396   0.9952   1.1117   1.3169   1.6864   1.7636
     2.0321   2.0358   3.7414   3.7788   3.7923   3.8454   3.8810   3.9423
     3.9657   3.9830   4.0084   4.0880   4.1157

          k = 0.0000-0.0839 0.0000 ( 17884 PWs)   bands (ev):

   -55.5233 -55.5156 -55.4825 -55.4823 -55.4264 -55.4022 -55.3869 -55.3569
   -55.3371 -55.3343 -55.3113 -55.3110 -55.3065 -55.1281 -54.5033 -54.5033
   -31.9105 -31.9054 -31.8221 -31.8041 -31.8039 -31.7970 -31.7745 -31.7744
   -31.7540 -31.7371 -31.7288 -31.7195 -31.7102 -31.7062 -31.7051 -31.6891
   -31.6591 -31.6576 -31.6518 -31.6490 -31.6435 -31.6372 -31.6104 -31.6096
   -31.6052 -31.6050 -31.6013 -31.5996 -31.5778 -31.5774 -31.5698 -31.5666
   -31.5633 -31.5328 -31.5032 -31.4994 -31.4980 -31.4911 -31.4907 -31.4822
   -31.3528 -31.3466 -30.8247 -30.8247 -30.7422 -30.7421 -30.7025 -30.7025
   -16.6118 -15.9021 -15.8594 -15.6907 -15.6632 -15.5827 -15.5131 -15.5063
   -15.4110 -15.3899 -15.3642 -15.3301 -15.3023 -15.2569 -15.1327 -15.1284
   -15.1061 -15.0583 -15.0215 -14.9769 -14.9508 -14.9439 -14.9393 -14.9376
   -14.8808 -14.8750 -14.8305 -14.8264 -14.7388 -14.5397 -13.0081 -13.0079
    -9.2962  -6.3220  -4.6703  -3.0752  -3.0245  -2.9867  -2.9791  -2.9586
    -2.9436  -2.9031  -2.8672  -2.8298  -2.8162  -2.8120  -2.7033  -2.6780
    -2.6740  -2.6557  -2.6470  -2.5614  -2.5240  -2.5125  -2.4737  -2.4412
    -2.4053  -2.3698  -2.3661  -2.3385  -2.3131  -2.1950  -2.1600  -2.1370
    -2.0684  -1.9929  -1.9603  -1.8993  -1.7916  -1.7450  -1.6128  -1.5452
    -1.5308  -1.4204  -1.3031  -1.2993  -1.2762  -1.2670  -1.0551  -1.0145
    -1.0020  -0.9884  -0.9785  -0.9343  -0.9218  -0.8856  -0.8489  -0.7837
    -0.7312  -0.7016  -0.6382  -0.5314  -0.4628  -0.3276  -0.2928  -0.2500
    -0.2372  -0.2114  -0.1550  -0.1492  -0.1357  -0.1039  -0.0565  -0.0138
    -0.0119   0.0094   0.0651   0.1004   0.1143   0.1402   0.1943   0.1999
     0.2449   0.2503   0.2515   0.2920   0.3220   0.4251   0.6399   0.6768
     0.6781   0.6950   0.8782   0.9586   1.0426   1.0659   1.8286   1.8290
     1.9680   1.9682   3.7115   3.8541   3.8603   3.8751   3.8944   4.0312
     4.0409   4.0697   4.1501   4.1655   4.1739

          k = 0.0380 0.0000 0.0000 ( 17913 PWs)   bands (ev):

   -55.5378 -55.5011 -55.4994 -55.4653 -55.4303 -55.4133 -55.3758 -55.3529
   -55.3527 -55.3281 -55.3184 -55.3082 -55.2945 -55.1264 -54.5204 -54.4863
   -32.1047 -31.9914 -31.9064 -31.8619 -31.8529 -31.8464 -31.8353 -31.8302
   -31.7890 -31.7780 -31.7444 -31.7443 -31.7289 -31.7088 -31.6909 -31.6668
   -31.6605 -31.6577 -31.6493 -31.6318 -31.6116 -31.6110 -31.6088 -31.5829
   -31.5572 -31.5570 -31.5544 -31.5444 -31.5345 -31.5328 -31.5271 -31.5250
   -31.5161 -31.5120 -31.5030 -31.4739 -31.4658 -31.4653 -31.4564 -31.4384
   -31.3510 -31.2678 -30.9290 -30.8397 -30.8121 -30.7457 -30.6591 -30.5481
   -16.6234 -16.2620 -15.9891 -15.8572 -15.7735 -15.6251 -15.5926 -15.5480
   -15.4475 -15.3356 -15.2951 -15.2747 -15.2424 -15.2202 -15.2119 -15.1723
   -15.1252 -15.1162 -15.0199 -14.9784 -14.9361 -14.9286 -14.8702 -14.8455
   -14.8288 -14.7817 -14.7635 -14.7578 -14.7145 -14.2042 -13.0200 -12.9057
    -9.2990  -6.3269  -4.6607  -3.5872  -3.3870  -3.3007  -3.2043  -3.1722
    -3.1393  -3.1077  -3.0409  -2.9196  -2.8714  -2.8522  -2.7826  -2.6829
    -2.6144  -2.5818  -2.5625  -2.4638  -2.3367  -2.3155  -2.2953  -2.2700
    -2.2060  -2.1640  -2.1509  -2.1096  -2.0663  -1.9435  -1.9154  -1.8800
    -1.8596  -1.8341  -1.8154  -1.7843  -1.7710  -1.7195  -1.6857  -1.6042
    -1.5823  -1.5652  -1.4820  -1.4574  -1.3388  -1.3066  -1.2346  -1.1736
    -1.1625  -1.1066  -1.0124  -0.9974  -0.9569  -0.9525  -0.8991  -0.8754
    -0.8442  -0.7955  -0.6127  -0.5344  -0.4795  -0.4543  -0.4002  -0.3872
    -0.3688  -0.3302  -0.1779  -0.1598  -0.1233  -0.0943  -0.0290   0.0098
     0.0230   0.0872   0.1409   0.1700   0.1760   0.2168   0.2514   0.2762
     0.2963   0.3319   0.4419   0.4515   0.5233   0.5540   0.5783   0.6637
     0.7129   0.8786   0.9461   1.1288   1.3014   1.4165   1.5137   1.6558
     1.9649   2.0424   3.5797   3.6595   3.8286   3.8753   3.8940   3.9559
     3.9748   4.0072   4.0323   4.0549   4.0805

          k = 0.0380 0.0419 0.0000 ( 17878 PWs)   bands (ev):

   -55.5327 -55.5062 -55.4944 -55.4703 -55.4284 -55.4089 -55.3802 -55.3548
   -55.3477 -55.3235 -55.3231 -55.3073 -55.2994 -55.1272 -54.5153 -54.4913
   -32.0476 -31.9373 -31.8528 -31.8412 -31.8108 -31.7982 -31.7939 -31.7898
   -31.7854 -31.7841 -31.7679 -31.7374 -31.7280 -31.7205 -31.7115 -31.6733
   -31.6688 -31.6537 -31.6481 -31.6358 -31.6197 -31.6144 -31.6039 -31.5786
   -31.5713 -31.5703 -31.5626 -31.5585 -31.5545 -31.5484 -31.5389 -31.5340
   -31.5287 -31.5176 -31.5104 -31.5055 -31.5044 -31.4913 -31.4746 -31.4666
   -31.3507 -31.3062 -30.8750 -30.8355 -30.8161 -30.7331 -30.6718 -30.6053
   -16.6169 -16.1370 -15.8751 -15.7840 -15.6760 -15.5622 -15.5239 -15.5017
   -15.4367 -15.3872 -15.3196 -15.2680 -15.2410 -15.2011 -15.1919 -15.1828
   -15.0901 -15.0750 -15.0692 -15.0216 -14.9798 -14.9636 -14.9329 -14.8842
   -14.8585 -14.8388 -14.8239 -14.8057 -14.7684 -14.3265 -13.0246 -12.9456
    -9.2984  -6.3236  -4.6649  -3.4112  -3.2242  -3.1331  -3.0453  -3.0139
    -2.9700  -2.9101  -2.8710  -2.7876  -2.7492  -2.7037  -2.6485  -2.6067
    -2.5611  -2.5590  -2.4985  -2.4545  -2.4375  -2.4232  -2.3505  -2.3356
    -2.3034  -2.2865  -2.2596  -2.2236  -2.2189  -2.1490  -2.1008  -2.0464
    -1.9839  -1.9625  -1.9138  -1.8733  -1.8346  -1.7838  -1.7274  -1.5897
    -1.5409  -1.5047  -1.4972  -1.3369  -1.3072  -1.2253  -1.1818  -1.1077
    -1.0422  -0.9982  -0.9412  -0.9108  -0.8861  -0.8651  -0.7994  -0.7669
    -0.7465  -0.7053  -0.6065  -0.5857  -0.5479  -0.4993  -0.4635  -0.4400
    -0.3751  -0.3143  -0.2907  -0.2577  -0.2192  -0.1974  -0.1598  -0.1329
    -0.1224  -0.0781  -0.0310   0.0451   0.0808   0.1356   0.1606   0.2055
     0.2585   0.3195   0.4057   0.4915   0.5365   0.5902   0.6422   0.6589
     0.7343   0.8402   0.8821   0.9384   1.0629   1.2653   1.6973   1.7672
     1.9543   2.0173   3.7293   3.7658   3.8060   3.8602   3.9083   3.9753
     3.9923   4.0121   4.1067   4.1302   4.1516

          k = 0.0380-0.0839 0.0000 ( 17916 PWs)   bands (ev):

   -55.5234 -55.5156 -55.4825 -55.4823 -55.4264 -55.4022 -55.3870 -55.3569
   -55.3370 -55.3342 -55.3115 -55.3111 -55.3065 -55.1281 -54.5034 -54.5033
   -31.9107 -31.9056 -31.8222 -31.8049 -31.8046 -31.7971 -31.7746 -31.7744
   -31.7546 -31.7373 -31.7367 -31.7297 -31.7283 -31.6909 -31.6807 -31.6781
   -31.6657 -31.6627 -31.6545 -31.6498 -31.6445 -31.6319 -31.6116 -31.6107
   -31.6033 -31.6033 -31.5868 -31.5817 -31.5796 -31.5717 -31.5701 -31.5696
   -31.5665 -31.5374 -31.5114 -31.5100 -31.5053 -31.4912 -31.4908 -31.4825
   -31.3535 -31.3481 -30.8258 -30.8257 -30.7421 -30.7420 -30.7025 -30.7025
   -16.6108 -15.8506 -15.8195 -15.6537 -15.6146 -15.5980 -15.4696 -15.4575
   -15.3818 -15.3740 -15.3716 -15.3186 -15.2613 -15.2204 -15.1558 -15.1510
   -15.0976 -15.0925 -15.0615 -15.0497 -15.0003 -14.9899 -14.9671 -14.9627
   -14.9008 -14.8949 -14.8811 -14.8794 -14.7254 -14.5323 -13.0078 -13.0077
    -9.2984  -6.3216  -4.6651  -3.0509  -2.9869  -2.9404  -2.8047  -2.7854
    -2.7672  -2.7283  -2.6976  -2.6839  -2.6663  -2.6178  -2.6168  -2.6100
    -2.6025  -2.5708  -2.5646  -2.4937  -2.4813  -2.4601  -2.4375  -2.4171
    -2.4060  -2.3559  -2.3385  -2.2840  -2.2461  -2.2035  -2.1972  -2.1315
    -2.1047  -2.0556  -1.8632  -1.7865  -1.7425  -1.6995  -1.5753  -1.5240
    -1.5091  -1.4722  -1.4577  -1.4047  -1.3805  -1.3231  -1.2628  -1.2389
    -1.2080  -1.2055  -1.0904  -1.0738  -0.9176  -0.9010  -0.8403  -0.8359
    -0.7844  -0.7599  -0.6885  -0.5857  -0.5174  -0.4836  -0.4620  -0.4236
    -0.3638  -0.3317  -0.3265  -0.3204  -0.2650  -0.2142  -0.1683  -0.1647
    -0.1254  -0.0887  -0.0515  -0.0249   0.0083   0.0639   0.1981   0.2206
     0.2857   0.3231   0.4036   0.4445   0.5351   0.5422   0.5982   0.6339
     0.7235   0.7324   0.8482   0.8836   1.0327   1.0535   1.8420   1.8425
     1.9582   1.9589   3.6981   3.8102   3.8275   3.8912   3.8979   4.0005
     4.0184   4.0700   4.1571   4.1723   4.2266

          k = 0.0380-0.0419 0.0000 ( 17876 PWs)   bands (ev):

   -55.5327 -55.5062 -55.4944 -55.4703 -55.4284 -55.4089 -55.3802 -55.3548
   -55.3477 -55.3235 -55.3231 -55.3073 -55.2994 -55.1272 -54.5153 -54.4913
   -32.0476 -31.9373 -31.8528 -31.8412 -31.8112 -31.7979 -31.7939 -31.7897
   -31.7854 -31.7841 -31.7679 -31.7374 -31.7281 -31.7204 -31.7115 -31.6733
   -31.6688 -31.6536 -31.6483 -31.6358 -31.6197 -31.6144 -31.6040 -31.5786
   -31.5712 -31.5703 -31.5621 -31.5585 -31.5545 -31.5484 -31.5377 -31.5343
   -31.5296 -31.5174 -31.5103 -31.5060 -31.5044 -31.4913 -31.4748 -31.4666
   -31.3508 -31.3061 -30.8749 -30.8355 -30.8161 -30.7331 -30.6718 -30.6053
   -16.6167 -16.1370 -15.8750 -15.7834 -15.6776 -15.5620 -15.5244 -15.5027
   -15.4361 -15.3888 -15.3203 -15.2635 -15.2402 -15.2011 -15.1916 -15.1824
   -15.0964 -15.0740 -15.0669 -15.0208 -14.9797 -14.9633 -14.9330 -14.8843
   -14.8578 -14.8385 -14.8238 -14.8060 -14.7687 -14.3269 -13.0246 -12.9456
    -9.2989  -6.3247  -4.6610  -3.4113  -3.2244  -3.1331  -3.0397  -3.0123
    -2.9689  -2.9083  -2.8731  -2.7840  -2.7468  -2.6988  -2.6319  -2.5999
    -2.5652  -2.5456  -2.5278  -2.4543  -2.4360  -2.4253  -2.3804  -2.3353
    -2.3064  -2.2870  -2.2559  -2.2224  -2.2157  -2.1486  -2.0998  -2.0471
    -1.9727  -1.9413  -1.9259  -1.8977  -1.8343  -1.7971  -1.7240  -1.5907
    -1.5372  -1.5067  -1.4789  -1.3321  -1.3064  -1.2261  -1.1724  -1.1079
    -1.0463  -1.0017  -0.9517  -0.9140  -0.8822  -0.8619  -0.8158  -0.7568
    -0.7429  -0.7056  -0.6205  -0.5905  -0.5563  -0.4995  -0.4609  -0.4359
    -0.3654  -0.3122  -0.2972  -0.2599  -0.2291  -0.2006  -0.1653  -0.1348
    -0.1189  -0.0757  -0.0293   0.0440   0.0811   0.1363   0.1578   0.2051
     0.2634   0.3205   0.4073   0.4921   0.5409   0.5915   0.6445   0.6583
     0.7375   0.8545   0.8818   0.9381   1.0630   1.2654   1.6973   1.7671
     1.9541   2.0180   3.7286   3.7580   3.7995   3.8734   3.9113   3.9760
     3.9962   4.0417   4.0928   4.1316   4.1523

          k =-0.0760-0.0000 0.0000 ( 17886 PWs)   bands (ev):

   -55.5377 -55.5011 -55.4994 -55.4653 -55.4303 -55.4133 -55.3758 -55.3529
   -55.3525 -55.3283 -55.3184 -55.3082 -55.2945 -55.1264 -54.5203 -54.4863
   -32.1049 -31.9923 -31.9116 -31.8644 -31.8527 -31.8505 -31.8357 -31.8305
   -31.7888 -31.7780 -31.7445 -31.7443 -31.7088 -31.7034 -31.6908 -31.6616
   -31.6595 -31.6461 -31.6458 -31.6369 -31.6116 -31.6088 -31.5950 -31.5834
   -31.5636 -31.5599 -31.5576 -31.5540 -31.5443 -31.5331 -31.5275 -31.5254
   -31.5166 -31.5157 -31.5055 -31.4732 -31.4659 -31.4646 -31.4564 -31.4394
   -31.3525 -31.2678 -30.9286 -30.8431 -30.8107 -30.7457 -30.6590 -30.5481
   -16.6194 -16.1509 -15.9647 -15.7738 -15.7280 -15.6026 -15.5734 -15.5128
   -15.4244 -15.3734 -15.3416 -15.3258 -15.3021 -15.2959 -15.2497 -15.2381
   -15.2180 -15.1467 -14.9798 -14.9666 -14.9399 -14.9225 -14.9199 -14.8546
   -14.8415 -14.7863 -14.7852 -14.6909 -14.6764 -14.2033 -13.0169 -12.9054
    -9.3017  -6.3283  -4.6448  -3.5574  -3.3567  -3.1620  -3.0909  -3.0197
    -2.9974  -2.9609  -2.9491  -2.9052  -2.8779  -2.8320  -2.7882  -2.7717
    -2.5988  -2.5685  -2.4624  -2.3725  -2.3020  -2.2723  -2.1818  -2.1610
    -2.1446  -2.0884  -2.0493  -2.0292  -2.0236  -1.9101  -1.8871  -1.8786
    -1.8536  -1.8467  -1.8313  -1.8284  -1.8060  -1.7798  -1.7477  -1.6479
    -1.6008  -1.5388  -1.4875  -1.3416  -1.2656  -1.2168  -1.1868  -1.1662
    -1.1422  -1.1308  -1.1070  -1.0663  -1.0372  -0.9906  -0.9413  -0.8947
    -0.8523  -0.8095  -0.7985  -0.7529  -0.7250  -0.4755  -0.4275  -0.4106
    -0.3943  -0.3721  -0.2751  -0.2291  -0.1551  -0.1440  -0.1272  -0.0719
    -0.0141   0.0122   0.0693   0.1030   0.1326   0.1422   0.1709   0.2230
     0.2655   0.3032   0.3237   0.4018   0.4624   0.5591   0.5952   0.6119
     0.7989   0.8051   0.9706   1.0217   1.1501   1.4215   1.5351   1.6309
     1.8348   1.9872   3.5799   3.6202   3.6924   3.8372   3.8667   3.9393
     4.0023   4.0312   4.0549   4.0819   4.1279

          k =-0.0760 0.0419 0.0000 ( 17914 PWs)   bands (ev):

   -55.5326 -55.5062 -55.4944 -55.4703 -55.4284 -55.4089 -55.3803 -55.3548
   -55.3475 -55.3234 -55.3234 -55.3074 -55.2995 -55.1273 -54.5153 -54.4913
   -32.0479 -31.9383 -31.8590 -31.8413 -31.8136 -31.7985 -31.7982 -31.7904
   -31.7855 -31.7841 -31.7680 -31.7376 -31.7278 -31.7116 -31.7027 -31.6691
   -31.6640 -31.6533 -31.6376 -31.6335 -31.6240 -31.6143 -31.5832 -31.5800
   -31.5705 -31.5703 -31.5686 -31.5626 -31.5586 -31.5573 -31.5421 -31.5293
   -31.5291 -31.5185 -31.5175 -31.5111 -31.5078 -31.4923 -31.4748 -31.4666
   -31.3527 -31.3062 -30.8747 -30.8385 -30.8154 -30.7331 -30.6718 -30.6054
   -16.6145 -16.0338 -15.8650 -15.7031 -15.6373 -15.5601 -15.4938 -15.4466
   -15.4432 -15.3381 -15.3218 -15.2892 -15.2814 -15.2662 -15.2311 -15.2203
   -15.1877 -15.1459 -15.0652 -15.0444 -14.9761 -14.9636 -14.9590 -14.9023
   -14.8865 -14.8281 -14.8204 -14.7829 -14.7795 -14.3260 -13.0225 -12.9459
    -9.3012  -6.3247  -4.6527  -3.3906  -3.1983  -2.9079  -2.9028  -2.8153
    -2.8024  -2.7668  -2.7483  -2.7266  -2.6865  -2.6703  -2.6315  -2.5714
    -2.5377  -2.5182  -2.4879  -2.4650  -2.4119  -2.3646  -2.3509  -2.2968
    -2.2569  -2.2158  -2.1680  -2.1259  -2.0932  -2.0838  -2.0740  -2.0544
    -2.0087  -1.9589  -1.9256  -1.8845  -1.7070  -1.7011  -1.6951  -1.6610
    -1.5943  -1.4906  -1.4509  -1.3105  -1.2742  -1.2507  -1.1576  -1.1486
    -1.1136  -1.0951  -1.0313  -1.0134  -0.9247  -0.9021  -0.8927  -0.8428
    -0.8224  -0.7711  -0.7598  -0.7493  -0.6975  -0.6777  -0.6232  -0.6076
    -0.5811  -0.4858  -0.4131  -0.3854  -0.3178  -0.3154  -0.2842  -0.2415
    -0.2172  -0.1613  -0.0810  -0.0080   0.0360   0.0641   0.2230   0.2396
     0.2668   0.2833   0.4201   0.5015   0.5416   0.6178   0.7475   0.7564
     0.7638   0.8559   0.9095   0.9601   0.9874   1.1307   1.7124   1.7694
     1.8767   2.0065   3.7173   3.7512   3.7826   3.8034   3.8710   3.9060
     3.9605   4.0074   4.0665   4.1150   4.1906

          k =-0.0760-0.0839 0.0000 ( 17948 PWs)   bands (ev):

   -55.5233 -55.5156 -55.4825 -55.4823 -55.4264 -55.4023 -55.3870 -55.3569
   -55.3369 -55.3341 -55.3116 -55.3113 -55.3066 -55.1282 -54.5034 -54.5034
   -31.9111 -31.9059 -31.8224 -31.8057 -31.8054 -31.7974 -31.7746 -31.7745
   -31.7551 -31.7448 -31.7375 -31.7357 -31.7305 -31.6925 -31.6705 -31.6671
   -31.6631 -31.6587 -31.6551 -31.6501 -31.6456 -31.6266 -31.6123 -31.6116
   -31.6020 -31.6019 -31.5993 -31.5822 -31.5698 -31.5666 -31.5568 -31.5503
   -31.5484 -31.5473 -31.5367 -31.5360 -31.5070 -31.4912 -31.4909 -31.4829
   -31.3547 -31.3492 -30.8268 -30.8267 -30.7421 -30.7420 -30.7026 -30.7026
   -16.6098 -15.7730 -15.7415 -15.7235 -15.5192 -15.5112 -15.5036 -15.4858
   -15.3259 -15.3134 -15.2864 -15.2690 -15.2368 -15.2337 -15.2058 -15.1730
   -15.1174 -15.1131 -15.1047 -15.1025 -15.0422 -15.0379 -15.0177 -14.9890
   -14.9870 -14.9810 -14.8861 -14.8842 -14.7161 -14.5262 -13.0076 -13.0075
    -9.3006  -6.3212  -4.6600  -3.0478  -2.9865  -2.9270  -2.7291  -2.7257
    -2.6946  -2.6140  -2.5550  -2.5424  -2.5048  -2.4867  -2.4766  -2.4257
    -2.3821  -2.3731  -2.3607  -2.3563  -2.3368  -2.3225  -2.2924  -2.2547
    -2.2457  -2.2178  -2.2033  -2.1774  -2.1749  -2.1392  -2.1147  -2.1014
    -2.0892  -2.0346  -1.9279  -1.8737  -1.7897  -1.7672  -1.7318  -1.7257
    -1.6475  -1.6174  -1.5910  -1.5500  -1.5392  -1.5065  -1.3011  -1.2698
    -1.2620  -1.2485  -1.2269  -1.0733  -1.0652  -1.0141  -0.9828  -0.9397
    -0.8794  -0.8419  -0.8317  -0.7480  -0.7145  -0.6726  -0.6321  -0.5098
    -0.5043  -0.4968  -0.4946  -0.4790  -0.3905  -0.3788  -0.3355  -0.3018
    -0.2608  -0.2467  -0.1824   0.0001   0.0152   0.0813   0.1896   0.2801
     0.3765   0.4568   0.4754   0.5273   0.5694   0.5919   0.6701   0.7645
     0.7764   0.8408   0.8893   0.9319   0.9361   0.9407   1.8597   1.8604
     1.9451   1.9452   3.6852   3.8091   3.8294   3.8687   3.8863   4.0340
     4.0817   4.1181   4.1415   4.1441   4.2254

     the Fermi energy is     3.6170 ev

!    total energy              =   -2919.11570949 Ry
     estimated scf accuracy    <       0.00000004 Ry
     smearing contrib. (-TS)   =      -0.03732968 Ry
     internal energy E=F+TS    =   -2919.07837981 Ry

     The total energy is F=E-TS. E is the sum of the following terms:
     one-electron contribution =  -24307.50615011 Ry
     hartree contribution      =   12241.21566032 Ry
     xc contribution           =    -480.02053637 Ry
     ewald contribution        =    9627.22959801 Ry
     electric field correction =       0.00304834 Ry

     convergence has been achieved in  70 iterations

     Forces acting on atoms (cartesian axes, Ry/au):

     atom    1 type  1   force =     0.00005039   -0.00015379    0.09380548
     atom    2 type  1   force =    -0.00018046   -0.00018042   -0.17777749
     atom    3 type  2   force =     0.00002640   -0.00022039   -0.02113876
     atom    4 type  2   force =    -0.00001638   -0.00198780    0.05775192
     atom    5 type  2   force =    -0.01108656   -0.00164741    0.00749051
     atom    6 type  2   force =     0.01244727   -0.00098277    0.00637091
     atom    7 type  1   force =    -0.00047768    0.00246225   -0.01334740
     atom    8 type  1   force =     0.00030184    0.00294229    0.00275273
     atom    9 type  2   force =     0.00007636   -0.00007781    0.00014872
     atom   10 type  2   force =    -0.00176411   -0.00227945   -0.00365935
     atom   11 type  2   force =     0.00015721    0.00059971   -0.00025163
     atom   12 type  2   force =     0.00045541    0.00053858   -0.00007021
     atom   13 type  1   force =    -0.00071946   -0.00094463   -0.00045697
     atom   14 type  1   force =     0.00082073    0.00027028   -0.00056419
     atom   15 type  2   force =     0.00027142    0.00021859    0.00019072
     atom   16 type  2   force =    -0.00008202    0.00033826   -0.00056956
     atom   17 type  2   force =     0.00023545    0.00016310    0.00046601
     atom   18 type  2   force =     0.00034302    0.00007399    0.00031367
     atom   19 type  1   force =     0.00023578   -0.00101980    0.00016227
     atom   20 type  1   force =    -0.00003510    0.00000963   -0.00065241
     atom   21 type  2   force =     0.00004444   -0.00002383    0.10381188
     atom   22 type  2   force =    -0.00000312   -0.00059453    0.00040421
     atom   23 type  2   force =    -0.07058337   -0.00013631   -0.02705548
     atom   24 type  2   force =     0.07046136    0.00033078   -0.02710169
     atom   25 type  1   force =     0.00008752   -0.00017915    0.09359471
     atom   26 type  1   force =    -0.00009239   -0.00028041   -0.17781737
     atom   27 type  2   force =     0.00008349   -0.00045425   -0.02018312
     atom   28 type  2   force =     0.00002510   -0.00169235    0.05724006
     atom   29 type  2   force =    -0.01117675   -0.00114876    0.00695314
     atom   30 type  2   force =     0.01242813   -0.00080757    0.00581629
     atom   31 type  1   force =    -0.00039303    0.00467742   -0.01441977
     atom   32 type  1   force =     0.00037174   -0.00362131    0.00246381
     atom   33 type  2   force =    -0.00000334    0.00057697    0.00040582
     atom   34 type  2   force =    -0.00117798   -0.00058695   -0.00100813
     atom   35 type  2   force =     0.00038527    0.00025086    0.00024098
     atom   36 type  2   force =     0.00014834    0.00032364    0.00021023
     atom   37 type  1   force =    -0.00053347    0.00131530   -0.00002522
     atom   38 type  1   force =     0.00086754    0.00007489   -0.00091749
     atom   39 type  2   force =     0.00012981    0.00047777    0.00062118
     atom   40 type  2   force =     0.00018161    0.00020684   -0.00047769
     atom   41 type  2   force =     0.00041502    0.00005645   -0.00059057
     atom   42 type  2   force =    -0.00031632   -0.00001467   -0.00058104
     atom   43 type  1   force =     0.00000630    0.00110204   -0.00002754
     atom   44 type  1   force =    -0.00018024    0.00052995   -0.00124240
     atom   45 type  2   force =     0.00004516   -0.00003949    0.10378823
     atom   46 type  2   force =    -0.07060625   -0.00007874   -0.02705256
     atom   47 type  2   force =     0.07048107    0.00033965   -0.02708107
     atom   48 type  3   force =    -0.01161580    0.00183314   -0.00793809
     atom   49 type  4   force =     0.02190778   -0.00751717    0.00515116
     atom   50 type  5   force =    -0.00274417    0.00232238    0.00189112
     atom   51 type  5   force =    -0.00881316    0.00440965    0.00226673
     atom   52 type  5   force =    -0.00088981    0.00022538   -0.00230530

     Total force =     0.367095     Total SCF correction =     0.000502
  @ DRIVER MODE: Message from server: STATUS
  @ DRIVER MODE: Message from server: GETFORCE
  @ DRIVER MODE: Returning v,forces,stress,ensemble 

     Writing output data file ./calc.save/
  @ DRIVER MODE: Message from server: EXIT
  @ DRIVE MODE: Exiting  
 
     init_run     :     12.97s CPU     13.54s WALL (       1 calls)
     electrons    :   1323.21s CPU   1340.42s WALL (       1 calls)
     forces       :      6.31s CPU      6.49s WALL (       1 calls)

     Called by init_run:
     wfcinit      :      9.03s CPU      9.14s WALL (       1 calls)
     potinit      :      2.09s CPU      2.14s WALL (       1 calls)
     hinit0       :      0.99s CPU      1.36s WALL (       1 calls)

     Called by electrons:
     c_bands      :   1031.32s CPU   1043.70s WALL (      70 calls)
     sum_band     :    186.45s CPU    189.53s WALL (      70 calls)
     v_of_rho     :     58.87s CPU     59.71s WALL (      71 calls)
     newd         :      6.11s CPU      6.17s WALL (      71 calls)
     mix_rho      :     37.04s CPU     37.62s WALL (      70 calls)
     vdW_kernel   :      1.01s CPU      1.02s WALL (       1 calls)

     Called by c_bands:
     init_us_2    :      1.01s CPU      1.11s WALL (    1420 calls)
     cegterg      :   1025.37s CPU   1037.27s WALL (     703 calls)

     Called by *egterg:
     cdiaghg      :    398.99s CPU    401.34s WALL (    7412 calls)
     h_psi        :    441.50s CPU    449.90s WALL (    7422 calls)
     s_psi        :     11.34s CPU     11.42s WALL (    7422 calls)
     g_psi        :      0.24s CPU      0.24s WALL (    6709 calls)

     Called by h_psi:
     h_psi:calbec :     19.45s CPU     19.84s WALL (    7422 calls)
     vloc_psi     :    409.08s CPU    416.93s WALL (    7422 calls)
     add_vuspsi   :     12.49s CPU     12.63s WALL (    7422 calls)

     General routines
     calbec       :     32.12s CPU     32.68s WALL (    8162 calls)
     fft          :     54.11s CPU     54.91s WALL (    4473 calls)
     ffts         :      1.07s CPU      1.09s WALL (     141 calls)
     fftw         :    578.41s CPU    588.70s WALL (  887536 calls)
     interpolate  :      1.94s CPU      1.98s WALL (      71 calls)
     davcio       :      0.00s CPU      0.15s WALL (      10 calls)
 
     Parallel routines
 
     PWSCF        :  22m33.53s CPU  23m23.44s WALL

 
   This run was terminated on:  12:33:48  24Aug2021            

=------------------------------------------------------------------------------=
   JOB DONE.
=------------------------------------------------------------------------------=
