
     Program PWSCF v.6.7GPU starts on  8Sep2021 at 22:10:22 

     This program is part of the open-source Quantum ESPRESSO suite
     for quantum simulation of materials; please cite
         "P. Giannozzi et al., J. Phys.:Condens. Matter 21 395502 (2009);
         "P. Giannozzi et al., J. Phys.:Condens. Matter 29 465901 (2017);
         "P. Giannozzi et al., J. Chem. Phys. 152 154105 (2020);
          URL http://www.quantum-espresso.org", 
     in publications or presentations arising from this work. More details at
     http://www.quantum-espresso.org/quote

     Parallel version (MPI), running on    10 processors

     MPI processes distributed on     1 nodes
     R & G space division:  proc/nbgrp/npool/nimage =      10
     Reading input from /storage/home/hcoda1/3/ntian30/research/carbon/CxH_vib/CH2_calc/ads_slab/CH2NH_a/out_0001/pw.inp
Warning: card &CELL ignored
Warning: card   CELL_DYNAMICS='IPI', ignored
Warning: card / ignored

     Current dimensions of program PWSCF are:
     Max number of different atomic species (ntypx) = 10
     Max number of k-points (npk) =  40000
     Max angular momentum in pseudopotentials (lmaxx) =  3
     Presently no symmetry can be used with electric field

     Message from routine cell_base_init:
     DEPRECATED: use true lattice parameter, not A to a.u. conversion factor

     **************************************************************************
     Initializing libbeef V0.1.2 with the BEEF-vdW functional.
     Citation: Wellendorff et al., PRB 85, 235149 (2012).
     **************************************************************************


     IMPORTANT: XC functional enforced from input :
     Exchange-correlation= BEEF-VDW
                           (   1   4  43  14   2   0   0)
     Any further DFT definition will be discarded
     Please, verify this is what you really want


     Subspace diagonalization in iterative solution of the eigenvalue problem:
     one sub-group per band group will be used
     scalapack distributed-memory algorithm (size of sub-group:  3*  3 procs)

  @ DRIVER MODE: Connecting to 
 qe_1139763_2767389.sched-torque.pace.gatech.edust7fkmhr_scratch
  using UNIX socket
  @ DRIVER MODE: Message from server: STATUS
  @ DRIVER MODE: Message from server: INIT
  @ DRIVER MODE: Receiving replica           0          -1
  @ DRIVER MODE: Receiving encoded integer          25
  @ DRIVER MODE:  SCF:  T  FORCE:  T  STRESS:  F  VC:  F  ENSEMBLE:  F
  @ DRIVER MODE:  SCF:  T  FORCE:  T  STRESS:  F  VC:  F  ENSEMBLE:  F
 
     Parallelization info
     --------------------
     sticks:   dense  smooth     PW     G-vecs:    dense   smooth      PW
     Min         327     131     37                56683    14340    2191
     Max         328     133     38                56694    14346    2206
     Sum        3275    1317    379               566857   143421   21985
 
     Using Slab Decomposition
 


     bravais-lattice index     =            0
     lattice parameter (alat)  =       1.8897  a.u.
     unit-cell volume          =    6658.9804 (a.u.)^3
     number of atoms/cell      =           52
     number of atomic types    =            5
     number of electrons       =       390.00
     number of Kohn-Sham states=          205
     kinetic-energy cutoff     =      29.3995  Ry
     charge density cutoff     =     293.9946  Ry
     scf convergence threshold =      7.3E-08
     mixing beta               =       0.0500
     number of iterations used =            8  plain     mixing
     Exchange-correlation= BEEF-VDW
                           (   1   4  43  14   2   0   0)

     celldm(1)=   1.889726  celldm(2)=   0.000000  celldm(3)=   0.000000
     celldm(4)=   0.000000  celldm(5)=   0.000000  celldm(6)=   0.000000

     crystal axes: (cart. coord. in units of alat)
               a(1) = (   6.579727   0.000000   0.000000 )  
               a(2) = (  -0.000775   5.961596   0.000000 )  
               a(3) = (   0.000000   0.000000  25.155947 )  

     reciprocal axes: (cart. coord. in units 2 pi/alat)
               b(1) = (  0.151982  0.000020  0.000000 )  
               b(2) = (  0.000000  0.167740  0.000000 )  
               b(3) = (  0.000000  0.000000  0.039752 )  


     PseudoPot. # 1 for Ti read from file:
     /storage/coda1/p-amedford6/0/shared/rich_project_chbe-medford/medford-share/data/pseudos_module/espresso/nninc/pbe/van/Ti.UPF
     MD5 check sum: 8e4df49b7f0d34bbd5052bf3f5ea0213
     Pseudo is Ultrasoft, Zval = 12.0
     Generated by new atomic code, or converted to UPF format
     Using radial grid of  851 points,  6 beta functions with: 
                l(1) =   0
                l(2) =   0
                l(3) =   1
                l(4) =   1
                l(5) =   2
                l(6) =   2
     Q(r) pseudized with  8 coefficients,  rinner =    1.000   1.000   1.000
                                                       1.000   1.000

     PseudoPot. # 2 for O  read from file:
     /storage/coda1/p-amedford6/0/shared/rich_project_chbe-medford/medford-share/data/pseudos_module/espresso/nninc/pbe/van/O.UPF
     MD5 check sum: 78c19812648e8988a0fe644b0f25305e
     Pseudo is Ultrasoft, Zval =  6.0
     Generated by new atomic code, or converted to UPF format
     Using radial grid of  737 points,  4 beta functions with: 
                l(1) =   0
                l(2) =   0
                l(3) =   1
                l(4) =   1
     Q(r) pseudized with  8 coefficients,  rinner =    0.800   0.800   0.800


     PseudoPot. # 3 for N  read from file:
     /storage/coda1/p-amedford6/0/shared/rich_project_chbe-medford/medford-share/data/pseudos_module/espresso/nninc/pbe/van/N.UPF
     MD5 check sum: 90d10febe142ad51ac9d5be1deb811c4
     Pseudo is Ultrasoft, Zval =  5.0
     Generated by new atomic code, or converted to UPF format
     Using radial grid of  729 points,  4 beta functions with: 
                l(1) =   0
                l(2) =   0
                l(3) =   1
                l(4) =   1
     Q(r) pseudized with  8 coefficients,  rinner =    0.800   0.800   0.800


     PseudoPot. # 4 for C  read from file:
     /storage/coda1/p-amedford6/0/shared/rich_project_chbe-medford/medford-share/data/pseudos_module/espresso/nninc/pbe/van/C.UPF
     MD5 check sum: 1a69bf6b8db32088f5b2163dbdb77a27
     Pseudo is Ultrasoft, Zval =  4.0
     Generated by new atomic code, or converted to UPF format
     Using radial grid of  721 points,  4 beta functions with: 
                l(1) =   0
                l(2) =   0
                l(3) =   1
                l(4) =   1
     Q(r) pseudized with  8 coefficients,  rinner =    0.800   0.800   0.800


     PseudoPot. # 5 for H  read from file:
     /storage/coda1/p-amedford6/0/shared/rich_project_chbe-medford/medford-share/data/pseudos_module/espresso/nninc/pbe/van/H.UPF
     MD5 check sum: b5ee9d7bfd3a09ee7748110bda690ff7
     Pseudo is Ultrasoft, Zval =  1.0
     Generated by new atomic code, or converted to UPF format
     Using radial grid of  615 points,  1 beta functions with: 
                l(1) =   0
     Q(r) pseudized with  8 coefficients,  rinner =    0.800

     atomic species   valence    mass     pseudopotential
        Ti1           12.00    47.86700     Ti( 1.00)
        O1             6.00    15.99900     O ( 1.00)
        N1             5.00    14.00700     N ( 1.00)
        C1             4.00    12.01100     C ( 1.00)
        H1             1.00     1.00800     H ( 1.00)

     No symmetry found



   Cartesian axes

     site n.     atom                  positions (alat units)
         1           Ti1 tau(   1) = (   0.0004258   2.9801865   6.0000000  )
         2           Ti1 tau(   2) = (   3.2906075   1.4906267   6.0002472  )
         3           O1  tau(   3) = (   0.0006271   0.0005054   7.9858123  )
         4           O1  tau(   4) = (   3.2906025   0.0005020   7.3038282  )
         5           O1  tau(   5) = (   4.5942328   1.4918067   9.2879030  )
         6           O1  tau(   6) = (   1.9868534   1.4903216   9.2879459  )
         7           Ti1 tau(   7) = (   3.2907910   2.8959150   9.1758416  )
         8           Ti1 tau(   8) = (   0.0015273   1.4827037   9.2680791  )
         9           O1  tau(   9) = (   3.2859541   5.9290403  11.3715426  )
        10           O1  tau(  10) = (   0.0116148   5.9584955  10.6183126  )
        11           O1  tau(  11) = (   1.2917987   1.4688796  12.6526629  )
        12           O1  tau(  12) = (   5.2888266   1.4686376  12.6403033  )
        13           Ti1 tau(  13) = (   0.0074927   2.9495069  12.5376589  )
        14           Ti1 tau(  14) = (   3.2957121   1.4606513  12.5174744  )
        15           O1  tau(  15) = (   6.5702453   0.0264740  14.6787910  )
        16           O1  tau(  16) = (   3.3001739   5.9406727  13.9930656  )
        17           O1  tau(  17) = (   4.5367710   1.4643441  16.2106543  )
        18           O1  tau(  18) = (   2.0349547   1.4576396  16.1973481  )
        19           Ti1 tau(  19) = (   3.2821410   2.9383233  15.7467721  )
        20           Ti1 tau(  20) = (   6.5624771   1.3975196  16.0657228  )
        21           O1  tau(  21) = (   3.2904802   0.0005063   4.7018136  )
        22           O1  tau(  22) = (   0.0049924   5.8117904  17.2112648  )
        23           O1  tau(  23) = (   1.3043587   1.4918075   6.0039043  )
        24           O1  tau(  24) = (   5.2767064   1.4903225   6.0039473  )
        25           Ti1 tau(  25) = (   0.0000382   5.9609847   6.0000000  )
        26           Ti1 tau(  26) = (   3.2902200   4.4714249   6.0002472  )
        27           O1  tau(  27) = (   0.0002396   2.9813036   7.9858123  )
        28           O1  tau(  28) = (   3.2902150   2.9813002   7.3038282  )
        29           O1  tau(  29) = (   4.5938453   4.4726049   9.2879030  )
        30           O1  tau(  30) = (   1.9864658   4.4711199   9.2879459  )
        31           Ti1 tau(  31) = (   3.2891106   5.8743827   9.1763621  )
        32           Ti1 tau(  32) = (   0.0006254   4.4649316   9.2693709  )
        33           O1  tau(  33) = (   3.2878059   2.9597088  11.3652031  )
        34           O1  tau(  34) = (   0.0092240   2.9805883  10.6323155  )
        35           O1  tau(  35) = (   1.2887225   4.4431869  12.6829221  )
        36           O1  tau(  36) = (   5.2901277   4.4428847  12.6690855  )
        37           Ti1 tau(  37) = (   0.0035388   5.9380168  12.5099366  )
        38           Ti1 tau(  38) = (   3.2962120   4.4389810  12.5267566  )
        39           O1  tau(  39) = (   6.5655450   2.9014274  14.9049457  )
        40           O1  tau(  40) = (   3.2937888   2.9365130  13.9572806  )
        41           O1  tau(  41) = (   4.5374039   4.4072578  16.1608974  )
        42           O1  tau(  42) = (   2.0345115   4.4188705  16.1151926  )
        43           Ti1 tau(  43) = (   3.2925710   5.9161036  15.7896908  )
        44           Ti1 tau(  44) = (   0.0121651   4.6006060  15.8502786  )
        45           O1  tau(  45) = (   3.2900926   2.9813045   4.7018136  )
        46           O1  tau(  46) = (   1.3039711   4.4726057   6.0039043  )
        47           O1  tau(  47) = (   5.2763189   4.4711207   6.0039473  )
        48           N1  tau(  48) = (   6.5481919   2.6818180  17.9522317  )
        49           C1  tau(  49) = (   0.8403426   2.5546117  18.8965076  )
        50           H1  tau(  50) = (   0.6793733   2.9585088  19.8916666  )
        51           H1  tau(  51) = (   1.7584391   2.0155774  18.6961775  )
        52           H1  tau(  52) = (   5.7198555   3.1867788  18.2393814  )

     number of k points=    10  Fermi-Dirac smearing, width (Ry)=  0.0073
                       cart. coord. in units 2pi/alat
        k(    1) = (   0.0000000   0.0000000   0.0000000), wk =   0.1250000
        k(    2) = (   0.0000000   0.0419351   0.0000000), wk =   0.2500000
        k(    3) = (   0.0000000  -0.0838702   0.0000000), wk =   0.1250000
        k(    4) = (   0.0379955   0.0000049   0.0000000), wk =   0.2500000
        k(    5) = (   0.0379955   0.0419400   0.0000000), wk =   0.2500000
        k(    6) = (   0.0379955  -0.0838652   0.0000000), wk =   0.2500000
        k(    7) = (   0.0379955  -0.0419301   0.0000000), wk =   0.2500000
        k(    8) = (  -0.0759910  -0.0000099   0.0000000), wk =   0.1250000
        k(    9) = (  -0.0759910   0.0419252   0.0000000), wk =   0.2500000
        k(   10) = (  -0.0759910  -0.0838800   0.0000000), wk =   0.1250000

     Dense  grid:   566857 G-vectors     FFT dimensions: (  72,  64, 270)

     Smooth grid:   143421 G-vectors     FFT dimensions: (  45,  40, 180)

     Estimated max dynamical RAM per process >     362.58 MB

     Estimated total dynamical RAM >       3.54 GB
     Cannot read rho : file not found

     Initial potential from superposition of free atoms

     starting charge  373.99917, renormalised to  390.00000

     negative rho (up, down):  1.699E-02 0.000E+00


     %%%%%%%%%%%%%%%%%%%%%%%%%%%%%%%%%%%%%%%%%%%%%%%%%%%%%%%%%%%%%%%%%%%%%%%%
     %                                                                      %
     % You are using vdW-DF, which was implemented by the Thonhauser group. %
     % Please cite the following two papers that made this development      %
     % possible and the two reviews that describe the various versions:     %
     %                                                                      %
     %   T. Thonhauser et al., PRL 115, 136402 (2015).                      %
     %   T. Thonhauser et al., PRB 76, 125112 (2007).                       %
     %   K. Berland et al., Rep. Prog. Phys. 78, 066501 (2015).             %
     %   D.C. Langreth et al., J. Phys.: Condens. Matter 21, 084203 (2009). %
     %                                                                      %
     %                                                                      %
     % If you are calculating the stress with vdW-DF, please also cite:     %
     %                                                                      %
     %   R. Sabatini et al., J. Phys.: Condens. Matter 24, 424209 (2012).   %
     %                                                                      %
     %%%%%%%%%%%%%%%%%%%%%%%%%%%%%%%%%%%%%%%%%%%%%%%%%%%%%%%%%%%%%%%%%%%%%%%%


 
     Adding external electric field

     Computed dipole along edir(3) : 
        Dipole               -6.0480 Ry au,        -15.3725 Debye
        Dipole field         -0.0114 Ry au, 
 
        Potential amp.        1.0580 Ry
        Total length         46.3494 bohr
 
     Starting wfcs are  295 atomic wfcs
  @ DRIVER MODE: Message from server: STATUS
  @ DRIVER MODE: Message from server: POSDATA
  @ DRIVER MODE: Reading and sharing cell 
  @ DRIVER MODE: Reading and sharing positions 
  @ DRIVER MODE: Received positions 

     total cpu time spent up to now is       11.3 secs

     Self-consistent Calculation

     iteration #  1     ecut=    29.40 Ry     beta= 0.05
     Davidson diagonalization with overlap
     c_bands:  1 eigenvalues not converged
     c_bands:  1 eigenvalues not converged
     ethr =  1.00E-05,  avg # of iterations = 16.8

     negative rho (up, down):  1.630E-02 0.000E+00
 
     Adding external electric field

     Computed dipole along edir(3) : 
        Dipole               26.9555 Ry au,         68.5140 Debye
        Dipole field          0.0509 Ry au, 
 
        Potential amp.       -4.7155 Ry
        Total length         46.3494 bohr
 

     total cpu time spent up to now is       47.2 secs

     total energy              =   -2758.77041485 Ry
     estimated scf accuracy    <    1760.52412434 Ry

     iteration #  2     ecut=    29.40 Ry     beta= 0.05
     Davidson diagonalization with overlap
     ethr =  1.00E-02,  avg # of iterations = 18.4

     negative rho (up, down):  6.038E-03 0.000E+00
 
     Adding external electric field

     Computed dipole along edir(3) : 
        Dipole               -2.5250 Ry au,         -6.4178 Debye
        Dipole field         -0.0048 Ry au, 
 
        Potential amp.        0.4417 Ry
        Total length         46.3494 bohr
 

     total cpu time spent up to now is       93.9 secs

     total energy              =   -2640.83421908 Ry
     estimated scf accuracy    <   37546.69968004 Ry

     iteration #  3     ecut=    29.40 Ry     beta= 0.05
     Davidson diagonalization with overlap
     ethr =  1.00E-02,  avg # of iterations = 14.7

     negative rho (up, down):  6.107E-03 0.000E+00
 
     Adding external electric field

     Computed dipole along edir(3) : 
        Dipole               -3.7067 Ry au,         -9.4215 Debye
        Dipole field         -0.0070 Ry au, 
 
        Potential amp.        0.6484 Ry
        Total length         46.3494 bohr
 

     total cpu time spent up to now is      132.1 secs

     total energy              =   -2906.86726521 Ry
     estimated scf accuracy    <    1563.60244200 Ry

     iteration #  4     ecut=    29.40 Ry     beta= 0.05
     Davidson diagonalization with overlap
     ethr =  1.00E-02,  avg # of iterations =  7.2

     negative rho (up, down):  6.289E-03 0.000E+00
 
     Adding external electric field

     Computed dipole along edir(3) : 
        Dipole               -4.9244 Ry au,        -12.5166 Debye
        Dipole field         -0.0093 Ry au, 
 
        Potential amp.        0.8615 Ry
        Total length         46.3494 bohr
 

     total cpu time spent up to now is      144.2 secs

     total energy              =   -2895.14652903 Ry
     estimated scf accuracy    <    1180.54953481 Ry

     iteration #  5     ecut=    29.40 Ry     beta= 0.05
     Davidson diagonalization with overlap
     ethr =  1.00E-02,  avg # of iterations = 12.6

     negative rho (up, down):  5.886E-03 0.000E+00
 
     Adding external electric field

     Computed dipole along edir(3) : 
        Dipole               -4.4998 Ry au,        -11.4373 Debye
        Dipole field         -0.0085 Ry au, 
 
        Potential amp.        0.7872 Ry
        Total length         46.3494 bohr
 

     total cpu time spent up to now is      166.2 secs

     total energy              =   -2921.86605983 Ry
     estimated scf accuracy    <      17.94706609 Ry

     iteration #  6     ecut=    29.40 Ry     beta= 0.05
     Davidson diagonalization with overlap
     ethr =  4.60E-03,  avg # of iterations =  1.3

     negative rho (up, down):  6.194E-03 0.000E+00
 
     Adding external electric field

     Computed dipole along edir(3) : 
        Dipole               -2.7762 Ry au,         -7.0563 Debye
        Dipole field         -0.0052 Ry au, 
 
        Potential amp.        0.4856 Ry
        Total length         46.3494 bohr
 

     total cpu time spent up to now is      176.1 secs

     total energy              =   -2919.01769456 Ry
     estimated scf accuracy    <      15.25647632 Ry

     iteration #  7     ecut=    29.40 Ry     beta= 0.05
     Davidson diagonalization with overlap
     ethr =  3.91E-03,  avg # of iterations =  6.9

     negative rho (up, down):  6.792E-03 0.000E+00
 
     Adding external electric field

     Computed dipole along edir(3) : 
        Dipole               -1.3258 Ry au,         -3.3698 Debye
        Dipole field         -0.0025 Ry au, 
 
        Potential amp.        0.2319 Ry
        Total length         46.3494 bohr
 

     total cpu time spent up to now is      187.9 secs

     total energy              =   -2918.73675432 Ry
     estimated scf accuracy    <       6.04154613 Ry

     iteration #  8     ecut=    29.40 Ry     beta= 0.05
     Davidson diagonalization with overlap
     c_bands:  2 eigenvalues not converged
     ethr =  1.55E-03,  avg # of iterations = 18.8

     negative rho (up, down):  6.636E-03 0.000E+00
 
     Adding external electric field

     Computed dipole along edir(3) : 
        Dipole               -1.3130 Ry au,         -3.3373 Debye
        Dipole field         -0.0025 Ry au, 
 
        Potential amp.        0.2297 Ry
        Total length         46.3494 bohr
 

     total cpu time spent up to now is      212.1 secs

     total energy              =   -2924.68170378 Ry
     estimated scf accuracy    <    1018.90314458 Ry

     iteration #  9     ecut=    29.40 Ry     beta= 0.05
     Davidson diagonalization with overlap
     ethr =  1.55E-03,  avg # of iterations =  1.6

     negative rho (up, down):  6.575E-03 0.000E+00
 
     Adding external electric field

     Computed dipole along edir(3) : 
        Dipole               -1.4295 Ry au,         -3.6333 Debye
        Dipole field         -0.0027 Ry au, 
 
        Potential amp.        0.2501 Ry
        Total length         46.3494 bohr
 

     total cpu time spent up to now is      222.2 secs

     total energy              =   -2923.62924485 Ry
     estimated scf accuracy    <     847.98008256 Ry

     iteration # 10     ecut=    29.40 Ry     beta= 0.05
     Davidson diagonalization with overlap
     ethr =  1.55E-03,  avg # of iterations =  1.0

     negative rho (up, down):  6.691E-03 0.000E+00
 
     Adding external electric field

     Computed dipole along edir(3) : 
        Dipole               -1.0457 Ry au,         -2.6580 Debye
        Dipole field         -0.0020 Ry au, 
 
        Potential amp.        0.1829 Ry
        Total length         46.3494 bohr
 

     total cpu time spent up to now is      231.8 secs

     total energy              =   -2924.55390696 Ry
     estimated scf accuracy    <     664.68278853 Ry

     iteration # 11     ecut=    29.40 Ry     beta= 0.05
     Davidson diagonalization with overlap
     ethr =  1.55E-03,  avg # of iterations =  1.1

     negative rho (up, down):  6.260E-03 0.000E+00
 
     Adding external electric field

     Computed dipole along edir(3) : 
        Dipole               -2.3643 Ry au,         -6.0095 Debye
        Dipole field         -0.0045 Ry au, 
 
        Potential amp.        0.4136 Ry
        Total length         46.3494 bohr
 

     total cpu time spent up to now is      241.5 secs

     total energy              =   -2908.89988195 Ry
     estimated scf accuracy    <     739.39248736 Ry

     iteration # 12     ecut=    29.40 Ry     beta= 0.05
     Davidson diagonalization with overlap
     c_bands:  3 eigenvalues not converged
     c_bands:  2 eigenvalues not converged
     c_bands:  3 eigenvalues not converged
     c_bands:  3 eigenvalues not converged
     c_bands:  1 eigenvalues not converged
     c_bands:  1 eigenvalues not converged
     c_bands:  1 eigenvalues not converged
     c_bands:  3 eigenvalues not converged
     c_bands:  1 eigenvalues not converged
     c_bands:  2 eigenvalues not converged
     ethr =  1.55E-03,  avg # of iterations = 20.0

     negative rho (up, down):  6.214E-03 0.000E+00
 
     Adding external electric field

     Computed dipole along edir(3) : 
        Dipole               -2.0751 Ry au,         -5.2744 Debye
        Dipole field         -0.0039 Ry au, 
 
        Potential amp.        0.3630 Ry
        Total length         46.3494 bohr
 

     total cpu time spent up to now is      269.2 secs

     total energy              =   -2918.43177266 Ry
     estimated scf accuracy    <      36.48210456 Ry

     iteration # 13     ecut=    29.40 Ry     beta= 0.05
     Davidson diagonalization with overlap
     ethr =  1.55E-03,  avg # of iterations =  4.2

     negative rho (up, down):  5.908E-03 0.000E+00
 
     Adding external electric field

     Computed dipole along edir(3) : 
        Dipole               -2.9010 Ry au,         -7.3737 Debye
        Dipole field         -0.0055 Ry au, 
 
        Potential amp.        0.5075 Ry
        Total length         46.3494 bohr
 

     total cpu time spent up to now is      280.1 secs

     total energy              =   -2919.30265486 Ry
     estimated scf accuracy    <       2.25263984 Ry

     iteration # 14     ecut=    29.40 Ry     beta= 0.05
     Davidson diagonalization with overlap
     ethr =  5.78E-04,  avg # of iterations = 11.5

     negative rho (up, down):  5.981E-03 0.000E+00
 
     Adding external electric field

     Computed dipole along edir(3) : 
        Dipole               -2.2722 Ry au,         -5.7753 Debye
        Dipole field         -0.0043 Ry au, 
 
        Potential amp.        0.3975 Ry
        Total length         46.3494 bohr
 

     total cpu time spent up to now is      296.9 secs

     total energy              =   -2919.57609391 Ry
     estimated scf accuracy    <      14.79132412 Ry

     iteration # 15     ecut=    29.40 Ry     beta= 0.05
     Davidson diagonalization with overlap
     ethr =  5.78E-04,  avg # of iterations =  1.2

     negative rho (up, down):  6.122E-03 0.000E+00
 
     Adding external electric field

     Computed dipole along edir(3) : 
        Dipole               -1.5488 Ry au,         -3.9367 Debye
        Dipole field         -0.0029 Ry au, 
 
        Potential amp.        0.2709 Ry
        Total length         46.3494 bohr
 

     total cpu time spent up to now is      307.0 secs

     total energy              =   -2919.30748872 Ry
     estimated scf accuracy    <       6.77624987 Ry

     iteration # 16     ecut=    29.40 Ry     beta= 0.05
     Davidson diagonalization with overlap
     ethr =  5.78E-04,  avg # of iterations =  2.3

     negative rho (up, down):  6.205E-03 0.000E+00
 
     Adding external electric field

     Computed dipole along edir(3) : 
        Dipole               -1.1019 Ry au,         -2.8007 Debye
        Dipole field         -0.0021 Ry au, 
 
        Potential amp.        0.1928 Ry
        Total length         46.3494 bohr
 

     total cpu time spent up to now is      317.9 secs

     total energy              =   -2919.27729904 Ry
     estimated scf accuracy    <       5.29328614 Ry

     iteration # 17     ecut=    29.40 Ry     beta= 0.05
     Davidson diagonalization with overlap
     ethr =  5.78E-04,  avg # of iterations =  1.7

     negative rho (up, down):  6.237E-03 0.000E+00
 
     Adding external electric field

     Computed dipole along edir(3) : 
        Dipole               -0.8197 Ry au,         -2.0834 Debye
        Dipole field         -0.0015 Ry au, 
 
        Potential amp.        0.1434 Ry
        Total length         46.3494 bohr
 

     total cpu time spent up to now is      327.9 secs

     total energy              =   -2919.28799495 Ry
     estimated scf accuracy    <       4.40406946 Ry

     iteration # 18     ecut=    29.40 Ry     beta= 0.05
     Davidson diagonalization with overlap
     ethr =  5.78E-04,  avg # of iterations =  1.8

     negative rho (up, down):  6.564E-03 0.000E+00
 
     Adding external electric field

     Computed dipole along edir(3) : 
        Dipole               -0.0995 Ry au,         -0.2530 Debye
        Dipole field         -0.0002 Ry au, 
 
        Potential amp.        0.0174 Ry
        Total length         46.3494 bohr
 

     total cpu time spent up to now is      337.9 secs

     total energy              =   -2919.27665583 Ry
     estimated scf accuracy    <       3.99328856 Ry

     iteration # 19     ecut=    29.40 Ry     beta= 0.05
     Davidson diagonalization with overlap
     ethr =  5.78E-04,  avg # of iterations =  1.9

     negative rho (up, down):  6.728E-03 0.000E+00
 
     Adding external electric field

     Computed dipole along edir(3) : 
        Dipole                0.0472 Ry au,          0.1201 Debye
        Dipole field          0.0001 Ry au, 
 
        Potential amp.       -0.0083 Ry
        Total length         46.3494 bohr
 

     total cpu time spent up to now is      348.0 secs

     total energy              =   -2919.28468909 Ry
     estimated scf accuracy    <       3.61694762 Ry

     iteration # 20     ecut=    29.40 Ry     beta= 0.05
     Davidson diagonalization with overlap
     ethr =  5.78E-04,  avg # of iterations =  1.0

     negative rho (up, down):  7.109E-03 0.000E+00
 
     Adding external electric field

     Computed dipole along edir(3) : 
        Dipole                0.6993 Ry au,          1.7774 Debye
        Dipole field          0.0013 Ry au, 
 
        Potential amp.       -0.1223 Ry
        Total length         46.3494 bohr
 

     total cpu time spent up to now is      357.8 secs

     total energy              =   -2919.09569441 Ry
     estimated scf accuracy    <       3.33177005 Ry

     iteration # 21     ecut=    29.40 Ry     beta= 0.05
     Davidson diagonalization with overlap
     ethr =  5.78E-04,  avg # of iterations = 11.0

     negative rho (up, down):  7.021E-03 0.000E+00
 
     Adding external electric field

     Computed dipole along edir(3) : 
        Dipole                0.7932 Ry au,          2.0162 Debye
        Dipole field          0.0015 Ry au, 
 
        Potential amp.       -0.1388 Ry
        Total length         46.3494 bohr
 

     total cpu time spent up to now is      371.0 secs

     total energy              =   -2919.14479220 Ry
     estimated scf accuracy    <       1.36756588 Ry

     iteration # 22     ecut=    29.40 Ry     beta= 0.05
     Davidson diagonalization with overlap
     ethr =  3.51E-04,  avg # of iterations =  5.3

     negative rho (up, down):  6.849E-03 0.000E+00
 
     Adding external electric field

     Computed dipole along edir(3) : 
        Dipole                0.7003 Ry au,          1.7799 Debye
        Dipole field          0.0013 Ry au, 
 
        Potential amp.       -0.1225 Ry
        Total length         46.3494 bohr
 

     total cpu time spent up to now is      382.3 secs

     total energy              =   -2919.12172226 Ry
     estimated scf accuracy    <       1.15355472 Ry

     iteration # 23     ecut=    29.40 Ry     beta= 0.05
     Davidson diagonalization with overlap
     ethr =  2.96E-04,  avg # of iterations =  2.4

     negative rho (up, down):  6.680E-03 0.000E+00
 
     Adding external electric field

     Computed dipole along edir(3) : 
        Dipole                0.4908 Ry au,          1.2474 Debye
        Dipole field          0.0009 Ry au, 
 
        Potential amp.       -0.0859 Ry
        Total length         46.3494 bohr
 

     total cpu time spent up to now is      392.5 secs

     total energy              =   -2919.07825122 Ry
     estimated scf accuracy    <       1.41717175 Ry

     iteration # 24     ecut=    29.40 Ry     beta= 0.05
     Davidson diagonalization with overlap
     c_bands:  5 eigenvalues not converged
     c_bands:  4 eigenvalues not converged
     c_bands:  5 eigenvalues not converged
     c_bands:  3 eigenvalues not converged
     c_bands:  5 eigenvalues not converged
     c_bands:  4 eigenvalues not converged
     ethr =  2.96E-04,  avg # of iterations = 22.3

     negative rho (up, down):  6.578E-03 0.000E+00
 
     Adding external electric field

     Computed dipole along edir(3) : 
        Dipole                0.3448 Ry au,          0.8764 Debye
        Dipole field          0.0007 Ry au, 
 
        Potential amp.       -0.0603 Ry
        Total length         46.3494 bohr
 

     total cpu time spent up to now is      412.9 secs

     total energy              =   -2919.06197647 Ry
     estimated scf accuracy    <       1.64068304 Ry

     iteration # 25     ecut=    29.40 Ry     beta= 0.05
     Davidson diagonalization with overlap
     c_bands:  1 eigenvalues not converged
     ethr =  2.96E-04,  avg # of iterations =  8.7

     negative rho (up, down):  6.506E-03 0.000E+00
 
     Adding external electric field

     Computed dipole along edir(3) : 
        Dipole                0.2060 Ry au,          0.5235 Debye
        Dipole field          0.0004 Ry au, 
 
        Potential amp.       -0.0360 Ry
        Total length         46.3494 bohr
 

     total cpu time spent up to now is      425.2 secs

     total energy              =   -2919.10326739 Ry
     estimated scf accuracy    <       0.47926447 Ry

     iteration # 26     ecut=    29.40 Ry     beta= 0.05
     Davidson diagonalization with overlap
     c_bands:  1 eigenvalues not converged
     c_bands:  2 eigenvalues not converged
     c_bands:  2 eigenvalues not converged
     ethr =  1.23E-04,  avg # of iterations = 18.4

     negative rho (up, down):  6.600E-03 0.000E+00
 
     Adding external electric field

     Computed dipole along edir(3) : 
        Dipole                0.3737 Ry au,          0.9499 Debye
        Dipole field          0.0007 Ry au, 
 
        Potential amp.       -0.0654 Ry
        Total length         46.3494 bohr
 

     total cpu time spent up to now is      443.1 secs

     total energy              =   -2919.09060542 Ry
     estimated scf accuracy    <       0.90433331 Ry

     iteration # 27     ecut=    29.40 Ry     beta= 0.05
     Davidson diagonalization with overlap
     c_bands:  4 eigenvalues not converged
     c_bands:  3 eigenvalues not converged
     c_bands:  4 eigenvalues not converged
     c_bands:  4 eigenvalues not converged
     ethr =  1.23E-04,  avg # of iterations = 16.1

     negative rho (up, down):  6.776E-03 0.000E+00
 
     Adding external electric field

     Computed dipole along edir(3) : 
        Dipole                0.6721 Ry au,          1.7083 Debye
        Dipole field          0.0013 Ry au, 
 
        Potential amp.       -0.1176 Ry
        Total length         46.3494 bohr
 

     total cpu time spent up to now is      458.4 secs

     total energy              =   -2919.09983374 Ry
     estimated scf accuracy    <       0.28939564 Ry

     iteration # 28     ecut=    29.40 Ry     beta= 0.05
     Davidson diagonalization with overlap
     c_bands:  1 eigenvalues not converged
     c_bands:  3 eigenvalues not converged
     c_bands:  4 eigenvalues not converged
     c_bands:  2 eigenvalues not converged
     c_bands:  1 eigenvalues not converged
     c_bands:  2 eigenvalues not converged
     c_bands:  2 eigenvalues not converged
     c_bands:  2 eigenvalues not converged
     c_bands:  4 eigenvalues not converged
     c_bands:  1 eigenvalues not converged
     ethr =  7.42E-05,  avg # of iterations = 22.0

     negative rho (up, down):  6.791E-03 0.000E+00
 
     Adding external electric field

     Computed dipole along edir(3) : 
        Dipole                0.6912 Ry au,          1.7569 Debye
        Dipole field          0.0013 Ry au, 
 
        Potential amp.       -0.1209 Ry
        Total length         46.3494 bohr
 

     total cpu time spent up to now is      478.7 secs

     total energy              =   -2919.10871030 Ry
     estimated scf accuracy    <       1.29343695 Ry

     iteration # 29     ecut=    29.40 Ry     beta= 0.05
     Davidson diagonalization with overlap
     ethr =  7.42E-05,  avg # of iterations =  3.1

     negative rho (up, down):  7.437E-03 0.000E+00
 
     Adding external electric field

     Computed dipole along edir(3) : 
        Dipole                1.1078 Ry au,          2.8158 Debye
        Dipole field          0.0021 Ry au, 
 
        Potential amp.       -0.1938 Ry
        Total length         46.3494 bohr
 

     total cpu time spent up to now is      489.0 secs

     total energy              =   -2919.11132939 Ry
     estimated scf accuracy    <       0.44638101 Ry

     iteration # 30     ecut=    29.40 Ry     beta= 0.05
     Davidson diagonalization with overlap
     c_bands:  2 eigenvalues not converged
     ethr =  7.42E-05,  avg # of iterations = 11.3

     negative rho (up, down):  7.584E-03 0.000E+00
 
     Adding external electric field

     Computed dipole along edir(3) : 
        Dipole                1.1138 Ry au,          2.8311 Debye
        Dipole field          0.0021 Ry au, 
 
        Potential amp.       -0.1948 Ry
        Total length         46.3494 bohr
 

     total cpu time spent up to now is      502.1 secs

     total energy              =   -2919.10672189 Ry
     estimated scf accuracy    <       0.83983353 Ry

     iteration # 31     ecut=    29.40 Ry     beta= 0.05
     Davidson diagonalization with overlap
     ethr =  7.42E-05,  avg # of iterations =  4.3

     negative rho (up, down):  7.729E-03 0.000E+00
 
     Adding external electric field

     Computed dipole along edir(3) : 
        Dipole                1.1321 Ry au,          2.8775 Debye
        Dipole field          0.0021 Ry au, 
 
        Potential amp.       -0.1980 Ry
        Total length         46.3494 bohr
 

     total cpu time spent up to now is      512.9 secs

     total energy              =   -2919.11186285 Ry
     estimated scf accuracy    <       0.12994568 Ry

     iteration # 32     ecut=    29.40 Ry     beta= 0.05
     Davidson diagonalization with overlap
     c_bands:  1 eigenvalues not converged
     c_bands:  1 eigenvalues not converged
     ethr =  3.33E-05,  avg # of iterations = 11.8

     negative rho (up, down):  7.629E-03 0.000E+00
 
     Adding external electric field

     Computed dipole along edir(3) : 
        Dipole                1.0582 Ry au,          2.6897 Debye
        Dipole field          0.0020 Ry au, 
 
        Potential amp.       -0.1851 Ry
        Total length         46.3494 bohr
 

     total cpu time spent up to now is      526.3 secs

     total energy              =   -2919.11324672 Ry
     estimated scf accuracy    <       0.04748699 Ry

     iteration # 33     ecut=    29.40 Ry     beta= 0.05
     Davidson diagonalization with overlap
     c_bands:  2 eigenvalues not converged
     c_bands:  3 eigenvalues not converged
     c_bands:  2 eigenvalues not converged
     c_bands:  3 eigenvalues not converged
     c_bands:  3 eigenvalues not converged
     c_bands:  2 eigenvalues not converged
     c_bands:  1 eigenvalues not converged
     c_bands:  1 eigenvalues not converged
     c_bands:  1 eigenvalues not converged
     c_bands:  3 eigenvalues not converged
     ethr =  1.22E-05,  avg # of iterations = 20.0

     negative rho (up, down):  7.313E-03 0.000E+00
 
     Adding external electric field

     Computed dipole along edir(3) : 
        Dipole                0.9458 Ry au,          2.4040 Debye
        Dipole field          0.0018 Ry au, 
 
        Potential amp.       -0.1655 Ry
        Total length         46.3494 bohr
 

     total cpu time spent up to now is      545.1 secs

     total energy              =   -2919.10917666 Ry
     estimated scf accuracy    <       0.13223937 Ry

     iteration # 34     ecut=    29.40 Ry     beta= 0.05
     Davidson diagonalization with overlap
     c_bands:  1 eigenvalues not converged
     c_bands:  1 eigenvalues not converged
     ethr =  1.22E-05,  avg # of iterations = 13.7

     negative rho (up, down):  7.661E-03 0.000E+00
 
     Adding external electric field

     Computed dipole along edir(3) : 
        Dipole                1.0383 Ry au,          2.6390 Debye
        Dipole field          0.0020 Ry au, 
 
        Potential amp.       -0.1816 Ry
        Total length         46.3494 bohr
 

     total cpu time spent up to now is      558.9 secs

     total energy              =   -2919.11240443 Ry
     estimated scf accuracy    <       0.02950470 Ry

     iteration # 35     ecut=    29.40 Ry     beta= 0.05
     Davidson diagonalization with overlap
     ethr =  7.57E-06,  avg # of iterations =  9.3

     negative rho (up, down):  1.132E-02 0.000E+00
 
     Adding external electric field

     Computed dipole along edir(3) : 
        Dipole                1.2430 Ry au,          3.1595 Debye
        Dipole field          0.0023 Ry au, 
 
        Potential amp.       -0.2174 Ry
        Total length         46.3494 bohr
 

     total cpu time spent up to now is      571.2 secs

     total energy              =   -2919.11335692 Ry
     estimated scf accuracy    <       0.02903746 Ry

     iteration # 36     ecut=    29.40 Ry     beta= 0.05
     Davidson diagonalization with overlap
     c_bands:  1 eigenvalues not converged
     c_bands:  1 eigenvalues not converged
     ethr =  7.45E-06,  avg # of iterations = 15.3

     negative rho (up, down):  1.182E-02 0.000E+00
 
     Adding external electric field

     Computed dipole along edir(3) : 
        Dipole                1.1907 Ry au,          3.0264 Debye
        Dipole field          0.0022 Ry au, 
 
        Potential amp.       -0.2083 Ry
        Total length         46.3494 bohr
 

     total cpu time spent up to now is      587.1 secs

     total energy              =   -2919.11503127 Ry
     estimated scf accuracy    <       0.04794350 Ry

     iteration # 37     ecut=    29.40 Ry     beta= 0.05
     Davidson diagonalization with overlap
     ethr =  7.45E-06,  avg # of iterations =  7.2

     negative rho (up, down):  1.215E-02 0.000E+00
 
     Adding external electric field

     Computed dipole along edir(3) : 
        Dipole                1.2411 Ry au,          3.1545 Debye
        Dipole field          0.0023 Ry au, 
 
        Potential amp.       -0.2171 Ry
        Total length         46.3494 bohr
 

     total cpu time spent up to now is      598.9 secs

     total energy              =   -2919.11451900 Ry
     estimated scf accuracy    <       0.03113653 Ry

     iteration # 38     ecut=    29.40 Ry     beta= 0.05
     Davidson diagonalization with overlap
     ethr =  7.45E-06,  avg # of iterations =  7.6

     negative rho (up, down):  1.274E-02 0.000E+00
 
     Adding external electric field

     Computed dipole along edir(3) : 
        Dipole                1.2467 Ry au,          3.1687 Debye
        Dipole field          0.0024 Ry au, 
 
        Potential amp.       -0.2181 Ry
        Total length         46.3494 bohr
 

     total cpu time spent up to now is      610.9 secs

     total energy              =   -2919.11475080 Ry
     estimated scf accuracy    <       0.01118943 Ry

     iteration # 39     ecut=    29.40 Ry     beta= 0.05
     Davidson diagonalization with overlap
     c_bands:  1 eigenvalues not converged
     c_bands:  1 eigenvalues not converged
     c_bands:  1 eigenvalues not converged
     ethr =  2.87E-06,  avg # of iterations = 14.2

     negative rho (up, down):  1.340E-02 0.000E+00
 
     Adding external electric field

     Computed dipole along edir(3) : 
        Dipole                1.2149 Ry au,          3.0880 Debye
        Dipole field          0.0023 Ry au, 
 
        Potential amp.       -0.2125 Ry
        Total length         46.3494 bohr
 

     total cpu time spent up to now is      625.6 secs

     total energy              =   -2919.11495566 Ry
     estimated scf accuracy    <       0.00493378 Ry

     iteration # 40     ecut=    29.40 Ry     beta= 0.05
     Davidson diagonalization with overlap
     c_bands:  1 eigenvalues not converged
     c_bands:  1 eigenvalues not converged
     ethr =  1.27E-06,  avg # of iterations = 15.2

     negative rho (up, down):  1.473E-02 0.000E+00
 
     Adding external electric field

     Computed dipole along edir(3) : 
        Dipole                1.2306 Ry au,          3.1278 Debye
        Dipole field          0.0023 Ry au, 
 
        Potential amp.       -0.2153 Ry
        Total length         46.3494 bohr
 

     total cpu time spent up to now is      640.4 secs

     total energy              =   -2919.11507604 Ry
     estimated scf accuracy    <       0.00164744 Ry

     iteration # 41     ecut=    29.40 Ry     beta= 0.05
     Davidson diagonalization with overlap
     c_bands:  1 eigenvalues not converged
     c_bands:  1 eigenvalues not converged
     ethr =  4.22E-07,  avg # of iterations = 16.8

     negative rho (up, down):  1.481E-02 0.000E+00
 
     Adding external electric field

     Computed dipole along edir(3) : 
        Dipole                1.2356 Ry au,          3.1405 Debye
        Dipole field          0.0023 Ry au, 
 
        Potential amp.       -0.2161 Ry
        Total length         46.3494 bohr
 

     total cpu time spent up to now is      659.5 secs

     total energy              =   -2919.11532951 Ry
     estimated scf accuracy    <       0.00123922 Ry

     iteration # 42     ecut=    29.40 Ry     beta= 0.05
     Davidson diagonalization with overlap
     ethr =  3.18E-07,  avg # of iterations =  2.5

     negative rho (up, down):  1.529E-02 0.000E+00
 
     Adding external electric field

     Computed dipole along edir(3) : 
        Dipole                1.2454 Ry au,          3.1656 Debye
        Dipole field          0.0024 Ry au, 
 
        Potential amp.       -0.2179 Ry
        Total length         46.3494 bohr
 

     total cpu time spent up to now is      670.5 secs

     total energy              =   -2919.11539406 Ry
     estimated scf accuracy    <       0.00063029 Ry

     iteration # 43     ecut=    29.40 Ry     beta= 0.05
     Davidson diagonalization with overlap
     c_bands:  1 eigenvalues not converged
     ethr =  1.62E-07,  avg # of iterations = 14.2

     negative rho (up, down):  1.601E-02 0.000E+00
 
     Adding external electric field

     Computed dipole along edir(3) : 
        Dipole                1.2464 Ry au,          3.1681 Debye
        Dipole field          0.0024 Ry au, 
 
        Potential amp.       -0.2180 Ry
        Total length         46.3494 bohr
 

     total cpu time spent up to now is      685.5 secs

     total energy              =   -2919.11543606 Ry
     estimated scf accuracy    <       0.00034522 Ry

     iteration # 44     ecut=    29.40 Ry     beta= 0.05
     Davidson diagonalization with overlap
     ethr =  8.85E-08,  avg # of iterations =  7.7

     negative rho (up, down):  1.619E-02 0.000E+00
 
     Adding external electric field

     Computed dipole along edir(3) : 
        Dipole                1.2358 Ry au,          3.1410 Debye
        Dipole field          0.0023 Ry au, 
 
        Potential amp.       -0.2162 Ry
        Total length         46.3494 bohr
 

     total cpu time spent up to now is      698.0 secs

     total energy              =   -2919.11545340 Ry
     estimated scf accuracy    <       0.00016143 Ry

     iteration # 45     ecut=    29.40 Ry     beta= 0.05
     Davidson diagonalization with overlap
     ethr =  4.14E-08,  avg # of iterations = 13.0

     negative rho (up, down):  1.614E-02 0.000E+00
 
     Adding external electric field

     Computed dipole along edir(3) : 
        Dipole                1.2342 Ry au,          3.1371 Debye
        Dipole field          0.0023 Ry au, 
 
        Potential amp.       -0.2159 Ry
        Total length         46.3494 bohr
 

     total cpu time spent up to now is      715.4 secs

     total energy              =   -2919.11549246 Ry
     estimated scf accuracy    <       0.00015479 Ry

     iteration # 46     ecut=    29.40 Ry     beta= 0.05
     Davidson diagonalization with overlap
     ethr =  3.97E-08,  avg # of iterations =  1.3

     negative rho (up, down):  1.616E-02 0.000E+00
 
     Adding external electric field

     Computed dipole along edir(3) : 
        Dipole                1.2369 Ry au,          3.1439 Debye
        Dipole field          0.0023 Ry au, 
 
        Potential amp.       -0.2164 Ry
        Total length         46.3494 bohr
 

     total cpu time spent up to now is      725.3 secs

     total energy              =   -2919.11549537 Ry
     estimated scf accuracy    <       0.00011172 Ry

     iteration # 47     ecut=    29.40 Ry     beta= 0.05
     Davidson diagonalization with overlap
     ethr =  2.86E-08,  avg # of iterations = 14.3

     negative rho (up, down):  1.672E-02 0.000E+00
 
     Adding external electric field

     Computed dipole along edir(3) : 
        Dipole                1.2433 Ry au,          3.1603 Debye
        Dipole field          0.0023 Ry au, 
 
        Potential amp.       -0.2175 Ry
        Total length         46.3494 bohr
 

     total cpu time spent up to now is      741.8 secs

     total energy              =   -2919.11553891 Ry
     estimated scf accuracy    <       0.00004920 Ry

     iteration # 48     ecut=    29.40 Ry     beta= 0.05
     Davidson diagonalization with overlap
     ethr =  1.26E-08,  avg # of iterations =  9.1

     negative rho (up, down):  1.696E-02 0.000E+00
 
     Adding external electric field

     Computed dipole along edir(3) : 
        Dipole                1.2476 Ry au,          3.1711 Debye
        Dipole field          0.0024 Ry au, 
 
        Potential amp.       -0.2182 Ry
        Total length         46.3494 bohr
 

     total cpu time spent up to now is      755.1 secs

     total energy              =   -2919.11555947 Ry
     estimated scf accuracy    <       0.00002478 Ry

     iteration # 49     ecut=    29.40 Ry     beta= 0.05
     Davidson diagonalization with overlap
     ethr =  6.35E-09,  avg # of iterations = 12.1

     negative rho (up, down):  1.703E-02 0.000E+00
 
     Adding external electric field

     Computed dipole along edir(3) : 
        Dipole                1.2483 Ry au,          3.1728 Debye
        Dipole field          0.0024 Ry au, 
 
        Potential amp.       -0.2184 Ry
        Total length         46.3494 bohr
 

     total cpu time spent up to now is      770.1 secs

     total energy              =   -2919.11557448 Ry
     estimated scf accuracy    <       0.00001295 Ry

     iteration # 50     ecut=    29.40 Ry     beta= 0.05
     Davidson diagonalization with overlap
     ethr =  3.32E-09,  avg # of iterations =  8.5

     negative rho (up, down):  1.701E-02 0.000E+00
 
     Adding external electric field

     Computed dipole along edir(3) : 
        Dipole                1.2480 Ry au,          3.1720 Debye
        Dipole field          0.0024 Ry au, 
 
        Potential amp.       -0.2183 Ry
        Total length         46.3494 bohr
 

     total cpu time spent up to now is      786.0 secs

     total energy              =   -2919.11558814 Ry
     estimated scf accuracy    <       0.00000868 Ry

     iteration # 51     ecut=    29.40 Ry     beta= 0.05
     Davidson diagonalization with overlap
     ethr =  2.23E-09,  avg # of iterations =  5.1

     negative rho (up, down):  1.702E-02 0.000E+00
 
     Adding external electric field

     Computed dipole along edir(3) : 
        Dipole                1.2477 Ry au,          3.1714 Debye
        Dipole field          0.0024 Ry au, 
 
        Potential amp.       -0.2183 Ry
        Total length         46.3494 bohr
 

     total cpu time spent up to now is      797.6 secs

     total energy              =   -2919.11559961 Ry
     estimated scf accuracy    <       0.00000757 Ry

     iteration # 52     ecut=    29.40 Ry     beta= 0.05
     Davidson diagonalization with overlap
     c_bands:  1 eigenvalues not converged
     ethr =  1.94E-09,  avg # of iterations = 12.8

     negative rho (up, down):  1.713E-02 0.000E+00
 
     Adding external electric field

     Computed dipole along edir(3) : 
        Dipole                1.2501 Ry au,          3.1774 Debye
        Dipole field          0.0024 Ry au, 
 
        Potential amp.       -0.2187 Ry
        Total length         46.3494 bohr
 

     total cpu time spent up to now is      812.3 secs

     total energy              =   -2919.11561095 Ry
     estimated scf accuracy    <       0.00000608 Ry

     iteration # 53     ecut=    29.40 Ry     beta= 0.05
     Davidson diagonalization with overlap
     ethr =  1.56E-09,  avg # of iterations =  3.6

     negative rho (up, down):  1.723E-02 0.000E+00
 
     Adding external electric field

     Computed dipole along edir(3) : 
        Dipole                1.2524 Ry au,          3.1832 Debye
        Dipole field          0.0024 Ry au, 
 
        Potential amp.       -0.2191 Ry
        Total length         46.3494 bohr
 

     total cpu time spent up to now is      823.2 secs

     total energy              =   -2919.11562041 Ry
     estimated scf accuracy    <       0.00000310 Ry

     iteration # 54     ecut=    29.40 Ry     beta= 0.05
     Davidson diagonalization with overlap
     ethr =  7.96E-10,  avg # of iterations = 11.9

     negative rho (up, down):  1.720E-02 0.000E+00
 
     Adding external electric field

     Computed dipole along edir(3) : 
        Dipole                1.2524 Ry au,          3.1834 Debye
        Dipole field          0.0024 Ry au, 
 
        Potential amp.       -0.2191 Ry
        Total length         46.3494 bohr
 

     total cpu time spent up to now is      840.4 secs

     total energy              =   -2919.11562884 Ry
     estimated scf accuracy    <       0.00000255 Ry

     iteration # 55     ecut=    29.40 Ry     beta= 0.05
     Davidson diagonalization with overlap
     ethr =  6.55E-10,  avg # of iterations =  4.9

     negative rho (up, down):  1.719E-02 0.000E+00
 
     Adding external electric field

     Computed dipole along edir(3) : 
        Dipole                1.2526 Ry au,          3.1838 Debye
        Dipole field          0.0024 Ry au, 
 
        Potential amp.       -0.2191 Ry
        Total length         46.3494 bohr
 

     total cpu time spent up to now is      851.8 secs

     total energy              =   -2919.11563645 Ry
     estimated scf accuracy    <       0.00000109 Ry

     iteration # 56     ecut=    29.40 Ry     beta= 0.05
     Davidson diagonalization with overlap
     c_bands:  2 eigenvalues not converged
     c_bands:  1 eigenvalues not converged
     ethr =  2.78E-10,  avg # of iterations = 17.9

     negative rho (up, down):  1.719E-02 0.000E+00
 
     Adding external electric field

     Computed dipole along edir(3) : 
        Dipole                1.2526 Ry au,          3.1837 Debye
        Dipole field          0.0024 Ry au, 
 
        Potential amp.       -0.2191 Ry
        Total length         46.3494 bohr
 

     total cpu time spent up to now is      873.2 secs

     total energy              =   -2919.11564350 Ry
     estimated scf accuracy    <       0.00000181 Ry

     iteration # 57     ecut=    29.40 Ry     beta= 0.05
     Davidson diagonalization with overlap
     ethr =  2.78E-10,  avg # of iterations =  5.4

     negative rho (up, down):  1.719E-02 0.000E+00
 
     Adding external electric field

     Computed dipole along edir(3) : 
        Dipole                1.2524 Ry au,          3.1833 Debye
        Dipole field          0.0024 Ry au, 
 
        Potential amp.       -0.2191 Ry
        Total length         46.3494 bohr
 

     total cpu time spent up to now is      884.6 secs

     total energy              =   -2919.11564940 Ry
     estimated scf accuracy    <       0.00000094 Ry

     iteration # 58     ecut=    29.40 Ry     beta= 0.05
     Davidson diagonalization with overlap
     c_bands:  2 eigenvalues not converged
     ethr =  2.40E-10,  avg # of iterations = 16.0

     negative rho (up, down):  1.720E-02 0.000E+00
 
     Adding external electric field

     Computed dipole along edir(3) : 
        Dipole                1.2526 Ry au,          3.1838 Debye
        Dipole field          0.0024 Ry au, 
 
        Potential amp.       -0.2191 Ry
        Total length         46.3494 bohr
 

     total cpu time spent up to now is      904.0 secs

     total energy              =   -2919.11565508 Ry
     estimated scf accuracy    <       0.00000083 Ry

     iteration # 59     ecut=    29.40 Ry     beta= 0.05
     Davidson diagonalization with overlap
     ethr =  2.14E-10,  avg # of iterations =  8.5

     negative rho (up, down):  1.718E-02 0.000E+00
 
     Adding external electric field

     Computed dipole along edir(3) : 
        Dipole                1.2523 Ry au,          3.1830 Debye
        Dipole field          0.0024 Ry au, 
 
        Potential amp.       -0.2191 Ry
        Total length         46.3494 bohr
 

     total cpu time spent up to now is      917.9 secs

     total energy              =   -2919.11566020 Ry
     estimated scf accuracy    <       0.00000015 Ry

     iteration # 60     ecut=    29.40 Ry     beta= 0.05
     Davidson diagonalization with overlap
     ethr =  3.86E-11,  avg # of iterations = 10.5

     negative rho (up, down):  1.719E-02 0.000E+00
 
     Adding external electric field

     Computed dipole along edir(3) : 
        Dipole                1.2523 Ry au,          3.1830 Debye
        Dipole field          0.0024 Ry au, 
 
        Potential amp.       -0.2191 Ry
        Total length         46.3494 bohr
 

     total cpu time spent up to now is      934.4 secs

     total energy              =   -2919.11566472 Ry
     estimated scf accuracy    <       0.00000019 Ry

     iteration # 61     ecut=    29.40 Ry     beta= 0.05
     Davidson diagonalization with overlap
     ethr =  3.86E-11,  avg # of iterations = 12.0

     negative rho (up, down):  1.721E-02 0.000E+00
 
     Adding external electric field

     Computed dipole along edir(3) : 
        Dipole                1.2507 Ry au,          3.1790 Debye
        Dipole field          0.0024 Ry au, 
 
        Potential amp.       -0.2188 Ry
        Total length         46.3494 bohr
 

     total cpu time spent up to now is      950.4 secs

     End of self-consistent calculation

          k = 0.0000 0.0000 0.0000 ( 18029 PWs)   bands (ev):

   -55.5530 -55.5162 -55.5144 -55.4803 -55.4448 -55.4279 -55.3905 -55.3681
   -55.3679 -55.3430 -55.3334 -55.3166 -55.3095 -55.1331 -54.5351 -54.5011
   -32.1195 -32.0054 -31.9154 -31.8739 -31.8675 -31.8572 -31.8468 -31.8394
   -31.8041 -31.7923 -31.7610 -31.7592 -31.7587 -31.7238 -31.7062 -31.6882
   -31.6823 -31.6746 -31.6689 -31.6649 -31.6269 -31.6232 -31.6081 -31.5981
   -31.5715 -31.5699 -31.5662 -31.5596 -31.5551 -31.5483 -31.5390 -31.5307
   -31.5212 -31.5174 -31.5168 -31.4888 -31.4822 -31.4718 -31.4714 -31.4527
   -31.3571 -31.2742 -30.9442 -30.8509 -30.8288 -30.7606 -30.6739 -30.5630
   -16.4937 -16.3446 -16.0810 -15.9011 -15.8006 -15.7414 -15.6047 -15.5271
   -15.4510 -15.3490 -15.2583 -15.1915 -15.1742 -15.1525 -15.1479 -15.0897
   -15.0862 -15.0576 -15.0445 -15.0428 -14.9879 -14.9812 -14.9496 -14.9372
   -14.9265 -14.8503 -14.7696 -14.7013 -14.6410 -14.2077 -13.0380 -12.9207
    -9.3259  -6.2369  -4.6688  -3.7069  -3.5539  -3.4592  -3.4486  -3.4238
    -3.2782  -3.1395  -2.9324  -2.8507  -2.8064  -2.7568  -2.7295  -2.7112
    -2.6118  -2.5268  -2.4484  -2.4057  -2.3798  -2.3633  -2.3565  -2.3314
    -2.3177  -2.2859  -2.2443  -2.1961  -2.0989  -2.0125  -1.9696  -1.9368
    -1.8801  -1.8665  -1.8417  -1.8361  -1.8297  -1.8054  -1.7682  -1.7564
    -1.7114  -1.5661  -1.5574  -1.4412  -1.4013  -1.2903  -1.1880  -1.1868
    -1.0998  -1.0964  -1.0286  -0.9692  -0.9415  -0.9358  -0.8852  -0.8329
    -0.7471  -0.6531  -0.5910  -0.5494  -0.5147  -0.4849  -0.4158  -0.3283
    -0.3223  -0.3124  -0.2058  -0.1297  -0.1085  -0.0535  -0.0231   0.0197
     0.0357   0.1469   0.1906   0.2303   0.2502   0.3292   0.3493   0.4046
     0.4102   0.4450   0.4550   0.5234   0.5675   0.5868   0.6407   0.6559
     0.8148   1.0662   1.0751   1.1256   1.3962   1.4268   1.4872   1.6722
     2.0626   2.1104   3.5469   3.6195   3.6844   3.6971   3.7401   3.7837
     3.9464   4.0317   4.0480   4.0523   4.0838

          k = 0.0000 0.0419 0.0000 ( 17933 PWs)   bands (ev):

   -55.5478 -55.5213 -55.5094 -55.4853 -55.4428 -55.4234 -55.3948 -55.3700
   -55.3628 -55.3384 -55.3379 -55.3157 -55.3144 -55.1339 -54.5301 -54.5060
   -32.0624 -31.9514 -31.8609 -31.8556 -31.8229 -31.8071 -31.8039 -31.8024
   -31.7994 -31.7991 -31.7823 -31.7520 -31.7497 -31.7423 -31.7262 -31.6979
   -31.6837 -31.6717 -31.6677 -31.6547 -31.6507 -31.6285 -31.6023 -31.5938
   -31.5881 -31.5856 -31.5760 -31.5756 -31.5733 -31.5666 -31.5469 -31.5430
   -31.5382 -31.5315 -31.5185 -31.5130 -31.5130 -31.5063 -31.4821 -31.4805
   -31.3565 -31.3125 -30.8900 -30.8475 -30.8318 -30.7480 -30.6865 -30.6201
   -16.4786 -16.2177 -15.9633 -15.8059 -15.7260 -15.6331 -15.5733 -15.5100
   -15.4308 -15.3898 -15.3359 -15.2478 -15.2157 -15.1860 -15.1238 -15.1090
   -15.0958 -15.0532 -15.0430 -15.0293 -15.0040 -14.9858 -14.9804 -14.9347
   -14.9107 -14.8942 -14.8258 -14.7571 -14.7004 -14.3298 -13.0416 -12.9600
    -9.3258  -6.2350  -4.6650  -3.5152  -3.3864  -3.3035  -3.2728  -3.2654
    -3.1291  -2.9122  -2.8637  -2.7662  -2.7604  -2.6763  -2.6695  -2.6451
    -2.6068  -2.5536  -2.5320  -2.5143  -2.4973  -2.4692  -2.4248  -2.3919
    -2.3445  -2.3377  -2.2818  -2.2797  -2.2548  -2.1308  -2.0973  -2.0941
    -2.0268  -1.9842  -1.9739  -1.9344  -1.8545  -1.8329  -1.7910  -1.6857
    -1.5623  -1.4863  -1.4392  -1.4007  -1.3162  -1.2833  -1.2168  -1.1249
    -1.0601  -0.9317  -0.9011  -0.8581  -0.7941  -0.7739  -0.7283  -0.7212
    -0.6564  -0.6449  -0.5325  -0.5157  -0.4955  -0.4854  -0.4420  -0.3714
    -0.3492  -0.3130  -0.2812  -0.2109  -0.1472  -0.1102  -0.0834  -0.0437
     0.0012   0.0714   0.1123   0.1355   0.2012   0.2175   0.2199   0.2612
     0.3211   0.3364   0.4407   0.4521   0.5164   0.5854   0.5893   0.6774
     0.7478   0.7653   0.9339   0.9850   1.0970   1.3030   1.6718   1.7490
     2.0174   2.0210   3.7254   3.7654   3.7778   3.8290   3.8655   3.9274
     3.9516   3.9679   3.9940   4.0749   4.1024

          k = 0.0000-0.0839 0.0000 ( 17884 PWs)   bands (ev):

   -55.5384 -55.5306 -55.4974 -55.4971 -55.4407 -55.4167 -55.4015 -55.3720
   -55.3519 -55.3492 -55.3265 -55.3258 -55.3148 -55.1347 -54.5180 -54.5180
   -31.9254 -31.9202 -31.8361 -31.8190 -31.8188 -31.8115 -31.7894 -31.7892
   -31.7606 -31.7518 -31.7433 -31.7339 -31.7251 -31.7210 -31.7195 -31.7033
   -31.6739 -31.6722 -31.6664 -31.6636 -31.6571 -31.6520 -31.6249 -31.6244
   -31.6200 -31.6199 -31.6161 -31.6146 -31.5920 -31.5908 -31.5845 -31.5815
   -31.5780 -31.5430 -31.5142 -31.5129 -31.5121 -31.5060 -31.5049 -31.4891
   -31.3592 -31.3538 -30.8394 -30.8394 -30.7569 -30.7568 -30.7172 -30.7172
   -16.4677 -15.9136 -15.8726 -15.7031 -15.6765 -15.5944 -15.5234 -15.5170
   -15.4231 -15.4029 -15.3784 -15.3441 -15.3166 -15.2693 -15.1475 -15.1433
   -15.1207 -15.0729 -15.0299 -14.9870 -14.9633 -14.9573 -14.9541 -14.9525
   -14.8956 -14.8898 -14.8453 -14.8413 -14.7447 -14.5404 -13.0227 -13.0227
    -9.3258  -6.2334  -4.6613  -3.0888  -3.0377  -2.9997  -2.9930  -2.9733
    -2.9575  -2.9121  -2.8749  -2.8421  -2.8311  -2.8261  -2.7167  -2.6921
    -2.6879  -2.6668  -2.6601  -2.5752  -2.5377  -2.4885  -2.4688  -2.4494
    -2.4180  -2.3796  -2.3780  -2.3525  -2.3232  -2.2055  -2.1734  -2.1460
    -2.0593  -2.0011  -1.9732  -1.9130  -1.7986  -1.7549  -1.6257  -1.5575
    -1.5342  -1.4330  -1.3148  -1.3096  -1.2874  -1.2742  -1.0643  -1.0271
    -1.0154  -1.0013  -0.9922  -0.9482  -0.9363  -0.8976  -0.8588  -0.7932
    -0.7438  -0.7095  -0.6468  -0.5426  -0.4705  -0.3356  -0.3034  -0.2644
    -0.2435  -0.2245  -0.1694  -0.1619  -0.1482  -0.1182  -0.0679  -0.0279
    -0.0266  -0.0024   0.0526   0.0870   0.1013   0.1284   0.1857   0.1881
     0.2308   0.2357   0.2369   0.2777   0.3094   0.4239   0.6287   0.6621
     0.6634   0.6817   0.8687   0.9498   1.0283   1.0518   1.8139   1.8143
     1.9533   1.9534   3.6936   3.8405   3.8467   3.8615   3.8801   4.0177
     4.0262   4.0601   4.1356   4.1513   4.1618

          k = 0.0380 0.0000 0.0000 ( 17913 PWs)   bands (ev):

   -55.5528 -55.5161 -55.5143 -55.4802 -55.4447 -55.4279 -55.3904 -55.3680
   -55.3676 -55.3431 -55.3333 -55.3165 -55.3094 -55.1330 -54.5350 -54.5010
   -32.1196 -32.0063 -31.9209 -31.8763 -31.8673 -31.8613 -31.8471 -31.8397
   -31.8038 -31.7922 -31.7592 -31.7587 -31.7437 -31.7237 -31.7058 -31.6817
   -31.6747 -31.6716 -31.6642 -31.6466 -31.6266 -31.6256 -31.6231 -31.5978
   -31.5719 -31.5692 -31.5670 -31.5590 -31.5478 -31.5477 -31.5419 -31.5396
   -31.5306 -31.5209 -31.5179 -31.4882 -31.4807 -31.4719 -31.4714 -31.4533
   -31.3584 -31.2741 -30.9437 -30.8544 -30.8267 -30.7604 -30.6738 -30.5627
   -16.4842 -16.2730 -16.0025 -15.8643 -15.7844 -15.6395 -15.6061 -15.5596
   -15.4599 -15.3499 -15.3090 -15.2829 -15.2564 -15.2351 -15.2268 -15.1851
   -15.1389 -15.1239 -15.0280 -14.9926 -14.9509 -14.9432 -14.8841 -14.8544
   -14.8411 -14.7966 -14.7784 -14.7726 -14.7294 -14.2065 -13.0347 -12.9204
    -9.3286  -6.2383  -4.6520  -3.6012  -3.4011  -3.3148  -3.2125  -3.1868
    -3.1538  -3.1207  -3.0545  -2.9293  -2.8804  -2.8666  -2.7852  -2.6955
    -2.6290  -2.5833  -2.5549  -2.4767  -2.3330  -2.3185  -2.3032  -2.2837
    -2.2169  -2.1755  -2.1626  -2.1188  -2.0790  -1.9547  -1.9275  -1.8939
    -1.8664  -1.8473  -1.8296  -1.7990  -1.7818  -1.7281  -1.6900  -1.6147
    -1.5899  -1.5756  -1.4912  -1.4706  -1.3526  -1.3084  -1.2385  -1.1872
    -1.1764  -1.1195  -1.0266  -1.0093  -0.9702  -0.9665  -0.9097  -0.8888
    -0.8588  -0.8026  -0.6265  -0.5448  -0.4902  -0.4659  -0.4127  -0.3979
    -0.3809  -0.3383  -0.1891  -0.1703  -0.1337  -0.1059  -0.0402  -0.0032
     0.0119   0.0731   0.1293   0.1588   0.1635   0.2032   0.2383   0.2641
     0.2825   0.3175   0.4275   0.4382   0.5120   0.5411   0.5683   0.6552
     0.7021   0.8736   0.9351   1.1140   1.2872   1.4018   1.4991   1.6411
     1.9501   2.0276   3.5650   3.6449   3.8146   3.8612   3.8798   3.9409
     3.9567   3.9919   4.0171   4.0400   4.0657

          k = 0.0380 0.0419 0.0000 ( 17878 PWs)   bands (ev):

   -55.5477 -55.5212 -55.5093 -55.4852 -55.4427 -55.4234 -55.3948 -55.3699
   -55.3626 -55.3384 -55.3381 -55.3157 -55.3144 -55.1338 -54.5300 -54.5060
   -32.0625 -31.9522 -31.8673 -31.8555 -31.8252 -31.8090 -31.8065 -31.8027
   -31.7997 -31.7989 -31.7825 -31.7523 -31.7427 -31.7354 -31.7263 -31.6882
   -31.6838 -31.6679 -31.6620 -31.6507 -31.6346 -31.6287 -31.6185 -31.5934
   -31.5857 -31.5852 -31.5743 -31.5734 -31.5691 -31.5633 -31.5512 -31.5489
   -31.5422 -31.5323 -31.5252 -31.5193 -31.5147 -31.5060 -31.4820 -31.4804
   -31.3582 -31.3124 -30.8896 -30.8502 -30.8308 -30.7478 -30.6865 -30.6200
   -16.4746 -16.1493 -15.8886 -15.7924 -15.6862 -15.5754 -15.5379 -15.5143
   -15.4505 -15.4003 -15.3342 -15.2761 -15.2553 -15.2151 -15.2061 -15.1972
   -15.0986 -15.0883 -15.0799 -15.0335 -14.9943 -14.9782 -14.9470 -14.8981
   -14.8734 -14.8458 -14.8381 -14.8204 -14.7832 -14.3286 -13.0393 -12.9603
    -9.3280  -6.2349  -4.6560  -3.4252  -3.2379  -3.1471  -3.0527  -3.0282
    -2.9846  -2.9221  -2.8846  -2.7980  -2.7600  -2.7142  -2.6503  -2.6161
    -2.5734  -2.5675  -2.5108  -2.4684  -2.4404  -2.4294  -2.3564  -2.3397
    -2.3135  -2.2997  -2.2499  -2.2377  -2.2323  -2.1601  -2.1149  -2.0606
    -1.9913  -1.9698  -1.9267  -1.8762  -1.8466  -1.7922  -1.7414  -1.6034
    -1.5546  -1.5122  -1.5066  -1.3503  -1.3210  -1.2379  -1.1861  -1.1191
    -1.0536  -1.0107  -0.9532  -0.9204  -0.8986  -0.8763  -0.8068  -0.7745
    -0.7592  -0.7189  -0.6186  -0.5958  -0.5561  -0.5135  -0.4769  -0.4531
    -0.3854  -0.3249  -0.3025  -0.2707  -0.2313  -0.2101  -0.1725  -0.1438
    -0.1325  -0.0916  -0.0435   0.0315   0.0686   0.1222   0.1518   0.1916
     0.2470   0.3075   0.3925   0.4797   0.5281   0.5773   0.6295   0.6480
     0.7205   0.8338   0.8674   0.9278   1.0484   1.2509   1.6826   1.7525
     1.9396   2.0026   3.7136   3.7513   3.7928   3.8425   3.8937   3.9614
     3.9780   3.9995   4.0941   4.1157   4.1369

          k = 0.0380-0.0839 0.0000 ( 17916 PWs)   bands (ev):

   -55.5384 -55.5306 -55.4974 -55.4971 -55.4407 -55.4167 -55.4016 -55.3720
   -55.3518 -55.3491 -55.3266 -55.3259 -55.3149 -55.1347 -54.5180 -54.5180
   -31.9257 -31.9205 -31.8362 -31.8198 -31.8196 -31.8117 -31.7895 -31.7893
   -31.7613 -31.7520 -31.7512 -31.7442 -31.7429 -31.7050 -31.6954 -31.6928
   -31.6805 -31.6775 -31.6689 -31.6645 -31.6588 -31.6462 -31.6261 -31.6255
   -31.6183 -31.6180 -31.6013 -31.5965 -31.5945 -31.5863 -31.5845 -31.5830
   -31.5814 -31.5481 -31.5262 -31.5249 -31.5137 -31.5061 -31.5051 -31.4893
   -31.3602 -31.3549 -30.8405 -30.8404 -30.7568 -30.7567 -30.7173 -30.7172
   -16.4663 -15.8619 -15.8327 -15.6648 -15.6283 -15.6112 -15.4810 -15.4692
   -15.3939 -15.3870 -15.3839 -15.3318 -15.2758 -15.2335 -15.1705 -15.1658
   -15.1114 -15.1013 -15.0758 -15.0581 -15.0142 -15.0038 -14.9819 -14.9775
   -14.9156 -14.9097 -14.8960 -14.8942 -14.7315 -14.5331 -13.0225 -13.0224
    -9.3280  -6.2329  -4.6560  -3.0646  -3.0005  -2.9524  -2.8191  -2.7995
    -2.7804  -2.7419  -2.7093  -2.6884  -2.6706  -2.6323  -2.6314  -2.6229
    -2.6153  -2.5836  -2.5779  -2.4994  -2.4936  -2.4562  -2.4375  -2.4227
    -2.4130  -2.3653  -2.3499  -2.2960  -2.2579  -2.2159  -2.2099  -2.1440
    -2.1110  -2.0539  -1.8642  -1.7990  -1.7549  -1.7116  -1.5855  -1.5325
    -1.5189  -1.4831  -1.4710  -1.4158  -1.3938  -1.3335  -1.2755  -1.2496
    -1.2223  -1.2195  -1.1019  -1.0863  -0.9278  -0.9081  -0.8515  -0.8477
    -0.7932  -0.7707  -0.6936  -0.5984  -0.5273  -0.4927  -0.4722  -0.4363
    -0.3776  -0.3452  -0.3405  -0.3347  -0.2746  -0.2253  -0.1823  -0.1793
    -0.1386  -0.1029  -0.0653  -0.0380  -0.0045   0.0552   0.1842   0.2070
     0.2766   0.3162   0.3914   0.4379   0.5204   0.5282   0.5853   0.6219
     0.7106   0.7194   0.8394   0.8738   1.0182   1.0392   1.8273   1.8278
     1.9435   1.9442   3.6815   3.7961   3.8142   3.8766   3.8839   3.9868
     4.0036   4.0590   4.1426   4.1579   4.2028

          k = 0.0380-0.0419 0.0000 ( 17876 PWs)   bands (ev):

   -55.5477 -55.5212 -55.5093 -55.4852 -55.4427 -55.4234 -55.3948 -55.3699
   -55.3626 -55.3384 -55.3381 -55.3157 -55.3144 -55.1338 -54.5300 -54.5060
   -32.0625 -31.9522 -31.8673 -31.8555 -31.8253 -31.8090 -31.8065 -31.8026
   -31.7997 -31.7990 -31.7824 -31.7522 -31.7429 -31.7352 -31.7263 -31.6882
   -31.6838 -31.6678 -31.6621 -31.6507 -31.6346 -31.6287 -31.6187 -31.5934
   -31.5857 -31.5852 -31.5736 -31.5734 -31.5691 -31.5633 -31.5511 -31.5491
   -31.5423 -31.5321 -31.5251 -31.5193 -31.5152 -31.5061 -31.4821 -31.4805
   -31.3583 -31.3123 -30.8896 -30.8502 -30.8307 -30.7478 -30.6865 -30.6200
   -16.4742 -16.1493 -15.8885 -15.7919 -15.6877 -15.5752 -15.5384 -15.5153
   -15.4498 -15.4018 -15.3349 -15.2723 -15.2541 -15.2152 -15.2059 -15.1967
   -15.1046 -15.0881 -15.0770 -15.0325 -14.9942 -14.9779 -14.9471 -14.8982
   -14.8727 -14.8456 -14.8381 -14.8208 -14.7835 -14.3290 -13.0393 -12.9603
    -9.3285  -6.2361  -4.6521  -3.4253  -3.2381  -3.1471  -3.0484  -3.0265
    -2.9836  -2.9211  -2.8865  -2.7959  -2.7578  -2.7112  -2.6409  -2.6091
    -2.5756  -2.5461  -2.5341  -2.4674  -2.4400  -2.4214  -2.3839  -2.3473
    -2.3186  -2.3007  -2.2548  -2.2368  -2.2217  -2.1597  -2.1138  -2.0613
    -1.9786  -1.9504  -1.9358  -1.9073  -1.8427  -1.8086  -1.7376  -1.6047
    -1.5512  -1.5182  -1.4848  -1.3456  -1.3201  -1.2390  -1.1751  -1.1189
    -1.0586  -1.0144  -0.9626  -0.9254  -0.8950  -0.8730  -0.8229  -0.7672
    -0.7534  -0.7192  -0.6305  -0.6026  -0.5657  -0.5139  -0.4745  -0.4488
    -0.3744  -0.3206  -0.3098  -0.2727  -0.2406  -0.2137  -0.1782  -0.1467
    -0.1293  -0.0887  -0.0417   0.0305   0.0687   0.1229   0.1495   0.1911
     0.2520   0.3088   0.3941   0.4801   0.5321   0.5789   0.6320   0.6474
     0.7235   0.8481   0.8670   0.9276   1.0486   1.2511   1.6827   1.7525
     1.9394   2.0032   3.7131   3.7436   3.7857   3.8570   3.8967   3.9617
     3.9817   4.0287   4.0795   4.1170   4.1365

          k =-0.0760-0.0000 0.0000 ( 17886 PWs)   bands (ev):

   -55.5527 -55.5161 -55.5143 -55.4802 -55.4446 -55.4279 -55.3904 -55.3679
   -55.3673 -55.3433 -55.3333 -55.3165 -55.3094 -55.1330 -54.5350 -54.5010
   -32.1198 -32.0072 -31.9260 -31.8787 -31.8670 -31.8653 -31.8474 -31.8401
   -31.8037 -31.7921 -31.7592 -31.7588 -31.7237 -31.7183 -31.7057 -31.6764
   -31.6739 -31.6610 -31.6601 -31.6515 -31.6265 -31.6231 -31.6098 -31.5982
   -31.5786 -31.5725 -31.5689 -31.5689 -31.5589 -31.5476 -31.5415 -31.5404
   -31.5307 -31.5246 -31.5204 -31.4879 -31.4795 -31.4720 -31.4713 -31.4543
   -31.3599 -31.2741 -30.9433 -30.8578 -30.8254 -30.7604 -30.6737 -30.5628
   -16.4770 -16.1643 -15.9771 -15.7836 -15.7386 -15.6156 -15.5866 -15.5239
   -15.4386 -15.3873 -15.3550 -15.3343 -15.3170 -15.3108 -15.2643 -15.2523
   -15.2238 -15.1606 -14.9939 -14.9749 -14.9547 -14.9366 -14.9343 -14.8680
   -14.8497 -14.8002 -14.8000 -14.7057 -14.6912 -14.2056 -13.0316 -12.9201
    -9.3314  -6.2398  -4.6362  -3.5714  -3.3707  -3.1758  -3.1040  -3.0345
    -3.0111  -2.9583  -2.9569  -2.9178  -2.8884  -2.8467  -2.8030  -2.7865
    -2.6129  -2.5401  -2.4751  -2.3871  -2.2868  -2.2837  -2.1945  -2.1743
    -2.1588  -2.1030  -2.0610  -2.0419  -2.0382  -1.9207  -1.8971  -1.8905
    -1.8664  -1.8582  -1.8428  -1.8421  -1.8199  -1.7706  -1.7625  -1.6559
    -1.6114  -1.5481  -1.4939  -1.3552  -1.2722  -1.2311  -1.1983  -1.1805
    -1.1559  -1.1414  -1.1218  -1.0773  -1.0498  -1.0051  -0.9519  -0.9054
    -0.8657  -0.8217  -0.8125  -0.7575  -0.7392  -0.4871  -0.4380  -0.4215
    -0.4048  -0.3804  -0.2876  -0.2426  -0.1617  -0.1576  -0.1409  -0.0826
    -0.0283  -0.0012   0.0577   0.0894   0.1185   0.1343   0.1566   0.2087
     0.2508   0.2952   0.3112   0.3931   0.4490   0.5542   0.5877   0.6007
     0.7877   0.7938   0.9565   1.0073   1.1354   1.4068   1.5204   1.6161
     1.8200   1.9725   3.5652   3.6057   3.6778   3.8222   3.8517   3.9245
     3.9861   4.0171   4.0405   4.0676   4.1147

          k =-0.0760 0.0419 0.0000 ( 17914 PWs)   bands (ev):

   -55.5477 -55.5212 -55.5093 -55.4852 -55.4427 -55.4235 -55.3948 -55.3699
   -55.3624 -55.3383 -55.3383 -55.3157 -55.3144 -55.1339 -54.5300 -54.5060
   -32.0628 -31.9533 -31.8735 -31.8556 -31.8278 -31.8130 -31.8072 -31.8031
   -31.7999 -31.7990 -31.7825 -31.7525 -31.7426 -31.7264 -31.7176 -31.6841
   -31.6789 -31.6676 -31.6518 -31.6484 -31.6385 -31.6286 -31.5980 -31.5948
   -31.5852 -31.5849 -31.5835 -31.5734 -31.5727 -31.5719 -31.5567 -31.5441
   -31.5419 -31.5334 -31.5321 -31.5260 -31.5169 -31.5071 -31.4821 -31.4805
   -31.3601 -31.3124 -30.8894 -30.8532 -30.8301 -30.7478 -30.6866 -30.6200
   -16.4707 -16.0473 -15.8767 -15.7138 -15.6484 -15.5731 -15.5061 -15.4591
   -15.4574 -15.3523 -15.3366 -15.3012 -15.2911 -15.2809 -15.2453 -15.2343
   -15.1947 -15.1603 -15.0740 -15.0581 -14.9900 -14.9783 -14.9738 -14.9167
   -14.9004 -14.8430 -14.8268 -14.7978 -14.7944 -14.3282 -13.0372 -12.9606
    -9.3308  -6.2360  -4.6438  -3.4046  -3.2121  -2.9212  -2.9149  -2.8269
    -2.8080  -2.7769  -2.7550  -2.7394  -2.6980  -2.6849  -2.6408  -2.5862
    -2.5508  -2.5197  -2.5025  -2.4774  -2.4137  -2.3677  -2.3396  -2.3034
    -2.2711  -2.2300  -2.1750  -2.1397  -2.1078  -2.0982  -2.0845  -2.0605
    -2.0232  -1.9683  -1.9336  -1.8885  -1.7184  -1.7130  -1.7090  -1.6704
    -1.6059  -1.5030  -1.4568  -1.3253  -1.2866  -1.2642  -1.1688  -1.1616
    -1.1279  -1.1084  -1.0336  -1.0266  -0.9381  -0.9155  -0.9037  -0.8487
    -0.8345  -0.7847  -0.7737  -0.7641  -0.7040  -0.6857  -0.6329  -0.6204
    -0.5930  -0.4981  -0.4220  -0.3935  -0.3317  -0.3290  -0.2968  -0.2540
    -0.2312  -0.1741  -0.0953  -0.0189   0.0240   0.0512   0.2092   0.2289
     0.2591   0.2686   0.4124   0.4916   0.5347   0.6054   0.7333   0.7447
     0.7571   0.8426   0.8964   0.9454   0.9727   1.1161   1.6978   1.7548
     1.8619   1.9918   3.7019   3.7361   3.7679   3.7895   3.8565   3.8911
     3.9457   3.9947   4.0514   4.1026   4.1759

          k =-0.0760-0.0839 0.0000 ( 17948 PWs)   bands (ev):

   -55.5384 -55.5306 -55.4975 -55.4972 -55.4407 -55.4168 -55.4016 -55.3720
   -55.3517 -55.3490 -55.3268 -55.3261 -55.3149 -55.1348 -54.5181 -54.5180
   -31.9260 -31.9208 -31.8363 -31.8206 -31.8204 -31.8119 -31.7895 -31.7894
   -31.7623 -31.7588 -31.7522 -31.7503 -31.7450 -31.7066 -31.6854 -31.6820
   -31.6778 -31.6734 -31.6695 -31.6647 -31.6601 -31.6407 -31.6268 -31.6264
   -31.6170 -31.6167 -31.6139 -31.5968 -31.5845 -31.5815 -31.5705 -31.5650
   -31.5622 -31.5589 -31.5515 -31.5511 -31.5150 -31.5061 -31.5052 -31.4895
   -31.3617 -31.3557 -30.8415 -30.8414 -30.7568 -30.7567 -30.7173 -30.7173
   -16.4649 -15.7863 -15.7501 -15.7369 -15.5339 -15.5252 -15.5172 -15.4990
   -15.3384 -15.3233 -15.2967 -15.2823 -15.2510 -15.2469 -15.2145 -15.1817
   -15.1315 -15.1269 -15.1187 -15.1163 -15.0570 -15.0527 -15.0324 -15.0038
   -15.0019 -14.9957 -14.9010 -14.8990 -14.7223 -14.5271 -13.0223 -13.0222
    -9.3302  -6.2324  -4.6507  -3.0615  -3.0002  -2.9390  -2.7430  -2.7394
    -2.7088  -2.6255  -2.5561  -2.5343  -2.5184  -2.4872  -2.4724  -2.4393
    -2.3947  -2.3840  -2.3739  -2.3642  -2.3465  -2.3319  -2.3048  -2.2693
    -2.2604  -2.2271  -2.2134  -2.1903  -2.1889  -2.1526  -2.1289  -2.1141
    -2.1026  -2.0327  -1.9376  -1.8875  -1.7984  -1.7689  -1.7465  -1.7404
    -1.6562  -1.6312  -1.6029  -1.5631  -1.5483  -1.5139  -1.3128  -1.2845
    -1.2738  -1.2591  -1.2348  -1.0872  -1.0765  -1.0270  -0.9961  -0.9445
    -0.8893  -0.8552  -0.8374  -0.7565  -0.7275  -0.6823  -0.6425  -0.5203
    -0.5167  -0.5098  -0.5091  -0.4887  -0.4042  -0.3920  -0.3493  -0.3163
    -0.2753  -0.2610  -0.1949  -0.0136   0.0047   0.0708   0.1765   0.2740
     0.3671   0.4450   0.4667   0.5168   0.5604   0.5780   0.6581   0.7500
     0.7618   0.8337   0.8776   0.9171   0.9214   0.9271   1.8451   1.8457
     1.9303   1.9305   3.6695   3.7954   3.8164   3.8530   3.8718   4.0219
     4.0667   4.1055   4.1262   4.1284   4.2073

     the Fermi energy is     3.6023 ev

!    total energy              =   -2919.11570635 Ry
     estimated scf accuracy    <       0.00000006 Ry
     smearing contrib. (-TS)   =      -0.03730784 Ry
     internal energy E=F+TS    =   -2919.07839850 Ry

     The total energy is F=E-TS. E is the sum of the following terms:
     one-electron contribution =  -24307.02525116 Ry
     hartree contribution      =   12240.85260225 Ry
     xc contribution           =    -480.01178057 Ry
     ewald contribution        =    9627.10307893 Ry
     electric field correction =       0.00295205 Ry

     convergence has been achieved in  61 iterations

     Forces acting on atoms (cartesian axes, Ry/au):

     atom    1 type  1   force =     0.00004150   -0.00015460    0.09381109
     atom    2 type  1   force =    -0.00018437   -0.00018857   -0.17777799
     atom    3 type  2   force =     0.00002696   -0.00021811   -0.02113733
     atom    4 type  2   force =    -0.00001535   -0.00198894    0.05773553
     atom    5 type  2   force =    -0.01107531   -0.00165199    0.00749515
     atom    6 type  2   force =     0.01243895   -0.00098629    0.00637715
     atom    7 type  1   force =    -0.00047180    0.00246480   -0.01334528
     atom    8 type  1   force =     0.00030963    0.00292201    0.00274536
     atom    9 type  2   force =     0.00007662   -0.00007891    0.00013525
     atom   10 type  2   force =    -0.00176368   -0.00226920   -0.00369355
     atom   11 type  2   force =     0.00016797    0.00059866   -0.00029685
     atom   12 type  2   force =     0.00044465    0.00053956   -0.00011410
     atom   13 type  1   force =    -0.00073286   -0.00095282   -0.00015515
     atom   14 type  1   force =     0.00083728    0.00027603   -0.00042990
     atom   15 type  2   force =     0.00020996    0.00019246   -0.00024706
     atom   16 type  2   force =    -0.00008867    0.00034070   -0.00070877
     atom   17 type  2   force =    -0.00042951   -0.00008630   -0.00013896
     atom   18 type  2   force =     0.00049826    0.00005005    0.00013302
     atom   19 type  1   force =     0.00038444   -0.00093869    0.00062343
     atom   20 type  1   force =    -0.00054306    0.00100454    0.00143345
     atom   21 type  2   force =     0.00004487   -0.00002340    0.10383080
     atom   22 type  2   force =     0.00009022   -0.00072099   -0.00034545
     atom   23 type  2   force =    -0.07059209   -0.00015480   -0.02706643
     atom   24 type  2   force =     0.07047074    0.00031154   -0.02711120
     atom   25 type  1   force =     0.00007214   -0.00018074    0.09361303
     atom   26 type  1   force =    -0.00008439   -0.00026993   -0.17781046
     atom   27 type  2   force =     0.00008278   -0.00045459   -0.02015673
     atom   28 type  2   force =     0.00002537   -0.00169229    0.05723036
     atom   29 type  2   force =    -0.01116490   -0.00114686    0.00695439
     atom   30 type  2   force =     0.01241815   -0.00080582    0.00581707
     atom   31 type  1   force =    -0.00039329    0.00467870   -0.01442900
     atom   32 type  1   force =     0.00037204   -0.00361885    0.00246332
     atom   33 type  2   force =    -0.00000379    0.00057855    0.00039721
     atom   34 type  2   force =    -0.00117737   -0.00059437   -0.00107989
     atom   35 type  2   force =     0.00039831    0.00025201    0.00019272
     atom   36 type  2   force =     0.00013461    0.00032266    0.00016088
     atom   37 type  1   force =    -0.00054476    0.00131987    0.00022580
     atom   38 type  1   force =     0.00086488    0.00007679   -0.00079385
     atom   39 type  2   force =     0.00018437    0.00043399   -0.00001795
     atom   40 type  2   force =     0.00017375    0.00019856   -0.00061193
     atom   41 type  2   force =    -0.00002193    0.00018244   -0.00091814
     atom   42 type  2   force =     0.00001903    0.00006186   -0.00085780
     atom   43 type  1   force =     0.00011925    0.00105713    0.00028446
     atom   44 type  1   force =    -0.00019867    0.00004840   -0.00008811
     atom   45 type  2   force =     0.00004630   -0.00003987    0.10379052
     atom   46 type  2   force =    -0.07060904   -0.00006269   -0.02705904
     atom   47 type  2   force =     0.07048508    0.00035630   -0.02708802
     atom   48 type  3   force =     0.02185850   -0.00861639    0.00349471
     atom   49 type  4   force =    -0.01178160    0.00212472   -0.00836347
     atom   50 type  5   force =     0.00002753    0.00141265    0.00011725
     atom   51 type  5   force =    -0.00102073    0.00013709   -0.00053507
     atom   52 type  5   force =    -0.01042699    0.00595397    0.00331556

     Total force =     0.367171     Total SCF correction =     0.000870
  @ DRIVER MODE: Message from server: STATUS
  @ DRIVER MODE: Message from server: GETFORCE
  @ DRIVER MODE: Returning v,forces,stress,ensemble 

     Writing output data file ./calc.save/
  @ DRIVER MODE: Message from server: EXIT
  @ DRIVE MODE: Exiting  
 
     init_run     :     10.78s CPU     11.06s WALL (       1 calls)
     electrons    :    925.16s CPU    939.11s WALL (       1 calls)
     forces       :      2.33s CPU      2.42s WALL (       1 calls)

     Called by init_run:
     wfcinit      :      4.75s CPU      4.81s WALL (       1 calls)
     potinit      :      5.36s CPU      5.48s WALL (       1 calls)
     hinit0       :      0.33s CPU      0.34s WALL (       1 calls)

     Called by electrons:
     c_bands      :    782.87s CPU    788.82s WALL (      61 calls)
     sum_band     :     96.48s CPU     99.70s WALL (      61 calls)
     v_of_rho     :     35.02s CPU     36.78s WALL (      62 calls)
     newd         :     14.19s CPU     17.28s WALL (      62 calls)
     mix_rho      :      1.25s CPU      1.28s WALL (      61 calls)
     vdW_kernel   :      4.55s CPU      4.60s WALL (       1 calls)

     Called by c_bands:
     init_us_2    :      5.46s CPU      5.50s WALL (    1240 calls)
     cegterg      :    766.66s CPU    772.33s WALL (     615 calls)

     Called by *egterg:
     cdiaghg      :    129.76s CPU    130.42s WALL (    6548 calls)
     h_psi        :    409.46s CPU    413.36s WALL (    6558 calls)
     s_psi        :     54.34s CPU     54.56s WALL (    6558 calls)
     g_psi        :      1.44s CPU      1.45s WALL (    5933 calls)

     Called by h_psi:
     h_psi:calbec :     51.48s CPU     51.83s WALL (    6558 calls)
     vloc_psi     :    300.90s CPU    303.93s WALL (    6558 calls)
     add_vuspsi   :     54.44s CPU     54.80s WALL (    6558 calls)

     General routines
     calbec       :     68.41s CPU     68.82s WALL (    7208 calls)
     fft          :     17.85s CPU     17.99s WALL (    3906 calls)
     ffts         :      0.11s CPU      0.11s WALL (     123 calls)
     fftw         :    339.75s CPU    343.16s WALL (  797120 calls)
     interpolate  :      0.36s CPU      0.36s WALL (      62 calls)
     davcio       :      0.00s CPU      0.15s WALL (      10 calls)
 
     Parallel routines
 
     PWSCF        :  15m38.58s CPU  15m53.24s WALL

 
   This run was terminated on:  22:26:15   8Sep2021            

=------------------------------------------------------------------------------=
   JOB DONE.
=------------------------------------------------------------------------------=
