
     Program PWSCF v.6.7GPU starts on 24Aug2021 at 23:47:46 

     This program is part of the open-source Quantum ESPRESSO suite
     for quantum simulation of materials; please cite
         "P. Giannozzi et al., J. Phys.:Condens. Matter 21 395502 (2009);
         "P. Giannozzi et al., J. Phys.:Condens. Matter 29 465901 (2017);
         "P. Giannozzi et al., J. Chem. Phys. 152 154105 (2020);
          URL http://www.quantum-espresso.org", 
     in publications or presentations arising from this work. More details at
     http://www.quantum-espresso.org/quote

     Parallel version (MPI), running on    72 processors

     MPI processes distributed on     4 nodes
     R & G space division:  proc/nbgrp/npool/nimage =      72
     Reading input from /storage/home/hcoda1/3/ntian30/research/carbon/CH2_vib/ads_slab/CH2NNH3_a/out_0038/pw.inp
Warning: card &CELL ignored
Warning: card   CELL_DYNAMICS='IPI', ignored
Warning: card / ignored

     Current dimensions of program PWSCF are:
     Max number of different atomic species (ntypx) = 10
     Max number of k-points (npk) =  40000
     Max angular momentum in pseudopotentials (lmaxx) =  3
     Presently no symmetry can be used with electric field

     Message from routine cell_base_init:
     DEPRECATED: use true lattice parameter, not A to a.u. conversion factor

     **************************************************************************
     Initializing libbeef V0.1.2 with the BEEF-vdW functional.
     Citation: Wellendorff et al., PRB 85, 235149 (2012).
     **************************************************************************


     IMPORTANT: XC functional enforced from input :
     Exchange-correlation= BEEF-VDW
                           (   1   4  43  14   2   0   0)
     Any further DFT definition will be discarded
     Please, verify this is what you really want


     Subspace diagonalization in iterative solution of the eigenvalue problem:
     one sub-group per band group will be used
     scalapack distributed-memory algorithm (size of sub-group:  8*  8 procs)

  @ DRIVER MODE: Connecting to 
 qe_1139763_2641442.sched-torque.pace.gatech.edu6vzr7bnz_scratch
  using UNIX socket
  @ DRIVER MODE: Message from server: STATUS
  @ DRIVER MODE: Message from server: INIT
  @ DRIVER MODE: Receiving replica           0          -1
  @ DRIVER MODE: Receiving encoded integer          25
  @ DRIVER MODE:  SCF:  T  FORCE:  T  STRESS:  F  VC:  F  ENSEMBLE:  F
  @ DRIVER MODE:  SCF:  T  FORCE:  T  STRESS:  F  VC:  F  ENSEMBLE:  F
 
     Parallelization info
     --------------------
     sticks:   dense  smooth     PW     G-vecs:    dense   smooth      PW
     Min          45      18      5                 7865     1988     295
     Max          46      19      6                 7884     2001     312
     Sum        3275    1317    379               566857   143421   21985
 
     Using Slab Decomposition
 


     bravais-lattice index     =            0
     lattice parameter (alat)  =       1.8897  a.u.
     unit-cell volume          =    6658.9804 (a.u.)^3
     number of atoms/cell      =           55
     number of atomic types    =            5
     number of electrons       =       397.00
     number of Kohn-Sham states=          208
     kinetic-energy cutoff     =      29.3995  Ry
     charge density cutoff     =     293.9946  Ry
     scf convergence threshold =      7.3E-08
     mixing beta               =       0.0500
     number of iterations used =            8  plain     mixing
     Exchange-correlation= BEEF-VDW
                           (   1   4  43  14   2   0   0)

     celldm(1)=   1.889726  celldm(2)=   0.000000  celldm(3)=   0.000000
     celldm(4)=   0.000000  celldm(5)=   0.000000  celldm(6)=   0.000000

     crystal axes: (cart. coord. in units of alat)
               a(1) = (   6.579727   0.000000   0.000000 )  
               a(2) = (  -0.000775   5.961596   0.000000 )  
               a(3) = (   0.000000   0.000000  25.155947 )  

     reciprocal axes: (cart. coord. in units 2 pi/alat)
               b(1) = (  0.151982  0.000020  0.000000 )  
               b(2) = (  0.000000  0.167740  0.000000 )  
               b(3) = (  0.000000  0.000000  0.039752 )  


     PseudoPot. # 1 for Ti read from file:
     /storage/coda1/p-amedford6/0/shared/rich_project_chbe-medford/medford-share/data/pseudos_module/espresso/nninc/pbe/van/Ti.UPF
     MD5 check sum: 8e4df49b7f0d34bbd5052bf3f5ea0213
     Pseudo is Ultrasoft, Zval = 12.0
     Generated by new atomic code, or converted to UPF format
     Using radial grid of  851 points,  6 beta functions with: 
                l(1) =   0
                l(2) =   0
                l(3) =   1
                l(4) =   1
                l(5) =   2
                l(6) =   2
     Q(r) pseudized with  8 coefficients,  rinner =    1.000   1.000   1.000
                                                       1.000   1.000

     PseudoPot. # 2 for O  read from file:
     /storage/coda1/p-amedford6/0/shared/rich_project_chbe-medford/medford-share/data/pseudos_module/espresso/nninc/pbe/van/O.UPF
     MD5 check sum: 78c19812648e8988a0fe644b0f25305e
     Pseudo is Ultrasoft, Zval =  6.0
     Generated by new atomic code, or converted to UPF format
     Using radial grid of  737 points,  4 beta functions with: 
                l(1) =   0
                l(2) =   0
                l(3) =   1
                l(4) =   1
     Q(r) pseudized with  8 coefficients,  rinner =    0.800   0.800   0.800


     PseudoPot. # 3 for N  read from file:
     /storage/coda1/p-amedford6/0/shared/rich_project_chbe-medford/medford-share/data/pseudos_module/espresso/nninc/pbe/van/N.UPF
     MD5 check sum: 90d10febe142ad51ac9d5be1deb811c4
     Pseudo is Ultrasoft, Zval =  5.0
     Generated by new atomic code, or converted to UPF format
     Using radial grid of  729 points,  4 beta functions with: 
                l(1) =   0
                l(2) =   0
                l(3) =   1
                l(4) =   1
     Q(r) pseudized with  8 coefficients,  rinner =    0.800   0.800   0.800


     PseudoPot. # 4 for C  read from file:
     /storage/coda1/p-amedford6/0/shared/rich_project_chbe-medford/medford-share/data/pseudos_module/espresso/nninc/pbe/van/C.UPF
     MD5 check sum: 1a69bf6b8db32088f5b2163dbdb77a27
     Pseudo is Ultrasoft, Zval =  4.0
     Generated by new atomic code, or converted to UPF format
     Using radial grid of  721 points,  4 beta functions with: 
                l(1) =   0
                l(2) =   0
                l(3) =   1
                l(4) =   1
     Q(r) pseudized with  8 coefficients,  rinner =    0.800   0.800   0.800


     PseudoPot. # 5 for H  read from file:
     /storage/coda1/p-amedford6/0/shared/rich_project_chbe-medford/medford-share/data/pseudos_module/espresso/nninc/pbe/van/H.UPF
     MD5 check sum: b5ee9d7bfd3a09ee7748110bda690ff7
     Pseudo is Ultrasoft, Zval =  1.0
     Generated by new atomic code, or converted to UPF format
     Using radial grid of  615 points,  1 beta functions with: 
                l(1) =   0
     Q(r) pseudized with  8 coefficients,  rinner =    0.800

     atomic species   valence    mass     pseudopotential
        Ti1           12.00    47.86700     Ti( 1.00)
        O1             6.00    15.99900     O ( 1.00)
        N1             5.00    14.00700     N ( 1.00)
        C1             4.00    12.01100     C ( 1.00)
        H1             1.00     1.00800     H ( 1.00)

     No symmetry found



   Cartesian axes

     site n.     atom                  positions (alat units)
         1           Ti1 tau(   1) = (   0.0004258   2.9801865   6.0000000  )
         2           Ti1 tau(   2) = (   3.2906075   1.4906267   6.0002472  )
         3           O1  tau(   3) = (   0.0006271   0.0005054   7.9858123  )
         4           O1  tau(   4) = (   3.2906025   0.0005020   7.3038282  )
         5           O1  tau(   5) = (   4.5942328   1.4918067   9.2879030  )
         6           O1  tau(   6) = (   1.9868534   1.4903216   9.2879459  )
         7           Ti1 tau(   7) = (   3.2907910   2.8959150   9.1758416  )
         8           Ti1 tau(   8) = (   0.0015273   1.4827037   9.2680791  )
         9           O1  tau(   9) = (   3.2870044   0.0008392  11.3329265  )
        10           O1  tau(  10) = (   0.0116148   5.9584955  10.6183126  )
        11           O1  tau(  11) = (   1.3103063   1.4923116  12.6208530  )
        12           O1  tau(  12) = (   5.2933663   1.4849185  12.6124200  )
        13           Ti1 tau(  13) = (   6.5212574   2.9536302  12.6166858  )
        14           Ti1 tau(  14) = (   3.2058376   1.4897313  12.4816367  )
        15           O1  tau(  15) = (   6.5713238   0.0136578  14.6546308  )
        16           O1  tau(  16) = (   3.3039920   0.0133407  13.9274802  )
        17           O1  tau(  17) = (   4.5398155   1.5323753  16.0810081  )
        18           O1  tau(  18) = (   2.0543055   1.5218724  16.0470058  )
        19           Ti1 tau(  19) = (   3.2774803   3.0107093  15.7022328  )
        20           Ti1 tau(  20) = (   6.5342633   1.5374647  15.8423947  )
        21           O1  tau(  21) = (   3.2904802   0.0005063   4.7018136  )
        22           O1  tau(  22) = (   0.0034288   0.0322173  17.2228558  )
        23           O1  tau(  23) = (   1.3043587   1.4918075   6.0039043  )
        24           O1  tau(  24) = (   5.2767064   1.4903225   6.0039473  )
        25           Ti1 tau(  25) = (   0.0000382   5.9609847   6.0000000  )
        26           Ti1 tau(  26) = (   3.2902200   4.4714249   6.0002472  )
        27           O1  tau(  27) = (   0.0002396   2.9813036   7.9858123  )
        28           O1  tau(  28) = (   3.2902150   2.9813002   7.3038282  )
        29           O1  tau(  29) = (   4.5938453   4.4726049   9.2879030  )
        30           O1  tau(  30) = (   1.9864658   4.4711199   9.2879459  )
        31           Ti1 tau(  31) = (   3.2891106   5.8743827   9.1763621  )
        32           Ti1 tau(  32) = (   0.0006254   4.4649316   9.2693709  )
        33           O1  tau(  33) = (   3.2848367   2.9872869  11.3311783  )
        34           O1  tau(  34) = (   0.0092240   2.9805883  10.6323155  )
        35           O1  tau(  35) = (   1.3050274   4.4824158  12.6313026  )
        36           O1  tau(  36) = (   5.2955027   4.4751037  12.6224712  )
        37           Ti1 tau(  37) = (   6.5218534   5.9301143  12.5590122  )
        38           Ti1 tau(  38) = (   3.2037265   4.4702053  12.4865905  )
        39           O1  tau(  39) = (   6.5652647   2.9430126  14.6458727  )
        40           O1  tau(  40) = (   3.3006234   2.9978660  13.9063397  )
        41           O1  tau(  41) = (   4.5289998   4.4870283  16.1192093  )
        42           O1  tau(  42) = (   2.0463452   4.4937679  16.0531255  )
        43           Ti1 tau(  43) = (   3.2679282   0.0255942  15.7259849  )
        44           Ti1 tau(  44) = (   6.5624932   4.6695214  16.1100661  )
        45           O1  tau(  45) = (   3.2900926   2.9813045   4.7018136  )
        46           O1  tau(  46) = (   1.3039711   4.4726057   6.0039043  )
        47           O1  tau(  47) = (   5.2763189   4.4711207   6.0039473  )
        48           N1  tau(  48) = (   0.0665130   2.9625449  17.3937163  )
        49           C1  tau(  49) = (   0.2662726   2.8715582  18.6342609  )
        50           H1  tau(  50) = (   0.3859136   3.7587535  19.2661104  )
        51           H1  tau(  51) = (   0.3502417   1.8926937  19.1273272  )
        52           N1  tau(  52) = (   3.5829462   4.8819607  19.5834040  )
        53           H1  tau(  53) = (   4.1394342   5.6873527  19.8504637  )
        54           H1  tau(  54) = (   4.0852263   4.4438539  18.8113048  )
        55           H1  tau(  55) = (   3.6086599   4.2347498  20.3655469  )

     number of k points=    10  Fermi-Dirac smearing, width (Ry)=  0.0073
                       cart. coord. in units 2pi/alat
        k(    1) = (   0.0000000   0.0000000   0.0000000), wk =   0.1250000
        k(    2) = (   0.0000000   0.0419351   0.0000000), wk =   0.2500000
        k(    3) = (   0.0000000  -0.0838702   0.0000000), wk =   0.1250000
        k(    4) = (   0.0379955   0.0000049   0.0000000), wk =   0.2500000
        k(    5) = (   0.0379955   0.0419400   0.0000000), wk =   0.2500000
        k(    6) = (   0.0379955  -0.0838652   0.0000000), wk =   0.2500000
        k(    7) = (   0.0379955  -0.0419301   0.0000000), wk =   0.2500000
        k(    8) = (  -0.0759910  -0.0000099   0.0000000), wk =   0.1250000
        k(    9) = (  -0.0759910   0.0419252   0.0000000), wk =   0.2500000
        k(   10) = (  -0.0759910  -0.0838800   0.0000000), wk =   0.1250000

     Dense  grid:   566857 G-vectors     FFT dimensions: (  72,  64, 270)

     Smooth grid:   143421 G-vectors     FFT dimensions: (  45,  40, 180)

     Estimated max dynamical RAM per process >      56.57 MB

     Estimated total dynamical RAM >       3.98 GB
     Cannot read rho : file not found

     Initial potential from superposition of free atoms

     starting charge  380.99914, renormalised to  397.00000

     negative rho (up, down):  1.455E-02 0.000E+00


     %%%%%%%%%%%%%%%%%%%%%%%%%%%%%%%%%%%%%%%%%%%%%%%%%%%%%%%%%%%%%%%%%%%%%%%%
     %                                                                      %
     % You are using vdW-DF, which was implemented by the Thonhauser group. %
     % Please cite the following two papers that made this development      %
     % possible and the two reviews that describe the various versions:     %
     %                                                                      %
     %   T. Thonhauser et al., PRL 115, 136402 (2015).                      %
     %   T. Thonhauser et al., PRB 76, 125112 (2007).                       %
     %   K. Berland et al., Rep. Prog. Phys. 78, 066501 (2015).             %
     %   D.C. Langreth et al., J. Phys.: Condens. Matter 21, 084203 (2009). %
     %                                                                      %
     %                                                                      %
     % If you are calculating the stress with vdW-DF, please also cite:     %
     %                                                                      %
     %   R. Sabatini et al., J. Phys.: Condens. Matter 24, 424209 (2012).   %
     %                                                                      %
     %%%%%%%%%%%%%%%%%%%%%%%%%%%%%%%%%%%%%%%%%%%%%%%%%%%%%%%%%%%%%%%%%%%%%%%%


 
     Adding external electric field

     Computed dipole along edir(3) : 
        Dipole              -10.1102 Ry au,        -25.6976 Debye
        Dipole field         -0.0191 Ry au, 
 
        Potential amp.        1.7686 Ry
        Total length         46.3494 bohr
 
     Starting wfcs are  301 atomic wfcs
  @ DRIVER MODE: Message from server: STATUS
  @ DRIVER MODE: Message from server: POSDATA
  @ DRIVER MODE: Reading and sharing cell 
  @ DRIVER MODE: Reading and sharing positions 
  @ DRIVER MODE: Received positions 

     total cpu time spent up to now is       32.0 secs

     Self-consistent Calculation

     iteration #  1     ecut=    29.40 Ry     beta= 0.05
     Davidson diagonalization with overlap
     c_bands:  2 eigenvalues not converged
     c_bands:  1 eigenvalues not converged
     c_bands:  1 eigenvalues not converged
     c_bands:  1 eigenvalues not converged
     c_bands:  1 eigenvalues not converged
     c_bands:  1 eigenvalues not converged
     c_bands:  1 eigenvalues not converged
     c_bands:  2 eigenvalues not converged
     ethr =  1.00E-05,  avg # of iterations = 19.0

     negative rho (up, down):  1.143E-02 0.000E+00
 
     Adding external electric field

     Computed dipole along edir(3) : 
        Dipole               42.6502 Ry au,        108.4059 Debye
        Dipole field          0.0805 Ry au, 
 
        Potential amp.       -7.4610 Ry
        Total length         46.3494 bohr
 

     total cpu time spent up to now is       79.6 secs

     total energy              =   -2537.34058355 Ry
     estimated scf accuracy    <    4510.12681036 Ry

     iteration #  2     ecut=    29.40 Ry     beta= 0.05
     Davidson diagonalization with overlap
     ethr =  1.00E-02,  avg # of iterations = 24.7

     negative rho (up, down):  2.973E-03 0.000E+00
 
     Adding external electric field

     Computed dipole along edir(3) : 
        Dipole               -2.8919 Ry au,         -7.3505 Debye
        Dipole field         -0.0055 Ry au, 
 
        Potential amp.        0.5059 Ry
        Total length         46.3494 bohr
 

     total cpu time spent up to now is      118.3 secs

     total energy              =   -2457.25316976 Ry
     estimated scf accuracy    <   66611.51917731 Ry

     iteration #  3     ecut=    29.40 Ry     beta= 0.05
     Davidson diagonalization with overlap
     ethr =  1.00E-02,  avg # of iterations = 15.1

     negative rho (up, down):  3.042E-03 0.000E+00
 
     Adding external electric field

     Computed dipole along edir(3) : 
        Dipole               -4.8363 Ry au,        -12.2927 Debye
        Dipole field         -0.0091 Ry au, 
 
        Potential amp.        0.8460 Ry
        Total length         46.3494 bohr
 

     total cpu time spent up to now is      199.2 secs

     total energy              =   -2925.40228177 Ry
     estimated scf accuracy    <    4255.66038459 Ry

     iteration #  4     ecut=    29.40 Ry     beta= 0.05
     Davidson diagonalization with overlap
     ethr =  1.00E-02,  avg # of iterations = 14.4

     negative rho (up, down):  3.079E-03 0.000E+00
 
     Adding external electric field

     Computed dipole along edir(3) : 
        Dipole               -6.1740 Ry au,        -15.6929 Debye
        Dipole field         -0.0117 Ry au, 
 
        Potential amp.        1.0801 Ry
        Total length         46.3494 bohr
 

     total cpu time spent up to now is      234.5 secs

     total energy              =   -2930.47167885 Ry
     estimated scf accuracy    <    1370.79232742 Ry

     iteration #  5     ecut=    29.40 Ry     beta= 0.05
     Davidson diagonalization with overlap
     c_bands:  2 eigenvalues not converged
     c_bands:  3 eigenvalues not converged
     c_bands:  1 eigenvalues not converged
     ethr =  1.00E-02,  avg # of iterations = 17.9

     negative rho (up, down):  3.084E-03 0.000E+00
 
     Adding external electric field

     Computed dipole along edir(3) : 
        Dipole               -5.6029 Ry au,        -14.2411 Debye
        Dipole field         -0.0106 Ry au, 
 
        Potential amp.        0.9801 Ry
        Total length         46.3494 bohr
 

     total cpu time spent up to now is      251.0 secs

     total energy              =   -2944.03066961 Ry
     estimated scf accuracy    <      57.50005420 Ry

     iteration #  6     ecut=    29.40 Ry     beta= 0.05
     Davidson diagonalization with overlap
     ethr =  1.00E-02,  avg # of iterations =  1.5

     negative rho (up, down):  3.105E-03 0.000E+00
 
     Adding external electric field

     Computed dipole along edir(3) : 
        Dipole               -4.9133 Ry au,        -12.4883 Debye
        Dipole field         -0.0093 Ry au, 
 
        Potential amp.        0.8595 Ry
        Total length         46.3494 bohr
 

     total cpu time spent up to now is      259.3 secs

     total energy              =   -2943.57782280 Ry
     estimated scf accuracy    <      49.55659439 Ry

     iteration #  7     ecut=    29.40 Ry     beta= 0.05
     Davidson diagonalization with overlap
     ethr =  1.00E-02,  avg # of iterations =  1.0

     negative rho (up, down):  3.284E-03 0.000E+00
 
     Adding external electric field

     Computed dipole along edir(3) : 
        Dipole               -2.5397 Ry au,         -6.4553 Debye
        Dipole field         -0.0048 Ry au, 
 
        Potential amp.        0.4443 Ry
        Total length         46.3494 bohr
 

     total cpu time spent up to now is      264.9 secs

     total energy              =   -2941.85111284 Ry
     estimated scf accuracy    <      49.10627757 Ry

     iteration #  8     ecut=    29.40 Ry     beta= 0.05
     Davidson diagonalization with overlap
     ethr =  1.00E-02,  avg # of iterations =  1.0

     negative rho (up, down):  3.503E-03 0.000E+00
 
     Adding external electric field

     Computed dipole along edir(3) : 
        Dipole               -0.8959 Ry au,         -2.2773 Debye
        Dipole field         -0.0017 Ry au, 
 
        Potential amp.        0.1567 Ry
        Total length         46.3494 bohr
 

     total cpu time spent up to now is      279.9 secs

     total energy              =   -2942.04819679 Ry
     estimated scf accuracy    <     125.30314279 Ry

     iteration #  9     ecut=    29.40 Ry     beta= 0.05
     Davidson diagonalization with overlap
     ethr =  1.00E-02,  avg # of iterations =  2.0

     negative rho (up, down):  3.596E-03 0.000E+00
 
     Adding external electric field

     Computed dipole along edir(3) : 
        Dipole               -1.0105 Ry au,         -2.5685 Debye
        Dipole field         -0.0019 Ry au, 
 
        Potential amp.        0.1768 Ry
        Total length         46.3494 bohr
 

     total cpu time spent up to now is      287.5 secs

     total energy              =   -2941.19128670 Ry
     estimated scf accuracy    <     681.21977972 Ry

     iteration # 10     ecut=    29.40 Ry     beta= 0.05
     Davidson diagonalization with overlap
     ethr =  1.00E-02,  avg # of iterations =  2.2

     negative rho (up, down):  3.796E-03 0.000E+00
 
     Adding external electric field

     Computed dipole along edir(3) : 
        Dipole               -0.3747 Ry au,         -0.9524 Debye
        Dipole field         -0.0007 Ry au, 
 
        Potential amp.        0.0655 Ry
        Total length         46.3494 bohr
 

     total cpu time spent up to now is      294.5 secs

     total energy              =   -2941.99721542 Ry
     estimated scf accuracy    <     215.47645569 Ry

     iteration # 11     ecut=    29.40 Ry     beta= 0.05
     Davidson diagonalization with overlap
     ethr =  1.00E-02,  avg # of iterations =  2.9

     negative rho (up, down):  3.679E-03 0.000E+00
 
     Adding external electric field

     Computed dipole along edir(3) : 
        Dipole               -1.8766 Ry au,         -4.7698 Debye
        Dipole field         -0.0035 Ry au, 
 
        Potential amp.        0.3283 Ry
        Total length         46.3494 bohr
 

     total cpu time spent up to now is      312.9 secs

     total energy              =   -2938.62782079 Ry
     estimated scf accuracy    <     198.19906358 Ry

     iteration # 12     ecut=    29.40 Ry     beta= 0.05
     Davidson diagonalization with overlap
     ethr =  1.00E-02,  avg # of iterations =  2.4

     negative rho (up, down):  3.738E-03 0.000E+00
 
     Adding external electric field

     Computed dipole along edir(3) : 
        Dipole               -2.1366 Ry au,         -5.4306 Debye
        Dipole field         -0.0040 Ry au, 
 
        Potential amp.        0.3738 Ry
        Total length         46.3494 bohr
 

     total cpu time spent up to now is      324.6 secs

     total energy              =   -2939.75543691 Ry
     estimated scf accuracy    <      56.38246981 Ry

     iteration # 13     ecut=    29.40 Ry     beta= 0.05
     Davidson diagonalization with overlap
     ethr =  1.00E-02,  avg # of iterations =  1.8

     negative rho (up, down):  3.947E-03 0.000E+00
 
     Adding external electric field

     Computed dipole along edir(3) : 
        Dipole               -1.7504 Ry au,         -4.4490 Debye
        Dipole field         -0.0033 Ry au, 
 
        Potential amp.        0.3062 Ry
        Total length         46.3494 bohr
 

     total cpu time spent up to now is      328.2 secs

     total energy              =   -2939.78341743 Ry
     estimated scf accuracy    <      42.70069098 Ry

     iteration # 14     ecut=    29.40 Ry     beta= 0.05
     Davidson diagonalization with overlap
     ethr =  1.00E-02,  avg # of iterations =  2.2

     negative rho (up, down):  4.243E-03 0.000E+00
 
     Adding external electric field

     Computed dipole along edir(3) : 
        Dipole               -0.7065 Ry au,         -1.7958 Debye
        Dipole field         -0.0013 Ry au, 
 
        Potential amp.        0.1236 Ry
        Total length         46.3494 bohr
 

     total cpu time spent up to now is      332.0 secs

     total energy              =   -2940.49630015 Ry
     estimated scf accuracy    <      33.51886450 Ry

     iteration # 15     ecut=    29.40 Ry     beta= 0.05
     Davidson diagonalization with overlap
     ethr =  8.44E-03,  avg # of iterations =  1.5

     negative rho (up, down):  4.417E-03 0.000E+00
 
     Adding external electric field

     Computed dipole along edir(3) : 
        Dipole               -0.5316 Ry au,         -1.3511 Debye
        Dipole field         -0.0010 Ry au, 
 
        Potential amp.        0.0930 Ry
        Total length         46.3494 bohr
 

     total cpu time spent up to now is      342.2 secs

     total energy              =   -2940.58949004 Ry
     estimated scf accuracy    <      28.41131571 Ry

     iteration # 16     ecut=    29.40 Ry     beta= 0.05
     Davidson diagonalization with overlap
     ethr =  7.16E-03,  avg # of iterations =  1.8

     negative rho (up, down):  4.656E-03 0.000E+00
 
     Adding external electric field

     Computed dipole along edir(3) : 
        Dipole               -0.5541 Ry au,         -1.4084 Debye
        Dipole field         -0.0010 Ry au, 
 
        Potential amp.        0.0969 Ry
        Total length         46.3494 bohr
 

     total cpu time spent up to now is      358.4 secs

     total energy              =   -2940.53674314 Ry
     estimated scf accuracy    <      21.96686605 Ry

     iteration # 17     ecut=    29.40 Ry     beta= 0.05
     Davidson diagonalization with overlap
     ethr =  5.53E-03,  avg # of iterations =  2.8

     negative rho (up, down):  4.998E-03 0.000E+00
 
     Adding external electric field

     Computed dipole along edir(3) : 
        Dipole               -0.6817 Ry au,         -1.7328 Debye
        Dipole field         -0.0013 Ry au, 
 
        Potential amp.        0.1193 Ry
        Total length         46.3494 bohr
 

     total cpu time spent up to now is      379.7 secs

     total energy              =   -2940.52154989 Ry
     estimated scf accuracy    <      15.12895653 Ry

     iteration # 18     ecut=    29.40 Ry     beta= 0.05
     Davidson diagonalization with overlap
     ethr =  3.81E-03,  avg # of iterations =  4.8

     negative rho (up, down):  5.015E-03 0.000E+00
 
     Adding external electric field

     Computed dipole along edir(3) : 
        Dipole               -1.3371 Ry au,         -3.3986 Debye
        Dipole field         -0.0025 Ry au, 
 
        Potential amp.        0.2339 Ry
        Total length         46.3494 bohr
 

     total cpu time spent up to now is      391.7 secs

     total energy              =   -2941.12318787 Ry
     estimated scf accuracy    <       0.91478748 Ry

     iteration # 19     ecut=    29.40 Ry     beta= 0.05
     Davidson diagonalization with overlap
     c_bands:  1 eigenvalues not converged
     c_bands:  4 eigenvalues not converged
     c_bands:  2 eigenvalues not converged
     c_bands:  2 eigenvalues not converged
     ethr =  2.30E-04,  avg # of iterations = 19.1

     negative rho (up, down):  4.604E-03 0.000E+00
 
     Adding external electric field

     Computed dipole along edir(3) : 
        Dipole               -1.1747 Ry au,         -2.9858 Debye
        Dipole field         -0.0022 Ry au, 
 
        Potential amp.        0.2055 Ry
        Total length         46.3494 bohr
 

     total cpu time spent up to now is      404.9 secs

     total energy              =   -2941.75444821 Ry
     estimated scf accuracy    <      26.93378126 Ry

     iteration # 20     ecut=    29.40 Ry     beta= 0.05
     Davidson diagonalization with overlap
     ethr =  2.30E-04,  avg # of iterations =  3.1

     negative rho (up, down):  4.718E-03 0.000E+00
 
     Adding external electric field

     Computed dipole along edir(3) : 
        Dipole               -0.8864 Ry au,         -2.2531 Debye
        Dipole field         -0.0017 Ry au, 
 
        Potential amp.        0.1551 Ry
        Total length         46.3494 bohr
 

     total cpu time spent up to now is      409.0 secs

     total energy              =   -2941.84941296 Ry
     estimated scf accuracy    <       4.50917835 Ry

     iteration # 21     ecut=    29.40 Ry     beta= 0.05
     Davidson diagonalization with overlap
     ethr =  2.30E-04,  avg # of iterations =  1.4

     negative rho (up, down):  4.868E-03 0.000E+00
 
     Adding external electric field

     Computed dipole along edir(3) : 
        Dipole               -0.6059 Ry au,         -1.5401 Debye
        Dipole field         -0.0011 Ry au, 
 
        Potential amp.        0.1060 Ry
        Total length         46.3494 bohr
 

     total cpu time spent up to now is      412.8 secs

     total energy              =   -2941.78160972 Ry
     estimated scf accuracy    <       2.21320736 Ry

     iteration # 22     ecut=    29.40 Ry     beta= 0.05
     Davidson diagonalization with overlap
     ethr =  2.30E-04,  avg # of iterations =  1.4

     negative rho (up, down):  5.262E-03 0.000E+00
 
     Adding external electric field

     Computed dipole along edir(3) : 
        Dipole               -0.1879 Ry au,         -0.4775 Debye
        Dipole field         -0.0004 Ry au, 
 
        Potential amp.        0.0329 Ry
        Total length         46.3494 bohr
 

     total cpu time spent up to now is      416.8 secs

     total energy              =   -2941.66943683 Ry
     estimated scf accuracy    <       1.52731066 Ry

     iteration # 23     ecut=    29.40 Ry     beta= 0.05
     Davidson diagonalization with overlap
     c_bands:  1 eigenvalues not converged
     c_bands:  1 eigenvalues not converged
     ethr =  2.30E-04,  avg # of iterations = 17.3

     negative rho (up, down):  5.260E-03 0.000E+00
 
     Adding external electric field

     Computed dipole along edir(3) : 
        Dipole                0.0803 Ry au,          0.2040 Debye
        Dipole field          0.0002 Ry au, 
 
        Potential amp.       -0.0140 Ry
        Total length         46.3494 bohr
 

     total cpu time spent up to now is      429.3 secs

     total energy              =   -2941.73746335 Ry
     estimated scf accuracy    <       0.46759149 Ry

     iteration # 24     ecut=    29.40 Ry     beta= 0.05
     Davidson diagonalization with overlap
     ethr =  1.18E-04,  avg # of iterations =  3.8

     negative rho (up, down):  5.202E-03 0.000E+00
 
     Adding external electric field

     Computed dipole along edir(3) : 
        Dipole               -0.2659 Ry au,         -0.6760 Debye
        Dipole field         -0.0005 Ry au, 
 
        Potential amp.        0.0465 Ry
        Total length         46.3494 bohr
 

     total cpu time spent up to now is      433.6 secs

     total energy              =   -2941.74548379 Ry
     estimated scf accuracy    <       0.48207264 Ry

     iteration # 25     ecut=    29.40 Ry     beta= 0.05
     Davidson diagonalization with overlap
     ethr =  1.18E-04,  avg # of iterations =  2.1

     negative rho (up, down):  5.205E-03 0.000E+00
 
     Adding external electric field

     Computed dipole along edir(3) : 
        Dipole               -0.4193 Ry au,         -1.0659 Debye
        Dipole field         -0.0008 Ry au, 
 
        Potential amp.        0.0734 Ry
        Total length         46.3494 bohr
 

     total cpu time spent up to now is      437.4 secs

     total energy              =   -2941.76494539 Ry
     estimated scf accuracy    <       0.66641999 Ry

     iteration # 26     ecut=    29.40 Ry     beta= 0.05
     Davidson diagonalization with overlap
     ethr =  1.18E-04,  avg # of iterations =  5.4

     negative rho (up, down):  5.259E-03 0.000E+00
 
     Adding external electric field

     Computed dipole along edir(3) : 
        Dipole               -1.1488 Ry au,         -2.9200 Debye
        Dipole field         -0.0022 Ry au, 
 
        Potential amp.        0.2010 Ry
        Total length         46.3494 bohr
 

     total cpu time spent up to now is      442.1 secs

     total energy              =   -2941.88896558 Ry
     estimated scf accuracy    <       1.82832622 Ry

     iteration # 27     ecut=    29.40 Ry     beta= 0.05
     Davidson diagonalization with overlap
     c_bands:  1 eigenvalues not converged
     c_bands:  1 eigenvalues not converged
     c_bands:  1 eigenvalues not converged
     ethr =  1.18E-04,  avg # of iterations = 16.3

     negative rho (up, down):  5.548E-03 0.000E+00
 
     Adding external electric field

     Computed dipole along edir(3) : 
        Dipole               -0.2237 Ry au,         -0.5686 Debye
        Dipole field         -0.0004 Ry au, 
 
        Potential amp.        0.0391 Ry
        Total length         46.3494 bohr
 

     total cpu time spent up to now is      451.1 secs

     total energy              =   -2941.58286400 Ry
     estimated scf accuracy    <      45.81807291 Ry

     iteration # 28     ecut=    29.40 Ry     beta= 0.05
     Davidson diagonalization with overlap
     ethr =  1.18E-04,  avg # of iterations =  9.4

     negative rho (up, down):  5.509E-03 0.000E+00
 
     Adding external electric field

     Computed dipole along edir(3) : 
        Dipole                0.0348 Ry au,          0.0884 Debye
        Dipole field          0.0001 Ry au, 
 
        Potential amp.       -0.0061 Ry
        Total length         46.3494 bohr
 

     total cpu time spent up to now is      457.1 secs

     total energy              =   -2941.72494158 Ry
     estimated scf accuracy    <       7.90107519 Ry

     iteration # 29     ecut=    29.40 Ry     beta= 0.05
     Davidson diagonalization with overlap
     ethr =  1.18E-04,  avg # of iterations =  8.4

     negative rho (up, down):  5.499E-03 0.000E+00
 
     Adding external electric field

     Computed dipole along edir(3) : 
        Dipole                0.5532 Ry au,          1.4062 Debye
        Dipole field          0.0010 Ry au, 
 
        Potential amp.       -0.0968 Ry
        Total length         46.3494 bohr
 

     total cpu time spent up to now is      471.1 secs

     total energy              =   -2941.67137564 Ry
     estimated scf accuracy    <       1.54047419 Ry

     iteration # 30     ecut=    29.40 Ry     beta= 0.05
     Davidson diagonalization with overlap
     c_bands:  3 eigenvalues not converged
     c_bands:  2 eigenvalues not converged
     c_bands:  2 eigenvalues not converged
     c_bands:  4 eigenvalues not converged
     c_bands:  4 eigenvalues not converged
     c_bands:  3 eigenvalues not converged
     ethr =  1.18E-04,  avg # of iterations = 14.8

     negative rho (up, down):  5.491E-03 0.000E+00
 
     Adding external electric field

     Computed dipole along edir(3) : 
        Dipole                0.5274 Ry au,          1.3404 Debye
        Dipole field          0.0010 Ry au, 
 
        Potential amp.       -0.0923 Ry
        Total length         46.3494 bohr
 

     total cpu time spent up to now is      479.3 secs

     total energy              =   -2941.69017640 Ry
     estimated scf accuracy    <       0.43539577 Ry

     iteration # 31     ecut=    29.40 Ry     beta= 0.05
     Davidson diagonalization with overlap
     c_bands:  3 eigenvalues not converged
     c_bands:  5 eigenvalues not converged
     c_bands:  5 eigenvalues not converged
     ethr =  1.10E-04,  avg # of iterations = 15.5

     negative rho (up, down):  5.450E-03 0.000E+00
 
     Adding external electric field

     Computed dipole along edir(3) : 
        Dipole                0.4274 Ry au,          1.0863 Debye
        Dipole field          0.0008 Ry au, 
 
        Potential amp.       -0.0748 Ry
        Total length         46.3494 bohr
 

     total cpu time spent up to now is      505.7 secs

     total energy              =   -2941.70605871 Ry
     estimated scf accuracy    <       0.12379568 Ry

     iteration # 32     ecut=    29.40 Ry     beta= 0.05
     Davidson diagonalization with overlap
     c_bands:  3 eigenvalues not converged
     c_bands:  5 eigenvalues not converged
     c_bands:  5 eigenvalues not converged
     c_bands:  1 eigenvalues not converged
     ethr =  3.12E-05,  avg # of iterations = 18.9

     negative rho (up, down):  5.445E-03 0.000E+00
 
     Adding external electric field

     Computed dipole along edir(3) : 
        Dipole                0.4213 Ry au,          1.0710 Debye
        Dipole field          0.0008 Ry au, 
 
        Potential amp.       -0.0737 Ry
        Total length         46.3494 bohr
 

     total cpu time spent up to now is      562.2 secs

     total energy              =   -2941.70636159 Ry
     estimated scf accuracy    <       0.10558044 Ry

     iteration # 33     ecut=    29.40 Ry     beta= 0.05
     Davidson diagonalization with overlap
     c_bands:  2 eigenvalues not converged
     ethr =  2.66E-05,  avg # of iterations =  7.3

     negative rho (up, down):  5.524E-03 0.000E+00
 
     Adding external electric field

     Computed dipole along edir(3) : 
        Dipole                0.5795 Ry au,          1.4729 Debye
        Dipole field          0.0011 Ry au, 
 
        Potential amp.       -0.1014 Ry
        Total length         46.3494 bohr
 

     total cpu time spent up to now is      611.4 secs

     total energy              =   -2941.70240060 Ry
     estimated scf accuracy    <       0.06714865 Ry

     iteration # 34     ecut=    29.40 Ry     beta= 0.05
     Davidson diagonalization with overlap
     c_bands:  1 eigenvalues not converged
     c_bands:  2 eigenvalues not converged
     c_bands:  1 eigenvalues not converged
     c_bands:  4 eigenvalues not converged
     c_bands:  5 eigenvalues not converged
     c_bands:  1 eigenvalues not converged
     c_bands:  2 eigenvalues not converged
     ethr =  1.69E-05,  avg # of iterations = 19.1

     negative rho (up, down):  5.552E-03 0.000E+00
 
     Adding external electric field

     Computed dipole along edir(3) : 
        Dipole                0.5360 Ry au,          1.3625 Debye
        Dipole field          0.0010 Ry au, 
 
        Potential amp.       -0.0938 Ry
        Total length         46.3494 bohr
 

     total cpu time spent up to now is      762.9 secs

     total energy              =   -2941.70900812 Ry
     estimated scf accuracy    <       0.15875849 Ry

     iteration # 35     ecut=    29.40 Ry     beta= 0.05
     Davidson diagonalization with overlap
     ethr =  1.69E-05,  avg # of iterations =  3.8

     negative rho (up, down):  5.757E-03 0.000E+00
 
     Adding external electric field

     Computed dipole along edir(3) : 
        Dipole                0.6699 Ry au,          1.7027 Debye
        Dipole field          0.0013 Ry au, 
 
        Potential amp.       -0.1172 Ry
        Total length         46.3494 bohr
 

     total cpu time spent up to now is      770.9 secs

     total energy              =   -2941.70555571 Ry
     estimated scf accuracy    <       0.05839722 Ry

     iteration # 36     ecut=    29.40 Ry     beta= 0.05
     Davidson diagonalization with overlap
     ethr =  1.47E-05,  avg # of iterations =  5.6

     negative rho (up, down):  6.478E-03 0.000E+00
 
     Adding external electric field

     Computed dipole along edir(3) : 
        Dipole                0.7784 Ry au,          1.9785 Debye
        Dipole field          0.0015 Ry au, 
 
        Potential amp.       -0.1362 Ry
        Total length         46.3494 bohr
 

     total cpu time spent up to now is      775.7 secs

     total energy              =   -2941.70630753 Ry
     estimated scf accuracy    <       0.09244209 Ry

     iteration # 37     ecut=    29.40 Ry     beta= 0.05
     Davidson diagonalization with overlap
     c_bands:  1 eigenvalues not converged
     c_bands:  2 eigenvalues not converged
     ethr =  1.47E-05,  avg # of iterations = 15.8

     negative rho (up, down):  6.863E-03 0.000E+00
 
     Adding external electric field

     Computed dipole along edir(3) : 
        Dipole                0.8268 Ry au,          2.1014 Debye
        Dipole field          0.0016 Ry au, 
 
        Potential amp.       -0.1446 Ry
        Total length         46.3494 bohr
 

     total cpu time spent up to now is      785.1 secs

     total energy              =   -2941.70737125 Ry
     estimated scf accuracy    <       0.05323701 Ry

     iteration # 38     ecut=    29.40 Ry     beta= 0.05
     Davidson diagonalization with overlap
     ethr =  1.34E-05,  avg # of iterations =  2.7

     negative rho (up, down):  8.193E-03 0.000E+00
 
     Adding external electric field

     Computed dipole along edir(3) : 
        Dipole                0.8195 Ry au,          2.0830 Debye
        Dipole field          0.0015 Ry au, 
 
        Potential amp.       -0.1434 Ry
        Total length         46.3494 bohr
 

     total cpu time spent up to now is      796.5 secs

     total energy              =   -2941.70147763 Ry
     estimated scf accuracy    <       0.04924333 Ry

     iteration # 39     ecut=    29.40 Ry     beta= 0.05
     Davidson diagonalization with overlap
     ethr =  1.24E-05,  avg # of iterations = 10.9

     negative rho (up, down):  9.635E-03 0.000E+00
 
     Adding external electric field

     Computed dipole along edir(3) : 
        Dipole                0.9218 Ry au,          2.3429 Debye
        Dipole field          0.0017 Ry au, 
 
        Potential amp.       -0.1613 Ry
        Total length         46.3494 bohr
 

     total cpu time spent up to now is      806.1 secs

     total energy              =   -2941.70760855 Ry
     estimated scf accuracy    <       0.02390153 Ry

     iteration # 40     ecut=    29.40 Ry     beta= 0.05
     Davidson diagonalization with overlap
     c_bands:  2 eigenvalues not converged
     c_bands:  2 eigenvalues not converged
     ethr =  6.02E-06,  avg # of iterations =  9.9

     negative rho (up, down):  1.029E-02 0.000E+00
 
     Adding external electric field

     Computed dipole along edir(3) : 
        Dipole                0.9025 Ry au,          2.2939 Debye
        Dipole field          0.0017 Ry au, 
 
        Potential amp.       -0.1579 Ry
        Total length         46.3494 bohr
 

     total cpu time spent up to now is      817.4 secs

     total energy              =   -2941.70453308 Ry
     estimated scf accuracy    <       0.05097399 Ry

     iteration # 41     ecut=    29.40 Ry     beta= 0.05
     Davidson diagonalization with overlap
     c_bands:  1 eigenvalues not converged
     c_bands:  2 eigenvalues not converged
     ethr =  6.02E-06,  avg # of iterations = 12.7

     negative rho (up, down):  1.143E-02 0.000E+00
 
     Adding external electric field

     Computed dipole along edir(3) : 
        Dipole                0.8947 Ry au,          2.2742 Debye
        Dipole field          0.0017 Ry au, 
 
        Potential amp.       -0.1565 Ry
        Total length         46.3494 bohr
 

     total cpu time spent up to now is      828.4 secs

     total energy              =   -2941.70698831 Ry
     estimated scf accuracy    <       0.00851181 Ry

     iteration # 42     ecut=    29.40 Ry     beta= 0.05
     Davidson diagonalization with overlap
     c_bands:  3 eigenvalues not converged
     c_bands:  2 eigenvalues not converged
     c_bands:  1 eigenvalues not converged
     c_bands:  1 eigenvalues not converged
     ethr =  2.14E-06,  avg # of iterations = 14.7

     negative rho (up, down):  1.196E-02 0.000E+00
 
     Adding external electric field

     Computed dipole along edir(3) : 
        Dipole                0.8471 Ry au,          2.1532 Debye
        Dipole field          0.0016 Ry au, 
 
        Potential amp.       -0.1482 Ry
        Total length         46.3494 bohr
 

     total cpu time spent up to now is      837.2 secs

     total energy              =   -2941.70724699 Ry
     estimated scf accuracy    <       0.00212588 Ry

     iteration # 43     ecut=    29.40 Ry     beta= 0.05
     Davidson diagonalization with overlap
     c_bands:  3 eigenvalues not converged
     c_bands:  3 eigenvalues not converged
     ethr =  5.35E-07,  avg # of iterations = 16.2

     negative rho (up, down):  1.235E-02 0.000E+00
 
     Adding external electric field

     Computed dipole along edir(3) : 
        Dipole                0.8578 Ry au,          2.1804 Debye
        Dipole field          0.0016 Ry au, 
 
        Potential amp.       -0.1501 Ry
        Total length         46.3494 bohr
 

     total cpu time spent up to now is      861.9 secs

     total energy              =   -2941.70736975 Ry
     estimated scf accuracy    <       0.01467294 Ry

     iteration # 44     ecut=    29.40 Ry     beta= 0.05
     Davidson diagonalization with overlap
     c_bands:  1 eigenvalues not converged
     c_bands:  1 eigenvalues not converged
     ethr =  5.35E-07,  avg # of iterations =  9.6

     negative rho (up, down):  1.258E-02 0.000E+00
 
     Adding external electric field

     Computed dipole along edir(3) : 
        Dipole                0.8566 Ry au,          2.1773 Debye
        Dipole field          0.0016 Ry au, 
 
        Potential amp.       -0.1499 Ry
        Total length         46.3494 bohr
 

     total cpu time spent up to now is      901.6 secs

     total energy              =   -2941.70755944 Ry
     estimated scf accuracy    <       0.00375109 Ry

     iteration # 45     ecut=    29.40 Ry     beta= 0.05
     Davidson diagonalization with overlap
     ethr =  5.35E-07,  avg # of iterations =  5.2

     negative rho (up, down):  1.266E-02 0.000E+00
 
     Adding external electric field

     Computed dipole along edir(3) : 
        Dipole                0.8591 Ry au,          2.1835 Debye
        Dipole field          0.0016 Ry au, 
 
        Potential amp.       -0.1503 Ry
        Total length         46.3494 bohr
 

     total cpu time spent up to now is      919.1 secs

     total energy              =   -2941.70760236 Ry
     estimated scf accuracy    <       0.00221177 Ry

     iteration # 46     ecut=    29.40 Ry     beta= 0.05
     Davidson diagonalization with overlap
     ethr =  5.35E-07,  avg # of iterations =  3.5

     negative rho (up, down):  1.393E-02 0.000E+00
 
     Adding external electric field

     Computed dipole along edir(3) : 
        Dipole                0.8879 Ry au,          2.2569 Debye
        Dipole field          0.0017 Ry au, 
 
        Potential amp.       -0.1553 Ry
        Total length         46.3494 bohr
 

     total cpu time spent up to now is      929.4 secs

     total energy              =   -2941.70743808 Ry
     estimated scf accuracy    <       0.00164746 Ry

     iteration # 47     ecut=    29.40 Ry     beta= 0.05
     Davidson diagonalization with overlap
     ethr =  4.15E-07,  avg # of iterations =  8.0

     negative rho (up, down):  1.419E-02 0.000E+00
 
     Adding external electric field

     Computed dipole along edir(3) : 
        Dipole                0.8753 Ry au,          2.2247 Debye
        Dipole field          0.0017 Ry au, 
 
        Potential amp.       -0.1531 Ry
        Total length         46.3494 bohr
 

     total cpu time spent up to now is      938.0 secs

     total energy              =   -2941.70768248 Ry
     estimated scf accuracy    <       0.00038035 Ry

     iteration # 48     ecut=    29.40 Ry     beta= 0.05
     Davidson diagonalization with overlap
     ethr =  9.58E-08,  avg # of iterations = 12.1

     negative rho (up, down):  1.425E-02 0.000E+00
 
     Adding external electric field

     Computed dipole along edir(3) : 
        Dipole                0.8740 Ry au,          2.2214 Debye
        Dipole field          0.0016 Ry au, 
 
        Potential amp.       -0.1529 Ry
        Total length         46.3494 bohr
 

     total cpu time spent up to now is      989.9 secs

     total energy              =   -2941.70774934 Ry
     estimated scf accuracy    <       0.00017963 Ry

     iteration # 49     ecut=    29.40 Ry     beta= 0.05
     Davidson diagonalization with overlap
     ethr =  4.52E-08,  avg # of iterations =  5.8

     negative rho (up, down):  1.488E-02 0.000E+00
 
     Adding external electric field

     Computed dipole along edir(3) : 
        Dipole                0.8936 Ry au,          2.2712 Debye
        Dipole field          0.0017 Ry au, 
 
        Potential amp.       -0.1563 Ry
        Total length         46.3494 bohr
 

     total cpu time spent up to now is     1006.5 secs

     total energy              =   -2941.70779083 Ry
     estimated scf accuracy    <       0.00012104 Ry

     iteration # 50     ecut=    29.40 Ry     beta= 0.05
     Davidson diagonalization with overlap
     ethr =  3.05E-08,  avg # of iterations = 10.7

     negative rho (up, down):  1.503E-02 0.000E+00
 
     Adding external electric field

     Computed dipole along edir(3) : 
        Dipole                0.8940 Ry au,          2.2722 Debye
        Dipole field          0.0017 Ry au, 
 
        Potential amp.       -0.1564 Ry
        Total length         46.3494 bohr
 

     total cpu time spent up to now is     1016.0 secs

     total energy              =   -2941.70782387 Ry
     estimated scf accuracy    <       0.00008902 Ry

     iteration # 51     ecut=    29.40 Ry     beta= 0.05
     Davidson diagonalization with overlap
     ethr =  2.24E-08,  avg # of iterations =  2.0

     negative rho (up, down):  1.522E-02 0.000E+00
 
     Adding external electric field

     Computed dipole along edir(3) : 
        Dipole                0.8858 Ry au,          2.2514 Debye
        Dipole field          0.0017 Ry au, 
 
        Potential amp.       -0.1550 Ry
        Total length         46.3494 bohr
 

     total cpu time spent up to now is     1019.8 secs

     total energy              =   -2941.70782683 Ry
     estimated scf accuracy    <       0.00006250 Ry

     iteration # 52     ecut=    29.40 Ry     beta= 0.05
     Davidson diagonalization with overlap
     ethr =  1.57E-08,  avg # of iterations = 12.2

     negative rho (up, down):  1.508E-02 0.000E+00
 
     Adding external electric field

     Computed dipole along edir(3) : 
        Dipole                0.8919 Ry au,          2.2670 Debye
        Dipole field          0.0017 Ry au, 
 
        Potential amp.       -0.1560 Ry
        Total length         46.3494 bohr
 

     total cpu time spent up to now is     1029.9 secs

     total energy              =   -2941.70782810 Ry
     estimated scf accuracy    <       0.00016819 Ry

     iteration # 53     ecut=    29.40 Ry     beta= 0.05
     Davidson diagonalization with overlap
     ethr =  1.57E-08,  avg # of iterations =  9.2

     negative rho (up, down):  1.501E-02 0.000E+00
 
     Adding external electric field

     Computed dipole along edir(3) : 
        Dipole                0.8883 Ry au,          2.2579 Debye
        Dipole field          0.0017 Ry au, 
 
        Potential amp.       -0.1554 Ry
        Total length         46.3494 bohr
 

     total cpu time spent up to now is     1040.3 secs

     total energy              =   -2941.70785542 Ry
     estimated scf accuracy    <       0.00003247 Ry

     iteration # 54     ecut=    29.40 Ry     beta= 0.05
     Davidson diagonalization with overlap
     ethr =  8.18E-09,  avg # of iterations =  3.2

     negative rho (up, down):  1.509E-02 0.000E+00
 
     Adding external electric field

     Computed dipole along edir(3) : 
        Dipole                0.8879 Ry au,          2.2567 Debye
        Dipole field          0.0017 Ry au, 
 
        Potential amp.       -0.1553 Ry
        Total length         46.3494 bohr
 

     total cpu time spent up to now is     1047.0 secs

     total energy              =   -2941.70786730 Ry
     estimated scf accuracy    <       0.00001836 Ry

     iteration # 55     ecut=    29.40 Ry     beta= 0.05
     Davidson diagonalization with overlap
     ethr =  4.63E-09,  avg # of iterations =  9.1

     negative rho (up, down):  1.510E-02 0.000E+00
 
     Adding external electric field

     Computed dipole along edir(3) : 
        Dipole                0.8874 Ry au,          2.2557 Debye
        Dipole field          0.0017 Ry au, 
 
        Potential amp.       -0.1552 Ry
        Total length         46.3494 bohr
 

     total cpu time spent up to now is     1053.4 secs

     total energy              =   -2941.70787864 Ry
     estimated scf accuracy    <       0.00001046 Ry

     iteration # 56     ecut=    29.40 Ry     beta= 0.05
     Davidson diagonalization with overlap
     ethr =  2.64E-09,  avg # of iterations =  7.8

     negative rho (up, down):  1.507E-02 0.000E+00
 
     Adding external electric field

     Computed dipole along edir(3) : 
        Dipole                0.8888 Ry au,          2.2592 Debye
        Dipole field          0.0017 Ry au, 
 
        Potential amp.       -0.1555 Ry
        Total length         46.3494 bohr
 

     total cpu time spent up to now is     1069.7 secs

     total energy              =   -2941.70788409 Ry
     estimated scf accuracy    <       0.00003024 Ry

     iteration # 57     ecut=    29.40 Ry     beta= 0.05
     Davidson diagonalization with overlap
     c_bands:  1 eigenvalues not converged
     ethr =  2.64E-09,  avg # of iterations =  6.0

     negative rho (up, down):  1.492E-02 0.000E+00
 
     Adding external electric field

     Computed dipole along edir(3) : 
        Dipole                0.8875 Ry au,          2.2558 Debye
        Dipole field          0.0017 Ry au, 
 
        Potential amp.       -0.1553 Ry
        Total length         46.3494 bohr
 

     total cpu time spent up to now is     1081.8 secs

     total energy              =   -2941.70788960 Ry
     estimated scf accuracy    <       0.00001798 Ry

     iteration # 58     ecut=    29.40 Ry     beta= 0.05
     Davidson diagonalization with overlap
     ethr =  2.64E-09,  avg # of iterations =  5.3

     negative rho (up, down):  1.491E-02 0.000E+00
 
     Adding external electric field

     Computed dipole along edir(3) : 
        Dipole                0.8873 Ry au,          2.2552 Debye
        Dipole field          0.0017 Ry au, 
 
        Potential amp.       -0.1552 Ry
        Total length         46.3494 bohr
 

     total cpu time spent up to now is     1106.7 secs

     total energy              =   -2941.70789635 Ry
     estimated scf accuracy    <       0.00000909 Ry

     iteration # 59     ecut=    29.40 Ry     beta= 0.05
     Davidson diagonalization with overlap
     ethr =  2.29E-09,  avg # of iterations =  1.2

     negative rho (up, down):  1.487E-02 0.000E+00
 
     Adding external electric field

     Computed dipole along edir(3) : 
        Dipole                0.8875 Ry au,          2.2557 Debye
        Dipole field          0.0017 Ry au, 
 
        Potential amp.       -0.1552 Ry
        Total length         46.3494 bohr
 

     total cpu time spent up to now is     1127.1 secs

     total energy              =   -2941.70789988 Ry
     estimated scf accuracy    <       0.00000909 Ry

     iteration # 60     ecut=    29.40 Ry     beta= 0.05
     Davidson diagonalization with overlap
     ethr =  2.29E-09,  avg # of iterations =  9.4

     negative rho (up, down):  1.487E-02 0.000E+00
 
     Adding external electric field

     Computed dipole along edir(3) : 
        Dipole                0.8880 Ry au,          2.2570 Debye
        Dipole field          0.0017 Ry au, 
 
        Potential amp.       -0.1553 Ry
        Total length         46.3494 bohr
 

     total cpu time spent up to now is     1203.0 secs

     total energy              =   -2941.70790564 Ry
     estimated scf accuracy    <       0.00000189 Ry

     iteration # 61     ecut=    29.40 Ry     beta= 0.05
     Davidson diagonalization with overlap
     c_bands:  1 eigenvalues not converged
     c_bands:  1 eigenvalues not converged
     c_bands:  1 eigenvalues not converged
     c_bands:  1 eigenvalues not converged
     ethr =  4.77E-10,  avg # of iterations = 16.9

     negative rho (up, down):  1.494E-02 0.000E+00
 
     Adding external electric field

     Computed dipole along edir(3) : 
        Dipole                0.8874 Ry au,          2.2555 Debye
        Dipole field          0.0017 Ry au, 
 
        Potential amp.       -0.1552 Ry
        Total length         46.3494 bohr
 

     total cpu time spent up to now is     1260.8 secs

     total energy              =   -2941.70791158 Ry
     estimated scf accuracy    <       0.00000408 Ry

     iteration # 62     ecut=    29.40 Ry     beta= 0.05
     Davidson diagonalization with overlap
     c_bands:  1 eigenvalues not converged
     ethr =  4.77E-10,  avg # of iterations = 10.8

     negative rho (up, down):  1.493E-02 0.000E+00
 
     Adding external electric field

     Computed dipole along edir(3) : 
        Dipole                0.8872 Ry au,          2.2550 Debye
        Dipole field          0.0017 Ry au, 
 
        Potential amp.       -0.1552 Ry
        Total length         46.3494 bohr
 

     total cpu time spent up to now is     1289.0 secs

     total energy              =   -2941.70791723 Ry
     estimated scf accuracy    <       0.00000062 Ry

     iteration # 63     ecut=    29.40 Ry     beta= 0.05
     Davidson diagonalization with overlap
     c_bands:  1 eigenvalues not converged
     ethr =  1.57E-10,  avg # of iterations =  8.0

     negative rho (up, down):  1.495E-02 0.000E+00
 
     Adding external electric field

     Computed dipole along edir(3) : 
        Dipole                0.8872 Ry au,          2.2550 Debye
        Dipole field          0.0017 Ry au, 
 
        Potential amp.       -0.1552 Ry
        Total length         46.3494 bohr
 

     total cpu time spent up to now is     1321.9 secs

     total energy              =   -2941.70792093 Ry
     estimated scf accuracy    <       0.00000032 Ry

     iteration # 64     ecut=    29.40 Ry     beta= 0.05
     Davidson diagonalization with overlap
     ethr =  8.09E-11,  avg # of iterations = 11.4

     negative rho (up, down):  1.496E-02 0.000E+00
 
     Adding external electric field

     Computed dipole along edir(3) : 
        Dipole                0.8871 Ry au,          2.2549 Debye
        Dipole field          0.0017 Ry au, 
 
        Potential amp.       -0.1552 Ry
        Total length         46.3494 bohr
 

     total cpu time spent up to now is     1377.6 secs

     total energy              =   -2941.70792410 Ry
     estimated scf accuracy    <       0.00000082 Ry

     iteration # 65     ecut=    29.40 Ry     beta= 0.05
     Davidson diagonalization with overlap
     ethr =  8.09E-11,  avg # of iterations =  7.7

     negative rho (up, down):  1.496E-02 0.000E+00
 
     Adding external electric field

     Computed dipole along edir(3) : 
        Dipole                0.8869 Ry au,          2.2543 Debye
        Dipole field          0.0017 Ry au, 
 
        Potential amp.       -0.1552 Ry
        Total length         46.3494 bohr
 

     total cpu time spent up to now is     1392.4 secs

     total energy              =   -2941.70792704 Ry
     estimated scf accuracy    <       0.00000013 Ry

     iteration # 66     ecut=    29.40 Ry     beta= 0.05
     Davidson diagonalization with overlap
     ethr =  3.22E-11,  avg # of iterations =  9.8

     negative rho (up, down):  1.497E-02 0.000E+00
 
     Adding external electric field

     Computed dipole along edir(3) : 
        Dipole                0.8868 Ry au,          2.2539 Debye
        Dipole field          0.0017 Ry au, 
 
        Potential amp.       -0.1551 Ry
        Total length         46.3494 bohr
 

     total cpu time spent up to now is     1403.3 secs

     total energy              =   -2941.70792965 Ry
     estimated scf accuracy    <       0.00000010 Ry

     iteration # 67     ecut=    29.40 Ry     beta= 0.05
     Davidson diagonalization with overlap
     ethr =  2.43E-11,  avg # of iterations =  8.8

     negative rho (up, down):  1.502E-02 0.000E+00
 
     Adding external electric field

     Computed dipole along edir(3) : 
        Dipole                0.8878 Ry au,          2.2565 Debye
        Dipole field          0.0017 Ry au, 
 
        Potential amp.       -0.1553 Ry
        Total length         46.3494 bohr
 

     total cpu time spent up to now is     1411.6 secs

     End of self-consistent calculation

          k = 0.0000 0.0000 0.0000 ( 18029 PWs)   bands (ev):

   -55.7588 -55.7499 -55.7247 -55.7140 -55.6439 -55.6036 -55.5871 -55.5691
   -55.5672 -55.5333 -55.5313 -55.4976 -55.2776 -55.0261 -54.7360 -54.7020
   -32.3029 -32.2412 -32.1049 -32.0937 -32.0660 -32.0624 -32.0518 -32.0218
   -32.0013 -31.9769 -31.9703 -31.9497 -31.9295 -31.9107 -31.9021 -31.8891
   -31.8749 -31.8631 -31.8481 -31.8157 -31.8130 -31.8103 -31.7685 -31.7621
   -31.7616 -31.7596 -31.7550 -31.7458 -31.7332 -31.7185 -31.7105 -31.7065
   -31.7012 -31.6975 -31.6843 -31.6744 -31.6435 -31.5318 -31.4587 -31.3074
   -31.2798 -31.2335 -31.1431 -31.0547 -31.0323 -30.9598 -30.8733 -30.7623
   -16.4986 -16.2335 -16.0164 -15.9124 -15.8770 -15.7611 -15.5973 -15.4782
   -15.4254 -15.3273 -15.3137 -15.2946 -15.2609 -15.2439 -15.2235 -15.2044
   -15.2002 -15.1826 -15.1689 -15.1178 -15.0949 -15.0575 -14.9603 -14.9305
   -14.8932 -14.8761 -14.8186 -14.8136 -14.6804 -14.3301 -14.0316 -13.2386
   -13.1222  -7.2968  -4.1651  -4.1210  -3.9980  -3.8743  -3.7654  -3.7120
    -3.6640  -3.6034  -3.3976  -3.3069  -3.2821  -2.9859  -2.9399  -2.9250
    -2.9028  -2.8772  -2.6579  -2.6031  -2.5717  -2.5543  -2.5397  -2.5264
    -2.5188  -2.4990  -2.4651  -2.3673  -2.3137  -2.2992  -2.1758  -2.1473
    -2.0872  -2.0707  -2.0239  -2.0088  -1.9958  -1.9905  -1.9628  -1.9465
    -1.9211  -1.8427  -1.7272  -1.5748  -1.5563  -1.5227  -1.4031  -1.3656
    -1.3015  -1.2178  -1.1999  -1.1838  -1.1498  -1.1377  -1.0587  -0.9452
    -0.9056  -0.8970  -0.7936  -0.7538  -0.7333  -0.6293  -0.6053  -0.5378
    -0.5210  -0.5113  -0.4783  -0.3182  -0.2603  -0.2255  -0.1608  -0.1374
    -0.0784  -0.0604  -0.0302   0.0526   0.1007   0.1272   0.1290   0.1778
     0.2161   0.2331   0.2373   0.2520   0.2722   0.4393   0.5149   0.5289
     0.5984   0.6100   0.7725   0.8165   0.8987   1.0008   1.0343   1.2117
     1.2859   1.3758   1.4782   1.6805   1.8572   1.9028   3.3784   3.4617
     3.5102   3.5227   3.6208   3.6624   3.8311   3.8395   3.8501   3.9258

          k = 0.0000 0.0419 0.0000 ( 17933 PWs)   bands (ev):

   -55.7537 -55.7446 -55.7296 -55.7191 -55.6411 -55.5986 -55.5898 -55.5740
   -55.5622 -55.5381 -55.5263 -55.5025 -55.2770 -55.0265 -54.7309 -54.7069
   -32.2456 -32.1872 -32.0502 -32.0493 -32.0471 -32.0394 -32.0391 -31.9858
   -31.9801 -31.9744 -31.9660 -31.9604 -31.9325 -31.9269 -31.9197 -31.9113
   -31.8969 -31.8631 -31.8348 -31.8296 -31.8076 -31.8018 -31.7811 -31.7750
   -31.7697 -31.7685 -31.7589 -31.7580 -31.7560 -31.7442 -31.7367 -31.7268
   -31.7045 -31.7028 -31.6993 -31.6869 -31.6828 -31.5311 -31.4558 -31.3355
   -31.2797 -31.2459 -31.0890 -31.0513 -31.0353 -30.9472 -30.8859 -30.8194
   -16.3627 -16.1134 -15.9059 -15.8032 -15.7764 -15.7260 -15.6201 -15.5360
   -15.5138 -15.3522 -15.3153 -15.2909 -15.2779 -15.2569 -15.2354 -15.2193
   -15.2150 -15.1893 -15.1637 -15.1437 -15.1019 -15.0382 -14.9859 -14.9671
   -14.9513 -14.9294 -14.8704 -14.8302 -14.6904 -14.4073 -14.0313 -13.2427
   -13.1617  -7.2951  -4.1709  -4.1044  -4.0072  -3.6822  -3.6333  -3.5471
    -3.4879  -3.4456  -3.2592  -3.1691  -3.0699  -2.9789  -2.9226  -2.8301
    -2.8067  -2.7929  -2.7290  -2.7100  -2.7006  -2.6443  -2.6270  -2.5756
    -2.5380  -2.5091  -2.4909  -2.4487  -2.4450  -2.4200  -2.3831  -2.2946
    -2.2595  -2.2474  -2.2204  -2.1766  -2.0457  -2.0019  -1.9972  -1.8928
    -1.7879  -1.7019  -1.6498  -1.5186  -1.4582  -1.4373  -1.4153  -1.3506
    -1.1505  -1.1202  -1.0846  -1.0570  -1.0256  -0.9937  -0.9638  -0.8407
    -0.7752  -0.7543  -0.7096  -0.6763  -0.6542  -0.6404  -0.6067  -0.5737
    -0.5667  -0.5071  -0.4477  -0.3830  -0.3362  -0.2819  -0.2533  -0.2474
    -0.2205  -0.1462  -0.0630  -0.0199   0.0137   0.0448   0.0552   0.0818
     0.1221   0.1309   0.2122   0.2701   0.2979   0.3759   0.4354   0.4565
     0.5173   0.5731   0.5845   0.6316   0.7678   0.9046   0.9332   1.0274
     1.2510   1.4750   1.5581   1.5749   1.8112   1.8148   3.5700   3.6139
     3.6289   3.6858   3.7313   3.7765   3.8207   3.8656   3.8981   3.9358

          k = 0.0000-0.0839 0.0000 ( 17884 PWs)   bands (ev):

   -55.7421 -55.7412 -55.7327 -55.7310 -55.6379 -55.5929 -55.5879 -55.5846
   -55.5510 -55.5493 -55.5150 -55.5137 -55.2765 -55.0270 -54.7189 -54.7188
   -32.1074 -32.1046 -32.0553 -32.0545 -32.0375 -32.0365 -32.0209 -32.0087
   -31.9488 -31.9434 -31.9366 -31.9337 -31.9187 -31.9127 -31.9076 -31.8784
   -31.8682 -31.8637 -31.8628 -31.8622 -31.8453 -31.8363 -31.8334 -31.8024
   -31.8022 -31.7979 -31.7896 -31.7843 -31.7809 -31.7689 -31.7468 -31.7459
   -31.7238 -31.7211 -31.6945 -31.6942 -31.6420 -31.5304 -31.4552 -31.3743
   -31.2796 -31.2554 -31.0431 -31.0431 -30.9560 -30.9560 -30.9166 -30.9165
   -16.0210 -16.0135 -15.8307 -15.8262 -15.6689 -15.6606 -15.5529 -15.5483
   -15.5390 -15.5122 -15.4749 -15.4721 -15.3187 -15.3141 -15.1635 -15.1372
   -15.1319 -15.1282 -15.1114 -15.0937 -15.0922 -15.0680 -15.0487 -15.0435
   -15.0128 -15.0014 -14.9747 -14.8103 -14.7019 -14.5114 -14.0310 -13.2245
   -13.2244  -7.2936  -4.1754  -4.0888  -4.0211  -3.4641  -3.2305  -3.2077
    -3.1529  -3.1443  -3.1270  -3.1187  -3.0494  -3.0491  -2.9854  -2.8840
    -2.8798  -2.8649  -2.8634  -2.8336  -2.8063  -2.7480  -2.7078  -2.7026
    -2.6071  -2.5647  -2.5377  -2.5286  -2.5056  -2.4655  -2.4340  -2.3504
    -2.3437  -2.3179  -2.2053  -2.1246  -2.1203  -2.0853  -1.8241  -1.7512
    -1.6542  -1.6282  -1.5474  -1.4535  -1.4400  -1.3802  -1.2611  -1.2098
    -1.1869  -1.1785  -1.1412  -1.1241  -1.0927  -1.0288  -0.9784  -0.9387
    -0.8796  -0.8344  -0.8229  -0.7434  -0.6374  -0.5292  -0.4662  -0.3978
    -0.3943  -0.3764  -0.3609  -0.3358  -0.2941  -0.2819  -0.2350  -0.2045
    -0.1861  -0.1656  -0.1108  -0.0853  -0.0601  -0.0433  -0.0262   0.0054
     0.0232   0.0450   0.0563   0.1061   0.1433   0.1448   0.2260   0.3442
     0.4827   0.4867   0.4967   0.5232   0.8557   0.8744   0.9491   0.9754
     1.0260   1.5150   1.6183   1.6187   1.7482   1.7488   3.6875   3.7008
     3.7154   3.7425   3.8090   3.8195   3.8636   3.9265   3.9584   3.9700

          k = 0.0380 0.0000 0.0000 ( 17913 PWs)   bands (ev):

   -55.7587 -55.7498 -55.7246 -55.7139 -55.6438 -55.6036 -55.5870 -55.5690
   -55.5669 -55.5331 -55.5313 -55.4976 -55.2775 -55.0260 -54.7359 -54.7019
   -32.3030 -32.2420 -32.1109 -32.0950 -32.0662 -32.0622 -32.0515 -32.0265
   -32.0013 -31.9750 -31.9566 -31.9488 -31.9294 -31.9078 -31.8949 -31.8887
   -31.8705 -31.8628 -31.8289 -31.8273 -31.8155 -31.8112 -31.7727 -31.7613
   -31.7611 -31.7564 -31.7481 -31.7458 -31.7330 -31.7275 -31.7183 -31.7088
   -31.7010 -31.6974 -31.6845 -31.6735 -31.6437 -31.5339 -31.4586 -31.3073
   -31.2802 -31.2333 -31.1427 -31.0581 -31.0303 -30.9596 -30.8732 -30.7621
   -16.4261 -16.1485 -15.9348 -15.8936 -15.8089 -15.7607 -15.6418 -15.4760
   -15.4602 -15.4502 -15.4223 -15.3761 -15.3630 -15.3240 -15.3072 -15.2816
   -15.1198 -15.0847 -15.0741 -15.0220 -15.0097 -15.0035 -14.9702 -14.9479
   -14.9364 -14.9141 -14.8991 -14.8002 -14.6746 -14.3287 -14.0317 -13.2354
   -13.1219  -7.2953  -4.1732  -4.1020  -4.0106  -3.7895  -3.6484  -3.4769
    -3.4414  -3.3857  -3.3021  -3.2887  -3.2411  -3.2181  -3.0004  -2.9848
    -2.8672  -2.8517  -2.8333  -2.7491  -2.6246  -2.5488  -2.5209  -2.4697
    -2.4661  -2.3720  -2.3624  -2.3267  -2.2731  -2.2200  -2.1900  -2.1459
    -2.1047  -2.0825  -2.0308  -1.9737  -1.9554  -1.9367  -1.7935  -1.7482
    -1.7350  -1.7097  -1.6465  -1.6135  -1.6027  -1.5253  -1.4169  -1.3652
    -1.3352  -1.3017  -1.2683  -1.1926  -1.1785  -1.1076  -1.0448  -1.0375
    -1.0272  -1.0120  -0.8911  -0.8179  -0.7137  -0.6128  -0.5965  -0.5761
    -0.5519  -0.5162  -0.4764  -0.3438  -0.2999  -0.2650  -0.2062  -0.1726
    -0.1489  -0.1025  -0.0388  -0.0270   0.0019   0.0383   0.0674   0.0913
     0.1010   0.1203   0.1328   0.1873   0.3191   0.3607   0.4205   0.4360
     0.5387   0.6187   0.6446   0.6609   0.8804   0.9326   1.0219   1.2148
     1.2411   1.2978   1.4477   1.6847   1.7457   1.8199   3.4130   3.4349
     3.7189   3.7431   3.7580   3.7880   3.8051   3.8301   3.8564   3.8876

          k = 0.0380 0.0419 0.0000 ( 17878 PWs)   bands (ev):

   -55.7537 -55.7445 -55.7296 -55.7191 -55.6410 -55.5985 -55.5898 -55.5740
   -55.5620 -55.5381 -55.5264 -55.5025 -55.2770 -55.0265 -54.7309 -54.7068
   -32.2458 -32.1880 -32.0575 -32.0491 -32.0469 -32.0407 -32.0392 -31.9858
   -31.9804 -31.9762 -31.9690 -31.9478 -31.9324 -31.9269 -31.9198 -31.9008
   -31.8944 -31.8594 -31.8292 -31.8222 -31.8173 -31.8017 -31.7813 -31.7739
   -31.7709 -31.7591 -31.7579 -31.7574 -31.7559 -31.7442 -31.7367 -31.7282
   -31.7237 -31.7041 -31.6949 -31.6916 -31.6819 -31.5330 -31.4558 -31.3354
   -31.2804 -31.2458 -31.0887 -31.0539 -31.0343 -30.9471 -30.8859 -30.8193
   -16.2970 -16.0352 -15.8321 -15.7869 -15.7259 -15.7045 -15.6213 -15.5729
   -15.5153 -15.4143 -15.3723 -15.3545 -15.3464 -15.3414 -15.2551 -15.2400
   -15.1700 -15.1564 -15.1428 -15.0843 -15.0699 -15.0458 -15.0070 -14.9989
   -14.9860 -14.9523 -14.9238 -14.8141 -14.6868 -14.4059 -14.0314 -13.2405
   -13.1620  -7.2944  -4.1739  -4.0903  -4.0193  -3.6124  -3.5502  -3.3155
    -3.2776  -3.2127  -3.1445  -3.1107  -3.0723  -3.0478  -2.9043  -2.8511
    -2.7859  -2.7477  -2.7375  -2.6607  -2.6431  -2.6259  -2.5868  -2.5536
    -2.5228  -2.4872  -2.4686  -2.4483  -2.4088  -2.3818  -2.3566  -2.2918
    -2.2426  -2.2135  -2.1964  -2.0973  -2.0296  -1.9653  -1.9011  -1.7956
    -1.7510  -1.7245  -1.6830  -1.5209  -1.4764  -1.4725  -1.3368  -1.2395
    -1.2183  -1.1941  -1.1687  -1.1297  -1.0759  -1.0258  -1.0074  -0.9691
    -0.9044  -0.8643  -0.8241  -0.7909  -0.7259  -0.6880  -0.6510  -0.6077
    -0.5646  -0.5311  -0.4807  -0.4570  -0.4290  -0.3939  -0.3673  -0.3372
    -0.2907  -0.2261  -0.2023  -0.1592  -0.0974  -0.0658  -0.0420  -0.0055
     0.0345   0.1244   0.1868   0.2135   0.3286   0.3675   0.4413   0.4680
     0.5473   0.5882   0.6341   0.6698   0.6859   0.8337   0.8997   1.0187
     1.1856   1.4859   1.5631   1.5999   1.7337   1.7955   3.5582   3.6241
     3.6761   3.7333   3.8036   3.8250   3.8758   3.9156   3.9494   3.9648

          k = 0.0380-0.0839 0.0000 ( 17916 PWs)   bands (ev):

   -55.7421 -55.7412 -55.7327 -55.7310 -55.6379 -55.5929 -55.5880 -55.5847
   -55.5509 -55.5492 -55.5151 -55.5138 -55.2765 -55.0270 -54.7189 -54.7189
   -32.1076 -32.1048 -32.0561 -32.0553 -32.0376 -32.0366 -32.0210 -32.0088
   -31.9508 -31.9490 -31.9446 -31.9428 -31.9084 -31.8985 -31.8938 -31.8797
   -31.8688 -31.8629 -31.8625 -31.8617 -31.8469 -31.8444 -31.8432 -31.7975
   -31.7958 -31.7917 -31.7820 -31.7791 -31.7790 -31.7689 -31.7468 -31.7458
   -31.7239 -31.7211 -31.7063 -31.7060 -31.6417 -31.5324 -31.4552 -31.3742
   -31.2806 -31.2555 -31.0441 -31.0440 -30.9560 -30.9559 -30.9166 -30.9166
   -15.9822 -15.9671 -15.7797 -15.7751 -15.6377 -15.6307 -15.5528 -15.5172
   -15.4997 -15.4866 -15.4554 -15.4476 -15.3319 -15.3270 -15.2165 -15.1993
   -15.1758 -15.1714 -15.1537 -15.1386 -15.1252 -15.1136 -15.0847 -15.0610
   -15.0529 -15.0179 -14.9492 -14.8001 -14.6993 -14.5074 -14.0312 -13.2243
   -13.2242  -7.2934  -4.1825  -4.0773  -4.0255  -3.4472  -3.2262  -3.1910
    -2.9997  -2.9822  -2.9413  -2.9278  -2.8932  -2.8608  -2.8391  -2.8242
    -2.7810  -2.7593  -2.7448  -2.7293  -2.7079  -2.6893  -2.6003  -2.5942
    -2.5858  -2.5613  -2.5243  -2.4758  -2.4626  -2.4424  -2.4137  -2.3920
    -2.3420  -2.3099  -2.2740  -2.2132  -1.8766  -1.8658  -1.8434  -1.7217
    -1.6630  -1.6438  -1.6002  -1.5813  -1.5369  -1.5084  -1.4623  -1.4363
    -1.3947  -1.3828  -1.2943  -1.2311  -1.2120  -1.1288  -1.0190  -0.9524
    -0.8925  -0.8703  -0.8076  -0.7898  -0.7437  -0.6604  -0.5708  -0.5526
    -0.5443  -0.5149  -0.5068  -0.4677  -0.4426  -0.3857  -0.3683  -0.3575
    -0.3237  -0.3065  -0.2992  -0.2256  -0.1771  -0.1396  -0.1211  -0.0028
     0.0476   0.0972   0.1587   0.2583   0.3231   0.3391   0.3678   0.3962
     0.4213   0.4792   0.5915   0.6198   0.7932   0.8007   0.9190   0.9753
     1.0130   1.5622   1.6315   1.6320   1.7373   1.7380   3.6547   3.6653
     3.7395   3.7582   3.7922   3.8060   3.8983   3.9776   4.0023   4.0150

          k = 0.0380-0.0419 0.0000 ( 17876 PWs)   bands (ev):

   -55.7537 -55.7445 -55.7296 -55.7191 -55.6410 -55.5985 -55.5898 -55.5740
   -55.5620 -55.5381 -55.5264 -55.5025 -55.2770 -55.0265 -54.7309 -54.7068
   -32.2457 -32.1880 -32.0575 -32.0491 -32.0469 -32.0407 -32.0392 -31.9858
   -31.9803 -31.9761 -31.9690 -31.9481 -31.9322 -31.9268 -31.9198 -31.9010
   -31.8944 -31.8595 -31.8292 -31.8218 -31.8173 -31.8017 -31.7811 -31.7740
   -31.7710 -31.7592 -31.7580 -31.7571 -31.7561 -31.7443 -31.7367 -31.7279
   -31.7239 -31.7041 -31.6949 -31.6916 -31.6819 -31.5330 -31.4558 -31.3354
   -31.2803 -31.2458 -31.0886 -31.0539 -31.0343 -30.9471 -30.8859 -30.8193
   -16.2968 -16.0351 -15.8314 -15.7868 -15.7260 -15.7039 -15.6227 -15.5726
   -15.5158 -15.4148 -15.3735 -15.3593 -15.3469 -15.3413 -15.2540 -15.2332
   -15.1742 -15.1513 -15.1415 -15.0840 -15.0715 -15.0449 -15.0073 -14.9998
   -14.9877 -14.9529 -14.9236 -14.8142 -14.6860 -14.4061 -14.0314 -13.2405
   -13.1620  -7.2942  -4.1814  -4.0882  -4.0134  -3.6129  -3.5515  -3.3120
    -3.2767  -3.2119  -3.1436  -3.1075  -3.0699  -3.0521  -2.9029  -2.8558
    -2.7884  -2.7483  -2.7378  -2.6629  -2.6412  -2.6259  -2.5884  -2.5536
    -2.5236  -2.4839  -2.4662  -2.4520  -2.4080  -2.3802  -2.3628  -2.2943
    -2.2452  -2.2111  -2.1972  -2.0917  -2.0252  -1.9635  -1.9016  -1.7869
    -1.7528  -1.7208  -1.6702  -1.5180  -1.4950  -1.4651  -1.3408  -1.2473
    -1.2179  -1.1890  -1.1660  -1.1440  -1.0744  -1.0304  -1.0043  -0.9613
    -0.9069  -0.8669  -0.8237  -0.7911  -0.7442  -0.6851  -0.6516  -0.6164
    -0.5675  -0.5399  -0.4865  -0.4692  -0.4094  -0.3965  -0.3734  -0.3349
    -0.2706  -0.2202  -0.1871  -0.1676  -0.0860  -0.0752  -0.0550   0.0017
     0.0323   0.1282   0.1889   0.2054   0.3317   0.3693   0.4364   0.4817
     0.5515   0.5837   0.6337   0.6703   0.6862   0.8352   0.9007   1.0184
     1.1869   1.4859   1.5631   1.6011   1.7334   1.7961   3.5590   3.6233
     3.6771   3.7555   3.7730   3.8139   3.8693   3.9126   3.9455   3.9634

          k =-0.0760-0.0000 0.0000 ( 17886 PWs)   bands (ev):

   -55.7586 -55.7497 -55.7246 -55.7139 -55.6437 -55.6036 -55.5870 -55.5690
   -55.5667 -55.5331 -55.5315 -55.4976 -55.2775 -55.0260 -54.7358 -54.7018
   -32.3032 -32.2429 -32.1166 -32.0964 -32.0663 -32.0620 -32.0514 -32.0310
   -32.0013 -31.9748 -31.9504 -31.9329 -31.9294 -31.9049 -31.8891 -31.8882
   -31.8661 -31.8627 -31.8511 -31.8159 -31.8111 -31.7821 -31.7758 -31.7745
   -31.7610 -31.7602 -31.7548 -31.7458 -31.7419 -31.7329 -31.7183 -31.7073
   -31.7011 -31.6973 -31.6854 -31.6727 -31.6444 -31.5364 -31.4585 -31.3072
   -31.2808 -31.2333 -31.1423 -31.0613 -31.0290 -30.9596 -30.8731 -30.7622
   -16.3312 -16.0630 -15.8652 -15.8495 -15.7615 -15.7266 -15.6156 -15.5407
   -15.5333 -15.4728 -15.4588 -15.4388 -15.4258 -15.4186 -15.4019 -15.2984
   -15.1222 -15.0947 -15.0919 -15.0383 -15.0218 -15.0059 -14.9405 -14.9357
   -14.9171 -14.9140 -14.8483 -14.7961 -14.6707 -14.3276 -14.0319 -13.2324
   -13.1216  -7.2940  -4.1790  -4.0795  -4.0296  -3.7678  -3.5677  -3.3703
    -3.3467  -3.2724  -3.1597  -3.1412  -3.1100  -3.0194  -3.0059  -2.9901
    -2.9885  -2.9797  -2.7808  -2.6176  -2.5580  -2.5331  -2.4762  -2.4114
    -2.3889  -2.3279  -2.3083  -2.2587  -2.2320  -2.1633  -2.1334  -2.0790
    -2.0614  -2.0408  -1.9940  -1.9884  -1.9803  -1.9708  -1.9341  -1.8654
    -1.8438  -1.7518  -1.5625  -1.5353  -1.4771  -1.3993  -1.3734  -1.3616
    -1.3548  -1.3424  -1.3232  -1.2482  -1.2230  -1.2145  -1.1169  -1.0459
    -1.0228  -0.9668  -0.9419  -0.9234  -0.9124  -0.7884  -0.6951  -0.6040
    -0.5863  -0.5349  -0.4710  -0.4293  -0.3860  -0.3704  -0.2874  -0.2781
    -0.2360  -0.1927  -0.1589  -0.0841  -0.0443  -0.0239  -0.0137   0.0503
     0.0574   0.0974   0.1443   0.2369   0.2609   0.3032   0.3684   0.4801
     0.4983   0.5700   0.7193   0.7252   0.8463   0.9339   0.9695   1.0192
     1.2261   1.3189   1.4233   1.6163   1.6857   1.7643   3.4156   3.4186
     3.5519   3.6590   3.7127   3.7785   3.8296   3.8421   3.9050   3.9126

          k =-0.0760 0.0419 0.0000 ( 17914 PWs)   bands (ev):

   -55.7537 -55.7445 -55.7296 -55.7191 -55.6410 -55.5986 -55.5898 -55.5740
   -55.5618 -55.5381 -55.5265 -55.5025 -55.2770 -55.0265 -54.7309 -54.7069
   -32.2461 -32.1890 -32.0644 -32.0493 -32.0469 -32.0421 -32.0395 -31.9861
   -31.9804 -31.9797 -31.9703 -31.9333 -31.9312 -31.9268 -31.9201 -31.8923
   -31.8912 -31.8561 -31.8395 -31.8291 -31.8018 -31.7837 -31.7815 -31.7745
   -31.7725 -31.7640 -31.7596 -31.7567 -31.7557 -31.7453 -31.7430 -31.7366
   -31.7247 -31.7039 -31.6984 -31.6950 -31.6810 -31.5353 -31.4558 -31.3354
   -31.2812 -31.2458 -31.0884 -31.0567 -31.0336 -30.9471 -30.8860 -30.8194
   -16.2124 -15.9495 -15.7790 -15.7427 -15.7222 -15.6321 -15.6240 -15.5180
   -15.5102 -15.4949 -15.4116 -15.4040 -15.4006 -15.3827 -15.3473 -15.3064
   -15.1790 -15.1468 -15.1422 -15.1275 -15.0910 -15.0436 -15.0252 -15.0096
   -14.9751 -14.9393 -14.9150 -14.8087 -14.6835 -14.4050 -14.0316 -13.2384
   -13.1624  -7.2936  -4.1835  -4.0709  -4.0306  -3.5977  -3.5005  -3.2322
    -3.0891  -3.0606  -2.9603  -2.9171  -2.8773  -2.8708  -2.8371  -2.8046
    -2.7776  -2.7649  -2.7055  -2.7041  -2.6481  -2.6236  -2.5492  -2.5388
    -2.4785  -2.4694  -2.4477  -2.4151  -2.3573  -2.3343  -2.2523  -2.2369
    -2.2351  -2.1881  -2.1204  -2.0137  -1.9762  -1.8808  -1.8625  -1.8268
    -1.7453  -1.7359  -1.6818  -1.5446  -1.4452  -1.3827  -1.3665  -1.3198
    -1.3040  -1.2590  -1.1998  -1.1791  -1.1442  -1.0932  -1.0608  -1.0212
    -1.0061  -0.9813  -0.9635  -0.9464  -0.9155  -0.8556  -0.8152  -0.7658
    -0.7457  -0.6959  -0.6692  -0.5635  -0.5199  -0.4963  -0.4836  -0.3969
    -0.3742  -0.3551  -0.2919  -0.2250  -0.1607  -0.1435  -0.0730  -0.0440
     0.0722   0.1260   0.2170   0.2665   0.3280   0.4557   0.4976   0.5356
     0.5950   0.6265   0.6886   0.6967   0.7601   0.8111   0.8367   1.0100
     1.0277   1.5008   1.5664   1.6241   1.6571   1.7848   3.5451   3.6049
     3.6211   3.7025   3.7218   3.7403   3.8554   3.8763   3.9569   3.9994

          k =-0.0760-0.0839 0.0000 ( 17948 PWs)   bands (ev):

   -55.7422 -55.7412 -55.7327 -55.7310 -55.6380 -55.5929 -55.5880 -55.5847
   -55.5509 -55.5491 -55.5152 -55.5139 -55.2765 -55.0270 -54.7189 -54.7189
   -32.1079 -32.1051 -32.0568 -32.0561 -32.0376 -32.0366 -32.0211 -32.0090
   -31.9567 -31.9526 -31.9479 -31.9437 -31.9090 -31.8826 -31.8809 -31.8779
   -31.8687 -31.8628 -31.8614 -31.8605 -31.8541 -31.8517 -31.8412 -31.8072
   -31.8012 -31.7938 -31.7818 -31.7689 -31.7497 -31.7493 -31.7463 -31.7453
   -31.7298 -31.7291 -31.7240 -31.7211 -31.6414 -31.5343 -31.4552 -31.3741
   -31.2815 -31.2555 -31.0450 -31.0450 -30.9559 -30.9559 -30.9166 -30.9166
   -15.9379 -15.9066 -15.7018 -15.6748 -15.6710 -15.6548 -15.5299 -15.4668
   -15.4538 -15.4515 -15.3870 -15.3665 -15.3303 -15.3031 -15.2887 -15.2787
   -15.2727 -15.2666 -15.2181 -15.2123 -15.1946 -15.1874 -15.0842 -15.0748
   -15.0710 -15.0156 -14.9353 -14.7933 -14.6970 -14.5038 -14.0313 -13.2241
   -13.2240  -7.2933  -4.1886  -4.0650  -4.0322  -3.4396  -3.2277  -3.1905
    -2.9315  -2.9131  -2.8995  -2.8446  -2.6718  -2.6543  -2.6328  -2.6147
    -2.5810  -2.5801  -2.5611  -2.5591  -2.5483  -2.5136  -2.5019  -2.4722
    -2.4348  -2.4246  -2.4128  -2.4113  -2.3814  -2.3717  -2.3328  -2.3034
    -2.2941  -2.2756  -2.2609  -2.0912  -1.9833  -1.9580  -1.8950  -1.8872
    -1.8582  -1.8223  -1.8148  -1.7937  -1.7432  -1.6568  -1.4901  -1.4579
    -1.4397  -1.3774  -1.3599  -1.3089  -1.2292  -1.1552  -1.1331  -1.1277
    -1.0780  -0.9684  -0.9458  -0.9376  -0.8679  -0.8216  -0.8149  -0.7793
    -0.7506  -0.7181  -0.7138  -0.6214  -0.5720  -0.5292  -0.5242  -0.4760
    -0.4086  -0.3973  -0.3688  -0.2595  -0.2368  -0.1794  -0.1446  -0.0348
     0.0285   0.2267   0.2807   0.3166   0.3742   0.4488   0.5313   0.5469
     0.5508   0.5612   0.6171   0.6706   0.7750   0.7838   0.8391   0.9461
     1.0010   1.6039   1.6497   1.6503   1.7226   1.7227   3.6612   3.6730
     3.7118   3.7324   3.8705   3.8857   3.9094   3.9103   3.9621   4.0476

     the Fermi energy is     3.3758 ev

!    total energy              =   -2941.70795332 Ry
     estimated scf accuracy    <       0.00000007 Ry
     smearing contrib. (-TS)   =      -0.02185184 Ry
     internal energy E=F+TS    =   -2941.68610148 Ry

     The total energy is F=E-TS. E is the sum of the following terms:
     one-electron contribution =  -23925.24684683 Ry
     hartree contribution      =   12052.26081555 Ry
     xc contribution           =    -486.76091818 Ry
     ewald contribution        =    9418.05936070 Ry
     electric field correction =       0.00148728 Ry

     convergence has been achieved in  67 iterations

     Forces acting on atoms (cartesian axes, Ry/au):

     atom    1 type  1   force =     0.00002855   -0.00025460    0.09662008
     atom    2 type  1   force =     0.00004090   -0.00058120   -0.17537511
     atom    3 type  2   force =     0.00011612   -0.00004322   -0.02487366
     atom    4 type  2   force =    -0.00000077   -0.00141428    0.05293150
     atom    5 type  2   force =    -0.01227211   -0.00026918    0.00348828
     atom    6 type  2   force =     0.01362860    0.00026103    0.00256491
     atom    7 type  1   force =     0.00031533    0.00057823   -0.01135553
     atom    8 type  1   force =     0.00051846    0.00783721    0.02844578
     atom    9 type  2   force =     0.00020634    0.00041072    0.00049227
     atom   10 type  2   force =    -0.00291911    0.00138239   -0.01556058
     atom   11 type  2   force =     0.00067688   -0.00000114   -0.00001393
     atom   12 type  2   force =    -0.00009216   -0.00013267   -0.00013733
     atom   13 type  1   force =    -0.00019420   -0.00032193    0.00099420
     atom   14 type  1   force =     0.00018606   -0.00007074   -0.00018567
     atom   15 type  2   force =     0.00017721    0.00049928    0.00022201
     atom   16 type  2   force =    -0.00033236   -0.00035735   -0.00030993
     atom   17 type  2   force =    -0.00063080    0.00001809   -0.00045997
     atom   18 type  2   force =     0.00036069    0.00044314   -0.00005300
     atom   19 type  1   force =    -0.00051669   -0.00075938   -0.00014250
     atom   20 type  1   force =     0.00046309    0.00093830   -0.00116702
     atom   21 type  2   force =     0.00005270   -0.00006415    0.10313226
     atom   22 type  2   force =    -0.00080327    0.00006079    0.00067068
     atom   23 type  2   force =    -0.07150255   -0.00014377   -0.02771390
     atom   24 type  2   force =     0.07142763    0.00031854   -0.02778887
     atom   25 type  1   force =     0.00016407   -0.00024553    0.09626282
     atom   26 type  1   force =     0.00009293   -0.00022933   -0.17561791
     atom   27 type  2   force =     0.00017036   -0.00019101   -0.02392316
     atom   28 type  2   force =    -0.00000023   -0.00117617    0.05284233
     atom   29 type  2   force =    -0.01240235    0.00039027    0.00318414
     atom   30 type  2   force =     0.01365713    0.00085493    0.00222926
     atom   31 type  1   force =     0.00028399    0.00324077   -0.01195039
     atom   32 type  1   force =     0.00064945   -0.01006769    0.02885122
     atom   33 type  2   force =     0.00024353   -0.00024378    0.00062464
     atom   34 type  2   force =    -0.00237735    0.00102474   -0.02369823
     atom   35 type  2   force =     0.00060166   -0.00071279   -0.00008862
     atom   36 type  2   force =    -0.00016841   -0.00079984    0.00017520
     atom   37 type  1   force =    -0.00017959   -0.00013619    0.00048961
     atom   38 type  1   force =     0.00030412    0.00036125   -0.00064211
     atom   39 type  2   force =    -0.00009418   -0.00075587    0.00119441
     atom   40 type  2   force =     0.00026671   -0.00062723   -0.00014276
     atom   41 type  2   force =    -0.00019533   -0.00062940   -0.00005577
     atom   42 type  2   force =    -0.00037418   -0.00024930   -0.00006865
     atom   43 type  1   force =    -0.00051273    0.00067291    0.00012665
     atom   44 type  1   force =    -0.00014238    0.00014031   -0.00042645
     atom   45 type  2   force =     0.00007611   -0.00006904    0.10315776
     atom   46 type  2   force =    -0.07153713   -0.00008787   -0.02774136
     atom   47 type  2   force =     0.07144332    0.00033601   -0.02780419
     atom   48 type  3   force =    -0.00021261   -0.00062407   -0.00121335
     atom   49 type  4   force =     0.00062427   -0.00102150    0.00078914
     atom   50 type  5   force =    -0.00039202    0.00073890    0.00113829
     atom   51 type  5   force =    -0.00026341    0.00064886   -0.00049060
     atom   52 type  3   force =     0.00268397   -0.00271953   -0.00722269
     atom   53 type  5   force =     0.00115077    0.00121414    0.00064058
     atom   54 type  5   force =    -0.00284852    0.00225384    0.00663501
     atom   55 type  5   force =     0.00035350    0.00037512   -0.00167976

     Total force =     0.368183     Total SCF correction =     0.000733
  @ DRIVER MODE: Message from server: STATUS
  @ DRIVER MODE: Message from server: GETFORCE
  @ DRIVER MODE: Returning v,forces,stress,ensemble 

     Writing output data file ./calc.save/
  @ DRIVER MODE: Message from server: EXIT
  @ DRIVE MODE: Exiting  
 
     init_run     :     18.89s CPU     20.48s WALL (       1 calls)
     electrons    :   1340.48s CPU   1379.59s WALL (       1 calls)
     forces       :      3.52s CPU      3.54s WALL (       1 calls)

     Called by init_run:
     wfcinit      :     14.85s CPU     15.88s WALL (       1 calls)
     potinit      :      2.85s CPU      2.89s WALL (       1 calls)
     hinit0       :      0.49s CPU      0.83s WALL (       1 calls)

     Called by electrons:
     c_bands      :   1096.97s CPU   1129.68s WALL (      67 calls)
     sum_band     :    161.36s CPU    163.50s WALL (      67 calls)
     v_of_rho     :     47.25s CPU     49.34s WALL (      68 calls)
     newd         :      5.20s CPU      5.49s WALL (      68 calls)
     mix_rho      :     27.70s CPU     29.29s WALL (      67 calls)
     vdW_kernel   :      2.02s CPU      2.03s WALL (       1 calls)

     Called by c_bands:
     init_us_2    :      1.00s CPU      1.09s WALL (    1360 calls)
     cegterg      :   1091.64s CPU   1123.84s WALL (     683 calls)

     Called by *egterg:
     cdiaghg      :    431.75s CPU    441.83s WALL (    6366 calls)
     h_psi        :    485.69s CPU    503.36s WALL (    6376 calls)
     s_psi        :     12.20s CPU     12.28s WALL (    6376 calls)
     g_psi        :      0.25s CPU      0.25s WALL (    5683 calls)

     Called by h_psi:
     h_psi:calbec :     21.45s CPU     21.81s WALL (    6376 calls)
     vloc_psi     :    450.34s CPU    467.49s WALL (    6376 calls)
     add_vuspsi   :     13.37s CPU     13.51s WALL (    6376 calls)

     General routines
     calbec       :     32.11s CPU     32.59s WALL (    7086 calls)
     fft          :     42.03s CPU     44.02s WALL (    4284 calls)
     ffts         :      0.88s CPU      0.92s WALL (     135 calls)
     fftw         :    593.59s CPU    612.30s WALL (  910906 calls)
     interpolate  :      1.59s CPU      1.67s WALL (      68 calls)
     davcio       :      0.00s CPU      0.08s WALL (      10 calls)
 
     Parallel routines
 
     PWSCF        :  22m54.80s CPU  23m36.54s WALL

 
   This run was terminated on:   0:11:22  25Aug2021            

=------------------------------------------------------------------------------=
   JOB DONE.
=------------------------------------------------------------------------------=
