
     Program PWSCF v.6.7GPU starts on 16Sep2021 at  2:28: 5 

     This program is part of the open-source Quantum ESPRESSO suite
     for quantum simulation of materials; please cite
         "P. Giannozzi et al., J. Phys.:Condens. Matter 21 395502 (2009);
         "P. Giannozzi et al., J. Phys.:Condens. Matter 29 465901 (2017);
         "P. Giannozzi et al., J. Chem. Phys. 152 154105 (2020);
          URL http://www.quantum-espresso.org", 
     in publications or presentations arising from this work. More details at
     http://www.quantum-espresso.org/quote

     Parallel version (MPI), running on    10 processors

     MPI processes distributed on     1 nodes
     R & G space division:  proc/nbgrp/npool/nimage =      10
     Reading input from /storage/home/hcoda1/3/ntian30/research/carbon/CxH_vib/H2O_calc/ads_slab/CHOHH2O_a/out_0032/pw.inp
Warning: card &CELL ignored
Warning: card   CELL_DYNAMICS='IPI', ignored
Warning: card / ignored

     Current dimensions of program PWSCF are:
     Max number of different atomic species (ntypx) = 10
     Max number of k-points (npk) =  40000
     Max angular momentum in pseudopotentials (lmaxx) =  3
     Presently no symmetry can be used with electric field

     Message from routine cell_base_init:
     DEPRECATED: use true lattice parameter, not A to a.u. conversion factor

     **************************************************************************
     Initializing libbeef V0.1.2 with the BEEF-vdW functional.
     Citation: Wellendorff et al., PRB 85, 235149 (2012).
     **************************************************************************


     IMPORTANT: XC functional enforced from input :
     Exchange-correlation= BEEF-VDW
                           (   1   4  43  14   2   0   0)
     Any further DFT definition will be discarded
     Please, verify this is what you really want


     Subspace diagonalization in iterative solution of the eigenvalue problem:
     one sub-group per band group will be used
     scalapack distributed-memory algorithm (size of sub-group:  3*  3 procs)

  @ DRIVER MODE: Connecting to 
 qe_1139763_2852632.sched-torque.pace.gatech.edu1r4o6bls_scratch
  using UNIX socket
  @ DRIVER MODE: Message from server: STATUS
  @ DRIVER MODE: Message from server: INIT
  @ DRIVER MODE: Receiving replica           0          -1
  @ DRIVER MODE: Receiving encoded integer          25
  @ DRIVER MODE:  SCF:  T  FORCE:  T  STRESS:  F  VC:  F  ENSEMBLE:  F
  @ DRIVER MODE:  SCF:  T  FORCE:  T  STRESS:  F  VC:  F  ENSEMBLE:  F
 
     Parallelization info
     --------------------
     sticks:   dense  smooth     PW     G-vecs:    dense   smooth      PW
     Min         327     131     37                56683    14340    2191
     Max         328     133     38                56694    14346    2206
     Sum        3275    1317    379               566857   143421   21985
 
     Using Slab Decomposition
 


     bravais-lattice index     =            0
     lattice parameter (alat)  =       1.8897  a.u.
     unit-cell volume          =    6658.9804 (a.u.)^3
     number of atoms/cell      =           54
     number of atomic types    =            4
     number of electrons       =       398.00
     number of Kohn-Sham states=          209
     kinetic-energy cutoff     =      29.3995  Ry
     charge density cutoff     =     293.9946  Ry
     scf convergence threshold =      7.3E-08
     mixing beta               =       0.0500
     number of iterations used =            8  plain     mixing
     Exchange-correlation= BEEF-VDW
                           (   1   4  43  14   2   0   0)

     celldm(1)=   1.889726  celldm(2)=   0.000000  celldm(3)=   0.000000
     celldm(4)=   0.000000  celldm(5)=   0.000000  celldm(6)=   0.000000

     crystal axes: (cart. coord. in units of alat)
               a(1) = (   6.579727   0.000000   0.000000 )  
               a(2) = (  -0.000775   5.961596   0.000000 )  
               a(3) = (   0.000000   0.000000  25.155947 )  

     reciprocal axes: (cart. coord. in units 2 pi/alat)
               b(1) = (  0.151982  0.000020  0.000000 )  
               b(2) = (  0.000000  0.167740  0.000000 )  
               b(3) = (  0.000000  0.000000  0.039752 )  


     PseudoPot. # 1 for Ti read from file:
     /storage/coda1/p-amedford6/0/shared/rich_project_chbe-medford/medford-share/data/pseudos_module/espresso/nninc/pbe/van/Ti.UPF
     MD5 check sum: 8e4df49b7f0d34bbd5052bf3f5ea0213
     Pseudo is Ultrasoft, Zval = 12.0
     Generated by new atomic code, or converted to UPF format
     Using radial grid of  851 points,  6 beta functions with: 
                l(1) =   0
                l(2) =   0
                l(3) =   1
                l(4) =   1
                l(5) =   2
                l(6) =   2
     Q(r) pseudized with  8 coefficients,  rinner =    1.000   1.000   1.000
                                                       1.000   1.000

     PseudoPot. # 2 for O  read from file:
     /storage/coda1/p-amedford6/0/shared/rich_project_chbe-medford/medford-share/data/pseudos_module/espresso/nninc/pbe/van/O.UPF
     MD5 check sum: 78c19812648e8988a0fe644b0f25305e
     Pseudo is Ultrasoft, Zval =  6.0
     Generated by new atomic code, or converted to UPF format
     Using radial grid of  737 points,  4 beta functions with: 
                l(1) =   0
                l(2) =   0
                l(3) =   1
                l(4) =   1
     Q(r) pseudized with  8 coefficients,  rinner =    0.800   0.800   0.800


     PseudoPot. # 3 for C  read from file:
     /storage/coda1/p-amedford6/0/shared/rich_project_chbe-medford/medford-share/data/pseudos_module/espresso/nninc/pbe/van/C.UPF
     MD5 check sum: 1a69bf6b8db32088f5b2163dbdb77a27
     Pseudo is Ultrasoft, Zval =  4.0
     Generated by new atomic code, or converted to UPF format
     Using radial grid of  721 points,  4 beta functions with: 
                l(1) =   0
                l(2) =   0
                l(3) =   1
                l(4) =   1
     Q(r) pseudized with  8 coefficients,  rinner =    0.800   0.800   0.800


     PseudoPot. # 4 for H  read from file:
     /storage/coda1/p-amedford6/0/shared/rich_project_chbe-medford/medford-share/data/pseudos_module/espresso/nninc/pbe/van/H.UPF
     MD5 check sum: b5ee9d7bfd3a09ee7748110bda690ff7
     Pseudo is Ultrasoft, Zval =  1.0
     Generated by new atomic code, or converted to UPF format
     Using radial grid of  615 points,  1 beta functions with: 
                l(1) =   0
     Q(r) pseudized with  8 coefficients,  rinner =    0.800

     atomic species   valence    mass     pseudopotential
        Ti1           12.00    47.86700     Ti( 1.00)
        O1             6.00    15.99900     O ( 1.00)
        C1             4.00    12.01100     C ( 1.00)
        H1             1.00     1.00800     H ( 1.00)

     No symmetry found



   Cartesian axes

     site n.     atom                  positions (alat units)
         1           Ti1 tau(   1) = (   0.0004258   2.9801865   6.0000000  )
         2           Ti1 tau(   2) = (   3.2906075   1.4906267   6.0002472  )
         3           O1  tau(   3) = (   0.0006271   0.0005054   7.9858123  )
         4           O1  tau(   4) = (   3.2906025   0.0005020   7.3038282  )
         5           O1  tau(   5) = (   4.5942328   1.4918067   9.2879030  )
         6           O1  tau(   6) = (   1.9868534   1.4903216   9.2879459  )
         7           Ti1 tau(   7) = (   3.3203992   3.0065636   9.1614972  )
         8           Ti1 tau(   8) = (   0.0364112   1.5055733   9.2692997  )
         9           O1  tau(   9) = (   3.3037507   0.0048223  11.3846665  )
        10           O1  tau(  10) = (   0.0023770   0.0017864  10.5989407  )
        11           O1  tau(  11) = (   1.2986710   1.4943985  12.6419360  )
        12           O1  tau(  12) = (   5.3019195   1.4930987  12.6558330  )
        13           Ti1 tau(  13) = (   0.0201679   2.9954199  12.5459836  )
        14           Ti1 tau(  14) = (   3.3085843   1.4996073  12.5278567  )
        15           O1  tau(  15) = (   0.0306707   0.0063333  14.6434371  )
        16           O1  tau(  16) = (   3.2901280   5.9588824  14.0411263  )
        17           O1  tau(  17) = (   4.5937705   1.5245028  16.1210063  )
        18           O1  tau(  18) = (   2.0412355   1.5396885  16.1535958  )
        19           Ti1 tau(  19) = (   3.3250740   2.9785215  15.7238461  )
        20           Ti1 tau(  20) = (   0.0142243   1.3716099  15.9029131  )
        21           O1  tau(  21) = (   3.2904802   0.0005063   4.7018136  )
        22           O1  tau(  22) = (   0.0234726   5.9563001  17.1693433  )
        23           O1  tau(  23) = (   1.3043587   1.4918075   6.0039043  )
        24           O1  tau(  24) = (   5.2767064   1.4903225   6.0039473  )
        25           Ti1 tau(  25) = (   0.0000382   5.9609847   6.0000000  )
        26           Ti1 tau(  26) = (   3.2902200   4.4714249   6.0002472  )
        27           O1  tau(  27) = (   0.0002396   2.9813036   7.9858123  )
        28           O1  tau(  28) = (   3.2902150   2.9813002   7.3038282  )
        29           O1  tau(  29) = (   4.5938453   4.4726049   9.2879030  )
        30           O1  tau(  30) = (   1.9864658   4.4711199   9.2879459  )
        31           Ti1 tau(  31) = (   3.3166040   0.0254347   9.1556988  )
        32           Ti1 tau(  32) = (   0.0362352   4.4699824   9.2670842  )
        33           O1  tau(  33) = (   3.3035804   2.9865095  11.3763011  )
        34           O1  tau(  34) = (   0.0042610   2.9829788  10.6236548  )
        35           O1  tau(  35) = (   1.2977823   4.4749822  12.6434080  )
        36           O1  tau(  36) = (   5.3021498   4.4756442  12.6578133  )
        37           Ti1 tau(  37) = (   0.0128731   0.0155586  12.4748574  )
        38           Ti1 tau(  38) = (   3.3087006   4.4877506  12.5360639  )
        39           O1  tau(  39) = (   0.0289868   2.9802581  14.8446641  )
        40           O1  tau(  40) = (   3.2975897   2.9808645  13.9396156  )
        41           O1  tau(  41) = (   4.5936103   4.4348319  16.1149158  )
        42           O1  tau(  42) = (   2.0365336   4.4144103  16.1518429  )
        43           Ti1 tau(  43) = (   3.2980932   5.9591119  15.8729608  )
        44           Ti1 tau(  44) = (   0.0070259   4.5936845  15.8821292  )
        45           O1  tau(  45) = (   3.2900926   2.9813045   4.7018136  )
        46           O1  tau(  46) = (   1.3039711   4.4726057   6.0039043  )
        47           O1  tau(  47) = (   5.2763189   4.4711207   6.0039473  )
        48           C1  tau(  48) = (   6.0563806   2.9601134  19.0478501  )
        49           O1  tau(  49) = (   0.1703025   2.9720528  17.8813388  )
        50           H1  tau(  50) = (   5.0099104   2.8626262  18.6876999  )
        51           H1  tau(  51) = (   1.1251272   3.0566160  18.0647747  )
        52           O1  tau(  52) = (   3.2803433   5.9178330  18.2983259  )
        53           H1  tau(  53) = (   4.0649949   5.9397654  18.8787675  )
        54           H1  tau(  54) = (   2.4787048   0.0262026  18.8357284  )

     number of k points=    10  Fermi-Dirac smearing, width (Ry)=  0.0073
                       cart. coord. in units 2pi/alat
        k(    1) = (   0.0000000   0.0000000   0.0000000), wk =   0.1250000
        k(    2) = (   0.0000000   0.0419351   0.0000000), wk =   0.2500000
        k(    3) = (   0.0000000  -0.0838702   0.0000000), wk =   0.1250000
        k(    4) = (   0.0379955   0.0000049   0.0000000), wk =   0.2500000
        k(    5) = (   0.0379955   0.0419400   0.0000000), wk =   0.2500000
        k(    6) = (   0.0379955  -0.0838652   0.0000000), wk =   0.2500000
        k(    7) = (   0.0379955  -0.0419301   0.0000000), wk =   0.2500000
        k(    8) = (  -0.0759910  -0.0000099   0.0000000), wk =   0.1250000
        k(    9) = (  -0.0759910   0.0419252   0.0000000), wk =   0.2500000
        k(   10) = (  -0.0759910  -0.0838800   0.0000000), wk =   0.1250000

     Dense  grid:   566857 G-vectors     FFT dimensions: (  72,  64, 270)

     Smooth grid:   143421 G-vectors     FFT dimensions: (  45,  40, 180)

     Estimated max dynamical RAM per process >     366.12 MB

     Estimated total dynamical RAM >       3.58 GB
     Cannot read rho : file not found

     Initial potential from superposition of free atoms

     starting charge  381.99917, renormalised to  398.00000

     negative rho (up, down):  1.670E-02 0.000E+00


     %%%%%%%%%%%%%%%%%%%%%%%%%%%%%%%%%%%%%%%%%%%%%%%%%%%%%%%%%%%%%%%%%%%%%%%%
     %                                                                      %
     % You are using vdW-DF, which was implemented by the Thonhauser group. %
     % Please cite the following two papers that made this development      %
     % possible and the two reviews that describe the various versions:     %
     %                                                                      %
     %   T. Thonhauser et al., PRL 115, 136402 (2015).                      %
     %   T. Thonhauser et al., PRB 76, 125112 (2007).                       %
     %   K. Berland et al., Rep. Prog. Phys. 78, 066501 (2015).             %
     %   D.C. Langreth et al., J. Phys.: Condens. Matter 21, 084203 (2009). %
     %                                                                      %
     %                                                                      %
     % If you are calculating the stress with vdW-DF, please also cite:     %
     %                                                                      %
     %   R. Sabatini et al., J. Phys.: Condens. Matter 24, 424209 (2012).   %
     %                                                                      %
     %%%%%%%%%%%%%%%%%%%%%%%%%%%%%%%%%%%%%%%%%%%%%%%%%%%%%%%%%%%%%%%%%%%%%%%%


 
     Adding external electric field

     Computed dipole along edir(3) : 
        Dipole              -10.5131 Ry au,        -26.7216 Debye
        Dipole field         -0.0198 Ry au, 
 
        Potential amp.        1.8391 Ry
        Total length         46.3494 bohr
 
     Starting wfcs are  300 atomic wfcs
  @ DRIVER MODE: Message from server: STATUS
  @ DRIVER MODE: Message from server: POSDATA
  @ DRIVER MODE: Reading and sharing cell 
  @ DRIVER MODE: Reading and sharing positions 
  @ DRIVER MODE: Received positions 

     total cpu time spent up to now is       11.0 secs

     Self-consistent Calculation

     iteration #  1     ecut=    29.40 Ry     beta= 0.05
     Davidson diagonalization with overlap
     c_bands:  2 eigenvalues not converged
     c_bands:  3 eigenvalues not converged
     c_bands:  1 eigenvalues not converged
     c_bands:  4 eigenvalues not converged
     c_bands:  4 eigenvalues not converged
     c_bands:  4 eigenvalues not converged
     c_bands:  1 eigenvalues not converged
     c_bands:  3 eigenvalues not converged
     c_bands:  4 eigenvalues not converged
     ethr =  1.00E-05,  avg # of iterations = 19.9

     negative rho (up, down):  1.125E-02 0.000E+00
 
     Adding external electric field

     Computed dipole along edir(3) : 
        Dipole               46.9338 Ry au,        119.2938 Debye
        Dipole field          0.0886 Ry au, 
 
        Potential amp.       -8.2104 Ry
        Total length         46.3494 bohr
 

     total cpu time spent up to now is       52.1 secs

     total energy              =   -2479.44820696 Ry
     estimated scf accuracy    <    5441.08461517 Ry

     iteration #  2     ecut=    29.40 Ry     beta= 0.05
     Davidson diagonalization with overlap
     ethr =  1.00E-02,  avg # of iterations = 25.5

     negative rho (up, down):  2.545E-03 0.000E+00
 
     Adding external electric field

     Computed dipole along edir(3) : 
        Dipole               -1.2637 Ry au,         -3.2120 Debye
        Dipole field         -0.0024 Ry au, 
 
        Potential amp.        0.2211 Ry
        Total length         46.3494 bohr
 

     total cpu time spent up to now is      127.4 secs

     total energy              =   -2485.59322619 Ry
     estimated scf accuracy    <   66330.74638199 Ry

     iteration #  3     ecut=    29.40 Ry     beta= 0.05
     Davidson diagonalization with overlap
     ethr =  1.00E-02,  avg # of iterations = 17.7

     negative rho (up, down):  2.617E-03 0.000E+00
 
     Adding external electric field

     Computed dipole along edir(3) : 
        Dipole               -3.8392 Ry au,         -9.7582 Debye
        Dipole field         -0.0072 Ry au, 
 
        Potential amp.        0.6716 Ry
        Total length         46.3494 bohr
 

     total cpu time spent up to now is      176.0 secs

     total energy              =   -2953.23652220 Ry
     estimated scf accuracy    <    4647.05283781 Ry

     iteration #  4     ecut=    29.40 Ry     beta= 0.05
     Davidson diagonalization with overlap
     ethr =  1.00E-02,  avg # of iterations = 12.2

     negative rho (up, down):  2.670E-03 0.000E+00
 
     Adding external electric field

     Computed dipole along edir(3) : 
        Dipole               -5.5894 Ry au,        -14.2069 Debye
        Dipole field         -0.0105 Ry au, 
 
        Potential amp.        0.9778 Ry
        Total length         46.3494 bohr
 

     total cpu time spent up to now is      194.6 secs

     total energy              =   -2948.80363020 Ry
     estimated scf accuracy    <    1946.94276448 Ry

     iteration #  5     ecut=    29.40 Ry     beta= 0.05
     Davidson diagonalization with overlap
     c_bands:  2 eigenvalues not converged
     ethr =  1.00E-02,  avg # of iterations =  5.7

     negative rho (up, down):  2.805E-03 0.000E+00
 
     Adding external electric field

     Computed dipole along edir(3) : 
        Dipole               -7.5578 Ry au,        -19.2101 Debye
        Dipole field         -0.0143 Ry au, 
 
        Potential amp.        1.3221 Ry
        Total length         46.3494 bohr
 

     total cpu time spent up to now is      206.6 secs

     total energy              =   -2932.75761632 Ry
     estimated scf accuracy    <    1313.22565234 Ry

     iteration #  6     ecut=    29.40 Ry     beta= 0.05
     Davidson diagonalization with overlap
     c_bands:  2 eigenvalues not converged
     c_bands:  2 eigenvalues not converged
     ethr =  1.00E-02,  avg # of iterations = 15.4

     negative rho (up, down):  2.543E-03 0.000E+00
 
     Adding external electric field

     Computed dipole along edir(3) : 
        Dipole               -5.9682 Ry au,        -15.1695 Debye
        Dipole field         -0.0113 Ry au, 
 
        Potential amp.        1.0440 Ry
        Total length         46.3494 bohr
 

     total cpu time spent up to now is      231.3 secs

     total energy              =   -2968.62235276 Ry
     estimated scf accuracy    <     116.44312569 Ry

     iteration #  7     ecut=    29.40 Ry     beta= 0.05
     Davidson diagonalization with overlap
     ethr =  1.00E-02,  avg # of iterations =  1.4

     negative rho (up, down):  2.578E-03 0.000E+00
 
     Adding external electric field

     Computed dipole along edir(3) : 
        Dipole               -5.0172 Ry au,        -12.7525 Debye
        Dipole field         -0.0095 Ry au, 
 
        Potential amp.        0.8777 Ry
        Total length         46.3494 bohr
 

     total cpu time spent up to now is      241.4 secs

     total energy              =   -2968.11232633 Ry
     estimated scf accuracy    <      41.89885247 Ry

     iteration #  8     ecut=    29.40 Ry     beta= 0.05
     Davidson diagonalization with overlap
     ethr =  1.00E-02,  avg # of iterations =  1.1

     negative rho (up, down):  2.617E-03 0.000E+00
 
     Adding external electric field

     Computed dipole along edir(3) : 
        Dipole               -4.8708 Ry au,        -12.3804 Debye
        Dipole field         -0.0092 Ry au, 
 
        Potential amp.        0.8521 Ry
        Total length         46.3494 bohr
 

     total cpu time spent up to now is      251.1 secs

     total energy              =   -2968.08466836 Ry
     estimated scf accuracy    <      25.95331480 Ry

     iteration #  9     ecut=    29.40 Ry     beta= 0.05
     Davidson diagonalization with overlap
     ethr =  6.52E-03,  avg # of iterations =  1.4

     negative rho (up, down):  2.680E-03 0.000E+00
 
     Adding external electric field

     Computed dipole along edir(3) : 
        Dipole               -4.9339 Ry au,        -12.5406 Debye
        Dipole field         -0.0093 Ry au, 
 
        Potential amp.        0.8631 Ry
        Total length         46.3494 bohr
 

     total cpu time spent up to now is      261.1 secs

     total energy              =   -2967.87332520 Ry
     estimated scf accuracy    <      23.67830491 Ry

     iteration # 10     ecut=    29.40 Ry     beta= 0.05
     Davidson diagonalization with overlap
     ethr =  5.95E-03,  avg # of iterations =  1.0

     negative rho (up, down):  7.386E-02 0.000E+00
 
     Adding external electric field

     Computed dipole along edir(3) : 
        Dipole               -0.7590 Ry au,         -1.9292 Debye
        Dipole field         -0.0014 Ry au, 
 
        Potential amp.        0.1328 Ry
        Total length         46.3494 bohr
 

     total cpu time spent up to now is      270.8 secs

     total energy              =   -2960.68830446 Ry
     estimated scf accuracy    <      25.72243760 Ry

     iteration # 11     ecut=    29.40 Ry     beta= 0.05
     Davidson diagonalization with overlap
     ethr =  5.95E-03,  avg # of iterations = 15.2

     negative rho (up, down):  8.510E-02 0.000E+00
 
     Adding external electric field

     Computed dipole along edir(3) : 
        Dipole                0.6796 Ry au,          1.7274 Debye
        Dipole field          0.0013 Ry au, 
 
        Potential amp.       -0.1189 Ry
        Total length         46.3494 bohr
 

     total cpu time spent up to now is      296.4 secs

     total energy              =   -2991.41892012 Ry
     estimated scf accuracy    <    2483.87668298 Ry

     iteration # 12     ecut=    29.40 Ry     beta= 0.05
     Davidson diagonalization with overlap
     ethr =  5.95E-03,  avg # of iterations =  3.1

     negative rho (up, down):  8.714E-02 0.000E+00
 
     Adding external electric field

     Computed dipole along edir(3) : 
        Dipole                1.0947 Ry au,          2.7824 Debye
        Dipole field          0.0021 Ry au, 
 
        Potential amp.       -0.1915 Ry
        Total length         46.3494 bohr
 

     total cpu time spent up to now is      307.2 secs

     total energy              =   -2994.76575508 Ry
     estimated scf accuracy    <    3068.31745511 Ry

     iteration # 13     ecut=    29.40 Ry     beta= 0.05
     Davidson diagonalization with overlap
     ethr =  5.95E-03,  avg # of iterations =  1.3

     negative rho (up, down):  2.324E-02 0.000E+00
 
     Adding external electric field

     Computed dipole along edir(3) : 
        Dipole                2.1918 Ry au,          5.5711 Debye
        Dipole field          0.0041 Ry au, 
 
        Potential amp.       -0.3834 Ry
        Total length         46.3494 bohr
 

     total cpu time spent up to now is      317.2 secs

     total energy              =   -2986.32562984 Ry
     estimated scf accuracy    <    3129.80373489 Ry

     iteration # 14     ecut=    29.40 Ry     beta= 0.05
     Davidson diagonalization with overlap
     ethr =  5.95E-03,  avg # of iterations =  3.3

     negative rho (up, down):  4.074E-03 0.000E+00
 
     Adding external electric field

     Computed dipole along edir(3) : 
        Dipole                1.1767 Ry au,          2.9908 Debye
        Dipole field          0.0022 Ry au, 
 
        Potential amp.       -0.2058 Ry
        Total length         46.3494 bohr
 

     total cpu time spent up to now is      328.1 secs

     total energy              =   -2968.34702778 Ry
     estimated scf accuracy    <    2633.39145620 Ry

     iteration # 15     ecut=    29.40 Ry     beta= 0.05
     Davidson diagonalization with overlap
     c_bands:  1 eigenvalues not converged
     ethr =  5.95E-03,  avg # of iterations = 13.4

     negative rho (up, down):  3.746E-03 0.000E+00
 
     Adding external electric field

     Computed dipole along edir(3) : 
        Dipole                1.1090 Ry au,          2.8189 Debye
        Dipole field          0.0021 Ry au, 
 
        Potential amp.       -0.1940 Ry
        Total length         46.3494 bohr
 

     total cpu time spent up to now is      343.7 secs

     total energy              =   -2973.61082542 Ry
     estimated scf accuracy    <     969.91500867 Ry

     iteration # 16     ecut=    29.40 Ry     beta= 0.05
     Davidson diagonalization with overlap
     ethr =  5.95E-03,  avg # of iterations =  2.4

     negative rho (up, down):  3.671E-03 0.000E+00
 
     Adding external electric field

     Computed dipole along edir(3) : 
        Dipole                1.2426 Ry au,          3.1583 Debye
        Dipole field          0.0023 Ry au, 
 
        Potential amp.       -0.2174 Ry
        Total length         46.3494 bohr
 

     total cpu time spent up to now is      354.1 secs

     total energy              =   -2974.59815336 Ry
     estimated scf accuracy    <     877.53353148 Ry

     iteration # 17     ecut=    29.40 Ry     beta= 0.05
     Davidson diagonalization with overlap
     ethr =  5.95E-03,  avg # of iterations =  2.4

     negative rho (up, down):  4.037E-03 0.000E+00
 
     Adding external electric field

     Computed dipole along edir(3) : 
        Dipole                1.2899 Ry au,          3.2786 Debye
        Dipole field          0.0024 Ry au, 
 
        Potential amp.       -0.2256 Ry
        Total length         46.3494 bohr
 

     total cpu time spent up to now is      364.3 secs

     total energy              =   -2975.30195473 Ry
     estimated scf accuracy    <     872.30074512 Ry

     iteration # 18     ecut=    29.40 Ry     beta= 0.05
     Davidson diagonalization with overlap
     ethr =  5.95E-03,  avg # of iterations =  1.1

     negative rho (up, down):  3.531E-03 0.000E+00
 
     Adding external electric field

     Computed dipole along edir(3) : 
        Dipole                1.0708 Ry au,          2.7218 Debye
        Dipole field          0.0020 Ry au, 
 
        Potential amp.       -0.1873 Ry
        Total length         46.3494 bohr
 

     total cpu time spent up to now is      374.1 secs

     total energy              =   -2975.91913949 Ry
     estimated scf accuracy    <     948.57547294 Ry

     iteration # 19     ecut=    29.40 Ry     beta= 0.05
     Davidson diagonalization with overlap
     ethr =  5.95E-03,  avg # of iterations =  1.1

     negative rho (up, down):  1.046E-01 0.000E+00
 
     Adding external electric field

     Computed dipole along edir(3) : 
        Dipole              -11.4581 Ry au,        -29.1235 Debye
        Dipole field         -0.0216 Ry au, 
 
        Potential amp.        2.0044 Ry
        Total length         46.3494 bohr
 

     total cpu time spent up to now is      383.8 secs

     total energy              =   -2885.57811209 Ry
     estimated scf accuracy    <     916.42437329 Ry

     iteration # 20     ecut=    29.40 Ry     beta= 0.05
     Davidson diagonalization with overlap
     ethr =  5.95E-03,  avg # of iterations = 16.1

     negative rho (up, down):  3.563E-04 0.000E+00
 
     Adding external electric field

     Computed dipole along edir(3) : 
        Dipole               -4.7506 Ry au,        -12.0748 Debye
        Dipole field         -0.0090 Ry au, 
 
        Potential amp.        0.8310 Ry
        Total length         46.3494 bohr
 

     total cpu time spent up to now is      427.9 secs

     total energy              =   -2934.91667599 Ry
     estimated scf accuracy    <   18876.07853738 Ry

     iteration # 21     ecut=    29.40 Ry     beta= 0.05
     Davidson diagonalization with overlap
     ethr =  5.95E-03,  avg # of iterations = 14.3

     negative rho (up, down):  1.758E-04 0.000E+00
 
     Adding external electric field

     Computed dipole along edir(3) : 
        Dipole               -0.5486 Ry au,         -1.3943 Debye
        Dipole field         -0.0010 Ry au, 
 
        Potential amp.        0.0960 Ry
        Total length         46.3494 bohr
 

     total cpu time spent up to now is      451.3 secs

     total energy              =   -2940.43112431 Ry
     estimated scf accuracy    <    4013.25493386 Ry

     iteration # 22     ecut=    29.40 Ry     beta= 0.05
     Davidson diagonalization with overlap
     ethr =  5.95E-03,  avg # of iterations = 13.7

     negative rho (up, down):  2.345E-04 0.000E+00
 
     Adding external electric field

     Computed dipole along edir(3) : 
        Dipole               -0.2029 Ry au,         -0.5157 Debye
        Dipole field         -0.0004 Ry au, 
 
        Potential amp.        0.0355 Ry
        Total length         46.3494 bohr
 

     total cpu time spent up to now is      474.0 secs

     total energy              =   -2965.67367444 Ry
     estimated scf accuracy    <       9.14863754 Ry

     iteration # 23     ecut=    29.40 Ry     beta= 0.05
     Davidson diagonalization with overlap
     ethr =  2.30E-03,  avg # of iterations =  2.0

     negative rho (up, down):  1.574E-04 0.000E+00
 
     Adding external electric field

     Computed dipole along edir(3) : 
        Dipole               -0.4016 Ry au,         -1.0208 Debye
        Dipole field         -0.0008 Ry au, 
 
        Potential amp.        0.0703 Ry
        Total length         46.3494 bohr
 

     total cpu time spent up to now is      484.5 secs

     total energy              =   -2965.39537044 Ry
     estimated scf accuracy    <       6.60359993 Ry

     iteration # 24     ecut=    29.40 Ry     beta= 0.05
     Davidson diagonalization with overlap
     ethr =  1.66E-03,  avg # of iterations =  4.9

     negative rho (up, down):  8.208E-05 0.000E+00
 
     Adding external electric field

     Computed dipole along edir(3) : 
        Dipole               -0.9765 Ry au,         -2.4819 Debye
        Dipole field         -0.0018 Ry au, 
 
        Potential amp.        0.1708 Ry
        Total length         46.3494 bohr
 

     total cpu time spent up to now is      495.8 secs

     total energy              =   -2965.00474083 Ry
     estimated scf accuracy    <       5.02625522 Ry

     iteration # 25     ecut=    29.40 Ry     beta= 0.05
     Davidson diagonalization with overlap
     c_bands:  3 eigenvalues not converged
     c_bands:  1 eigenvalues not converged
     c_bands:  4 eigenvalues not converged
     ethr =  1.26E-03,  avg # of iterations = 11.0

     negative rho (up, down):  1.539E-04 0.000E+00
 
     Adding external electric field

     Computed dipole along edir(3) : 
        Dipole               -0.3160 Ry au,         -0.8032 Debye
        Dipole field         -0.0006 Ry au, 
 
        Potential amp.        0.0553 Ry
        Total length         46.3494 bohr
 

     total cpu time spent up to now is      509.7 secs

     total energy              =   -2964.60071920 Ry
     estimated scf accuracy    <       4.05029284 Ry

     iteration # 26     ecut=    29.40 Ry     beta= 0.05
     Davidson diagonalization with overlap
     ethr =  1.02E-03,  avg # of iterations =  5.1

     negative rho (up, down):  2.008E-04 0.000E+00
 
     Adding external electric field

     Computed dipole along edir(3) : 
        Dipole               -0.0853 Ry au,         -0.2169 Debye
        Dipole field         -0.0002 Ry au, 
 
        Potential amp.        0.0149 Ry
        Total length         46.3494 bohr
 

     total cpu time spent up to now is      521.1 secs

     total energy              =   -2964.94797164 Ry
     estimated scf accuracy    <       4.14921416 Ry

     iteration # 27     ecut=    29.40 Ry     beta= 0.05
     Davidson diagonalization with overlap
     ethr =  1.02E-03,  avg # of iterations =  4.4

     negative rho (up, down):  2.230E-04 0.000E+00
 
     Adding external electric field

     Computed dipole along edir(3) : 
        Dipole                0.1936 Ry au,          0.4921 Debye
        Dipole field          0.0004 Ry au, 
 
        Potential amp.       -0.0339 Ry
        Total length         46.3494 bohr
 

     total cpu time spent up to now is      532.0 secs

     total energy              =   -2964.70866616 Ry
     estimated scf accuracy    <       3.09524858 Ry

     iteration # 28     ecut=    29.40 Ry     beta= 0.05
     Davidson diagonalization with overlap
     c_bands:  4 eigenvalues not converged
     ethr =  7.78E-04,  avg # of iterations = 10.1

     negative rho (up, down):  1.921E-04 0.000E+00
 
     Adding external electric field

     Computed dipole along edir(3) : 
        Dipole                0.1616 Ry au,          0.4108 Debye
        Dipole field          0.0003 Ry au, 
 
        Potential amp.       -0.0283 Ry
        Total length         46.3494 bohr
 

     total cpu time spent up to now is      545.1 secs

     total energy              =   -2964.86803565 Ry
     estimated scf accuracy    <       1.35641611 Ry

     iteration # 29     ecut=    29.40 Ry     beta= 0.05
     Davidson diagonalization with overlap
     ethr =  3.41E-04,  avg # of iterations =  5.0

     negative rho (up, down):  1.263E-04 0.000E+00
 
     Adding external electric field

     Computed dipole along edir(3) : 
        Dipole                0.1232 Ry au,          0.3130 Debye
        Dipole field          0.0002 Ry au, 
 
        Potential amp.       -0.0215 Ry
        Total length         46.3494 bohr
 

     total cpu time spent up to now is      557.3 secs

     total energy              =   -2964.81083483 Ry
     estimated scf accuracy    <       1.30857346 Ry

     iteration # 30     ecut=    29.40 Ry     beta= 0.05
     Davidson diagonalization with overlap
     c_bands:  1 eigenvalues not converged
     ethr =  3.29E-04,  avg # of iterations =  7.1

     negative rho (up, down):  1.132E-04 0.000E+00
 
     Adding external electric field

     Computed dipole along edir(3) : 
        Dipole                0.0620 Ry au,          0.1576 Debye
        Dipole field          0.0001 Ry au, 
 
        Potential amp.       -0.0108 Ry
        Total length         46.3494 bohr
 

     total cpu time spent up to now is      569.4 secs

     total energy              =   -2964.86529959 Ry
     estimated scf accuracy    <       1.43104005 Ry

     iteration # 31     ecut=    29.40 Ry     beta= 0.05
     Davidson diagonalization with overlap
     c_bands:  2 eigenvalues not converged
     ethr =  3.29E-04,  avg # of iterations =  5.4

     negative rho (up, down):  2.075E-04 0.000E+00
 
     Adding external electric field

     Computed dipole along edir(3) : 
        Dipole               -0.0155 Ry au,         -0.0394 Debye
        Dipole field         -0.0000 Ry au, 
 
        Potential amp.        0.0027 Ry
        Total length         46.3494 bohr
 

     total cpu time spent up to now is      580.5 secs

     total energy              =   -2964.50663857 Ry
     estimated scf accuracy    <       1.27030858 Ry

     iteration # 32     ecut=    29.40 Ry     beta= 0.05
     Davidson diagonalization with overlap
     ethr =  3.19E-04,  avg # of iterations = 15.0

     negative rho (up, down):  2.344E-04 0.000E+00
 
     Adding external electric field

     Computed dipole along edir(3) : 
        Dipole                0.2566 Ry au,          0.6522 Debye
        Dipole field          0.0005 Ry au, 
 
        Potential amp.       -0.0449 Ry
        Total length         46.3494 bohr
 

     total cpu time spent up to now is      600.3 secs

     total energy              =   -2964.52420501 Ry
     estimated scf accuracy    <       7.93709062 Ry

     iteration # 33     ecut=    29.40 Ry     beta= 0.05
     Davidson diagonalization with overlap
     ethr =  3.19E-04,  avg # of iterations =  8.4

     negative rho (up, down):  2.988E-04 0.000E+00
 
     Adding external electric field

     Computed dipole along edir(3) : 
        Dipole                0.2311 Ry au,          0.5873 Debye
        Dipole field          0.0004 Ry au, 
 
        Potential amp.       -0.0404 Ry
        Total length         46.3494 bohr
 

     total cpu time spent up to now is      612.8 secs

     total energy              =   -2964.85288253 Ry
     estimated scf accuracy    <       0.94422308 Ry

     iteration # 34     ecut=    29.40 Ry     beta= 0.05
     Davidson diagonalization with overlap
     ethr =  2.37E-04,  avg # of iterations =  8.4

     negative rho (up, down):  4.221E-04 0.000E+00
 
     Adding external electric field

     Computed dipole along edir(3) : 
        Dipole                0.0167 Ry au,          0.0426 Debye
        Dipole field          0.0000 Ry au, 
 
        Potential amp.       -0.0029 Ry
        Total length         46.3494 bohr
 

     total cpu time spent up to now is      625.2 secs

     total energy              =   -2964.76839814 Ry
     estimated scf accuracy    <       1.04327039 Ry

     iteration # 35     ecut=    29.40 Ry     beta= 0.05
     Davidson diagonalization with overlap
     ethr =  2.37E-04,  avg # of iterations =  4.4

     negative rho (up, down):  4.535E-04 0.000E+00
 
     Adding external electric field

     Computed dipole along edir(3) : 
        Dipole               -0.0110 Ry au,         -0.0280 Debye
        Dipole field         -0.0000 Ry au, 
 
        Potential amp.        0.0019 Ry
        Total length         46.3494 bohr
 

     total cpu time spent up to now is      636.3 secs

     total energy              =   -2964.75236954 Ry
     estimated scf accuracy    <       0.66759554 Ry

     iteration # 36     ecut=    29.40 Ry     beta= 0.05
     Davidson diagonalization with overlap
     c_bands:  2 eigenvalues not converged
     c_bands:  1 eigenvalues not converged
     c_bands:  1 eigenvalues not converged
     ethr =  1.68E-04,  avg # of iterations = 18.2

     negative rho (up, down):  4.341E-04 0.000E+00
 
     Adding external electric field

     Computed dipole along edir(3) : 
        Dipole                0.0485 Ry au,          0.1234 Debye
        Dipole field          0.0001 Ry au, 
 
        Potential amp.       -0.0085 Ry
        Total length         46.3494 bohr
 

     total cpu time spent up to now is      653.3 secs

     total energy              =   -2964.79088085 Ry
     estimated scf accuracy    <       0.32424714 Ry

     iteration # 37     ecut=    29.40 Ry     beta= 0.05
     Davidson diagonalization with overlap
     ethr =  8.15E-05,  avg # of iterations =  8.0

     negative rho (up, down):  4.177E-04 0.000E+00
 
     Adding external electric field

     Computed dipole along edir(3) : 
        Dipole                0.1314 Ry au,          0.3339 Debye
        Dipole field          0.0002 Ry au, 
 
        Potential amp.       -0.0230 Ry
        Total length         46.3494 bohr
 

     total cpu time spent up to now is      665.2 secs

     total energy              =   -2964.77867899 Ry
     estimated scf accuracy    <       0.35180029 Ry

     iteration # 38     ecut=    29.40 Ry     beta= 0.05
     Davidson diagonalization with overlap
     c_bands:  1 eigenvalues not converged
     c_bands:  1 eigenvalues not converged
     c_bands:  2 eigenvalues not converged
     c_bands:  1 eigenvalues not converged
     ethr =  8.15E-05,  avg # of iterations = 16.5

     negative rho (up, down):  4.604E-04 0.000E+00
 
     Adding external electric field

     Computed dipole along edir(3) : 
        Dipole                0.1587 Ry au,          0.4034 Debye
        Dipole field          0.0003 Ry au, 
 
        Potential amp.       -0.0278 Ry
        Total length         46.3494 bohr
 

     total cpu time spent up to now is      682.0 secs

     total energy              =   -2964.81606544 Ry
     estimated scf accuracy    <       1.64147247 Ry

     iteration # 39     ecut=    29.40 Ry     beta= 0.05
     Davidson diagonalization with overlap
     ethr =  8.15E-05,  avg # of iterations =  1.4

     negative rho (up, down):  3.159E-03 0.000E+00
 
     Adding external electric field

     Computed dipole along edir(3) : 
        Dipole                0.0309 Ry au,          0.0784 Debye
        Dipole field          0.0001 Ry au, 
 
        Potential amp.       -0.0054 Ry
        Total length         46.3494 bohr
 

     total cpu time spent up to now is      692.0 secs

     total energy              =   -2964.71494239 Ry
     estimated scf accuracy    <       1.00542355 Ry

     iteration # 40     ecut=    29.40 Ry     beta= 0.05
     Davidson diagonalization with overlap
     ethr =  8.15E-05,  avg # of iterations = 14.3

     negative rho (up, down):  3.204E-03 0.000E+00
 
     Adding external electric field

     Computed dipole along edir(3) : 
        Dipole                0.0642 Ry au,          0.1631 Debye
        Dipole field          0.0001 Ry au, 
 
        Potential amp.       -0.0112 Ry
        Total length         46.3494 bohr
 

     total cpu time spent up to now is      709.1 secs

     total energy              =   -2964.79450336 Ry
     estimated scf accuracy    <       0.34902054 Ry

     iteration # 41     ecut=    29.40 Ry     beta= 0.05
     Davidson diagonalization with overlap
     ethr =  8.15E-05,  avg # of iterations =  3.1

     negative rho (up, down):  1.349E-03 0.000E+00
 
     Adding external electric field

     Computed dipole along edir(3) : 
        Dipole                0.4828 Ry au,          1.2272 Debye
        Dipole field          0.0009 Ry au, 
 
        Potential amp.       -0.0845 Ry
        Total length         46.3494 bohr
 

     total cpu time spent up to now is      719.9 secs

     total energy              =   -2964.75001365 Ry
     estimated scf accuracy    <       0.26867485 Ry

     iteration # 42     ecut=    29.40 Ry     beta= 0.05
     Davidson diagonalization with overlap
     c_bands:  1 eigenvalues not converged
     c_bands:  1 eigenvalues not converged
     ethr =  6.75E-05,  avg # of iterations = 14.3

     negative rho (up, down):  5.338E-03 0.000E+00
 
     Adding external electric field

     Computed dipole along edir(3) : 
        Dipole                0.7944 Ry au,          2.0191 Debye
        Dipole field          0.0015 Ry au, 
 
        Potential amp.       -0.1390 Ry
        Total length         46.3494 bohr
 

     total cpu time spent up to now is      737.6 secs

     total energy              =   -2964.78642736 Ry
     estimated scf accuracy    <       0.22472652 Ry

     iteration # 43     ecut=    29.40 Ry     beta= 0.05
     Davidson diagonalization with overlap
     c_bands:  1 eigenvalues not converged
     ethr =  5.65E-05,  avg # of iterations = 12.7

     negative rho (up, down):  5.966E-03 0.000E+00
 
     Adding external electric field

     Computed dipole along edir(3) : 
        Dipole                0.4070 Ry au,          1.0345 Debye
        Dipole field          0.0008 Ry au, 
 
        Potential amp.       -0.0712 Ry
        Total length         46.3494 bohr
 

     total cpu time spent up to now is      751.4 secs

     total energy              =   -2964.74668055 Ry
     estimated scf accuracy    <       0.31728076 Ry

     iteration # 44     ecut=    29.40 Ry     beta= 0.05
     Davidson diagonalization with overlap
     c_bands:  1 eigenvalues not converged
     ethr =  5.65E-05,  avg # of iterations = 11.7

     negative rho (up, down):  7.507E-03 0.000E+00
 
     Adding external electric field

     Computed dipole along edir(3) : 
        Dipole                0.3734 Ry au,          0.9491 Debye
        Dipole field          0.0007 Ry au, 
 
        Potential amp.       -0.0653 Ry
        Total length         46.3494 bohr
 

     total cpu time spent up to now is      766.1 secs

     total energy              =   -2964.77984580 Ry
     estimated scf accuracy    <       0.09682681 Ry

     iteration # 45     ecut=    29.40 Ry     beta= 0.05
     Davidson diagonalization with overlap
     c_bands:  2 eigenvalues not converged
     ethr =  2.43E-05,  avg # of iterations = 10.7

     negative rho (up, down):  1.030E-02 0.000E+00
 
     Adding external electric field

     Computed dipole along edir(3) : 
        Dipole                0.5090 Ry au,          1.2938 Debye
        Dipole field          0.0010 Ry au, 
 
        Potential amp.       -0.0890 Ry
        Total length         46.3494 bohr
 

     total cpu time spent up to now is      779.4 secs

     total energy              =   -2964.78059635 Ry
     estimated scf accuracy    <       0.11020477 Ry

     iteration # 46     ecut=    29.40 Ry     beta= 0.05
     Davidson diagonalization with overlap
     ethr =  2.43E-05,  avg # of iterations = 10.6

     negative rho (up, down):  1.119E-02 0.000E+00
 
     Adding external electric field

     Computed dipole along edir(3) : 
        Dipole                0.5926 Ry au,          1.5061 Debye
        Dipole field          0.0011 Ry au, 
 
        Potential amp.       -0.1037 Ry
        Total length         46.3494 bohr
 

     total cpu time spent up to now is      792.4 secs

     total energy              =   -2964.78078647 Ry
     estimated scf accuracy    <       0.05848136 Ry

     iteration # 47     ecut=    29.40 Ry     beta= 0.05
     Davidson diagonalization with overlap
     c_bands:  4 eigenvalues not converged
     ethr =  1.47E-05,  avg # of iterations = 11.8

     negative rho (up, down):  1.049E-02 0.000E+00
 
     Adding external electric field

     Computed dipole along edir(3) : 
        Dipole                0.5813 Ry au,          1.4776 Debye
        Dipole field          0.0011 Ry au, 
 
        Potential amp.       -0.1017 Ry
        Total length         46.3494 bohr
 

     total cpu time spent up to now is      805.5 secs

     total energy              =   -2964.78179023 Ry
     estimated scf accuracy    <       0.03571482 Ry

     iteration # 48     ecut=    29.40 Ry     beta= 0.05
     Davidson diagonalization with overlap
     c_bands:  1 eigenvalues not converged
     ethr =  8.97E-06,  avg # of iterations =  3.5

     negative rho (up, down):  9.223E-03 0.000E+00
 
     Adding external electric field

     Computed dipole along edir(3) : 
        Dipole                0.6563 Ry au,          1.6683 Debye
        Dipole field          0.0012 Ry au, 
 
        Potential amp.       -0.1148 Ry
        Total length         46.3494 bohr
 

     total cpu time spent up to now is      816.2 secs

     total energy              =   -2964.77544646 Ry
     estimated scf accuracy    <       0.03314418 Ry

     iteration # 49     ecut=    29.40 Ry     beta= 0.05
     Davidson diagonalization with overlap
     c_bands:  1 eigenvalues not converged
     ethr =  8.33E-06,  avg # of iterations = 10.9

     negative rho (up, down):  8.076E-03 0.000E+00
 
     Adding external electric field

     Computed dipole along edir(3) : 
        Dipole                0.6527 Ry au,          1.6590 Debye
        Dipole field          0.0012 Ry au, 
 
        Potential amp.       -0.1142 Ry
        Total length         46.3494 bohr
 

     total cpu time spent up to now is      830.3 secs

     total energy              =   -2964.77749887 Ry
     estimated scf accuracy    <       0.01144978 Ry

     iteration # 50     ecut=    29.40 Ry     beta= 0.05
     Davidson diagonalization with overlap
     c_bands:  3 eigenvalues not converged
     c_bands:  2 eigenvalues not converged
     c_bands:  1 eigenvalues not converged
     c_bands:  1 eigenvalues not converged
     c_bands:  1 eigenvalues not converged
     ethr =  2.88E-06,  avg # of iterations = 17.4

     negative rho (up, down):  1.148E-02 0.000E+00
 
     Adding external electric field

     Computed dipole along edir(3) : 
        Dipole                0.6444 Ry au,          1.6380 Debye
        Dipole field          0.0012 Ry au, 
 
        Potential amp.       -0.1127 Ry
        Total length         46.3494 bohr
 

     total cpu time spent up to now is      849.2 secs

     total energy              =   -2964.77849763 Ry
     estimated scf accuracy    <       0.00677530 Ry

     iteration # 51     ecut=    29.40 Ry     beta= 0.05
     Davidson diagonalization with overlap
     c_bands:  1 eigenvalues not converged
     c_bands:  2 eigenvalues not converged
     c_bands:  1 eigenvalues not converged
     ethr =  1.70E-06,  avg # of iterations =  8.9

     negative rho (up, down):  1.564E-02 0.000E+00
 
     Adding external electric field

     Computed dipole along edir(3) : 
        Dipole                0.6681 Ry au,          1.6982 Debye
        Dipole field          0.0013 Ry au, 
 
        Potential amp.       -0.1169 Ry
        Total length         46.3494 bohr
 

     total cpu time spent up to now is      861.8 secs

     total energy              =   -2964.77898881 Ry
     estimated scf accuracy    <       0.00269327 Ry

     iteration # 52     ecut=    29.40 Ry     beta= 0.05
     Davidson diagonalization with overlap
     c_bands:  1 eigenvalues not converged
     c_bands:  1 eigenvalues not converged
     c_bands:  1 eigenvalues not converged
     ethr =  6.77E-07,  avg # of iterations = 14.5

     negative rho (up, down):  1.505E-02 0.000E+00
 
     Adding external electric field

     Computed dipole along edir(3) : 
        Dipole                0.6556 Ry au,          1.6665 Debye
        Dipole field          0.0012 Ry au, 
 
        Potential amp.       -0.1147 Ry
        Total length         46.3494 bohr
 

     total cpu time spent up to now is      880.0 secs

     total energy              =   -2964.77925178 Ry
     estimated scf accuracy    <       0.00212353 Ry

     iteration # 53     ecut=    29.40 Ry     beta= 0.05
     Davidson diagonalization with overlap
     c_bands:  1 eigenvalues not converged
     ethr =  5.34E-07,  avg # of iterations =  5.4

     negative rho (up, down):  1.494E-02 0.000E+00
 
     Adding external electric field

     Computed dipole along edir(3) : 
        Dipole                0.7026 Ry au,          1.7857 Debye
        Dipole field          0.0013 Ry au, 
 
        Potential amp.       -0.1229 Ry
        Total length         46.3494 bohr
 

     total cpu time spent up to now is      891.4 secs

     total energy              =   -2964.77904962 Ry
     estimated scf accuracy    <       0.00128551 Ry

     iteration # 54     ecut=    29.40 Ry     beta= 0.05
     Davidson diagonalization with overlap
     c_bands:  1 eigenvalues not converged
     c_bands:  1 eigenvalues not converged
     c_bands:  1 eigenvalues not converged
     ethr =  3.23E-07,  avg # of iterations = 17.0

     negative rho (up, down):  1.399E-02 0.000E+00
 
     Adding external electric field

     Computed dipole along edir(3) : 
        Dipole                0.6695 Ry au,          1.7018 Debye
        Dipole field          0.0013 Ry au, 
 
        Potential amp.       -0.1171 Ry
        Total length         46.3494 bohr
 

     total cpu time spent up to now is      908.9 secs

     total energy              =   -2964.77869312 Ry
     estimated scf accuracy    <       0.01416143 Ry

     iteration # 55     ecut=    29.40 Ry     beta= 0.05
     Davidson diagonalization with overlap
     c_bands:  1 eigenvalues not converged
     c_bands:  1 eigenvalues not converged
     ethr =  3.23E-07,  avg # of iterations = 14.6

     negative rho (up, down):  1.517E-02 0.000E+00
 
     Adding external electric field

     Computed dipole along edir(3) : 
        Dipole                0.6875 Ry au,          1.7475 Debye
        Dipole field          0.0013 Ry au, 
 
        Potential amp.       -0.1203 Ry
        Total length         46.3494 bohr
 

     total cpu time spent up to now is      924.4 secs

     total energy              =   -2964.77923474 Ry
     estimated scf accuracy    <       0.00064420 Ry

     iteration # 56     ecut=    29.40 Ry     beta= 0.05
     Davidson diagonalization with overlap
     ethr =  1.62E-07,  avg # of iterations = 10.5

     negative rho (up, down):  1.497E-02 0.000E+00
 
     Adding external electric field

     Computed dipole along edir(3) : 
        Dipole                0.6966 Ry au,          1.7706 Debye
        Dipole field          0.0013 Ry au, 
 
        Potential amp.       -0.1219 Ry
        Total length         46.3494 bohr
 

     total cpu time spent up to now is      937.3 secs

     total energy              =   -2964.77922370 Ry
     estimated scf accuracy    <       0.00026745 Ry

     iteration # 57     ecut=    29.40 Ry     beta= 0.05
     Davidson diagonalization with overlap
     c_bands:  2 eigenvalues not converged
     ethr =  6.72E-08,  avg # of iterations = 14.4

     negative rho (up, down):  1.484E-02 0.000E+00
 
     Adding external electric field

     Computed dipole along edir(3) : 
        Dipole                0.7000 Ry au,          1.7792 Debye
        Dipole field          0.0013 Ry au, 
 
        Potential amp.       -0.1225 Ry
        Total length         46.3494 bohr
 

     total cpu time spent up to now is      955.6 secs

     total energy              =   -2964.77928415 Ry
     estimated scf accuracy    <       0.00015906 Ry

     iteration # 58     ecut=    29.40 Ry     beta= 0.05
     Davidson diagonalization with overlap
     ethr =  4.00E-08,  avg # of iterations =  6.9

     negative rho (up, down):  1.476E-02 0.000E+00
 
     Adding external electric field

     Computed dipole along edir(3) : 
        Dipole                0.6981 Ry au,          1.7744 Debye
        Dipole field          0.0013 Ry au, 
 
        Potential amp.       -0.1221 Ry
        Total length         46.3494 bohr
 

     total cpu time spent up to now is      967.3 secs

     total energy              =   -2964.77928673 Ry
     estimated scf accuracy    <       0.00021668 Ry

     iteration # 59     ecut=    29.40 Ry     beta= 0.05
     Davidson diagonalization with overlap
     ethr =  4.00E-08,  avg # of iterations =  1.0

     negative rho (up, down):  1.478E-02 0.000E+00
 
     Adding external electric field

     Computed dipole along edir(3) : 
        Dipole                0.6887 Ry au,          1.7506 Debye
        Dipole field          0.0013 Ry au, 
 
        Potential amp.       -0.1205 Ry
        Total length         46.3494 bohr
 

     total cpu time spent up to now is      977.0 secs

     total energy              =   -2964.77924393 Ry
     estimated scf accuracy    <       0.00018252 Ry

     iteration # 60     ecut=    29.40 Ry     beta= 0.05
     Davidson diagonalization with overlap
     ethr =  4.00E-08,  avg # of iterations = 12.6

     negative rho (up, down):  1.499E-02 0.000E+00
 
     Adding external electric field

     Computed dipole along edir(3) : 
        Dipole                0.6998 Ry au,          1.7787 Debye
        Dipole field          0.0013 Ry au, 
 
        Potential amp.       -0.1224 Ry
        Total length         46.3494 bohr
 

     total cpu time spent up to now is      995.8 secs

     total energy              =   -2964.77926271 Ry
     estimated scf accuracy    <       0.00029055 Ry

     iteration # 61     ecut=    29.40 Ry     beta= 0.05
     Davidson diagonalization with overlap
     ethr =  4.00E-08,  avg # of iterations = 11.6

     negative rho (up, down):  1.541E-02 0.000E+00
 
     Adding external electric field

     Computed dipole along edir(3) : 
        Dipole                0.7003 Ry au,          1.7799 Debye
        Dipole field          0.0013 Ry au, 
 
        Potential amp.       -0.1225 Ry
        Total length         46.3494 bohr
 

     total cpu time spent up to now is     1012.8 secs

     total energy              =   -2964.77930619 Ry
     estimated scf accuracy    <       0.00007927 Ry

     iteration # 62     ecut=    29.40 Ry     beta= 0.05
     Davidson diagonalization with overlap
     ethr =  1.99E-08,  avg # of iterations =  9.9

     negative rho (up, down):  1.547E-02 0.000E+00
 
     Adding external electric field

     Computed dipole along edir(3) : 
        Dipole                0.6996 Ry au,          1.7781 Debye
        Dipole field          0.0013 Ry au, 
 
        Potential amp.       -0.1224 Ry
        Total length         46.3494 bohr
 

     total cpu time spent up to now is     1027.5 secs

     total energy              =   -2964.77933597 Ry
     estimated scf accuracy    <       0.00004807 Ry

     iteration # 63     ecut=    29.40 Ry     beta= 0.05
     Davidson diagonalization with overlap
     c_bands:  1 eigenvalues not converged
     c_bands:  1 eigenvalues not converged
     c_bands:  1 eigenvalues not converged
     c_bands:  1 eigenvalues not converged
     ethr =  1.21E-08,  avg # of iterations = 18.6

     negative rho (up, down):  1.534E-02 0.000E+00
 
     Adding external electric field

     Computed dipole along edir(3) : 
        Dipole                0.7035 Ry au,          1.7882 Debye
        Dipole field          0.0013 Ry au, 
 
        Potential amp.       -0.1231 Ry
        Total length         46.3494 bohr
 

     total cpu time spent up to now is     1050.9 secs

     total energy              =   -2964.77933954 Ry
     estimated scf accuracy    <       0.00030495 Ry

     iteration # 64     ecut=    29.40 Ry     beta= 0.05
     Davidson diagonalization with overlap
     c_bands:  1 eigenvalues not converged
     ethr =  1.21E-08,  avg # of iterations = 11.6

     negative rho (up, down):  1.541E-02 0.000E+00
 
     Adding external electric field

     Computed dipole along edir(3) : 
        Dipole                0.7078 Ry au,          1.7990 Debye
        Dipole field          0.0013 Ry au, 
 
        Potential amp.       -0.1238 Ry
        Total length         46.3494 bohr
 

     total cpu time spent up to now is     1065.5 secs

     total energy              =   -2964.77932585 Ry
     estimated scf accuracy    <       0.00015212 Ry

     iteration # 65     ecut=    29.40 Ry     beta= 0.05
     Davidson diagonalization with overlap
     ethr =  1.21E-08,  avg # of iterations = 13.1

     negative rho (up, down):  1.547E-02 0.000E+00
 
     Adding external electric field

     Computed dipole along edir(3) : 
        Dipole                0.7083 Ry au,          1.8002 Debye
        Dipole field          0.0013 Ry au, 
 
        Potential amp.       -0.1239 Ry
        Total length         46.3494 bohr
 

     total cpu time spent up to now is     1083.5 secs

     total energy              =   -2964.77934053 Ry
     estimated scf accuracy    <       0.00001288 Ry

     iteration # 66     ecut=    29.40 Ry     beta= 0.05
     Davidson diagonalization with overlap
     ethr =  3.24E-09,  avg # of iterations = 10.6

     negative rho (up, down):  1.539E-02 0.000E+00
 
     Adding external electric field

     Computed dipole along edir(3) : 
        Dipole                0.7095 Ry au,          1.8034 Debye
        Dipole field          0.0013 Ry au, 
 
        Potential amp.       -0.1241 Ry
        Total length         46.3494 bohr
 

     total cpu time spent up to now is     1096.6 secs

     total energy              =   -2964.77934303 Ry
     estimated scf accuracy    <       0.00000779 Ry

     iteration # 67     ecut=    29.40 Ry     beta= 0.05
     Davidson diagonalization with overlap
     c_bands:  1 eigenvalues not converged
     ethr =  1.96E-09,  avg # of iterations = 14.9

     negative rho (up, down):  1.534E-02 0.000E+00
 
     Adding external electric field

     Computed dipole along edir(3) : 
        Dipole                0.7094 Ry au,          1.8031 Debye
        Dipole field          0.0013 Ry au, 
 
        Potential amp.       -0.1241 Ry
        Total length         46.3494 bohr
 

     total cpu time spent up to now is     1116.3 secs

     total energy              =   -2964.77934854 Ry
     estimated scf accuracy    <       0.00000762 Ry

     iteration # 68     ecut=    29.40 Ry     beta= 0.05
     Davidson diagonalization with overlap
     ethr =  1.91E-09,  avg # of iterations =  1.4

     negative rho (up, down):  1.526E-02 0.000E+00
 
     Adding external electric field

     Computed dipole along edir(3) : 
        Dipole                0.7088 Ry au,          1.8016 Debye
        Dipole field          0.0013 Ry au, 
 
        Potential amp.       -0.1240 Ry
        Total length         46.3494 bohr
 

     total cpu time spent up to now is     1126.3 secs

     total energy              =   -2964.77935065 Ry
     estimated scf accuracy    <       0.00000527 Ry

     iteration # 69     ecut=    29.40 Ry     beta= 0.05
     Davidson diagonalization with overlap
     ethr =  1.32E-09,  avg # of iterations = 11.6

     negative rho (up, down):  1.526E-02 0.000E+00
 
     Adding external electric field

     Computed dipole along edir(3) : 
        Dipole                0.7092 Ry au,          1.8027 Debye
        Dipole field          0.0013 Ry au, 
 
        Potential amp.       -0.1241 Ry
        Total length         46.3494 bohr
 

     total cpu time spent up to now is     1141.7 secs

     total energy              =   -2964.77935421 Ry
     estimated scf accuracy    <       0.00000129 Ry

     iteration # 70     ecut=    29.40 Ry     beta= 0.05
     Davidson diagonalization with overlap
     ethr =  3.25E-10,  avg # of iterations = 11.9

     negative rho (up, down):  1.523E-02 0.000E+00
 
     Adding external electric field

     Computed dipole along edir(3) : 
        Dipole                0.7096 Ry au,          1.8036 Debye
        Dipole field          0.0013 Ry au, 
 
        Potential amp.       -0.1241 Ry
        Total length         46.3494 bohr
 

     total cpu time spent up to now is     1156.8 secs

     total energy              =   -2964.77935723 Ry
     estimated scf accuracy    <       0.00000112 Ry

     iteration # 71     ecut=    29.40 Ry     beta= 0.05
     Davidson diagonalization with overlap
     c_bands:  1 eigenvalues not converged
     ethr =  2.81E-10,  avg # of iterations = 14.8

     negative rho (up, down):  1.520E-02 0.000E+00
 
     Adding external electric field

     Computed dipole along edir(3) : 
        Dipole                0.7093 Ry au,          1.8029 Debye
        Dipole field          0.0013 Ry au, 
 
        Potential amp.       -0.1241 Ry
        Total length         46.3494 bohr
 

     total cpu time spent up to now is     1176.0 secs

     total energy              =   -2964.77935974 Ry
     estimated scf accuracy    <       0.00000365 Ry

     iteration # 72     ecut=    29.40 Ry     beta= 0.05
     Davidson diagonalization with overlap
     ethr =  2.81E-10,  avg # of iterations = 11.3

     negative rho (up, down):  1.520E-02 0.000E+00
 
     Adding external electric field

     Computed dipole along edir(3) : 
        Dipole                0.7093 Ry au,          1.8029 Debye
        Dipole field          0.0013 Ry au, 
 
        Potential amp.       -0.1241 Ry
        Total length         46.3494 bohr
 

     total cpu time spent up to now is     1190.9 secs

     total energy              =   -2964.77936197 Ry
     estimated scf accuracy    <       0.00000075 Ry

     iteration # 73     ecut=    29.40 Ry     beta= 0.05
     Davidson diagonalization with overlap
     ethr =  1.88E-10,  avg # of iterations =  2.3

     negative rho (up, down):  1.519E-02 0.000E+00
 
     Adding external electric field

     Computed dipole along edir(3) : 
        Dipole                0.7094 Ry au,          1.8032 Debye
        Dipole field          0.0013 Ry au, 
 
        Potential amp.       -0.1241 Ry
        Total length         46.3494 bohr
 

     total cpu time spent up to now is     1201.2 secs

     total energy              =   -2964.77936385 Ry
     estimated scf accuracy    <       0.00000070 Ry

     iteration # 74     ecut=    29.40 Ry     beta= 0.05
     Davidson diagonalization with overlap
     c_bands:  1 eigenvalues not converged
     ethr =  1.77E-10,  avg # of iterations = 14.5

     negative rho (up, down):  1.518E-02 0.000E+00
 
     Adding external electric field

     Computed dipole along edir(3) : 
        Dipole                0.7095 Ry au,          1.8034 Debye
        Dipole field          0.0013 Ry au, 
 
        Potential amp.       -0.1241 Ry
        Total length         46.3494 bohr
 

     total cpu time spent up to now is     1217.1 secs

     total energy              =   -2964.77936566 Ry
     estimated scf accuracy    <       0.00000014 Ry

     iteration # 75     ecut=    29.40 Ry     beta= 0.05
     Davidson diagonalization with overlap
     ethr =  3.59E-11,  avg # of iterations = 12.5

     negative rho (up, down):  1.518E-02 0.000E+00
 
     Adding external electric field

     Computed dipole along edir(3) : 
        Dipole                0.7095 Ry au,          1.8035 Debye
        Dipole field          0.0013 Ry au, 
 
        Potential amp.       -0.1241 Ry
        Total length         46.3494 bohr
 

     total cpu time spent up to now is     1235.8 secs

     total energy              =   -2964.77936738 Ry
     estimated scf accuracy    <       0.00000015 Ry

     iteration # 76     ecut=    29.40 Ry     beta= 0.05
     Davidson diagonalization with overlap
     ethr =  3.59E-11,  avg # of iterations =  8.7

     negative rho (up, down):  1.518E-02 0.000E+00
 
     Adding external electric field

     Computed dipole along edir(3) : 
        Dipole                0.7102 Ry au,          1.8053 Debye
        Dipole field          0.0013 Ry au, 
 
        Potential amp.       -0.1242 Ry
        Total length         46.3494 bohr
 

     total cpu time spent up to now is     1248.4 secs

     End of self-consistent calculation

          k = 0.0000 0.0000 0.0000 ( 18029 PWs)   bands (ev):

   -55.7053 -55.6923 -55.6690 -55.6667 -55.6579 -55.6067 -55.5555 -55.5539
   -55.5415 -55.5211 -55.5083 -55.4869 -55.4860 -55.4744 -54.7730 -54.7389
   -32.2658 -32.1864 -32.1831 -32.0880 -32.0508 -32.0311 -32.0199 -32.0096
   -31.9813 -31.9457 -31.9360 -31.9210 -31.8966 -31.8895 -31.8824 -31.8632
   -31.8460 -31.8453 -31.8420 -31.8346 -31.8186 -31.8074 -31.8074 -31.7977
   -31.7959 -31.7804 -31.7775 -31.7494 -31.7373 -31.7236 -31.7123 -31.7113
   -31.7064 -31.7021 -31.6959 -31.6879 -31.6556 -31.6542 -31.6492 -31.6455
   -31.6191 -31.5629 -31.1847 -31.0832 -31.0616 -31.0009 -30.9146 -30.8036
   -21.1368 -19.2076 -16.5240 -16.2819 -16.1392 -16.0358 -15.9312 -15.7987
   -15.7119 -15.5884 -15.5252 -15.3983 -15.3589 -15.3531 -15.3469 -15.3184
   -15.2968 -15.2743 -15.2503 -15.2095 -15.2051 -15.2014 -15.1724 -15.1604
   -15.1027 -15.0900 -15.0456 -14.9280 -14.8766 -14.8155 -14.4975 -13.2739
   -13.1547 -10.3409  -7.1930  -5.7012  -4.7259  -4.0158  -3.9285  -3.8076
    -3.7178  -3.6493  -3.6116  -3.5401  -3.4639  -3.2613  -3.1309  -3.1230
    -2.9903  -2.9535  -2.9090  -2.8074  -2.7419  -2.6797  -2.6695  -2.5934
    -2.5896  -2.5815  -2.5682  -2.4755  -2.4692  -2.4207  -2.3796  -2.3006
    -2.2649  -2.1476  -2.1167  -2.1080  -2.0643  -2.0486  -2.0419  -2.0293
    -1.9796  -1.9538  -1.9357  -1.9345  -1.7928  -1.7509  -1.6043  -1.4800
    -1.4470  -1.4324  -1.2940  -1.2669  -1.2505  -1.1929  -1.1724  -1.1625
    -1.1236  -1.0426  -0.9595  -0.9344  -0.8632  -0.8202  -0.7161  -0.6219
    -0.5773  -0.5276  -0.5061  -0.4968  -0.4775  -0.4121  -0.3648  -0.2781
    -0.2242  -0.1609  -0.1340  -0.1275  -0.0730  -0.0428   0.0374   0.0840
     0.1184   0.1327   0.2183   0.2326   0.2454   0.2767   0.2791   0.3921
     0.4459   0.5033   0.5095   0.6580   0.8249   0.8502   0.9297   1.1441
     1.2525   1.2549   1.4158   1.4739   1.8375   1.8918   3.3822   3.4524
     3.4869   3.5011   3.5104   3.5881   3.8184   3.8702   3.9017   3.9205
     3.9301

          k = 0.0000 0.0419 0.0000 ( 17933 PWs)   bands (ev):

   -55.7001 -55.6873 -55.6741 -55.6659 -55.6628 -55.6037 -55.5568 -55.5504
   -55.5384 -55.5259 -55.5032 -55.4898 -55.4868 -55.4792 -54.7679 -54.7438
   -32.2089 -32.1480 -32.1323 -32.0337 -32.0062 -31.9961 -31.9831 -31.9776
   -31.9734 -31.9495 -31.9335 -31.9276 -31.9091 -31.8832 -31.8820 -31.8745
   -31.8642 -31.8527 -31.8524 -31.8320 -31.8199 -31.8140 -31.8036 -31.8033
   -31.8006 -31.7803 -31.7765 -31.7635 -31.7592 -31.7390 -31.7382 -31.7283
   -31.7156 -31.7117 -31.7036 -31.7036 -31.6855 -31.6846 -31.6779 -31.6516
   -31.6460 -31.6054 -31.1306 -31.0799 -31.0645 -30.9884 -30.9271 -30.8607
   -21.1362 -19.2074 -16.4004 -16.1733 -16.0742 -15.9437 -15.8253 -15.7301
   -15.6641 -15.5941 -15.5450 -15.4858 -15.4020 -15.3665 -15.3244 -15.3012
   -15.2925 -15.2859 -15.2604 -15.2294 -15.2161 -15.2154 -15.1805 -15.1751
   -15.1458 -15.1069 -15.0884 -14.9849 -14.9342 -14.8726 -14.6203 -13.2766
   -13.1935 -10.3408  -7.1930  -5.7027  -4.7241  -3.9842  -3.8778  -3.6539
    -3.5483  -3.4736  -3.4633  -3.3970  -3.3267  -3.0507  -3.0273  -3.0140
    -2.9321  -2.8718  -2.8573  -2.8089  -2.7677  -2.7287  -2.7191  -2.6648
    -2.6507  -2.6104  -2.6043  -2.5446  -2.5297  -2.5066  -2.4746  -2.4458
    -2.3331  -2.3039  -2.2908  -2.2322  -2.2181  -2.1994  -2.1600  -2.0699
    -2.0457  -1.9913  -1.8748  -1.7376  -1.6576  -1.6388  -1.5274  -1.5129
    -1.5043  -1.4082  -1.2697  -1.1912  -1.1389  -1.0383  -1.0103  -1.0074
    -0.9722  -0.9441  -0.8858  -0.8137  -0.7493  -0.7133  -0.7015  -0.6698
    -0.6463  -0.6183  -0.5878  -0.5074  -0.4919  -0.4382  -0.3756  -0.2903
    -0.2739  -0.2597  -0.2481  -0.2163  -0.1308  -0.0712  -0.0261   0.0254
     0.0319   0.0538   0.0572   0.1158   0.1467   0.2770   0.2900   0.3348
     0.3943   0.4039   0.5184   0.5305   0.5651   0.6724   0.8097   0.8514
     1.1330   1.4356   1.4764   1.5049   1.7904   1.8027   3.5750   3.5977
     3.6043   3.6592   3.6861   3.7098   3.7686   3.7967   3.8421   3.9022
     3.9165

          k = 0.0000-0.0839 0.0000 ( 17884 PWs)   bands (ev):

   -55.6897 -55.6844 -55.6772 -55.6729 -55.6650 -55.6003 -55.5601 -55.5401
   -55.5362 -55.5347 -55.4934 -55.4923 -55.4901 -55.4876 -54.7558 -54.7558
   -32.1076 -32.0756 -32.0644 -32.0017 -31.9977 -31.9798 -31.9711 -31.9622
   -31.9588 -31.9308 -31.9153 -31.9001 -31.8849 -31.8825 -31.8770 -31.8737
   -31.8713 -31.8477 -31.8473 -31.8427 -31.8392 -31.8225 -31.8039 -31.7992
   -31.7978 -31.7964 -31.7962 -31.7852 -31.7826 -31.7826 -31.7818 -31.7812
   -31.7716 -31.7409 -31.7340 -31.7222 -31.6821 -31.6818 -31.6807 -31.6764
   -31.6583 -31.6432 -31.0719 -31.0719 -30.9977 -30.9973 -30.9578 -30.9576
   -21.1356 -19.2073 -16.2018 -16.0462 -15.9195 -15.8668 -15.7329 -15.7010
   -15.6726 -15.6134 -15.5687 -15.5268 -15.5161 -15.4943 -15.3422 -15.3245
   -15.3212 -15.2871 -15.2471 -15.2053 -15.1985 -15.1928 -15.1901 -15.1272
   -15.1182 -15.0747 -15.0740 -15.0133 -15.0104 -15.0090 -14.8424 -13.2566
   -13.2558 -10.3408  -7.1931  -5.7042  -4.7226  -3.9616  -3.8552  -3.2826
    -3.2699  -3.1743  -3.1326  -3.1219  -3.0904  -3.0677  -3.0385  -3.0337
    -3.0328  -2.8891  -2.8769  -2.8689  -2.8550  -2.8407  -2.8265  -2.7705
    -2.7266  -2.6973  -2.6540  -2.6074  -2.5982  -2.5844  -2.5576  -2.5395
    -2.4325  -2.4101  -2.3718  -2.2640  -2.1739  -2.1653  -2.0851  -2.0178
    -1.8877  -1.7953  -1.7905  -1.7117  -1.6383  -1.5580  -1.5381  -1.5254
    -1.4107  -1.2366  -1.2081  -1.1880  -1.1742  -1.1618  -1.1516  -1.1217
    -1.1113  -1.0985  -1.0577  -0.8726  -0.8442  -0.7877  -0.7509  -0.6541
    -0.4995  -0.4343  -0.4134  -0.3782  -0.3559  -0.3533  -0.3183  -0.2788
    -0.2499  -0.2429  -0.2289  -0.2179  -0.2123  -0.1236  -0.1025  -0.0764
    -0.0568  -0.0017   0.0004   0.0238   0.0346   0.0367   0.0892   0.1517
     0.1992   0.4160   0.4435   0.4454   0.4816   0.6958   0.7313   0.8586
     0.8887   1.4710   1.5712   1.5750   1.7270   1.7282   3.5059   3.6833
     3.7151   3.7294   3.7506   3.8330   3.8529   3.8642   3.9557   3.9605
     3.9950

          k = 0.0380 0.0000 0.0000 ( 17913 PWs)   bands (ev):

   -55.7051 -55.6922 -55.6689 -55.6666 -55.6578 -55.6066 -55.5552 -55.5538
   -55.5415 -55.5210 -55.5083 -55.4868 -55.4859 -55.4743 -54.7729 -54.7388
   -32.2660 -32.1874 -32.1831 -32.0930 -32.0538 -32.0350 -32.0202 -32.0094
   -31.9811 -31.9455 -31.9360 -31.9026 -31.8966 -31.8822 -31.8785 -31.8628
   -31.8449 -31.8425 -31.8360 -31.8184 -31.8162 -31.8071 -31.8070 -31.7981
   -31.7971 -31.7957 -31.7774 -31.7492 -31.7420 -31.7244 -31.7122 -31.7071
   -31.7060 -31.7030 -31.7020 -31.6949 -31.6551 -31.6545 -31.6530 -31.6456
   -31.6195 -31.5629 -31.1842 -31.0870 -31.0595 -31.0007 -30.9144 -30.8033
   -21.1367 -19.2074 -16.4446 -16.1971 -16.1540 -15.9615 -15.8470 -15.8003
   -15.7185 -15.6054 -15.5302 -15.4762 -15.4685 -15.4282 -15.4187 -15.3915
   -15.3814 -15.3813 -15.2505 -15.2094 -15.1760 -15.1669 -15.0985 -15.0682
   -15.0456 -15.0006 -14.9814 -14.9467 -14.9461 -14.9145 -14.4966 -13.2704
   -13.1544 -10.3430  -7.1920  -5.6982  -4.7126  -4.0154  -3.9022  -3.6788
    -3.6025  -3.4800  -3.3748  -3.3529  -3.3341  -3.2413  -3.2134  -3.1395
    -3.1234  -3.0376  -3.0021  -2.9024  -2.8395  -2.7660  -2.6934  -2.6077
    -2.4997  -2.4818  -2.4223  -2.3874  -2.3784  -2.3326  -2.3150  -2.2902
    -2.2641  -2.1415  -2.1104  -2.0644  -2.0603  -2.0024  -1.9472  -1.9406
    -1.9245  -1.8968  -1.7947  -1.7789  -1.7733  -1.6368  -1.5567  -1.5248
    -1.5046  -1.4718  -1.3538  -1.2971  -1.2850  -1.2199  -1.1918  -1.1687
    -1.1504  -1.1280  -1.0664  -1.0385  -1.0268  -0.8207  -0.7116  -0.6811
    -0.6275  -0.6042  -0.5278  -0.4976  -0.4400  -0.3635  -0.3530  -0.3256
    -0.2778  -0.2329  -0.1843  -0.1702  -0.1130  -0.0513  -0.0422  -0.0139
     0.0149   0.0781   0.0960   0.1036   0.1434   0.2302   0.2711   0.3253
     0.3523   0.3972   0.4820   0.4999   0.6137   0.7767   0.8954   1.1120
     1.1549   1.2644   1.3833   1.4795   1.7223   1.8071   3.4036   3.4645
     3.5972   3.6989   3.7200   3.7627   3.7950   3.8098   3.8574   3.8762
     3.9335

          k = 0.0380 0.0419 0.0000 ( 17878 PWs)   bands (ev):

   -55.6999 -55.6873 -55.6741 -55.6658 -55.6628 -55.6036 -55.5567 -55.5502
   -55.5383 -55.5259 -55.5033 -55.4895 -55.4871 -55.4792 -54.7678 -54.7438
   -32.2090 -32.1481 -32.1332 -32.0394 -32.0088 -31.9965 -31.9834 -31.9815
   -31.9735 -31.9494 -31.9336 -31.9279 -31.8942 -31.8825 -31.8747 -31.8728
   -31.8644 -31.8521 -31.8433 -31.8290 -31.8141 -31.8052 -31.8033 -31.8014
   -31.8005 -31.7929 -31.7804 -31.7630 -31.7565 -31.7435 -31.7324 -31.7279
   -31.7196 -31.7142 -31.7039 -31.6970 -31.6945 -31.6902 -31.6774 -31.6545
   -31.6517 -31.6049 -31.1302 -31.0828 -31.0635 -30.9882 -30.9272 -30.8606
   -21.1361 -19.2073 -16.3311 -16.1216 -16.0645 -15.8618 -15.7677 -15.7098
   -15.6663 -15.5943 -15.5557 -15.4987 -15.4568 -15.4327 -15.4024 -15.3734
   -15.3282 -15.3216 -15.2733 -15.2427 -15.2321 -15.2062 -15.1595 -15.1162
   -15.0804 -15.0632 -15.0535 -15.0114 -14.9980 -14.9658 -14.6202 -13.2742
   -13.1938 -10.3428  -7.1920  -5.7014  -4.7129  -3.9771  -3.8705  -3.5229
    -3.4568  -3.3165  -3.2046  -3.1960  -3.1801  -3.0774  -3.0427  -3.0092
    -2.9728  -2.8873  -2.8287  -2.7885  -2.7169  -2.7075  -2.7040  -2.6520
    -2.6195  -2.5604  -2.5366  -2.5269  -2.5075  -2.4769  -2.4226  -2.4009
    -2.3780  -2.3151  -2.2516  -2.2284  -2.1593  -2.1315  -2.1100  -2.0296
    -1.9933  -1.9228  -1.7799  -1.7360  -1.6683  -1.6336  -1.5649  -1.5091
    -1.4291  -1.3665  -1.3273  -1.2296  -1.2005  -1.1495  -1.0917  -1.0832
    -1.0624  -1.0120  -0.9449  -0.9042  -0.8787  -0.8090  -0.7534  -0.7312
    -0.7055  -0.6438  -0.6133  -0.5765  -0.5240  -0.4681  -0.4334  -0.4164
    -0.3827  -0.3548  -0.3270  -0.2909  -0.2626  -0.2235  -0.1598  -0.1300
    -0.0992  -0.0475   0.0136   0.0592   0.1796   0.1972   0.3082   0.3469
     0.4001   0.4380   0.4804   0.5324   0.6322   0.6510   0.7553   0.8153
     1.0736   1.4466   1.4812   1.5084   1.7118   1.7821   3.5523   3.5808
     3.6100   3.6812   3.7202   3.7988   3.8300   3.8389   3.8904   3.9407
     3.9574

          k = 0.0380-0.0839 0.0000 ( 17916 PWs)   bands (ev):

   -55.6897 -55.6844 -55.6772 -55.6729 -55.6650 -55.6003 -55.5601 -55.5401
   -55.5361 -55.5347 -55.4931 -55.4924 -55.4902 -55.4880 -54.7559 -54.7558
   -32.1078 -32.0758 -32.0647 -32.0026 -31.9985 -31.9799 -31.9711 -31.9623
   -31.9594 -31.9332 -31.9268 -31.9029 -31.9002 -31.8717 -31.8678 -31.8571
   -31.8535 -31.8523 -31.8511 -31.8452 -31.8406 -31.8229 -31.8048 -31.7980
   -31.7977 -31.7970 -31.7946 -31.7912 -31.7851 -31.7824 -31.7820 -31.7644
   -31.7633 -31.7425 -31.7291 -31.7199 -31.6932 -31.6928 -31.6808 -31.6764
   -31.6627 -31.6489 -31.0731 -31.0730 -30.9976 -30.9972 -30.9578 -30.9576
   -21.1355 -19.2072 -16.1788 -16.0062 -15.8754 -15.8152 -15.7142 -15.6463
   -15.6155 -15.5886 -15.5749 -15.5442 -15.4769 -15.4602 -15.3677 -15.3482
   -15.3270 -15.2915 -15.2823 -15.2412 -15.2396 -15.1954 -15.1918 -15.1740
   -15.1609 -15.1124 -15.1112 -15.0716 -15.0698 -14.9953 -14.8351 -13.2564
   -13.2556 -10.3425  -7.1918  -5.7042  -4.7137  -3.9529  -3.8498  -3.2446
    -3.2377  -3.0123  -2.9980  -2.9618  -2.9566  -2.8996  -2.8826  -2.8310
    -2.8258  -2.8079  -2.8012  -2.7963  -2.7832  -2.7536  -2.7450  -2.7170
    -2.6910  -2.6509  -2.6148  -2.6036  -2.5705  -2.5485  -2.5149  -2.5126
    -2.4196  -2.3840  -2.3555  -2.2694  -2.2451  -2.1534  -1.9794  -1.9352
    -1.8591  -1.7729  -1.7124  -1.7090  -1.6904  -1.6776  -1.6319  -1.5560
    -1.5051  -1.4700  -1.4194  -1.3897  -1.3777  -1.3153  -1.3121  -1.2402
    -1.1681  -1.0321  -0.9948  -0.9535  -0.9341  -0.8475  -0.7444  -0.7413
    -0.6782  -0.6216  -0.5990  -0.5535  -0.5225  -0.5195  -0.5112  -0.4756
    -0.3783  -0.3665  -0.3563  -0.3235  -0.2850  -0.2589  -0.2121  -0.1801
    -0.0842  -0.0034   0.0230   0.0452   0.1630   0.2104   0.2896   0.3137
     0.3277   0.3875   0.4408   0.5157   0.5273   0.6713   0.6821   0.8403
     0.8712   1.4758   1.5856   1.5891   1.7189   1.7209   3.5217   3.6012
     3.6432   3.7364   3.7448   3.8057   3.8234   3.8727   3.9722   3.9778
     4.0349

          k = 0.0380-0.0419 0.0000 ( 17876 PWs)   bands (ev):

   -55.6999 -55.6873 -55.6741 -55.6658 -55.6628 -55.6036 -55.5567 -55.5502
   -55.5383 -55.5259 -55.5033 -55.4895 -55.4871 -55.4792 -54.7678 -54.7438
   -32.2090 -32.1481 -32.1332 -32.0394 -32.0088 -31.9965 -31.9834 -31.9815
   -31.9735 -31.9494 -31.9336 -31.9279 -31.8943 -31.8825 -31.8748 -31.8727
   -31.8644 -31.8521 -31.8433 -31.8290 -31.8141 -31.8053 -31.8034 -31.8014
   -31.8005 -31.7929 -31.7804 -31.7630 -31.7565 -31.7439 -31.7324 -31.7280
   -31.7194 -31.7141 -31.7038 -31.6967 -31.6947 -31.6901 -31.6775 -31.6545
   -31.6517 -31.6050 -31.1302 -31.0828 -31.0634 -30.9882 -30.9272 -30.8606
   -21.1361 -19.2073 -16.3312 -16.1216 -16.0643 -15.8613 -15.7673 -15.7098
   -15.6662 -15.5940 -15.5568 -15.4988 -15.4579 -15.4330 -15.4028 -15.3733
   -15.3276 -15.3215 -15.2738 -15.2411 -15.2320 -15.2059 -15.1595 -15.1157
   -15.0814 -15.0626 -15.0536 -15.0115 -14.9983 -14.9660 -14.6201 -13.2742
   -13.1938 -10.3427  -7.1918  -5.7010  -4.7132  -3.9802  -3.8699  -3.5226
    -3.4573  -3.3159  -3.2039  -3.1948  -3.1795  -3.0769  -3.0423  -3.0096
    -2.9730  -2.8877  -2.8284  -2.7881  -2.7177  -2.7068  -2.7038  -2.6547
    -2.6176  -2.5590  -2.5374  -2.5270  -2.5067  -2.4761  -2.4243  -2.4008
    -2.3776  -2.3149  -2.2514  -2.2289  -2.1650  -2.1312  -2.1098  -2.0264
    -1.9921  -1.9237  -1.7794  -1.7326  -1.6684  -1.6321  -1.5660  -1.5101
    -1.4262  -1.3657  -1.3264  -1.2294  -1.1997  -1.1498  -1.0902  -1.0836
    -1.0643  -1.0102  -0.9461  -0.9094  -0.8803  -0.8116  -0.7516  -0.7317
    -0.7062  -0.6431  -0.6148  -0.5805  -0.5224  -0.4716  -0.4393  -0.4216
    -0.3875  -0.3534  -0.3257  -0.2867  -0.2621  -0.2239  -0.1569  -0.1274
    -0.0984  -0.0433   0.0143   0.0601   0.1810   0.1968   0.3083   0.3455
     0.4049   0.4381   0.4815   0.5324   0.6318   0.6507   0.7568   0.8153
     1.0740   1.4465   1.4813   1.5085   1.7115   1.7828   3.5537   3.5798
     3.6101   3.6768   3.7251   3.7971   3.8266   3.8336   3.8888   3.9335
     3.9523

          k =-0.0760-0.0000 0.0000 ( 17886 PWs)   bands (ev):

   -55.7050 -55.6922 -55.6689 -55.6665 -55.6578 -55.6066 -55.5551 -55.5538
   -55.5414 -55.5210 -55.5083 -55.4868 -55.4860 -55.4743 -54.7728 -54.7388
   -32.2661 -32.1884 -32.1834 -32.0978 -32.0568 -32.0388 -32.0205 -32.0092
   -31.9810 -31.9455 -31.9360 -31.8966 -31.8822 -31.8730 -31.8677 -31.8605
   -31.8448 -31.8392 -31.8307 -31.8274 -31.8182 -31.8073 -31.8070 -31.7975
   -31.7956 -31.7844 -31.7774 -31.7495 -31.7485 -31.7390 -31.7252 -31.7122
   -31.7021 -31.7013 -31.7003 -31.6950 -31.6607 -31.6535 -31.6524 -31.6458
   -31.6202 -31.5630 -31.1838 -31.0906 -31.0581 -31.0007 -30.9143 -30.8034
   -21.1366 -19.2073 -16.2852 -16.2635 -16.0650 -15.8936 -15.7859 -15.7549
   -15.6466 -15.6408 -15.5557 -15.5475 -15.5368 -15.5114 -15.5016 -15.4798
   -15.4637 -15.3857 -15.2484 -15.2085 -15.1790 -15.1094 -15.1007 -15.0839
   -15.0740 -15.0234 -15.0179 -14.9624 -14.8913 -14.8597 -14.4960 -13.2672
   -13.1541 -10.3452  -7.1912  -5.6954  -4.6999  -4.0151  -3.9041  -3.6324
    -3.5996  -3.3324  -3.2186  -3.1986  -3.1902  -3.1644  -3.1471  -3.1305
    -3.0722  -3.0170  -3.0049  -2.9942  -2.8316  -2.6570  -2.6472  -2.4930
    -2.3714  -2.3700  -2.3263  -2.3131  -2.3026  -2.2908  -2.2748  -2.2385
    -2.2075  -2.1648  -2.1198  -2.0785  -2.0560  -2.0494  -2.0097  -1.9627
    -1.9606  -1.8928  -1.8696  -1.7867  -1.6955  -1.5850  -1.4799  -1.4621
    -1.4439  -1.4086  -1.3903  -1.3312  -1.2798  -1.2616  -1.2592  -1.2040
    -1.2014  -1.1532  -1.1469  -1.0540  -1.0431  -0.9863  -0.9752  -0.9372
    -0.6747  -0.6604  -0.5834  -0.4854  -0.4786  -0.4421  -0.4025  -0.3965
    -0.3268  -0.3036  -0.2141  -0.2051  -0.1951  -0.1640  -0.1021  -0.0650
    -0.0426  -0.0027  -0.0018   0.0640   0.1111   0.1292   0.2723   0.3025
     0.3163   0.3510   0.4429   0.6004   0.6165   0.7642   0.8482   0.9059
     1.1576   1.2865   1.3572   1.4851   1.5869   1.7487   3.4055   3.4321
     3.5117   3.6622   3.6774   3.7320   3.7614   3.8559   3.8755   3.8888
     3.9255

          k =-0.0760 0.0419 0.0000 ( 17914 PWs)   bands (ev):

   -55.6999 -55.6873 -55.6741 -55.6658 -55.6628 -55.6037 -55.5568 -55.5502
   -55.5383 -55.5259 -55.5034 -55.4891 -55.4876 -55.4793 -54.7679 -54.7438
   -32.2094 -32.1483 -32.1343 -32.0451 -32.0117 -31.9968 -31.9861 -31.9832
   -31.9737 -31.9494 -31.9337 -31.9281 -31.8830 -31.8747 -31.8725 -31.8647
   -31.8627 -31.8512 -31.8339 -31.8265 -31.8159 -31.8141 -31.8036 -31.8032
   -31.8004 -31.7805 -31.7726 -31.7628 -31.7554 -31.7538 -31.7471 -31.7367
   -31.7090 -31.7049 -31.7044 -31.7036 -31.6975 -31.6930 -31.6785 -31.6658
   -31.6517 -31.6048 -31.1299 -31.0859 -31.0627 -30.9882 -30.9272 -30.8607
   -21.1360 -19.2072 -16.2064 -16.1719 -15.9724 -15.8089 -15.6989 -15.6713
   -15.6061 -15.5882 -15.5650 -15.5021 -15.4952 -15.4873 -15.4824 -15.4418
   -15.4287 -15.3788 -15.2634 -15.2567 -15.2281 -15.1889 -15.1474 -15.1352
   -15.0917 -15.0719 -15.0634 -15.0539 -14.9959 -14.9569 -14.6203 -13.2720
   -13.1942 -10.3447  -7.1909  -5.6999  -4.7024  -3.9739  -3.8699  -3.4848
    -3.4531  -3.1189  -3.0666  -3.0466  -2.9658  -2.9390  -2.9346  -2.9017
    -2.8910  -2.8275  -2.7944  -2.7737  -2.7196  -2.7045  -2.6590  -2.6105
    -2.5945  -2.5766  -2.4972  -2.4869  -2.4550  -2.4027  -2.3297  -2.3157
    -2.2834  -2.2486  -2.2218  -2.2106  -2.2077  -2.1343  -2.0702  -1.9333
    -1.9066  -1.8671  -1.8488  -1.7882  -1.7207  -1.5340  -1.5256  -1.4912
    -1.4614  -1.4290  -1.3035  -1.2815  -1.2569  -1.2105  -1.1875  -1.1471
    -1.1077  -1.0804  -1.0529  -1.0053  -0.9686  -0.9664  -0.9587  -0.9394
    -0.8636  -0.8295  -0.8010  -0.7382  -0.6647  -0.6506  -0.5359  -0.5068
    -0.4964  -0.4447  -0.4208  -0.3923  -0.3742  -0.2700  -0.2080  -0.1950
    -0.1214  -0.0212   0.0283   0.0575   0.0689   0.2716   0.3462   0.3726
     0.4466   0.5583   0.5652   0.5959   0.6630   0.7004   0.7357   0.7724
     0.9072   1.4612   1.4860   1.5107   1.6341   1.7696   3.5511   3.5803
     3.5938   3.6038   3.6635   3.7258   3.7448   3.8144   3.8752   3.9059
     4.0077

          k =-0.0760-0.0839 0.0000 ( 17948 PWs)   bands (ev):

   -55.6897 -55.6844 -55.6772 -55.6729 -55.6650 -55.6004 -55.5602 -55.5400
   -55.5361 -55.5347 -55.4928 -55.4924 -55.4903 -55.4884 -54.7559 -54.7559
   -32.1080 -32.0761 -32.0650 -32.0034 -31.9993 -31.9799 -31.9712 -31.9623
   -31.9600 -31.9355 -31.9343 -31.9096 -31.9003 -31.8719 -31.8583 -31.8566
   -31.8552 -31.8468 -31.8418 -31.8379 -31.8301 -31.8226 -31.8053 -31.8026
   -31.7995 -31.7975 -31.7974 -31.7964 -31.7931 -31.7850 -31.7827 -31.7533
   -31.7385 -31.7382 -31.7228 -31.7138 -31.7119 -31.7065 -31.6812 -31.6764
   -31.6752 -31.6521 -31.0742 -31.0741 -30.9975 -30.9972 -30.9578 -30.9577
   -21.1355 -19.2070 -16.1549 -15.9598 -15.8094 -15.7250 -15.7183 -15.6593
   -15.5790 -15.5378 -15.4919 -15.4801 -15.4700 -15.4354 -15.4261 -15.4146
   -15.3523 -15.3023 -15.2988 -15.2834 -15.2340 -15.2266 -15.2162 -15.2106
   -15.2018 -15.1588 -15.1545 -15.1399 -15.1291 -14.9854 -14.8293 -13.2562
   -13.2554 -10.3442  -7.1905  -5.7043  -4.7047  -3.9452  -3.8461  -3.2351
    -3.2325  -2.9698  -2.9486  -2.8899  -2.8785  -2.8144  -2.7832  -2.7073
    -2.7010  -2.6556  -2.6154  -2.6071  -2.5941  -2.5699  -2.5366  -2.5227
    -2.4812  -2.4714  -2.4456  -2.4409  -2.4221  -2.4061  -2.3812  -2.3753
    -2.3430  -2.3228  -2.3147  -2.3108  -2.2340  -2.1722  -2.0491  -2.0268
    -1.9866  -1.9373  -1.9217  -1.8512  -1.8155  -1.8007  -1.7430  -1.7085
    -1.6813  -1.5088  -1.4969  -1.4765  -1.3854  -1.3528  -1.3370  -1.3105
    -1.2518  -1.2269  -1.2226  -1.1451  -1.0338  -1.0096  -0.9123  -0.8668
    -0.8656  -0.7771  -0.7437  -0.7053  -0.7033  -0.6660  -0.6096  -0.5879
    -0.5308  -0.5240  -0.4770  -0.4570  -0.4335  -0.4025  -0.2296  -0.1745
    -0.1190  -0.0218   0.0068   0.2347   0.2654   0.2727   0.3382   0.3687
     0.4750   0.4965   0.5593   0.5742   0.6754   0.7069   0.7238   0.7286
     0.7750   1.4807   1.6043   1.6069   1.7058   1.7095   3.5316   3.5460
     3.6474   3.6994   3.7367   3.8404   3.8891   3.9213   3.9290   3.9439
     4.0194

     the Fermi energy is     3.4303 ev

!    total energy              =   -2964.77938108 Ry
     estimated scf accuracy    <       0.00000006 Ry
     smearing contrib. (-TS)   =      -0.03744923 Ry
     internal energy E=F+TS    =   -2964.74193185 Ry

     The total energy is F=E-TS. E is the sum of the following terms:
     one-electron contribution =  -24112.30208708 Ry
     hartree contribution      =   12146.36250425 Ry
     xc contribution           =    -490.01315582 Ry
     ewald contribution        =    9491.20985485 Ry
     electric field correction =       0.00095195 Ry

     convergence has been achieved in  76 iterations

     Forces acting on atoms (cartesian axes, Ry/au):

     atom    1 type  1   force =    -0.00035766   -0.00001922    0.09252959
     atom    2 type  1   force =    -0.00033380    0.00121303   -0.18262625
     atom    3 type  2   force =     0.00043633    0.00023529   -0.02457394
     atom    4 type  2   force =     0.00073073    0.00044853    0.05162662
     atom    5 type  2   force =    -0.01465960   -0.00006965    0.00466158
     atom    6 type  2   force =     0.01553197   -0.00055745    0.00541755
     atom    7 type  1   force =    -0.00050706   -0.00016334    0.00009447
     atom    8 type  1   force =     0.00021840    0.00003734    0.00021326
     atom    9 type  2   force =    -0.00018370   -0.00017435   -0.00029043
     atom   10 type  2   force =     0.00005978   -0.00003896    0.00032670
     atom   11 type  2   force =    -0.00030917    0.00020694    0.00003504
     atom   12 type  2   force =     0.00037723    0.00008433   -0.00021027
     atom   13 type  1   force =    -0.00020471   -0.00025358    0.00023178
     atom   14 type  1   force =     0.00013250   -0.00021933   -0.00048194
     atom   15 type  2   force =    -0.00032239    0.00033198   -0.00012618
     atom   16 type  2   force =     0.00008153    0.00001424   -0.00031964
     atom   17 type  2   force =    -0.00008714   -0.00013795    0.00015934
     atom   18 type  2   force =     0.00012792   -0.00007702   -0.00030656
     atom   19 type  1   force =    -0.00098378    0.00006356   -0.00029080
     atom   20 type  1   force =     0.00039012    0.00012912   -0.00002972
     atom   21 type  2   force =    -0.00009603    0.00005760    0.10490196
     atom   22 type  2   force =    -0.00037896   -0.00001499    0.00048003
     atom   23 type  2   force =    -0.06834703    0.00001715   -0.02692105
     atom   24 type  2   force =     0.06804513    0.00045243   -0.02699855
     atom   25 type  1   force =    -0.00030833   -0.00001744    0.09721071
     atom   26 type  1   force =    -0.00030638   -0.00119637   -0.18266972
     atom   27 type  2   force =     0.00034940    0.00023255   -0.02297779
     atom   28 type  2   force =     0.00081723    0.00042616    0.05202574
     atom   29 type  2   force =    -0.01464181    0.00064339    0.00459530
     atom   30 type  2   force =     0.01566253    0.00038817    0.00532371
     atom   31 type  1   force =    -0.00045713   -0.00000347    0.00013120
     atom   32 type  1   force =     0.00021540    0.00007818    0.00019031
     atom   33 type  2   force =    -0.00007325    0.00012861    0.00018995
     atom   34 type  2   force =     0.00001342    0.00001110    0.00016876
     atom   35 type  2   force =    -0.00015073   -0.00030247    0.00012464
     atom   36 type  2   force =     0.00021734   -0.00020508   -0.00010427
     atom   37 type  1   force =    -0.00029506    0.00016629   -0.00046134
     atom   38 type  1   force =     0.00012632    0.00037778   -0.00037111
     atom   39 type  2   force =    -0.00036062   -0.00028053   -0.00019699
     atom   40 type  2   force =     0.00018321   -0.00008400   -0.00005037
     atom   41 type  2   force =    -0.00032525   -0.00011136   -0.00020603
     atom   42 type  2   force =     0.00034821   -0.00016675   -0.00065554
     atom   43 type  1   force =    -0.00094011   -0.00025914    0.00022758
     atom   44 type  1   force =     0.00038057   -0.00069210    0.00002392
     atom   45 type  2   force =    -0.00007379    0.00005380    0.10479652
     atom   46 type  2   force =    -0.06833351   -0.00059433   -0.02691427
     atom   47 type  2   force =     0.06803046   -0.00012793   -0.02698914
     atom   48 type  3   force =    -0.00009363   -0.00009030   -0.00023929
     atom   49 type  2   force =    -0.00009804   -0.00000532   -0.00007631
     atom   50 type  4   force =     0.00016594    0.00018711   -0.00015957
     atom   51 type  4   force =     0.00019156   -0.00008385   -0.00013160
     atom   52 type  2   force =     0.01263502   -0.00094330    0.00791281
     atom   53 type  4   force =    -0.01362464    0.00033973   -0.00867279
     atom   54 type  4   force =     0.00138511    0.00056520    0.00045236

     Total force =     0.369115     Total SCF correction =     0.000641
  @ DRIVER MODE: Message from server: STATUS
  @ DRIVER MODE: Message from server: GETFORCE
  @ DRIVER MODE: Returning v,forces,stress,ensemble 

     Writing output data file ./calc.save/
  @ DRIVER MODE: Message from server: EXIT
  @ DRIVE MODE: Exiting  
 
     init_run     :     10.59s CPU     10.81s WALL (       1 calls)
     electrons    :   1220.16s CPU   1237.37s WALL (       1 calls)
     forces       :      2.21s CPU      2.31s WALL (       1 calls)

     Called by init_run:
     wfcinit      :      4.74s CPU      4.82s WALL (       1 calls)
     potinit      :      5.27s CPU      5.33s WALL (       1 calls)
     hinit0       :      0.24s CPU      0.25s WALL (       1 calls)

     Called by electrons:
     c_bands      :   1046.93s CPU   1054.18s WALL (      76 calls)
     sum_band     :    118.21s CPU    122.22s WALL (      76 calls)
     v_of_rho     :     42.14s CPU     44.22s WALL (      77 calls)
     newd         :     15.88s CPU     19.78s WALL (      77 calls)
     mix_rho      :      1.57s CPU      1.58s WALL (      76 calls)
     vdW_kernel   :      4.54s CPU      4.56s WALL (       1 calls)

     Called by c_bands:
     init_us_2    :      6.89s CPU      6.92s WALL (    1540 calls)
     cegterg      :   1026.66s CPU   1033.59s WALL (     771 calls)

     Called by *egterg:
     cdiaghg      :    176.79s CPU    177.54s WALL (    8072 calls)
     h_psi        :    541.08s CPU    545.86s WALL (    8082 calls)
     s_psi        :     71.75s CPU     71.96s WALL (    8082 calls)
     g_psi        :      1.99s CPU      2.01s WALL (    7301 calls)

     Called by h_psi:
     h_psi:calbec :     66.76s CPU     67.08s WALL (    8082 calls)
     vloc_psi     :    398.87s CPU    402.68s WALL (    8082 calls)
     add_vuspsi   :     71.93s CPU     72.33s WALL (    8082 calls)

     General routines
     calbec       :     87.67s CPU     88.06s WALL (    8882 calls)
     fft          :     21.34s CPU     21.54s WALL (    4851 calls)
     ffts         :      0.13s CPU      0.13s WALL (     153 calls)
     fftw         :    445.10s CPU    449.34s WALL ( 1062728 calls)
     interpolate  :      0.44s CPU      0.44s WALL (      77 calls)
     davcio       :      0.00s CPU      0.08s WALL (      10 calls)
 
     Parallel routines
 
     PWSCF        :  20m33.22s CPU  20m51.18s WALL

 
   This run was terminated on:   2:48:56  16Sep2021            

=------------------------------------------------------------------------------=
   JOB DONE.
=------------------------------------------------------------------------------=
