
     Program PWSCF v.6.7GPU starts on 18Oct2021 at 21:31:35 

     This program is part of the open-source Quantum ESPRESSO suite
     for quantum simulation of materials; please cite
         "P. Giannozzi et al., J. Phys.:Condens. Matter 21 395502 (2009);
         "P. Giannozzi et al., J. Phys.:Condens. Matter 29 465901 (2017);
         "P. Giannozzi et al., J. Chem. Phys. 152 154105 (2020);
          URL http://www.quantum-espresso.org", 
     in publications or presentations arising from this work. More details at
     http://www.quantum-espresso.org/quote

     Parallel version (MPI), running on     8 processors

     MPI processes distributed on     1 nodes
     R & G space division:  proc/nbgrp/npool/nimage =       8
     Reading input from /storage/home/hcoda1/3/ntian30/research/carbon/CxH_vib/Thiel_calc/ads_slab/NH2NH2_perslab/out_0023/pw.inp
Warning: card &CELL ignored
Warning: card   CELL_DYNAMICS='IPI', ignored
Warning: card / ignored

     Current dimensions of program PWSCF are:
     Max number of different atomic species (ntypx) = 10
     Max number of k-points (npk) =  40000
     Max angular momentum in pseudopotentials (lmaxx) =  3
     Presently no symmetry can be used with electric field

     Message from routine cell_base_init:
     DEPRECATED: use true lattice parameter, not A to a.u. conversion factor

     **************************************************************************
     Initializing libbeef V0.1.2 with the BEEF-vdW functional.
     Citation: Wellendorff et al., PRB 85, 235149 (2012).
     **************************************************************************


     IMPORTANT: XC functional enforced from input :
     Exchange-correlation= BEEF-VDW
                           (   1   4  43  14   2   0   0)
     Any further DFT definition will be discarded
     Please, verify this is what you really want


     Subspace diagonalization in iterative solution of the eigenvalue problem:
     one sub-group per band group will be used
     scalapack distributed-memory algorithm (size of sub-group:  2*  2 procs)

  @ DRIVER MODE: Connecting to 
 qe_1139763_3255136.sched-torque.pace.gatech.edutk4a8big_scratch
  using UNIX socket
  @ DRIVER MODE: Message from server: STATUS
  @ DRIVER MODE: Message from server: INIT
  @ DRIVER MODE: Receiving replica           0          -1
  @ DRIVER MODE: Receiving encoded integer          25
  @ DRIVER MODE:  SCF:  T  FORCE:  T  STRESS:  F  VC:  F  ENSEMBLE:  F
  @ DRIVER MODE:  SCF:  T  FORCE:  T  STRESS:  F  VC:  F  ENSEMBLE:  F
 
     Parallelization info
     --------------------
     sticks:   dense  smooth     PW     G-vecs:    dense   smooth      PW
     Min         614     246     69               106272    26887    3981
     Max         615     248     70               106275    26893    3990
     Sum        4915    1977    553               850181   215109   31863
 
     Using Slab Decomposition
 


     bravais-lattice index     =            0
     lattice parameter (alat)  =       1.8897  a.u.
     unit-cell volume          =    9988.4706 (a.u.)^3
     number of atoms/cell      =           59
     number of atomic types    =            4
     number of electrons       =       440.00
     number of Kohn-Sham states=          230
     kinetic-energy cutoff     =      29.3995  Ry
     charge density cutoff     =     293.9946  Ry
     scf convergence threshold =      7.3E-08
     mixing beta               =       0.0500
     number of iterations used =            8  plain     mixing
     Exchange-correlation= BEEF-VDW
                           (   1   4  43  14   2   0   0)

     celldm(1)=   1.889726  celldm(2)=   0.000000  celldm(3)=   0.000000
     celldm(4)=   0.000000  celldm(5)=   0.000000  celldm(6)=   0.000000

     crystal axes: (cart. coord. in units of alat)
               a(1) = (   6.579727   0.000000   0.000000 )  
               a(2) = (  -0.001163   8.942395   0.000000 )  
               a(3) = (   0.000000   0.000000  25.155947 )  

     reciprocal axes: (cart. coord. in units 2 pi/alat)
               b(1) = (  0.151982  0.000020  0.000000 )  
               b(2) = (  0.000000  0.111827  0.000000 )  
               b(3) = (  0.000000  0.000000  0.039752 )  


     PseudoPot. # 1 for O  read from file:
     /storage/coda1/p-amedford6/0/shared/rich_project_chbe-medford/medford-share/data/pseudos_module/espresso/nninc/pbe/van/O.UPF
     MD5 check sum: 78c19812648e8988a0fe644b0f25305e
     Pseudo is Ultrasoft, Zval =  6.0
     Generated by new atomic code, or converted to UPF format
     Using radial grid of  737 points,  4 beta functions with: 
                l(1) =   0
                l(2) =   0
                l(3) =   1
                l(4) =   1
     Q(r) pseudized with  8 coefficients,  rinner =    0.800   0.800   0.800


     PseudoPot. # 2 for Ti read from file:
     /storage/coda1/p-amedford6/0/shared/rich_project_chbe-medford/medford-share/data/pseudos_module/espresso/nninc/pbe/van/Ti.UPF
     MD5 check sum: 8e4df49b7f0d34bbd5052bf3f5ea0213
     Pseudo is Ultrasoft, Zval = 12.0
     Generated by new atomic code, or converted to UPF format
     Using radial grid of  851 points,  6 beta functions with: 
                l(1) =   0
                l(2) =   0
                l(3) =   1
                l(4) =   1
                l(5) =   2
                l(6) =   2
     Q(r) pseudized with  8 coefficients,  rinner =    1.000   1.000   1.000
                                                       1.000   1.000

     PseudoPot. # 3 for N  read from file:
     /storage/coda1/p-amedford6/0/shared/rich_project_chbe-medford/medford-share/data/pseudos_module/espresso/nninc/pbe/van/N.UPF
     MD5 check sum: 90d10febe142ad51ac9d5be1deb811c4
     Pseudo is Ultrasoft, Zval =  5.0
     Generated by new atomic code, or converted to UPF format
     Using radial grid of  729 points,  4 beta functions with: 
                l(1) =   0
                l(2) =   0
                l(3) =   1
                l(4) =   1
     Q(r) pseudized with  8 coefficients,  rinner =    0.800   0.800   0.800


     PseudoPot. # 4 for H  read from file:
     /storage/coda1/p-amedford6/0/shared/rich_project_chbe-medford/medford-share/data/pseudos_module/espresso/nninc/pbe/van/H.UPF
     MD5 check sum: b5ee9d7bfd3a09ee7748110bda690ff7
     Pseudo is Ultrasoft, Zval =  1.0
     Generated by new atomic code, or converted to UPF format
     Using radial grid of  615 points,  1 beta functions with: 
                l(1) =   0
     Q(r) pseudized with  8 coefficients,  rinner =    0.800

     atomic species   valence    mass     pseudopotential
        O1             6.00    15.99900     O ( 1.00)
        Ti1           12.00    47.86700     Ti( 1.00)
        N1             5.00    14.00700     N ( 1.00)
        H1             1.00     1.00800     H ( 1.00)

     No symmetry found



   Cartesian axes

     site n.     atom                  positions (alat units)
         1           O1  tau(   1) = (   0.0007354   0.0005023  10.5931620  )
         2           O1  tau(   2) = (   3.2892726   8.9022636  13.7900476  )
         3           O1  tau(   3) = (  -0.0000012   0.0159539  17.0845323  )
         4           O1  tau(   4) = (   0.0006271   0.0005054   7.9858123  )
         5           O1  tau(   5) = (   3.2903981   0.0001071  11.1466942  )
         6           O1  tau(   6) = (   6.5796972   0.0370899  14.4522764  )
         7           O1  tau(   7) = (   1.9868534   1.4903216   9.2879459  )
         8           O1  tau(   8) = (   5.2071659   1.5879261  12.5336177  )
         9           O1  tau(   9) = (   2.0150580   1.5800225  15.9505780  )
        10           Ti1 tau(  10) = (   0.0007404   1.4906270   9.2895810  )
        11           Ti1 tau(  11) = (   3.2907621   1.2831726  12.4565622  )
        12           Ti1 tau(  12) = (   6.5792216   1.1939559  15.8009323  )
        13           O1  tau(  13) = (   4.5942328   1.4918067   9.2879030  )
        14           O1  tau(  14) = (   1.3733293   1.5875306  12.5337771  )
        15           O1  tau(  15) = (   4.5635363   1.5794237  15.9511286  )
        16           Ti1 tau(  16) = (   3.2902859   2.9801868   9.2893338  )
        17           Ti1 tau(  17) = (   0.0006963   2.7899128  12.4910476  )
        18           Ti1 tau(  18) = (   3.2889055   2.8853182  15.6510148  )
        19           O1  tau(  19) = (   0.0003479   2.9813005  10.5931620  )
        20           O1  tau(  20) = (   3.2901137   2.9323735  13.8075185  )
        21           O1  tau(  21) = (   0.0002396   2.9813036   7.9858123  )
        22           O1  tau(  22) = (   3.2901566   2.9796509  11.1657827  )
        23           O1  tau(  23) = (  -0.0001005   3.0518452  14.6148139  )
        24           O1  tau(  24) = (   1.9864658   4.4711199   9.2879459  )
        25           O1  tau(  25) = (   5.2244327   4.5330399  12.5550231  )
        26           O1  tau(  26) = (   2.0317078   4.4891842  16.0144209  )
        27           Ti1 tau(  27) = (   0.0003529   4.4714252   9.2895810  )
        28           Ti1 tau(  28) = (   3.2908221   4.3047718  12.5439168  )
        29           Ti1 tau(  29) = (   0.0007318   4.2809743  15.9563396  )
        30           O1  tau(  30) = (   4.5938453   4.4726049   9.2879030  )
        31           O1  tau(  31) = (   1.3553747   4.5324408  12.5551093  )
        32           O1  tau(  32) = (   4.5484712   4.4888783  16.0159471  )
        33           Ti1 tau(  33) = (   3.2898983   5.9609850   9.2893338  )
        34           Ti1 tau(  34) = (   0.0004637   5.7541984  12.5654138  )
        35           Ti1 tau(  35) = (   3.2913524   5.8154114  16.2798070  )
        36           O1  tau(  36) = (  -0.0000397   5.9620987  10.5931620  )
        37           O1  tau(  37) = (   3.2897947   5.8994426  13.7907643  )
        38           O1  tau(  38) = (   0.0001798   5.9238570  17.1594641  )
        39           O1  tau(  39) = (  -0.0001480   5.9621018   7.9858123  )
        40           O1  tau(  40) = (   3.2896433   5.9245955  11.1661191  )
        41           O1  tau(  41) = (   0.0000838   5.9808129  14.5563373  )
        42           O1  tau(  42) = (   1.9860782   7.4519181   9.2879459  )
        43           O1  tau(  43) = (   5.2244350   7.5051086  12.5363475  )
        44           O1  tau(  44) = (   2.0177701   7.5673364  15.9764862  )
        45           Ti1 tau(  45) = (  -0.0000347   7.4522234   9.2895810  )
        46           Ti1 tau(  46) = (   3.2896674   7.1828241  12.5854878  )
        47           Ti1 tau(  47) = (   0.0003403   7.2137487  16.0183084  )
        48           O1  tau(  48) = (   4.5934577   7.4534031   9.2879030  )
        49           O1  tau(  49) = (   1.3543201   7.5047529  12.5365769  )
        50           O1  tau(  50) = (   4.5609347   7.5656990  15.9757490  )
        51           Ti1 tau(  51) = (   3.2895107   8.9417832   9.2893338  )
        52           Ti1 tau(  52) = (  -0.0005834   8.7067995  12.4790564  )
        53           Ti1 tau(  53) = (   3.2900135   8.8028796  15.6464995  )
        54           N1  tau(  54) = (   3.2900669   5.9334594  18.1702238  )
        55           H1  tau(  55) = (   3.2900466   5.1481598  18.8081281  )
        56           H1  tau(  56) = (   3.2872703   6.8047138  18.6863891  )
        57           N1  tau(  57) = (   0.0002662   3.1405291  17.5422950  )
        58           H1  tau(  58) = (   0.0007553   2.2326612  18.0099153  )
        59           H1  tau(  59) = (   6.5771877   3.8386968  18.2941669  )

     number of k points=    10  Fermi-Dirac smearing, width (Ry)=  0.0073
                       cart. coord. in units 2pi/alat
        k(    1) = (   0.0000000   0.0000000   0.0000000), wk =   0.1250000
        k(    2) = (   0.0000000   0.0279567   0.0000000), wk =   0.2500000
        k(    3) = (   0.0000000  -0.0559134   0.0000000), wk =   0.1250000
        k(    4) = (   0.0379955   0.0000049   0.0000000), wk =   0.2500000
        k(    5) = (   0.0379955   0.0279617   0.0000000), wk =   0.2500000
        k(    6) = (   0.0379955  -0.0559085   0.0000000), wk =   0.2500000
        k(    7) = (   0.0379955  -0.0279518   0.0000000), wk =   0.2500000
        k(    8) = (  -0.0759910  -0.0000099   0.0000000), wk =   0.1250000
        k(    9) = (  -0.0759910   0.0279468   0.0000000), wk =   0.2500000
        k(   10) = (  -0.0759910  -0.0559233   0.0000000), wk =   0.1250000

     Dense  grid:   850181 G-vectors     FFT dimensions: (  72,  96, 270)

     Smooth grid:   215109 G-vectors     FFT dimensions: (  45,  60, 180)

     Estimated max dynamical RAM per process >     706.31 MB

     Estimated total dynamical RAM >       5.52 GB
     Cannot read rho : file not found

     Initial potential from superposition of free atoms

     starting charge  421.99910, renormalised to  440.00000

     negative rho (up, down):  3.742E-02 0.000E+00


     %%%%%%%%%%%%%%%%%%%%%%%%%%%%%%%%%%%%%%%%%%%%%%%%%%%%%%%%%%%%%%%%%%%%%%%%
     %                                                                      %
     % You are using vdW-DF, which was implemented by the Thonhauser group. %
     % Please cite the following two papers that made this development      %
     % possible and the two reviews that describe the various versions:     %
     %                                                                      %
     %   T. Thonhauser et al., PRL 115, 136402 (2015).                      %
     %   T. Thonhauser et al., PRB 76, 125112 (2007).                       %
     %   K. Berland et al., Rep. Prog. Phys. 78, 066501 (2015).             %
     %   D.C. Langreth et al., J. Phys.: Condens. Matter 21, 084203 (2009). %
     %                                                                      %
     %                                                                      %
     % If you are calculating the stress with vdW-DF, please also cite:     %
     %                                                                      %
     %   R. Sabatini et al., J. Phys.: Condens. Matter 24, 424209 (2012).   %
     %                                                                      %
     %%%%%%%%%%%%%%%%%%%%%%%%%%%%%%%%%%%%%%%%%%%%%%%%%%%%%%%%%%%%%%%%%%%%%%%%


 
     Adding external electric field

     Computed dipole along edir(3) : 
        Dipole               -3.9727 Ry au,        -10.0976 Debye
        Dipole field         -0.0050 Ry au, 
 
        Potential amp.        0.4633 Ry
        Total length         46.3494 bohr
 
     Starting wfcs are  332 atomic wfcs
  @ DRIVER MODE: Message from server: STATUS
  @ DRIVER MODE: Message from server: POSDATA
  @ DRIVER MODE: Reading and sharing cell 
  @ DRIVER MODE: Reading and sharing positions 
  @ DRIVER MODE: Received positions 

     total cpu time spent up to now is       18.6 secs

     Self-consistent Calculation

     iteration #  1     ecut=    29.40 Ry     beta= 0.05
     Davidson diagonalization with overlap
     c_bands:  1 eigenvalues not converged
     c_bands:  2 eigenvalues not converged
     c_bands:  3 eigenvalues not converged
     c_bands:  4 eigenvalues not converged
     c_bands:  4 eigenvalues not converged
     c_bands:  4 eigenvalues not converged
     c_bands:  3 eigenvalues not converged
     c_bands:  3 eigenvalues not converged
     ethr =  1.00E-05,  avg # of iterations = 19.1

     negative rho (up, down):  3.703E-02 0.000E+00
 
     Adding external electric field

     Computed dipole along edir(3) : 
        Dipole               -0.4561 Ry au,         -1.1593 Debye
        Dipole field         -0.0006 Ry au, 
 
        Potential amp.        0.0532 Ry
        Total length         46.3494 bohr
 

     total cpu time spent up to now is       92.9 secs

     total energy              =   -3293.81721453 Ry
     estimated scf accuracy    <      27.92666928 Ry

     iteration #  2     ecut=    29.40 Ry     beta= 0.05
     Davidson diagonalization with overlap
     ethr =  6.35E-03,  avg # of iterations =  1.0

     negative rho (up, down):  3.667E-02 0.000E+00
 
     Adding external electric field

     Computed dipole along edir(3) : 
        Dipole               -0.1816 Ry au,         -0.4615 Debye
        Dipole field         -0.0002 Ry au, 
 
        Potential amp.        0.0212 Ry
        Total length         46.3494 bohr
 

     total cpu time spent up to now is      113.1 secs

     total energy              =   -3294.25853773 Ry
     estimated scf accuracy    <      10.45009837 Ry

     iteration #  3     ecut=    29.40 Ry     beta= 0.05
     Davidson diagonalization with overlap
     ethr =  2.38E-03,  avg # of iterations =  1.0

     negative rho (up, down):  3.792E-02 0.000E+00
 
     Adding external electric field

     Computed dipole along edir(3) : 
        Dipole                0.8882 Ry au,          2.2575 Debye
        Dipole field          0.0011 Ry au, 
 
        Potential amp.       -0.1036 Ry
        Total length         46.3494 bohr
 

     total cpu time spent up to now is      133.7 secs

     total energy              =   -3291.29560517 Ry
     estimated scf accuracy    <       7.48766362 Ry

     iteration #  4     ecut=    29.40 Ry     beta= 0.05
     Davidson diagonalization with overlap
     ethr =  1.70E-03,  avg # of iterations =  6.1

     negative rho (up, down):  3.718E-02 0.000E+00
 
     Adding external electric field

     Computed dipole along edir(3) : 
        Dipole                0.7544 Ry au,          1.9176 Debye
        Dipole field          0.0009 Ry au, 
 
        Potential amp.       -0.0880 Ry
        Total length         46.3494 bohr
 

     total cpu time spent up to now is      166.3 secs

     total energy              =   -3293.24200724 Ry
     estimated scf accuracy    <       3.90818520 Ry

     iteration #  5     ecut=    29.40 Ry     beta= 0.05
     Davidson diagonalization with overlap
     c_bands:  1 eigenvalues not converged
     c_bands:  1 eigenvalues not converged
     ethr =  8.88E-04,  avg # of iterations =  9.6

     negative rho (up, down):  3.648E-02 0.000E+00
 
     Adding external electric field

     Computed dipole along edir(3) : 
        Dipole                0.3887 Ry au,          0.9881 Debye
        Dipole field          0.0005 Ry au, 
 
        Potential amp.       -0.0453 Ry
        Total length         46.3494 bohr
 

     total cpu time spent up to now is      191.4 secs

     total energy              =   -3293.11815464 Ry
     estimated scf accuracy    <       3.04132835 Ry

     iteration #  6     ecut=    29.40 Ry     beta= 0.05
     Davidson diagonalization with overlap
     ethr =  6.91E-04,  avg # of iterations =  2.9

     negative rho (up, down):  3.614E-02 0.000E+00
 
     Adding external electric field

     Computed dipole along edir(3) : 
        Dipole                0.2768 Ry au,          0.7035 Debye
        Dipole field          0.0003 Ry au, 
 
        Potential amp.       -0.0323 Ry
        Total length         46.3494 bohr
 

     total cpu time spent up to now is      213.7 secs

     total energy              =   -3293.15377346 Ry
     estimated scf accuracy    <       1.14402744 Ry

     iteration #  7     ecut=    29.40 Ry     beta= 0.05
     Davidson diagonalization with overlap
     ethr =  2.60E-04,  avg # of iterations =  6.4

     negative rho (up, down):  3.603E-02 0.000E+00
 
     Adding external electric field

     Computed dipole along edir(3) : 
        Dipole                0.3366 Ry au,          0.8557 Debye
        Dipole field          0.0004 Ry au, 
 
        Potential amp.       -0.0393 Ry
        Total length         46.3494 bohr
 

     total cpu time spent up to now is      238.3 secs

     total energy              =   -3293.20960768 Ry
     estimated scf accuracy    <       0.53697812 Ry

     iteration #  8     ecut=    29.40 Ry     beta= 0.05
     Davidson diagonalization with overlap
     c_bands:  1 eigenvalues not converged
     c_bands:  1 eigenvalues not converged
     c_bands:  2 eigenvalues not converged
     c_bands:  2 eigenvalues not converged
     ethr =  1.22E-04,  avg # of iterations = 13.5

     negative rho (up, down):  3.863E-02 0.000E+00
 
     Adding external electric field

     Computed dipole along edir(3) : 
        Dipole                0.6048 Ry au,          1.5373 Debye
        Dipole field          0.0008 Ry au, 
 
        Potential amp.       -0.0705 Ry
        Total length         46.3494 bohr
 

     total cpu time spent up to now is      267.5 secs

     total energy              =   -3293.19377490 Ry
     estimated scf accuracy    <       0.39421063 Ry

     iteration #  9     ecut=    29.40 Ry     beta= 0.05
     Davidson diagonalization with overlap
     c_bands:  1 eigenvalues not converged
     c_bands:  2 eigenvalues not converged
     ethr =  8.96E-05,  avg # of iterations = 11.5

     negative rho (up, down):  3.822E-02 0.000E+00
 
     Adding external electric field

     Computed dipole along edir(3) : 
        Dipole                0.5495 Ry au,          1.3967 Debye
        Dipole field          0.0007 Ry au, 
 
        Potential amp.       -0.0641 Ry
        Total length         46.3494 bohr
 

     total cpu time spent up to now is      304.1 secs

     total energy              =   -3293.29359800 Ry
     estimated scf accuracy    <       0.26551558 Ry

     iteration # 10     ecut=    29.40 Ry     beta= 0.05
     Davidson diagonalization with overlap
     ethr =  6.03E-05,  avg # of iterations =  2.7

     negative rho (up, down):  4.052E-02 0.000E+00
 
     Adding external electric field

     Computed dipole along edir(3) : 
        Dipole                0.3129 Ry au,          0.7953 Debye
        Dipole field          0.0004 Ry au, 
 
        Potential amp.       -0.0365 Ry
        Total length         46.3494 bohr
 

     total cpu time spent up to now is      325.9 secs

     total energy              =   -3293.21136265 Ry
     estimated scf accuracy    <       0.24932468 Ry

     iteration # 11     ecut=    29.40 Ry     beta= 0.05
     Davidson diagonalization with overlap
     c_bands:  1 eigenvalues not converged
     c_bands:  1 eigenvalues not converged
     c_bands:  2 eigenvalues not converged
     c_bands:  1 eigenvalues not converged
     ethr =  5.67E-05,  avg # of iterations = 15.6

     negative rho (up, down):  3.997E-02 0.000E+00
 
     Adding external electric field

     Computed dipole along edir(3) : 
        Dipole                0.4875 Ry au,          1.2392 Debye
        Dipole field          0.0006 Ry au, 
 
        Potential amp.       -0.0569 Ry
        Total length         46.3494 bohr
 

     total cpu time spent up to now is      375.2 secs

     total energy              =   -3293.30046176 Ry
     estimated scf accuracy    <       0.99917278 Ry

     iteration # 12     ecut=    29.40 Ry     beta= 0.05
     Davidson diagonalization with overlap
     ethr =  5.67E-05,  avg # of iterations =  5.0

     negative rho (up, down):  3.932E-02 0.000E+00
 
     Adding external electric field

     Computed dipole along edir(3) : 
        Dipole                0.4663 Ry au,          1.1853 Debye
        Dipole field          0.0006 Ry au, 
 
        Potential amp.       -0.0544 Ry
        Total length         46.3494 bohr
 

     total cpu time spent up to now is      398.5 secs

     total energy              =   -3293.31781272 Ry
     estimated scf accuracy    <       0.57730971 Ry

     iteration # 13     ecut=    29.40 Ry     beta= 0.05
     Davidson diagonalization with overlap
     ethr =  5.67E-05,  avg # of iterations =  1.0

     negative rho (up, down):  3.876E-02 0.000E+00
 
     Adding external electric field

     Computed dipole along edir(3) : 
        Dipole                0.7013 Ry au,          1.7826 Debye
        Dipole field          0.0009 Ry au, 
 
        Potential amp.       -0.0818 Ry
        Total length         46.3494 bohr
 

     total cpu time spent up to now is      418.9 secs

     total energy              =   -3293.24032937 Ry
     estimated scf accuracy    <       0.56662317 Ry

     iteration # 14     ecut=    29.40 Ry     beta= 0.05
     Davidson diagonalization with overlap
     ethr =  5.67E-05,  avg # of iterations =  9.6

     negative rho (up, down):  3.827E-02 0.000E+00
 
     Adding external electric field

     Computed dipole along edir(3) : 
        Dipole                0.9979 Ry au,          2.5364 Debye
        Dipole field          0.0013 Ry au, 
 
        Potential amp.       -0.1164 Ry
        Total length         46.3494 bohr
 

     total cpu time spent up to now is      450.2 secs

     total energy              =   -3293.26176433 Ry
     estimated scf accuracy    <       0.12901240 Ry

     iteration # 15     ecut=    29.40 Ry     beta= 0.05
     Davidson diagonalization with overlap
     c_bands:  1 eigenvalues not converged
     c_bands:  2 eigenvalues not converged
     c_bands:  1 eigenvalues not converged
     ethr =  2.93E-05,  avg # of iterations = 14.6

     negative rho (up, down):  3.795E-02 0.000E+00
 
     Adding external electric field

     Computed dipole along edir(3) : 
        Dipole                1.0317 Ry au,          2.6223 Debye
        Dipole field          0.0013 Ry au, 
 
        Potential amp.       -0.1203 Ry
        Total length         46.3494 bohr
 

     total cpu time spent up to now is      489.3 secs

     total energy              =   -3293.27612273 Ry
     estimated scf accuracy    <       0.06641639 Ry

     iteration # 16     ecut=    29.40 Ry     beta= 0.05
     Davidson diagonalization with overlap
     c_bands:  1 eigenvalues not converged
     c_bands:  1 eigenvalues not converged
     c_bands:  1 eigenvalues not converged
     c_bands:  1 eigenvalues not converged
     c_bands:  1 eigenvalues not converged
     c_bands:  1 eigenvalues not converged
     c_bands:  2 eigenvalues not converged
     ethr =  1.51E-05,  avg # of iterations = 19.3

     negative rho (up, down):  3.842E-02 0.000E+00
 
     Adding external electric field

     Computed dipole along edir(3) : 
        Dipole                0.9374 Ry au,          2.3826 Debye
        Dipole field          0.0012 Ry au, 
 
        Potential amp.       -0.1093 Ry
        Total length         46.3494 bohr
 

     total cpu time spent up to now is      531.8 secs

     total energy              =   -3293.32407275 Ry
     estimated scf accuracy    <       0.05925474 Ry

     iteration # 17     ecut=    29.40 Ry     beta= 0.05
     Davidson diagonalization with overlap
     c_bands:  2 eigenvalues not converged
     c_bands:  1 eigenvalues not converged
     c_bands:  1 eigenvalues not converged
     c_bands:  1 eigenvalues not converged
     c_bands:  2 eigenvalues not converged
     ethr =  1.35E-05,  avg # of iterations = 16.8

     negative rho (up, down):  3.787E-02 0.000E+00
 
     Adding external electric field

     Computed dipole along edir(3) : 
        Dipole                0.9970 Ry au,          2.5341 Debye
        Dipole field          0.0013 Ry au, 
 
        Potential amp.       -0.1163 Ry
        Total length         46.3494 bohr
 

     total cpu time spent up to now is      579.3 secs

     total energy              =   -3293.47357991 Ry
     estimated scf accuracy    <       0.45238302 Ry

     iteration # 18     ecut=    29.40 Ry     beta= 0.05
     Davidson diagonalization with overlap
     c_bands:  2 eigenvalues not converged
     c_bands:  2 eigenvalues not converged
     c_bands:  2 eigenvalues not converged
     c_bands:  2 eigenvalues not converged
     c_bands:  2 eigenvalues not converged
     c_bands:  3 eigenvalues not converged
     c_bands:  3 eigenvalues not converged
     c_bands:  4 eigenvalues not converged
     c_bands:  3 eigenvalues not converged
     ethr =  1.35E-05,  avg # of iterations = 19.9

     negative rho (up, down):  3.785E-02 0.000E+00
 
     Adding external electric field

     Computed dipole along edir(3) : 
        Dipole                1.0081 Ry au,          2.5624 Debye
        Dipole field          0.0013 Ry au, 
 
        Potential amp.       -0.1176 Ry
        Total length         46.3494 bohr
 

     total cpu time spent up to now is      635.1 secs

     total energy              =   -3293.36321132 Ry
     estimated scf accuracy    <       1.81998769 Ry

     iteration # 19     ecut=    29.40 Ry     beta= 0.05
     Davidson diagonalization with overlap
     c_bands:  1 eigenvalues not converged
     c_bands:  1 eigenvalues not converged
     c_bands:  1 eigenvalues not converged
     c_bands:  1 eigenvalues not converged
     c_bands:  1 eigenvalues not converged
     ethr =  1.35E-05,  avg # of iterations = 17.5

     negative rho (up, down):  3.782E-02 0.000E+00
 
     Adding external electric field

     Computed dipole along edir(3) : 
        Dipole                1.1394 Ry au,          2.8960 Debye
        Dipole field          0.0014 Ry au, 
 
        Potential amp.       -0.1329 Ry
        Total length         46.3494 bohr
 

     total cpu time spent up to now is      679.5 secs

     total energy              =   -3293.29223107 Ry
     estimated scf accuracy    <       0.78234547 Ry

     iteration # 20     ecut=    29.40 Ry     beta= 0.05
     Davidson diagonalization with overlap
     c_bands:  1 eigenvalues not converged
     c_bands:  1 eigenvalues not converged
     c_bands:  1 eigenvalues not converged
     ethr =  1.35E-05,  avg # of iterations = 16.3

     negative rho (up, down):  3.782E-02 0.000E+00
 
     Adding external electric field

     Computed dipole along edir(3) : 
        Dipole                1.0683 Ry au,          2.7154 Debye
        Dipole field          0.0013 Ry au, 
 
        Potential amp.       -0.1246 Ry
        Total length         46.3494 bohr
 

     total cpu time spent up to now is      723.5 secs

     total energy              =   -3293.26436225 Ry
     estimated scf accuracy    <       0.21383442 Ry

     iteration # 21     ecut=    29.40 Ry     beta= 0.05
     Davidson diagonalization with overlap
     c_bands:  3 eigenvalues not converged
     c_bands:  2 eigenvalues not converged
     c_bands:  1 eigenvalues not converged
     c_bands:  2 eigenvalues not converged
     c_bands:  1 eigenvalues not converged
     c_bands:  1 eigenvalues not converged
     c_bands:  1 eigenvalues not converged
     c_bands:  1 eigenvalues not converged
     c_bands:  3 eigenvalues not converged
     c_bands:  1 eigenvalues not converged
     ethr =  1.35E-05,  avg # of iterations = 20.0

     negative rho (up, down):  3.757E-02 0.000E+00
 
     Adding external electric field

     Computed dipole along edir(3) : 
        Dipole                0.9488 Ry au,          2.4117 Debye
        Dipole field          0.0012 Ry au, 
 
        Potential amp.       -0.1107 Ry
        Total length         46.3494 bohr
 

     total cpu time spent up to now is      773.0 secs

     total energy              =   -3293.29164662 Ry
     estimated scf accuracy    <       0.00666168 Ry

     iteration # 22     ecut=    29.40 Ry     beta= 0.05
     Davidson diagonalization with overlap
     c_bands:  1 eigenvalues not converged
     c_bands:  2 eigenvalues not converged
     c_bands:  1 eigenvalues not converged
     c_bands:  2 eigenvalues not converged
     c_bands:  1 eigenvalues not converged
     c_bands:  4 eigenvalues not converged
     c_bands:  2 eigenvalues not converged
     c_bands:  1 eigenvalues not converged
     c_bands:  1 eigenvalues not converged
     c_bands:  2 eigenvalues not converged
     ethr =  1.51E-06,  avg # of iterations = 20.0

     negative rho (up, down):  3.744E-02 0.000E+00
 
     Adding external electric field

     Computed dipole along edir(3) : 
        Dipole                0.9338 Ry au,          2.3734 Debye
        Dipole field          0.0012 Ry au, 
 
        Potential amp.       -0.1089 Ry
        Total length         46.3494 bohr
 

     total cpu time spent up to now is      813.5 secs

     total energy              =   -3293.29246556 Ry
     estimated scf accuracy    <       0.00540187 Ry

     iteration # 23     ecut=    29.40 Ry     beta= 0.05
     Davidson diagonalization with overlap
     c_bands:  1 eigenvalues not converged
     ethr =  1.23E-06,  avg # of iterations =  9.6

     negative rho (up, down):  3.744E-02 0.000E+00
 
     Adding external electric field

     Computed dipole along edir(3) : 
        Dipole                1.0076 Ry au,          2.5610 Debye
        Dipole field          0.0013 Ry au, 
 
        Potential amp.       -0.1175 Ry
        Total length         46.3494 bohr
 

     total cpu time spent up to now is      840.8 secs

     total energy              =   -3293.29311577 Ry
     estimated scf accuracy    <       0.00319979 Ry

     iteration # 24     ecut=    29.40 Ry     beta= 0.05
     Davidson diagonalization with overlap
     c_bands:  1 eigenvalues not converged
     ethr =  7.27E-07,  avg # of iterations = 12.6

     negative rho (up, down):  3.731E-02 0.000E+00
 
     Adding external electric field

     Computed dipole along edir(3) : 
        Dipole                0.9278 Ry au,          2.3584 Debye
        Dipole field          0.0012 Ry au, 
 
        Potential amp.       -0.1082 Ry
        Total length         46.3494 bohr
 

     total cpu time spent up to now is      873.4 secs

     total energy              =   -3293.29347662 Ry
     estimated scf accuracy    <       0.00329704 Ry

     iteration # 25     ecut=    29.40 Ry     beta= 0.05
     Davidson diagonalization with overlap
     c_bands:  1 eigenvalues not converged
     ethr =  7.27E-07,  avg # of iterations =  8.5

     negative rho (up, down):  3.721E-02 0.000E+00
 
     Adding external electric field

     Computed dipole along edir(3) : 
        Dipole                0.9518 Ry au,          2.4192 Debye
        Dipole field          0.0012 Ry au, 
 
        Potential amp.       -0.1110 Ry
        Total length         46.3494 bohr
 

     total cpu time spent up to now is      902.7 secs

     total energy              =   -3293.29417793 Ry
     estimated scf accuracy    <       0.00207835 Ry

     iteration # 26     ecut=    29.40 Ry     beta= 0.05
     Davidson diagonalization with overlap
     ethr =  4.72E-07,  avg # of iterations =  2.0

     negative rho (up, down):  3.708E-02 0.000E+00
 
     Adding external electric field

     Computed dipole along edir(3) : 
        Dipole                0.9706 Ry au,          2.4670 Debye
        Dipole field          0.0012 Ry au, 
 
        Potential amp.       -0.1132 Ry
        Total length         46.3494 bohr
 

     total cpu time spent up to now is      924.8 secs

     total energy              =   -3293.29393575 Ry
     estimated scf accuracy    <       0.00160326 Ry

     iteration # 27     ecut=    29.40 Ry     beta= 0.05
     Davidson diagonalization with overlap
     c_bands:  1 eigenvalues not converged
     ethr =  3.64E-07,  avg # of iterations =  7.8

     negative rho (up, down):  3.692E-02 0.000E+00
 
     Adding external electric field

     Computed dipole along edir(3) : 
        Dipole                0.9502 Ry au,          2.4151 Debye
        Dipole field          0.0012 Ry au, 
 
        Potential amp.       -0.1108 Ry
        Total length         46.3494 bohr
 

     total cpu time spent up to now is      955.6 secs

     total energy              =   -3293.29432778 Ry
     estimated scf accuracy    <       0.00047015 Ry

     iteration # 28     ecut=    29.40 Ry     beta= 0.05
     Davidson diagonalization with overlap
     ethr =  1.07E-07,  avg # of iterations =  5.4

     negative rho (up, down):  3.681E-02 0.000E+00
 
     Adding external electric field

     Computed dipole along edir(3) : 
        Dipole                0.9430 Ry au,          2.3969 Debye
        Dipole field          0.0012 Ry au, 
 
        Potential amp.       -0.1100 Ry
        Total length         46.3494 bohr
 

     total cpu time spent up to now is      982.4 secs

     total energy              =   -3293.29436726 Ry
     estimated scf accuracy    <       0.00051485 Ry

     iteration # 29     ecut=    29.40 Ry     beta= 0.05
     Davidson diagonalization with overlap
     ethr =  1.07E-07,  avg # of iterations =  5.9

     negative rho (up, down):  3.673E-02 0.000E+00
 
     Adding external electric field

     Computed dipole along edir(3) : 
        Dipole                0.9487 Ry au,          2.4113 Debye
        Dipole field          0.0012 Ry au, 
 
        Potential amp.       -0.1106 Ry
        Total length         46.3494 bohr
 

     total cpu time spent up to now is     1012.5 secs

     total energy              =   -3293.29465135 Ry
     estimated scf accuracy    <       0.00037454 Ry

     iteration # 30     ecut=    29.40 Ry     beta= 0.05
     Davidson diagonalization with overlap
     ethr =  8.51E-08,  avg # of iterations =  2.9

     negative rho (up, down):  3.663E-02 0.000E+00
 
     Adding external electric field

     Computed dipole along edir(3) : 
        Dipole                0.9625 Ry au,          2.4464 Debye
        Dipole field          0.0012 Ry au, 
 
        Potential amp.       -0.1122 Ry
        Total length         46.3494 bohr
 

     total cpu time spent up to now is     1036.8 secs

     total energy              =   -3293.29468225 Ry
     estimated scf accuracy    <       0.00034282 Ry

     iteration # 31     ecut=    29.40 Ry     beta= 0.05
     Davidson diagonalization with overlap
     ethr =  7.79E-08,  avg # of iterations =  4.1

     negative rho (up, down):  3.655E-02 0.000E+00
 
     Adding external electric field

     Computed dipole along edir(3) : 
        Dipole                0.9639 Ry au,          2.4500 Debye
        Dipole field          0.0012 Ry au, 
 
        Potential amp.       -0.1124 Ry
        Total length         46.3494 bohr
 

     total cpu time spent up to now is     1060.9 secs

     total energy              =   -3293.29477631 Ry
     estimated scf accuracy    <       0.00008815 Ry

     iteration # 32     ecut=    29.40 Ry     beta= 0.05
     Davidson diagonalization with overlap
     ethr =  2.00E-08,  avg # of iterations =  6.3

     negative rho (up, down):  3.647E-02 0.000E+00
 
     Adding external electric field

     Computed dipole along edir(3) : 
        Dipole                0.9683 Ry au,          2.4611 Debye
        Dipole field          0.0012 Ry au, 
 
        Potential amp.       -0.1129 Ry
        Total length         46.3494 bohr
 

     total cpu time spent up to now is     1095.5 secs

     total energy              =   -3293.29489986 Ry
     estimated scf accuracy    <       0.00008983 Ry

     iteration # 33     ecut=    29.40 Ry     beta= 0.05
     Davidson diagonalization with overlap
     ethr =  2.00E-08,  avg # of iterations =  5.0

     negative rho (up, down):  3.640E-02 0.000E+00
 
     Adding external electric field

     Computed dipole along edir(3) : 
        Dipole                0.9698 Ry au,          2.4649 Debye
        Dipole field          0.0012 Ry au, 
 
        Potential amp.       -0.1131 Ry
        Total length         46.3494 bohr
 

     total cpu time spent up to now is     1124.4 secs

     total energy              =   -3293.29497968 Ry
     estimated scf accuracy    <       0.00029056 Ry

     iteration # 34     ecut=    29.40 Ry     beta= 0.05
     Davidson diagonalization with overlap
     ethr =  2.00E-08,  avg # of iterations =  1.0

     negative rho (up, down):  3.634E-02 0.000E+00
 
     Adding external electric field

     Computed dipole along edir(3) : 
        Dipole                0.9658 Ry au,          2.4548 Debye
        Dipole field          0.0012 Ry au, 
 
        Potential amp.       -0.1126 Ry
        Total length         46.3494 bohr
 

     total cpu time spent up to now is     1144.7 secs

     total energy              =   -3293.29503745 Ry
     estimated scf accuracy    <       0.00032848 Ry

     iteration # 35     ecut=    29.40 Ry     beta= 0.05
     Davidson diagonalization with overlap
     ethr =  2.00E-08,  avg # of iterations =  3.1

     negative rho (up, down):  3.628E-02 0.000E+00
 
     Adding external electric field

     Computed dipole along edir(3) : 
        Dipole                0.9673 Ry au,          2.4586 Debye
        Dipole field          0.0012 Ry au, 
 
        Potential amp.       -0.1128 Ry
        Total length         46.3494 bohr
 

     total cpu time spent up to now is     1167.0 secs

     total energy              =   -3293.29508750 Ry
     estimated scf accuracy    <       0.00035638 Ry

     iteration # 36     ecut=    29.40 Ry     beta= 0.05
     Davidson diagonalization with overlap
     ethr =  2.00E-08,  avg # of iterations =  1.0

     negative rho (up, down):  3.624E-02 0.000E+00
 
     Adding external electric field

     Computed dipole along edir(3) : 
        Dipole                0.9642 Ry au,          2.4507 Debye
        Dipole field          0.0012 Ry au, 
 
        Potential amp.       -0.1124 Ry
        Total length         46.3494 bohr
 

     total cpu time spent up to now is     1187.4 secs

     total energy              =   -3293.29512909 Ry
     estimated scf accuracy    <       0.00038325 Ry

     iteration # 37     ecut=    29.40 Ry     beta= 0.05
     Davidson diagonalization with overlap
     ethr =  2.00E-08,  avg # of iterations =  1.4

     negative rho (up, down):  3.622E-02 0.000E+00
 
     Adding external electric field

     Computed dipole along edir(3) : 
        Dipole                0.9625 Ry au,          2.4463 Debye
        Dipole field          0.0012 Ry au, 
 
        Potential amp.       -0.1122 Ry
        Total length         46.3494 bohr
 

     total cpu time spent up to now is     1208.1 secs

     total energy              =   -3293.29509045 Ry
     estimated scf accuracy    <       0.00037093 Ry

     iteration # 38     ecut=    29.40 Ry     beta= 0.05
     Davidson diagonalization with overlap
     ethr =  2.00E-08,  avg # of iterations =  5.0

     negative rho (up, down):  3.618E-02 0.000E+00
 
     Adding external electric field

     Computed dipole along edir(3) : 
        Dipole                0.9613 Ry au,          2.4434 Debye
        Dipole field          0.0012 Ry au, 
 
        Potential amp.       -0.1121 Ry
        Total length         46.3494 bohr
 

     total cpu time spent up to now is     1240.5 secs

     total energy              =   -3293.29514460 Ry
     estimated scf accuracy    <       0.00005732 Ry

     iteration # 39     ecut=    29.40 Ry     beta= 0.05
     Davidson diagonalization with overlap
     ethr =  1.30E-08,  avg # of iterations =  5.0

     negative rho (up, down):  3.615E-02 0.000E+00
 
     Adding external electric field

     Computed dipole along edir(3) : 
        Dipole                0.9565 Ry au,          2.4311 Debye
        Dipole field          0.0012 Ry au, 
 
        Potential amp.       -0.1115 Ry
        Total length         46.3494 bohr
 

     total cpu time spent up to now is     1265.4 secs

     total energy              =   -3293.29517703 Ry
     estimated scf accuracy    <       0.00002085 Ry

     iteration # 40     ecut=    29.40 Ry     beta= 0.05
     Davidson diagonalization with overlap
     ethr =  4.74E-09,  avg # of iterations =  6.0

     negative rho (up, down):  3.611E-02 0.000E+00
 
     Adding external electric field

     Computed dipole along edir(3) : 
        Dipole                0.9618 Ry au,          2.4446 Debye
        Dipole field          0.0012 Ry au, 
 
        Potential amp.       -0.1122 Ry
        Total length         46.3494 bohr
 

     total cpu time spent up to now is     1306.2 secs

     total energy              =   -3293.29520088 Ry
     estimated scf accuracy    <       0.00008001 Ry

     iteration # 41     ecut=    29.40 Ry     beta= 0.05
     Davidson diagonalization with overlap
     ethr =  4.74E-09,  avg # of iterations =  5.5

     negative rho (up, down):  3.609E-02 0.000E+00
 
     Adding external electric field

     Computed dipole along edir(3) : 
        Dipole                0.9616 Ry au,          2.4440 Debye
        Dipole field          0.0012 Ry au, 
 
        Potential amp.       -0.1121 Ry
        Total length         46.3494 bohr
 

     total cpu time spent up to now is     1345.9 secs

     total energy              =   -3293.29524156 Ry
     estimated scf accuracy    <       0.00000770 Ry

     iteration # 42     ecut=    29.40 Ry     beta= 0.05
     Davidson diagonalization with overlap
     ethr =  1.75E-09,  avg # of iterations =  1.3

     negative rho (up, down):  3.607E-02 0.000E+00
 
     Adding external electric field

     Computed dipole along edir(3) : 
        Dipole                0.9595 Ry au,          2.4389 Debye
        Dipole field          0.0012 Ry au, 
 
        Potential amp.       -0.1119 Ry
        Total length         46.3494 bohr
 

     total cpu time spent up to now is     1366.6 secs

     total energy              =   -3293.29526449 Ry
     estimated scf accuracy    <       0.00000468 Ry

     iteration # 43     ecut=    29.40 Ry     beta= 0.05
     Davidson diagonalization with overlap
     ethr =  1.06E-09,  avg # of iterations =  6.0

     negative rho (up, down):  3.605E-02 0.000E+00
 
     Adding external electric field

     Computed dipole along edir(3) : 
        Dipole                0.9596 Ry au,          2.4392 Debye
        Dipole field          0.0012 Ry au, 
 
        Potential amp.       -0.1119 Ry
        Total length         46.3494 bohr
 

     total cpu time spent up to now is     1409.5 secs

     total energy              =   -3293.29528934 Ry
     estimated scf accuracy    <       0.00003163 Ry

     iteration # 44     ecut=    29.40 Ry     beta= 0.05
     Davidson diagonalization with overlap
     ethr =  1.06E-09,  avg # of iterations =  4.0

     negative rho (up, down):  3.604E-02 0.000E+00
 
     Adding external electric field

     Computed dipole along edir(3) : 
        Dipole                0.9605 Ry au,          2.4414 Debye
        Dipole field          0.0012 Ry au, 
 
        Potential amp.       -0.1120 Ry
        Total length         46.3494 bohr
 

     total cpu time spent up to now is     1433.8 secs

     total energy              =   -3293.29530321 Ry
     estimated scf accuracy    <       0.00001976 Ry

     iteration # 45     ecut=    29.40 Ry     beta= 0.05
     Davidson diagonalization with overlap
     ethr =  1.06E-09,  avg # of iterations =  6.0

     negative rho (up, down):  3.603E-02 0.000E+00
 
     Adding external electric field

     Computed dipole along edir(3) : 
        Dipole                0.9606 Ry au,          2.4416 Debye
        Dipole field          0.0012 Ry au, 
 
        Potential amp.       -0.1120 Ry
        Total length         46.3494 bohr
 

     total cpu time spent up to now is     1475.1 secs

     total energy              =   -3293.29532496 Ry
     estimated scf accuracy    <       0.00000294 Ry

     iteration # 46     ecut=    29.40 Ry     beta= 0.05
     Davidson diagonalization with overlap
     ethr =  6.69E-10,  avg # of iterations =  4.8

     negative rho (up, down):  3.602E-02 0.000E+00
 
     Adding external electric field

     Computed dipole along edir(3) : 
        Dipole                0.9606 Ry au,          2.4416 Debye
        Dipole field          0.0012 Ry au, 
 
        Potential amp.       -0.1120 Ry
        Total length         46.3494 bohr
 

     total cpu time spent up to now is     1501.7 secs

     total energy              =   -3293.29534143 Ry
     estimated scf accuracy    <       0.00000048 Ry

     iteration # 47     ecut=    29.40 Ry     beta= 0.05
     Davidson diagonalization with overlap
     ethr =  1.09E-10,  avg # of iterations =  6.2

     negative rho (up, down):  3.601E-02 0.000E+00
 
     Adding external electric field

     Computed dipole along edir(3) : 
        Dipole                0.9604 Ry au,          2.4410 Debye
        Dipole field          0.0012 Ry au, 
 
        Potential amp.       -0.1120 Ry
        Total length         46.3494 bohr
 

     total cpu time spent up to now is     1535.9 secs

     total energy              =   -3293.29535603 Ry
     estimated scf accuracy    <       0.00000044 Ry

     iteration # 48     ecut=    29.40 Ry     beta= 0.05
     Davidson diagonalization with overlap
     ethr =  9.94E-11,  avg # of iterations =  1.6

     negative rho (up, down):  3.600E-02 0.000E+00
 
     Adding external electric field

     Computed dipole along edir(3) : 
        Dipole                0.9597 Ry au,          2.4394 Debye
        Dipole field          0.0012 Ry au, 
 
        Potential amp.       -0.1119 Ry
        Total length         46.3494 bohr
 

     total cpu time spent up to now is     1557.1 secs

     total energy              =   -3293.29536895 Ry
     estimated scf accuracy    <       0.00000052 Ry

     iteration # 49     ecut=    29.40 Ry     beta= 0.05
     Davidson diagonalization with overlap
     ethr =  9.94E-11,  avg # of iterations =  5.5

     negative rho (up, down):  3.600E-02 0.000E+00
 
     Adding external electric field

     Computed dipole along edir(3) : 
        Dipole                0.9599 Ry au,          2.4398 Debye
        Dipole field          0.0012 Ry au, 
 
        Potential amp.       -0.1119 Ry
        Total length         46.3494 bohr
 

     total cpu time spent up to now is     1584.5 secs

     total energy              =   -3293.29538065 Ry
     estimated scf accuracy    <       0.00000013 Ry

     iteration # 50     ecut=    29.40 Ry     beta= 0.05
     Davidson diagonalization with overlap
     ethr =  2.86E-11,  avg # of iterations =  5.0

     negative rho (up, down):  3.599E-02 0.000E+00
 
     Adding external electric field

     Computed dipole along edir(3) : 
        Dipole                0.9601 Ry au,          2.4403 Debye
        Dipole field          0.0012 Ry au, 
 
        Potential amp.       -0.1120 Ry
        Total length         46.3494 bohr
 

     total cpu time spent up to now is     1611.4 secs

     total energy              =   -3293.29539116 Ry
     estimated scf accuracy    <       0.00000010 Ry

     iteration # 51     ecut=    29.40 Ry     beta= 0.05
     Davidson diagonalization with overlap
     ethr =  2.21E-11,  avg # of iterations =  5.3

     negative rho (up, down):  3.599E-02 0.000E+00
 
     Adding external electric field

     Computed dipole along edir(3) : 
        Dipole                0.9599 Ry au,          2.4399 Debye
        Dipole field          0.0012 Ry au, 
 
        Potential amp.       -0.1120 Ry
        Total length         46.3494 bohr
 

     total cpu time spent up to now is     1635.3 secs

     total energy              =   -3293.29540074 Ry
     estimated scf accuracy    <       0.00000008 Ry

     iteration # 52     ecut=    29.40 Ry     beta= 0.05
     Davidson diagonalization with overlap
     ethr =  1.88E-11,  avg # of iterations =  5.0

     negative rho (up, down):  3.609E-02 0.000E+00
 
     Adding external electric field

     Computed dipole along edir(3) : 
        Dipole                0.9594 Ry au,          2.4385 Debye
        Dipole field          0.0012 Ry au, 
 
        Potential amp.       -0.1119 Ry
        Total length         46.3494 bohr
 

     total cpu time spent up to now is     1667.6 secs

     End of self-consistent calculation

          k = 0.0000 0.0000 0.0000 ( 26871 PWs)   bands (ev):

   -58.4640 -58.4405 -58.4346 -58.3967 -58.3518 -58.0007 -57.9615 -57.9574
   -57.8730 -57.7532 -57.6803 -57.5695 -57.4651 -57.2189 -57.1371 -57.0667
   -57.0266 -57.0137 -34.8646 -34.8292 -34.8020 -34.7856 -34.7823 -34.7759
   -34.7271 -34.6665 -34.6395 -34.5888 -34.5761 -34.5736 -34.5679 -34.5459
   -34.5009 -34.4024 -34.3666 -34.3411 -34.3163 -34.3121 -34.2686 -34.2353
   -34.2240 -34.2181 -34.1839 -34.1815 -34.1478 -34.0505 -34.0393 -33.9809
   -33.9773 -33.9506 -33.8925 -33.8771 -33.8542 -33.8008 -33.7381 -33.7215
   -33.6796 -33.6620 -33.5772 -33.4557 -33.4433 -33.4111 -33.4100 -33.3745
   -33.3686 -33.3642 -33.3495 -33.3389 -33.2706 -33.2061 -33.1850 -33.0650
   -19.0160 -18.5530 -18.4945 -18.3444 -18.2958 -18.2760 -18.2689 -18.1184
   -17.9015 -17.8562 -17.8419 -17.8206 -17.7390 -17.7176 -17.7018 -17.6811
   -17.6648 -17.6439 -17.5558 -17.5512 -17.5287 -17.5055 -17.4842 -17.4297
   -17.3702 -17.3478 -17.2620 -17.1851 -17.1447 -16.9214 -16.6659 -16.5875
   -15.5325 -15.4913 -15.4829 -15.2623 -15.1457  -6.7113  -6.5903  -6.3509
    -6.1565  -5.9442  -5.8096  -5.6908  -5.6375  -5.5560  -5.4900  -5.4526
    -5.4504  -5.3898  -5.3427  -5.2490  -5.2425  -5.1506  -5.1012  -5.0852
    -5.0555  -5.0109  -4.9606  -4.9159  -4.8995  -4.8389  -4.7955  -4.7846
    -4.7362  -4.6741  -4.6703  -4.6527  -4.6485  -4.6127  -4.5893  -4.4588
    -4.4556  -4.4097  -4.3461  -4.2950  -4.2582  -4.2173  -4.1850  -4.1836
    -4.1666  -4.1264  -4.0878  -3.9262  -3.8709  -3.8239  -3.7917  -3.7173
    -3.6473  -3.5891  -3.5555  -3.5129  -3.4216  -3.3536  -3.3453  -3.3374
    -3.2707  -3.2273  -3.1910  -3.1601  -3.1398  -3.0774  -3.0242  -3.0242
    -2.9845  -2.9657  -2.9516  -2.9073  -2.8513  -2.8279  -2.8246  -2.7861
    -2.7796  -2.7372  -2.6403  -2.6102  -2.5498  -2.5116  -2.4564  -2.4088
    -2.4023  -2.3680  -2.3303  -2.2619  -2.1692  -2.1197  -1.9894  -1.9836
    -1.9063  -1.8960  -1.8293  -1.8018  -1.7847  -1.7385  -1.7103  -1.5972
    -1.5209  -1.4035  -1.1883  -0.9841  -0.8550  -0.7591  -0.7446  -0.7006
    -0.5616  -0.5425  -0.4696  -0.4465   0.8119   0.9474   1.1074   1.1252
     1.3249   1.4539   1.4720   1.5146   1.5711   1.7016

          k = 0.0000 0.0280 0.0000 ( 26907 PWs)   bands (ev):

   -58.4619 -58.4464 -58.4310 -58.3967 -58.3519 -58.0006 -57.9616 -57.9574
   -57.8729 -57.7533 -57.6803 -57.5695 -57.4651 -57.2190 -57.1371 -57.0661
   -57.0287 -57.0123 -34.8796 -34.8515 -34.8323 -34.8029 -34.7745 -34.7036
   -34.6911 -34.6653 -34.6335 -34.5939 -34.5885 -34.5753 -34.5544 -34.5463
   -34.5263 -34.4172 -34.3717 -34.3433 -34.3371 -34.3159 -34.2561 -34.2277
   -34.2228 -34.1847 -34.1815 -34.1728 -34.1482 -34.0505 -34.0401 -33.9995
   -33.9768 -33.9594 -33.8929 -33.8830 -33.8653 -33.8007 -33.7379 -33.7058
   -33.6686 -33.6620 -33.5731 -33.4639 -33.4433 -33.4226 -33.4107 -33.4101
   -33.3756 -33.3636 -33.3549 -33.2698 -33.2567 -33.2174 -33.1777 -33.0903
   -18.9663 -18.6004 -18.5135 -18.4012 -18.2725 -18.2344 -18.1956 -18.0860
   -18.0126 -17.9719 -17.8938 -17.7739 -17.7734 -17.7169 -17.7084 -17.6262
   -17.5935 -17.5916 -17.5682 -17.5347 -17.5133 -17.5012 -17.4424 -17.4388
   -17.3969 -17.3227 -17.2822 -17.1990 -17.1594 -16.9408 -16.6753 -16.5679
   -15.5387 -15.5239 -15.4421 -15.2608 -15.1457  -6.7153  -6.5917  -6.2838
    -6.0759  -5.8964  -5.8207  -5.7581  -5.7152  -5.5978  -5.5022  -5.4658
    -5.4441  -5.4092  -5.4004  -5.3146  -5.2943  -5.2552  -5.1457  -5.0863
    -5.0746  -4.9986  -4.9824  -4.8919  -4.8754  -4.8413  -4.7938  -4.7350
    -4.7320  -4.7208  -4.6792  -4.6636  -4.6526  -4.5898  -4.5489  -4.5460
    -4.5038  -4.4642  -4.3930  -4.3666  -4.2891  -4.1730  -4.1398  -4.0444
    -3.9834  -3.9786  -3.9213  -3.8497  -3.8309  -3.7655  -3.7176  -3.6487
    -3.6254  -3.5949  -3.5324  -3.5058  -3.4380  -3.4354  -3.4055  -3.3477
    -3.2767  -3.2685  -3.1980  -3.1727  -3.1262  -3.1241  -3.0645  -3.0472
    -3.0155  -2.9328  -2.8826  -2.8642  -2.8447  -2.7913  -2.7848  -2.7585
    -2.7099  -2.6856  -2.6711  -2.5848  -2.5790  -2.5417  -2.4794  -2.4705
    -2.4247  -2.4027  -2.3543  -2.3391  -2.2223  -2.1687  -2.0297  -2.0193
    -1.8798  -1.8674  -1.8125  -1.7973  -1.7831  -1.6814  -1.6472  -1.5982
    -1.5475  -1.3851  -1.2445  -1.1429  -0.9079  -0.8352  -0.7206  -0.6373
    -0.5920  -0.4972  -0.4918  -0.4700   0.9126   1.0032   1.0160   1.2518
     1.2993   1.3821   1.4122   1.5119   1.5315   1.6313

          k = 0.0000-0.0559 0.0000 ( 26942 PWs)   bands (ev):

   -58.4582 -58.4521 -58.4290 -58.3966 -58.3520 -58.0006 -57.9617 -57.9574
   -57.8729 -57.7534 -57.6802 -57.5696 -57.4651 -57.2191 -57.1371 -57.0655
   -57.0306 -57.0110 -34.8924 -34.8758 -34.8329 -34.8045 -34.7733 -34.6824
   -34.6659 -34.6201 -34.6136 -34.5986 -34.5961 -34.5853 -34.5752 -34.5484
   -34.5466 -34.4292 -34.3744 -34.3609 -34.3389 -34.3186 -34.2503 -34.2218
   -34.2138 -34.1859 -34.1813 -34.1488 -34.1268 -34.0507 -34.0409 -34.0280
   -33.9763 -33.9692 -33.8954 -33.8908 -33.8689 -33.8006 -33.7377 -33.6990
   -33.6621 -33.6528 -33.5650 -33.4760 -33.4466 -33.4434 -33.4105 -33.4102
   -33.3767 -33.3629 -33.3601 -33.2625 -33.2277 -33.1769 -33.1749 -33.1461
   -18.8743 -18.7374 -18.4606 -18.4245 -18.2627 -18.1453 -18.1327 -18.1193
   -18.0871 -18.0232 -18.0115 -17.7989 -17.7357 -17.7317 -17.6578 -17.6151
   -17.5867 -17.5728 -17.5358 -17.4962 -17.4913 -17.4786 -17.4612 -17.4549
   -17.3857 -17.3175 -17.2730 -17.2377 -17.1734 -16.9594 -16.6807 -16.5527
   -15.5469 -15.5336 -15.4222 -15.2593 -15.1458  -6.7192  -6.5931  -6.1610
    -6.0009  -5.8653  -5.8574  -5.8441  -5.7171  -5.6135  -5.5807  -5.5256
    -5.5083  -5.4493  -5.3863  -5.3401  -5.3196  -5.2149  -5.1828  -5.1719
    -5.1250  -5.0161  -4.9718  -4.9445  -4.9427  -4.8841  -4.7995  -4.7852
    -4.7382  -4.7268  -4.6737  -4.6147  -4.5980  -4.5841  -4.5511  -4.4784
    -4.4216  -4.4186  -4.3957  -4.3528  -4.2114  -4.1320  -4.0677  -4.0543
    -4.0500  -3.9979  -3.9470  -3.8717  -3.7871  -3.6711  -3.6625  -3.6480
    -3.5887  -3.5472  -3.4643  -3.4298  -3.3609  -3.3599  -3.2479  -3.2251
    -3.2164  -3.2074  -3.1822  -3.1778  -3.1659  -3.1528  -3.1206  -3.1106
    -3.0738  -3.0302  -2.9838  -2.8881  -2.8788  -2.8108  -2.7656  -2.7521
    -2.7237  -2.6774  -2.6757  -2.6510  -2.6186  -2.5653  -2.5519  -2.5075
    -2.4290  -2.3984  -2.3032  -2.2799  -2.2789  -2.1849  -2.0529  -2.0015
    -1.9013  -1.8626  -1.8164  -1.7771  -1.7418  -1.6519  -1.5581  -1.5576
    -1.5207  -1.4206  -1.3619  -1.3320  -1.0221  -0.8161  -0.6843  -0.6258
    -0.5757  -0.5590  -0.4776  -0.4680   0.9564   1.0030   1.1803   1.2632
     1.2656   1.3482   1.3668   1.4631   1.4751   1.5379

          k = 0.0380 0.0000 0.0000 ( 26897 PWs)   bands (ev):

   -58.4639 -58.4406 -58.4347 -58.3967 -58.3518 -58.0007 -57.9616 -57.9574
   -57.8730 -57.7532 -57.6804 -57.5695 -57.4651 -57.2189 -57.1372 -57.0667
   -57.0266 -57.0138 -34.8649 -34.8293 -34.8021 -34.7866 -34.7832 -34.7760
   -34.7273 -34.6665 -34.6376 -34.5888 -34.5744 -34.5722 -34.5676 -34.5473
   -34.5006 -34.4032 -34.3666 -34.3416 -34.3123 -34.3120 -34.2690 -34.2355
   -34.2294 -34.2219 -34.1825 -34.1630 -34.1514 -34.0505 -34.0458 -33.9830
   -33.9795 -33.9512 -33.8925 -33.8772 -33.8559 -33.7933 -33.7382 -33.7213
   -33.6796 -33.6668 -33.5772 -33.4557 -33.4445 -33.4123 -33.4106 -33.3752
   -33.3687 -33.3639 -33.3494 -33.3390 -33.2704 -33.2062 -33.1851 -33.0648
   -18.9663 -18.4928 -18.4748 -18.3314 -18.2645 -18.2533 -18.1990 -18.1143
   -17.9253 -17.9069 -17.9050 -17.8431 -17.7477 -17.7221 -17.6664 -17.6590
   -17.6517 -17.6308 -17.6202 -17.6093 -17.5477 -17.5366 -17.5089 -17.4683
   -17.3982 -17.3862 -17.2315 -17.1694 -17.1361 -16.9188 -16.6663 -16.5850
   -15.5298 -15.4917 -15.4832 -15.2615 -15.1460  -6.7027  -6.5962  -6.3145
    -5.8784  -5.7750  -5.7015  -5.6438  -5.5928  -5.5697  -5.5459  -5.4915
    -5.3941  -5.3558  -5.3117  -5.2332  -5.1611  -5.1362  -5.1102  -5.0805
    -5.0415  -5.0292  -4.9385  -4.9149  -4.8387  -4.8151  -4.8006  -4.7828
    -4.7685  -4.7218  -4.6990  -4.6736  -4.6009  -4.5741  -4.5515  -4.5006
    -4.4124  -4.3896  -4.3710  -4.3201  -4.3087  -4.2815  -4.2468  -4.2111
    -4.1554  -4.0234  -3.9693  -3.9008  -3.8929  -3.8501  -3.7869  -3.7658
    -3.6918  -3.5867  -3.5631  -3.5128  -3.4352  -3.4250  -3.3932  -3.3478
    -3.3264  -3.3038  -3.2556  -3.1822  -3.1247  -3.1080  -3.0905  -3.0763
    -3.0643  -3.0142  -2.9604  -2.9424  -2.9164  -2.8729  -2.8003  -2.7414
    -2.7202  -2.6571  -2.6427  -2.6018  -2.5808  -2.5149  -2.4772  -2.4346
    -2.3588  -2.3380  -2.3117  -2.2939  -2.2165  -2.0665  -2.0198  -1.9946
    -1.9223  -1.8506  -1.8154  -1.7952  -1.7470  -1.7366  -1.6967  -1.6847
    -1.5865  -1.5164  -1.3019  -0.9795  -0.8301  -0.7647  -0.7345  -0.7120
    -0.6096  -0.5929  -0.5346  -0.5317   0.8749   1.0460   1.0691   1.0986
     1.1780   1.3396   1.3834   1.4276   1.4886   1.5373

          k = 0.0380 0.0280 0.0000 ( 26880 PWs)   bands (ev):

   -58.4619 -58.4464 -58.4309 -58.3966 -58.3519 -58.0006 -57.9616 -57.9574
   -57.8729 -57.7533 -57.6803 -57.5695 -57.4651 -57.2190 -57.1371 -57.0661
   -57.0287 -57.0122 -34.8797 -34.8521 -34.8323 -34.8029 -34.7744 -34.7038
   -34.6916 -34.6654 -34.6319 -34.5932 -34.5884 -34.5726 -34.5540 -34.5476
   -34.5265 -34.4179 -34.3717 -34.3395 -34.3373 -34.3162 -34.2564 -34.2280
   -34.2209 -34.1931 -34.1834 -34.1545 -34.1495 -34.0505 -34.0472 -33.9986
   -33.9813 -33.9602 -33.8930 -33.8833 -33.8660 -33.7935 -33.7380 -33.7057
   -33.6688 -33.6666 -33.5730 -33.4639 -33.4445 -33.4223 -33.4119 -33.4106
   -33.3767 -33.3627 -33.3548 -33.2698 -33.2566 -33.2174 -33.1776 -33.0904
   -18.9204 -18.5785 -18.4533 -18.3741 -18.2314 -18.1927 -18.1550 -18.0795
   -17.9727 -17.9570 -17.9316 -17.8896 -17.8391 -17.7136 -17.7057 -17.6641
   -17.6412 -17.6034 -17.5695 -17.5449 -17.5341 -17.5198 -17.4899 -17.4271
   -17.4110 -17.3976 -17.2368 -17.1809 -17.1467 -16.9357 -16.6737 -16.5661
   -15.5368 -15.5233 -15.4421 -15.2599 -15.1461  -6.7071  -6.5974  -6.2491
    -5.8168  -5.7981  -5.7437  -5.7153  -5.6936  -5.5497  -5.5372  -5.4828
    -5.4120  -5.3180  -5.2879  -5.2632  -5.2193  -5.1859  -5.1449  -5.1065
    -5.0700  -5.0240  -5.0073  -4.9828  -4.9181  -4.8604  -4.8189  -4.7683
    -4.7503  -4.7121  -4.6938  -4.6647  -4.6385  -4.5694  -4.5237  -4.5126
    -4.4408  -4.3424  -4.3058  -4.2566  -4.2107  -4.1890  -4.1561  -4.1066
    -4.0398  -4.0037  -3.9512  -3.9048  -3.8311  -3.7701  -3.7448  -3.7008
    -3.6729  -3.6085  -3.5716  -3.5465  -3.5185  -3.4495  -3.3911  -3.3487
    -3.3039  -3.2794  -3.2416  -3.1716  -3.1491  -3.1357  -3.1219  -3.0946
    -3.0320  -2.9886  -2.9810  -2.9407  -2.8777  -2.8407  -2.7966  -2.7547
    -2.7223  -2.6949  -2.6632  -2.6410  -2.5919  -2.5750  -2.5446  -2.4671
    -2.4296  -2.3764  -2.3129  -2.2306  -2.1718  -2.1201  -2.0582  -2.0251
    -1.9046  -1.8749  -1.8370  -1.7946  -1.7602  -1.7047  -1.6553  -1.6169
    -1.5518  -1.5040  -1.3268  -1.1546  -0.9007  -0.8142  -0.7198  -0.6327
    -0.6017  -0.5800  -0.5397  -0.5337   0.9287   0.9586   1.1710   1.2085
     1.2300   1.3169   1.3327   1.4002   1.4915   1.5225

          k = 0.0380-0.0559 0.0000 ( 26850 PWs)   bands (ev):

   -58.4582 -58.4521 -58.4289 -58.3966 -58.3520 -58.0005 -57.9616 -57.9574
   -57.8729 -57.7534 -57.6802 -57.5695 -57.4650 -57.2190 -57.1370 -57.0654
   -57.0306 -57.0110 -34.8925 -34.8764 -34.8329 -34.8045 -34.7732 -34.6823
   -34.6659 -34.6187 -34.6123 -34.5987 -34.5963 -34.5853 -34.5724 -34.5486
   -34.5474 -34.4299 -34.3744 -34.3570 -34.3391 -34.3188 -34.2503 -34.2199
   -34.2141 -34.1848 -34.1774 -34.1532 -34.1202 -34.0507 -34.0488 -34.0258
   -33.9803 -33.9700 -33.8956 -33.8909 -33.8692 -33.7935 -33.7378 -33.6988
   -33.6668 -33.6526 -33.5649 -33.4759 -33.4462 -33.4445 -33.4114 -33.4104
   -33.3781 -33.3617 -33.3600 -33.2624 -33.2277 -33.1768 -33.1748 -33.1460
   -18.8394 -18.6964 -18.4363 -18.3721 -18.2014 -18.1125 -18.1028 -18.0699
   -18.0400 -17.9836 -17.9811 -17.9477 -17.9158 -17.7220 -17.6862 -17.6719
   -17.6069 -17.6022 -17.5475 -17.5186 -17.5102 -17.4983 -17.4624 -17.4350
   -17.4163 -17.3850 -17.2403 -17.1980 -17.1570 -16.9513 -16.6779 -16.5509
   -15.5455 -15.5323 -15.4219 -15.2583 -15.1461  -6.7116  -6.5986  -6.1345
    -5.9484  -5.8527  -5.7647  -5.6235  -5.5927  -5.5892  -5.5382  -5.4975
    -5.4348  -5.3722  -5.3377  -5.3166  -5.2313  -5.2111  -5.1801  -5.1425
    -5.1061  -5.0911  -5.0516  -4.9767  -4.9394  -4.8536  -4.8364  -4.8110
    -4.7791  -4.7463  -4.6908  -4.6809  -4.6254  -4.5477  -4.5012  -4.4114
    -4.3841  -4.3092  -4.2587  -4.2104  -4.1917  -4.1609  -4.0647  -4.0294
    -4.0118  -4.0036  -3.9020  -3.8056  -3.7695  -3.7083  -3.6892  -3.6674
    -3.6337  -3.6030  -3.5967  -3.5126  -3.4921  -3.4406  -3.4105  -3.3598
    -3.3233  -3.2824  -3.2482  -3.1946  -3.1565  -3.1077  -3.1005  -3.0689
    -3.0636  -3.0307  -3.0143  -2.9215  -2.8979  -2.8754  -2.8285  -2.8023
    -2.7799  -2.7395  -2.6999  -2.6576  -2.6352  -2.5950  -2.5311  -2.4809
    -2.4417  -2.3669  -2.3346  -2.2338  -2.1651  -2.1249  -2.0857  -2.0148
    -1.9629  -1.8957  -1.7825  -1.7646  -1.7505  -1.6441  -1.6199  -1.5653
    -1.5403  -1.4578  -1.4103  -1.3546  -1.0100  -0.7982  -0.6761  -0.6194
    -0.5813  -0.5747  -0.5642  -0.5352   0.9157   1.0126   1.1916   1.2424
     1.2719   1.3513   1.4130   1.4613   1.4650   1.4902

          k = 0.0380-0.0280 0.0000 ( 26873 PWs)   bands (ev):

   -58.4619 -58.4464 -58.4309 -58.3966 -58.3519 -58.0006 -57.9616 -57.9574
   -57.8729 -57.7533 -57.6803 -57.5695 -57.4651 -57.2190 -57.1371 -57.0661
   -57.0287 -57.0122 -34.8796 -34.8521 -34.8323 -34.8029 -34.7744 -34.7038
   -34.6916 -34.6654 -34.6319 -34.5932 -34.5884 -34.5726 -34.5540 -34.5476
   -34.5265 -34.4178 -34.3717 -34.3395 -34.3373 -34.3162 -34.2564 -34.2280
   -34.2209 -34.1930 -34.1834 -34.1546 -34.1495 -34.0505 -34.0472 -33.9986
   -33.9813 -33.9602 -33.8930 -33.8833 -33.8660 -33.7935 -33.7380 -33.7057
   -33.6688 -33.6666 -33.5730 -33.4639 -33.4445 -33.4223 -33.4119 -33.4105
   -33.3767 -33.3627 -33.3548 -33.2697 -33.2566 -33.2174 -33.1776 -33.0904
   -18.9204 -18.5784 -18.4533 -18.3741 -18.2314 -18.1927 -18.1550 -18.0795
   -17.9730 -17.9573 -17.9312 -17.8896 -17.8387 -17.7140 -17.7059 -17.6640
   -17.6407 -17.6035 -17.5695 -17.5453 -17.5342 -17.5197 -17.4900 -17.4268
   -17.4111 -17.3978 -17.2368 -17.1809 -17.1467 -16.9357 -16.6736 -16.5661
   -15.5368 -15.5233 -15.4421 -15.2599 -15.1461  -6.7071  -6.5974  -6.2491
    -5.8167  -5.7978  -5.7436  -5.7155  -5.6937  -5.5497  -5.5373  -5.4830
    -5.4121  -5.3190  -5.2880  -5.2631  -5.2190  -5.1855  -5.1447  -5.1062
    -5.0701  -5.0238  -5.0073  -4.9828  -4.9179  -4.8607  -4.8192  -4.7687
    -4.7505  -4.7125  -4.6937  -4.6645  -4.6387  -4.5687  -4.5236  -4.5125
    -4.4406  -4.3427  -4.3059  -4.2571  -4.2106  -4.1893  -4.1564  -4.1064
    -4.0403  -4.0030  -3.9508  -3.9052  -3.8306  -3.7698  -3.7445  -3.7007
    -3.6724  -3.6088  -3.5718  -3.5465  -3.5182  -3.4493  -3.3911  -3.3483
    -3.3041  -3.2795  -3.2418  -3.1718  -3.1493  -3.1363  -3.1222  -3.0951
    -3.0318  -2.9886  -2.9816  -2.9408  -2.8772  -2.8400  -2.7966  -2.7539
    -2.7224  -2.6952  -2.6634  -2.6404  -2.5920  -2.5744  -2.5445  -2.4670
    -2.4294  -2.3766  -2.3133  -2.2309  -2.1718  -2.1201  -2.0581  -2.0251
    -1.9045  -1.8751  -1.8373  -1.7947  -1.7603  -1.7042  -1.6555  -1.6176
    -1.5517  -1.5039  -1.3268  -1.1546  -0.9008  -0.8143  -0.7198  -0.6326
    -0.6023  -0.5800  -0.5393  -0.5337   0.9288   0.9587   1.1715   1.2089
     1.2304   1.3162   1.3330   1.4001   1.4914   1.5228

          k =-0.0760-0.0000 0.0000 ( 26902 PWs)   bands (ev):

   -58.4639 -58.4406 -58.4347 -58.3967 -58.3518 -58.0006 -57.9616 -57.9574
   -57.8730 -57.7532 -57.6804 -57.5695 -57.4651 -57.2189 -57.1372 -57.0666
   -57.0266 -57.0138 -34.8650 -34.8293 -34.8021 -34.7873 -34.7839 -34.7761
   -34.7275 -34.6665 -34.6357 -34.5888 -34.5738 -34.5702 -34.5673 -34.5480
   -34.5006 -34.4039 -34.3667 -34.3420 -34.3124 -34.3077 -34.2695 -34.2357
   -34.2352 -34.2198 -34.1820 -34.1597 -34.1424 -34.0538 -34.0505 -33.9875
   -33.9795 -33.9518 -33.8924 -33.8773 -33.8572 -33.7855 -33.7384 -33.7210
   -33.6796 -33.6722 -33.5772 -33.4557 -33.4457 -33.4137 -33.4111 -33.3758
   -33.3686 -33.3636 -33.3494 -33.3389 -33.2704 -33.2062 -33.1852 -33.0648
   -18.9128 -18.4889 -18.3843 -18.3134 -18.2498 -18.2346 -18.0807 -18.0603
   -17.9657 -17.9533 -17.9106 -17.8612 -17.7992 -17.7667 -17.7281 -17.7184
   -17.6738 -17.6499 -17.6330 -17.6075 -17.5907 -17.5744 -17.5458 -17.4463
   -17.3915 -17.3819 -17.2207 -17.1601 -17.1277 -16.9169 -16.6668 -16.5828
   -15.5273 -15.4920 -15.4835 -15.2607 -15.1464  -6.6928  -6.6039  -6.2935
    -5.6753  -5.6229  -5.5761  -5.5251  -5.4952  -5.4859  -5.4361  -5.4279
    -5.3792  -5.3060  -5.2898  -5.2104  -5.1509  -5.1395  -5.0504  -5.0141
    -5.0024  -4.9880  -4.9684  -4.9463  -4.9384  -4.9232  -4.9029  -4.8931
    -4.8749  -4.8529  -4.7646  -4.6570  -4.6296  -4.5331  -4.5300  -4.5050
    -4.3961  -4.3813  -4.2378  -4.2193  -4.2102  -4.1954  -4.1707  -4.1320
    -4.0613  -4.0519  -4.0100  -3.9735  -3.9324  -3.8733  -3.8100  -3.7987
    -3.6835  -3.6481  -3.6360  -3.5820  -3.5327  -3.4975  -3.4820  -3.4131
    -3.4027  -3.3135  -3.2346  -3.2003  -3.1677  -3.1238  -3.1108  -3.0946
    -3.0506  -3.0364  -3.0225  -2.9236  -2.9230  -2.8715  -2.8309  -2.8071
    -2.7826  -2.7542  -2.6950  -2.5894  -2.5616  -2.5036  -2.4381  -2.4318
    -2.4053  -2.3133  -2.2801  -2.1892  -2.1620  -2.1286  -1.9962  -1.9380
    -1.9378  -1.8142  -1.7974  -1.7612  -1.7465  -1.7314  -1.7254  -1.6933
    -1.6768  -1.6578  -1.4386  -0.9751  -0.7787  -0.7440  -0.7186  -0.7064
    -0.6584  -0.6439  -0.6384  -0.5957   0.8915   0.9248   1.0397   1.0653
     1.2239   1.2842   1.3350   1.3380   1.4033   1.5681

          k =-0.0760 0.0279 0.0000 ( 26908 PWs)   bands (ev):

   -58.4619 -58.4464 -58.4310 -58.3966 -58.3519 -58.0006 -57.9616 -57.9574
   -57.8729 -57.7533 -57.6803 -57.5695 -57.4651 -57.2190 -57.1371 -57.0661
   -57.0287 -57.0122 -34.8799 -34.8529 -34.8323 -34.8029 -34.7745 -34.7040
   -34.6921 -34.6654 -34.6303 -34.5925 -34.5885 -34.5706 -34.5541 -34.5485
   -34.5265 -34.4187 -34.3718 -34.3376 -34.3358 -34.3165 -34.2566 -34.2283
   -34.2191 -34.1964 -34.1830 -34.1589 -34.1344 -34.0562 -34.0505 -33.9976
   -33.9861 -33.9610 -33.8930 -33.8837 -33.8666 -33.7861 -33.7382 -33.7056
   -33.6722 -33.6685 -33.5730 -33.4639 -33.4459 -33.4221 -33.4132 -33.4111
   -33.3779 -33.3622 -33.3549 -33.2697 -33.2566 -33.2175 -33.1777 -33.0904
   -18.8717 -18.5583 -18.3966 -18.3259 -18.1920 -18.1891 -18.0558 -18.0191
   -18.0101 -17.9448 -17.9302 -17.8321 -17.8129 -17.7943 -17.7687 -17.7636
   -17.7385 -17.6932 -17.6851 -17.6366 -17.5352 -17.5191 -17.4625 -17.3997
   -17.3931 -17.3717 -17.2247 -17.1695 -17.1362 -16.9316 -16.6722 -16.5645
   -15.5351 -15.5227 -15.4421 -15.2590 -15.1465  -6.6982  -6.6044  -6.2282
    -5.7951  -5.7881  -5.7271  -5.5361  -5.4276  -5.3951  -5.3919  -5.3790
    -5.3381  -5.3018  -5.2964  -5.2481  -5.1884  -5.1432  -5.1382  -5.1031
    -5.0265  -4.9997  -4.9977  -4.9736  -4.9065  -4.8885  -4.8641  -4.8283
    -4.8243  -4.7578  -4.6920  -4.6775  -4.6679  -4.6026  -4.5888  -4.4825
    -4.4349  -4.3516  -4.2806  -4.2410  -4.2042  -4.1300  -4.0733  -4.0585
    -4.0265  -3.9683  -3.9226  -3.8653  -3.8550  -3.8082  -3.8053  -3.7325
    -3.6620  -3.6569  -3.6502  -3.6060  -3.5277  -3.4955  -3.4612  -3.4167
    -3.3657  -3.3489  -3.2793  -3.2214  -3.1651  -3.1501  -3.1261  -3.1054
    -3.0619  -3.0085  -2.9844  -2.9381  -2.9345  -2.8899  -2.8647  -2.8476
    -2.7733  -2.7693  -2.7473  -2.6732  -2.6454  -2.6221  -2.5134  -2.4849
    -2.4067  -2.3356  -2.2139  -2.1786  -2.1445  -2.0213  -2.0211  -1.9549
    -1.9185  -1.9163  -1.9083  -1.8416  -1.7096  -1.7090  -1.6618  -1.6443
    -1.6013  -1.5205  -1.4249  -1.1700  -0.8906  -0.7402  -0.7230  -0.6713
    -0.6387  -0.6139  -0.6135  -0.5707   0.8955   0.9395   1.0290   1.1716
     1.2565   1.2671   1.3039   1.3289   1.4471   1.5042

          k =-0.0760-0.0559 0.0000 ( 26868 PWs)   bands (ev):

   -58.4582 -58.4521 -58.4289 -58.3965 -58.3519 -58.0005 -57.9616 -57.9573
   -57.8729 -57.7534 -57.6802 -57.5695 -57.4650 -57.2190 -57.1370 -57.0654
   -57.0306 -57.0109 -34.8926 -34.8770 -34.8329 -34.8044 -34.7731 -34.6824
   -34.6659 -34.6176 -34.6112 -34.5990 -34.5966 -34.5853 -34.5707 -34.5493
   -34.5480 -34.4307 -34.3744 -34.3530 -34.3393 -34.3190 -34.2503 -34.2182
   -34.2144 -34.1842 -34.1742 -34.1580 -34.1116 -34.0585 -34.0505 -34.0245
   -33.9848 -33.9710 -33.8959 -33.8910 -33.8694 -33.7863 -33.7379 -33.6987
   -33.6722 -33.6526 -33.5648 -33.4758 -33.4460 -33.4460 -33.4127 -33.4110
   -33.3797 -33.3611 -33.3600 -33.2624 -33.2276 -33.1768 -33.1748 -33.1460
   -18.8030 -18.6544 -18.4089 -18.3102 -18.1469 -18.0994 -18.0464 -18.0362
   -18.0305 -17.9350 -17.9174 -17.8740 -17.8676 -17.8165 -17.7920 -17.7813
   -17.7731 -17.7414 -17.6753 -17.6188 -17.5330 -17.4403 -17.4279 -17.4122
   -17.4054 -17.3277 -17.2282 -17.1812 -17.1448 -16.9448 -16.6754 -16.5493
   -15.5443 -15.5311 -15.4216 -15.2573 -15.1465  -6.7036  -6.6048  -6.1149
    -5.9198  -5.8878  -5.8471  -5.5297  -5.4865  -5.3824  -5.3541  -5.3494
    -5.3221  -5.2783  -5.2393  -5.1843  -5.1491  -5.1318  -5.1229  -5.1065
    -5.0785  -5.0303  -5.0064  -4.9633  -4.9580  -4.9426  -4.9146  -4.8901
    -4.8414  -4.8318  -4.7608  -4.7502  -4.7163  -4.5292  -4.4677  -4.4058
    -4.3564  -4.2904  -4.2723  -4.1841  -4.1827  -4.1035  -4.0987  -4.0336
    -3.9721  -3.8866  -3.8063  -3.7970  -3.7743  -3.7467  -3.7135  -3.6812
    -3.6585  -3.6381  -3.5979  -3.5501  -3.5124  -3.4394  -3.4072  -3.4003
    -3.3614  -3.3400  -3.3288  -3.3247  -3.3080  -3.2060  -3.1978  -3.1374
    -3.1039  -3.0974  -3.0271  -3.0224  -2.9709  -2.9451  -2.8752  -2.8406
    -2.8279  -2.7399  -2.7324  -2.7286  -2.6478  -2.6376  -2.5373  -2.5041
    -2.4193  -2.2944  -2.1746  -2.1726  -2.1636  -2.0422  -2.0396  -2.0288
    -1.9843  -1.9206  -1.8977  -1.7134  -1.7107  -1.6654  -1.5958  -1.5736
    -1.5492  -1.5344  -1.4177  -1.3964  -0.9918  -0.7370  -0.6772  -0.6717
    -0.6413  -0.6096  -0.5759  -0.5672   0.8636   1.0240   1.1021   1.1677
     1.1932   1.2369   1.2688   1.4429   1.5057   1.5123

     the Fermi energy is     0.2226 ev

!    total energy              =   -3293.29548856 Ry
     estimated scf accuracy    <       0.00000007 Ry
     smearing contrib. (-TS)   =      -0.00051797 Ry
     internal energy E=F+TS    =   -3293.29497059 Ry

     The total energy is F=E-TS. E is the sum of the following terms:
     one-electron contribution =  -34588.97986352 Ry
     hartree contribution      =   17356.39332168 Ry
     xc contribution           =    -542.07199632 Ry
     ewald contribution        =   14481.36240961 Ry
     electric field correction =       0.00115796 Ry

     convergence has been achieved in  52 iterations

     Forces acting on atoms (cartesian axes, Ry/au):

     atom    1 type  1   force =    -0.00000703    0.00891461    0.04218844
     atom    2 type  1   force =     0.00002257   -0.00249830   -0.00293095
     atom    3 type  1   force =    -0.00003301   -0.00636835   -0.00096191
     atom    4 type  1   force =     0.00004708    0.00395200    0.10169882
     atom    5 type  1   force =     0.00002034   -0.00058251    0.00719309
     atom    6 type  1   force =    -0.00002433    0.00085647    0.00282393
     atom    7 type  1   force =     0.07636454    0.00119405   -0.03508759
     atom    8 type  1   force =     0.00750146   -0.02414278    0.00122240
     atom    9 type  1   force =     0.00799933   -0.02080234    0.00180693
     atom   10 type  2   force =    -0.00004183   -0.00384070   -0.16970812
     atom   11 type  2   force =    -0.00011413    0.02225266   -0.00327788
     atom   12 type  2   force =    -0.00000384    0.02047604   -0.00588047
     atom   13 type  1   force =    -0.07645899    0.00074107   -0.03503860
     atom   14 type  1   force =    -0.00758233   -0.02401810    0.00121589
     atom   15 type  1   force =    -0.00794560   -0.02088558    0.00181585
     atom   16 type  2   force =     0.00009749    0.00207711    0.07524494
     atom   17 type  2   force =     0.00021378    0.02913129    0.00199066
     atom   18 type  2   force =    -0.00009418    0.02421965   -0.00008140
     atom   19 type  1   force =     0.00000448    0.00222735    0.05606617
     atom   20 type  1   force =     0.00000287   -0.00076989   -0.00265727
     atom   21 type  1   force =     0.00004739   -0.00273892    0.10232915
     atom   22 type  1   force =     0.00000905   -0.00166217    0.00634594
     atom   23 type  1   force =    -0.00001732   -0.00400335    0.00135391
     atom   24 type  1   force =     0.07836140   -0.00055813   -0.03676778
     atom   25 type  1   force =     0.00974901   -0.02948986   -0.00098706
     atom   26 type  1   force =     0.01138056   -0.02668276   -0.00656574
     atom   27 type  2   force =    -0.00005562    0.01458162   -0.15611650
     atom   28 type  2   force =    -0.00013622    0.02624957   -0.00050788
     atom   29 type  2   force =     0.00004150    0.02489110    0.00020957
     atom   30 type  1   force =    -0.07845755   -0.00098662   -0.03671705
     atom   31 type  1   force =    -0.00981232   -0.02934487   -0.00098892
     atom   32 type  1   force =    -0.01125301   -0.02674554   -0.00661973
     atom   33 type  2   force =     0.00010230   -0.00383991    0.07805794
     atom   34 type  2   force =     0.00019610    0.03434614    0.00337040
     atom   35 type  2   force =    -0.00011424    0.03136630    0.00648902
     atom   36 type  1   force =     0.00001898    0.00149137    0.05142985
     atom   37 type  1   force =     0.00002300   -0.00165241   -0.00237932
     atom   38 type  1   force =    -0.00002152   -0.00318930    0.00010696
     atom   39 type  1   force =     0.00004843    0.00037225    0.09994872
     atom   40 type  1   force =     0.00001669   -0.00068511    0.00654142
     atom   41 type  1   force =    -0.00002657   -0.00066160    0.00411309
     atom   42 type  1   force =     0.07943942    0.00172338   -0.03465766
     atom   43 type  1   force =     0.00604611   -0.02323957    0.00043223
     atom   44 type  1   force =     0.00714661   -0.02149408    0.00392106
     atom   45 type  2   force =    -0.00005375   -0.01583935   -0.15540250
     atom   46 type  2   force =    -0.00010901    0.01693220    0.00081470
     atom   47 type  2   force =     0.00002976    0.02038379   -0.00105367
     atom   48 type  1   force =    -0.07953288    0.00128300   -0.03460534
     atom   49 type  1   force =    -0.00616140   -0.02312547    0.00042320
     atom   50 type  1   force =    -0.00700873   -0.02152233    0.00391651
     atom   51 type  2   force =     0.00008811   -0.00446983    0.06173885
     atom   52 type  2   force =     0.00020007    0.02906176    0.00059712
     atom   53 type  2   force =    -0.00014716    0.02939445    0.00001275
     atom   54 type  3   force =     0.00001242    0.00162578   -0.00102638
     atom   55 type  4   force =     0.00002809   -0.00040786    0.00023679
     atom   56 type  4   force =    -0.00005460   -0.00009816   -0.00009743
     atom   57 type  3   force =    -0.00003336   -0.00245595    0.01834030
     atom   58 type  4   force =     0.00005934    0.00676924   -0.00517378
     atom   59 type  4   force =    -0.00001775   -0.00771256   -0.00870569

     Total force =     0.439773     Total SCF correction =     0.000668
  @ DRIVER MODE: Message from server: STATUS
  @ DRIVER MODE: Message from server: GETFORCE
  @ DRIVER MODE: Returning v,forces,stress,ensemble 

     Writing output data file ./calc.save/
  @ DRIVER MODE: Message from server: EXIT
  @ DRIVE MODE: Exiting  
 
     init_run     :     18.03s CPU     18.41s WALL (       1 calls)
     electrons    :   1618.18s CPU   1648.96s WALL (       1 calls)
     forces       :      4.32s CPU      4.51s WALL (       1 calls)

     Called by init_run:
     wfcinit      :      9.69s CPU      9.82s WALL (       1 calls)
     potinit      :      7.32s CPU      7.42s WALL (       1 calls)
     hinit0       :      0.42s CPU      0.44s WALL (       1 calls)

     Called by electrons:
     c_bands      :   1371.05s CPU   1387.42s WALL (      52 calls)
     sum_band     :    172.36s CPU    179.01s WALL (      52 calls)
     v_of_rho     :     58.15s CPU     60.30s WALL (      53 calls)
     newd         :     20.65s CPU     26.20s WALL (      53 calls)
     mix_rho      :      2.19s CPU      2.28s WALL (      52 calls)
     vdW_kernel   :      5.84s CPU      5.86s WALL (       1 calls)

     Called by c_bands:
     init_us_2    :      8.46s CPU      8.51s WALL (    1060 calls)
     cegterg      :   1343.68s CPU   1359.64s WALL (     520 calls)

     Called by *egterg:
     cdiaghg      :    166.30s CPU    167.04s WALL (    4502 calls)
     h_psi        :    768.25s CPU    778.00s WALL (    4512 calls)
     s_psi        :     99.39s CPU     99.66s WALL (    4512 calls)
     g_psi        :      2.71s CPU      2.72s WALL (    3982 calls)

     Called by h_psi:
     h_psi:calbec :     93.21s CPU     94.09s WALL (    4512 calls)
     vloc_psi     :    571.89s CPU    576.68s WALL (    4512 calls)
     add_vuspsi   :     99.44s CPU    100.89s WALL (    4512 calls)

     General routines
     calbec       :    124.35s CPU    125.32s WALL (    5072 calls)
     fft          :     31.56s CPU     31.69s WALL (    3339 calls)
     ffts         :      0.20s CPU      0.20s WALL (     105 calls)
     fftw         :    629.36s CPU    634.46s WALL (  794834 calls)
     interpolate  :      0.62s CPU      0.62s WALL (      53 calls)
     davcio       :      0.00s CPU      0.13s WALL (      10 calls)
 
     Parallel routines
 
     PWSCF        :  27m20.87s CPU  27m52.62s WALL

 
   This run was terminated on:  21:59:27  18Oct2021            

=------------------------------------------------------------------------------=
   JOB DONE.
=------------------------------------------------------------------------------=
