
     Program PWSCF v.6.7GPU starts on 15Sep2021 at 17:33:21 

     This program is part of the open-source Quantum ESPRESSO suite
     for quantum simulation of materials; please cite
         "P. Giannozzi et al., J. Phys.:Condens. Matter 21 395502 (2009);
         "P. Giannozzi et al., J. Phys.:Condens. Matter 29 465901 (2017);
         "P. Giannozzi et al., J. Chem. Phys. 152 154105 (2020);
          URL http://www.quantum-espresso.org", 
     in publications or presentations arising from this work. More details at
     http://www.quantum-espresso.org/quote

     Parallel version (MPI), running on    10 processors

     MPI processes distributed on     1 nodes
     R & G space division:  proc/nbgrp/npool/nimage =      10
     Reading input from /storage/home/hcoda1/3/ntian30/research/carbon/CxH_vib/H2O_calc/ads_slab/CH3OHH2O_e/out_0006/pw.inp
Warning: card &CELL ignored
Warning: card   CELL_DYNAMICS='IPI', ignored
Warning: card / ignored

     Current dimensions of program PWSCF are:
     Max number of different atomic species (ntypx) = 10
     Max number of k-points (npk) =  40000
     Max angular momentum in pseudopotentials (lmaxx) =  3
     Presently no symmetry can be used with electric field

     Message from routine cell_base_init:
     DEPRECATED: use true lattice parameter, not A to a.u. conversion factor

     **************************************************************************
     Initializing libbeef V0.1.2 with the BEEF-vdW functional.
     Citation: Wellendorff et al., PRB 85, 235149 (2012).
     **************************************************************************


     IMPORTANT: XC functional enforced from input :
     Exchange-correlation= BEEF-VDW
                           (   1   4  43  14   2   0   0)
     Any further DFT definition will be discarded
     Please, verify this is what you really want


     Subspace diagonalization in iterative solution of the eigenvalue problem:
     one sub-group per band group will be used
     scalapack distributed-memory algorithm (size of sub-group:  3*  3 procs)

  @ DRIVER MODE: Connecting to 
 qe_1139763_2852623.sched-torque.pace.gatech.eduncah6tki_scratch
  using UNIX socket
  @ DRIVER MODE: Message from server: STATUS
  @ DRIVER MODE: Message from server: INIT
  @ DRIVER MODE: Receiving replica           0          -1
  @ DRIVER MODE: Receiving encoded integer          25
  @ DRIVER MODE:  SCF:  T  FORCE:  T  STRESS:  F  VC:  F  ENSEMBLE:  F
  @ DRIVER MODE:  SCF:  T  FORCE:  T  STRESS:  F  VC:  F  ENSEMBLE:  F
 
     Parallelization info
     --------------------
     sticks:   dense  smooth     PW     G-vecs:    dense   smooth      PW
     Min         327     131     37                56683    14340    2191
     Max         328     133     38                56694    14346    2206
     Sum        3275    1317    379               566857   143421   21985
 
     Using Slab Decomposition
 


     bravais-lattice index     =            0
     lattice parameter (alat)  =       1.8897  a.u.
     unit-cell volume          =    6658.9804 (a.u.)^3
     number of atoms/cell      =           56
     number of atomic types    =            4
     number of electrons       =       400.00
     number of Kohn-Sham states=          210
     kinetic-energy cutoff     =      29.3995  Ry
     charge density cutoff     =     293.9946  Ry
     scf convergence threshold =      7.3E-08
     mixing beta               =       0.0500
     number of iterations used =            8  plain     mixing
     Exchange-correlation= BEEF-VDW
                           (   1   4  43  14   2   0   0)

     celldm(1)=   1.889726  celldm(2)=   0.000000  celldm(3)=   0.000000
     celldm(4)=   0.000000  celldm(5)=   0.000000  celldm(6)=   0.000000

     crystal axes: (cart. coord. in units of alat)
               a(1) = (   6.579727   0.000000   0.000000 )  
               a(2) = (  -0.000775   5.961596   0.000000 )  
               a(3) = (   0.000000   0.000000  25.155947 )  

     reciprocal axes: (cart. coord. in units 2 pi/alat)
               b(1) = (  0.151982  0.000020  0.000000 )  
               b(2) = (  0.000000  0.167740  0.000000 )  
               b(3) = (  0.000000  0.000000  0.039752 )  


     PseudoPot. # 1 for Ti read from file:
     /storage/coda1/p-amedford6/0/shared/rich_project_chbe-medford/medford-share/data/pseudos_module/espresso/nninc/pbe/van/Ti.UPF
     MD5 check sum: 8e4df49b7f0d34bbd5052bf3f5ea0213
     Pseudo is Ultrasoft, Zval = 12.0
     Generated by new atomic code, or converted to UPF format
     Using radial grid of  851 points,  6 beta functions with: 
                l(1) =   0
                l(2) =   0
                l(3) =   1
                l(4) =   1
                l(5) =   2
                l(6) =   2
     Q(r) pseudized with  8 coefficients,  rinner =    1.000   1.000   1.000
                                                       1.000   1.000

     PseudoPot. # 2 for O  read from file:
     /storage/coda1/p-amedford6/0/shared/rich_project_chbe-medford/medford-share/data/pseudos_module/espresso/nninc/pbe/van/O.UPF
     MD5 check sum: 78c19812648e8988a0fe644b0f25305e
     Pseudo is Ultrasoft, Zval =  6.0
     Generated by new atomic code, or converted to UPF format
     Using radial grid of  737 points,  4 beta functions with: 
                l(1) =   0
                l(2) =   0
                l(3) =   1
                l(4) =   1
     Q(r) pseudized with  8 coefficients,  rinner =    0.800   0.800   0.800


     PseudoPot. # 3 for C  read from file:
     /storage/coda1/p-amedford6/0/shared/rich_project_chbe-medford/medford-share/data/pseudos_module/espresso/nninc/pbe/van/C.UPF
     MD5 check sum: 1a69bf6b8db32088f5b2163dbdb77a27
     Pseudo is Ultrasoft, Zval =  4.0
     Generated by new atomic code, or converted to UPF format
     Using radial grid of  721 points,  4 beta functions with: 
                l(1) =   0
                l(2) =   0
                l(3) =   1
                l(4) =   1
     Q(r) pseudized with  8 coefficients,  rinner =    0.800   0.800   0.800


     PseudoPot. # 4 for H  read from file:
     /storage/coda1/p-amedford6/0/shared/rich_project_chbe-medford/medford-share/data/pseudos_module/espresso/nninc/pbe/van/H.UPF
     MD5 check sum: b5ee9d7bfd3a09ee7748110bda690ff7
     Pseudo is Ultrasoft, Zval =  1.0
     Generated by new atomic code, or converted to UPF format
     Using radial grid of  615 points,  1 beta functions with: 
                l(1) =   0
     Q(r) pseudized with  8 coefficients,  rinner =    0.800

     atomic species   valence    mass     pseudopotential
        Ti1           12.00    47.86700     Ti( 1.00)
        O1             6.00    15.99900     O ( 1.00)
        C1             4.00    12.01100     C ( 1.00)
        H1             1.00     1.00800     H ( 1.00)

     No symmetry found



   Cartesian axes

     site n.     atom                  positions (alat units)
         1           Ti1 tau(   1) = (   0.0004258   2.9801865   6.0000000  )
         2           Ti1 tau(   2) = (   3.2906075   1.4906267   6.0002472  )
         3           O1  tau(   3) = (   0.0006271   0.0005054   7.9858123  )
         4           O1  tau(   4) = (   3.2906025   0.0005020   7.3038282  )
         5           O1  tau(   5) = (   4.5942328   1.4918067   9.2879030  )
         6           O1  tau(   6) = (   1.9868534   1.4903216   9.2879459  )
         7           Ti1 tau(   7) = (   3.3179988   2.9667087   9.1587561  )
         8           Ti1 tau(   8) = (   0.0368451   1.4888401   9.2646154  )
         9           O1  tau(   9) = (   3.2981896   5.9413050  11.3756853  )
        10           O1  tau(  10) = (   0.0022081   5.9550161  10.6068466  )
        11           O1  tau(  11) = (   1.2930414   1.4711740  12.6526869  )
        12           O1  tau(  12) = (   5.2963464   1.4745835  12.6500758  )
        13           Ti1 tau(  13) = (   0.0229324   2.9590759  12.5385950  )
        14           Ti1 tau(  14) = (   3.3157970   1.4644123  12.5194148  )
        15           O1  tau(  15) = (   6.5691168   5.9481840  14.6869282  )
        16           O1  tau(  16) = (   3.2964787   5.9455965  14.0277316  )
        17           O1  tau(  17) = (   4.5665908   1.5027878  16.2081754  )
        18           O1  tau(  18) = (   2.0283028   1.5092035  16.1774433  )
        19           Ti1 tau(  19) = (   3.2999954   2.9453206  15.7178785  )
        20           Ti1 tau(  20) = (   6.5724188   1.3235339  15.9896992  )
        21           O1  tau(  21) = (   3.2904802   0.0005063   4.7018136  )
        22           O1  tau(  22) = (   0.0286320   5.9425150  17.2304330  )
        23           O1  tau(  23) = (   1.3043587   1.4918075   6.0039043  )
        24           O1  tau(  24) = (   5.2767064   1.4903225   6.0039473  )
        25           Ti1 tau(  25) = (   0.0000382   5.9609847   6.0000000  )
        26           Ti1 tau(  26) = (   3.2902200   4.4714249   6.0002472  )
        27           O1  tau(  27) = (   0.0002396   2.9813036   7.9858123  )
        28           O1  tau(  28) = (   3.2902150   2.9813002   7.3038282  )
        29           O1  tau(  29) = (   4.5938453   4.4726049   9.2879030  )
        30           O1  tau(  30) = (   1.9864658   4.4711199   9.2879459  )
        31           Ti1 tau(  31) = (   3.3176359   5.9492212   9.1540102  )
        32           Ti1 tau(  32) = (   0.0367062   4.4560090   9.2708352  )
        33           O1  tau(  33) = (   3.2951800   2.9650663  11.3684769  )
        34           O1  tau(  34) = (   0.0080098   2.9764013  10.6279654  )
        35           O1  tau(  35) = (   1.2931912   4.4560454  12.6592269  )
        36           O1  tau(  36) = (   5.2946864   4.4524020  12.6579832  )
        37           Ti1 tau(  37) = (   0.0159028   5.9413441  12.4831893  )
        38           Ti1 tau(  38) = (   3.3151975   4.4500431  12.5204281  )
        39           O1  tau(  39) = (   0.0034497   2.9621527  14.8596962  )
        40           O1  tau(  40) = (   3.2989893   2.9535984  13.9376031  )
        41           O1  tau(  41) = (   4.5724332   4.4114593  16.1445292  )
        42           O1  tau(  42) = (   2.0255208   4.3883007  16.1585022  )
        43           Ti1 tau(  43) = (   3.2821299   5.9114753  15.8432964  )
        44           Ti1 tau(  44) = (   6.5414858   4.5242847  15.8739915  )
        45           O1  tau(  45) = (   3.2900926   2.9813045   4.7018136  )
        46           O1  tau(  46) = (   1.3039711   4.4726057   6.0039043  )
        47           O1  tau(  47) = (   5.2763189   4.4711207   6.0039473  )
        48           C1  tau(  48) = (   5.9754720   3.1749164  18.9378073  )
        49           O1  tau(  49) = (   0.1533887   3.0270296  17.7012840  )
        50           H1  tau(  50) = (   4.9293134   3.0706859  18.6584277  )
        51           H1  tau(  51) = (   1.0910173   3.2466920  17.8500278  )
        52           H1  tau(  52) = (   6.2690755   2.3937635  19.6305738  )
        53           H1  tau(  53) = (   6.1431946   4.1694627  19.3379575  )
        54           O1  tau(  54) = (   3.1723115   5.9428592  18.3689464  )
        55           H1  tau(  55) = (   3.8852673   0.6353712  18.4582360  )
        56           H1  tau(  56) = (   2.3406934   0.4831942  18.3201771  )

     number of k points=    10  Fermi-Dirac smearing, width (Ry)=  0.0073
                       cart. coord. in units 2pi/alat
        k(    1) = (   0.0000000   0.0000000   0.0000000), wk =   0.1250000
        k(    2) = (   0.0000000   0.0419351   0.0000000), wk =   0.2500000
        k(    3) = (   0.0000000  -0.0838702   0.0000000), wk =   0.1250000
        k(    4) = (   0.0379955   0.0000049   0.0000000), wk =   0.2500000
        k(    5) = (   0.0379955   0.0419400   0.0000000), wk =   0.2500000
        k(    6) = (   0.0379955  -0.0838652   0.0000000), wk =   0.2500000
        k(    7) = (   0.0379955  -0.0419301   0.0000000), wk =   0.2500000
        k(    8) = (  -0.0759910  -0.0000099   0.0000000), wk =   0.1250000
        k(    9) = (  -0.0759910   0.0419252   0.0000000), wk =   0.2500000
        k(   10) = (  -0.0759910  -0.0838800   0.0000000), wk =   0.1250000

     Dense  grid:   566857 G-vectors     FFT dimensions: (  72,  64, 270)

     Smooth grid:   143421 G-vectors     FFT dimensions: (  45,  40, 180)

     Estimated max dynamical RAM per process >     366.48 MB

     Estimated total dynamical RAM >       3.58 GB
     Cannot read rho : file not found

     Initial potential from superposition of free atoms

     starting charge  383.99915, renormalised to  400.00000

     negative rho (up, down):  1.598E-02 0.000E+00


     %%%%%%%%%%%%%%%%%%%%%%%%%%%%%%%%%%%%%%%%%%%%%%%%%%%%%%%%%%%%%%%%%%%%%%%%
     %                                                                      %
     % You are using vdW-DF, which was implemented by the Thonhauser group. %
     % Please cite the following two papers that made this development      %
     % possible and the two reviews that describe the various versions:     %
     %                                                                      %
     %   T. Thonhauser et al., PRL 115, 136402 (2015).                      %
     %   T. Thonhauser et al., PRB 76, 125112 (2007).                       %
     %   K. Berland et al., Rep. Prog. Phys. 78, 066501 (2015).             %
     %   D.C. Langreth et al., J. Phys.: Condens. Matter 21, 084203 (2009). %
     %                                                                      %
     %                                                                      %
     % If you are calculating the stress with vdW-DF, please also cite:     %
     %                                                                      %
     %   R. Sabatini et al., J. Phys.: Condens. Matter 24, 424209 (2012).   %
     %                                                                      %
     %%%%%%%%%%%%%%%%%%%%%%%%%%%%%%%%%%%%%%%%%%%%%%%%%%%%%%%%%%%%%%%%%%%%%%%%


 
     Adding external electric field

     Computed dipole along edir(3) : 
        Dipole              -11.7432 Ry au,        -29.8482 Debye
        Dipole field         -0.0222 Ry au, 
 
        Potential amp.        2.0543 Ry
        Total length         46.3494 bohr
 
     Starting wfcs are  302 atomic wfcs
  @ DRIVER MODE: Message from server: STATUS
  @ DRIVER MODE: Message from server: POSDATA
  @ DRIVER MODE: Reading and sharing cell 
  @ DRIVER MODE: Reading and sharing positions 
  @ DRIVER MODE: Received positions 

     total cpu time spent up to now is       11.0 secs

     Self-consistent Calculation

     iteration #  1     ecut=    29.40 Ry     beta= 0.05
     Davidson diagonalization with overlap
     c_bands:  2 eigenvalues not converged
     c_bands:  2 eigenvalues not converged
     c_bands:  4 eigenvalues not converged
     c_bands:  3 eigenvalues not converged
     c_bands:  4 eigenvalues not converged
     c_bands:  4 eigenvalues not converged
     c_bands:  2 eigenvalues not converged
     c_bands:  2 eigenvalues not converged
     ethr =  1.00E-05,  avg # of iterations = 21.3

     negative rho (up, down):  9.996E-03 0.000E+00
 
     Adding external electric field

     Computed dipole along edir(3) : 
        Dipole               50.0844 Ry au,        127.3020 Debye
        Dipole field          0.0945 Ry au, 
 
        Potential amp.       -8.7615 Ry
        Total length         46.3494 bohr
 

     total cpu time spent up to now is       53.5 secs

     total energy              =   -2420.22060480 Ry
     estimated scf accuracy    <    6189.27877190 Ry

     iteration #  2     ecut=    29.40 Ry     beta= 0.05
     Davidson diagonalization with overlap
     ethr =  1.00E-02,  avg # of iterations = 28.2

     negative rho (up, down):  1.171E-03 0.000E+00
 
     Adding external electric field

     Computed dipole along edir(3) : 
        Dipole               -1.2070 Ry au,         -3.0678 Debye
        Dipole field         -0.0023 Ry au, 
 
        Potential amp.        0.2111 Ry
        Total length         46.3494 bohr
 

     total cpu time spent up to now is      131.7 secs

     total energy              =   -2452.62263866 Ry
     estimated scf accuracy    <   70408.74827783 Ry

     iteration #  3     ecut=    29.40 Ry     beta= 0.05
     Davidson diagonalization with overlap
     c_bands:  1 eigenvalues not converged
     ethr =  1.00E-02,  avg # of iterations = 16.7

     negative rho (up, down):  1.239E-03 0.000E+00
 
     Adding external electric field

     Computed dipole along edir(3) : 
        Dipole               -4.0476 Ry au,        -10.2879 Debye
        Dipole field         -0.0076 Ry au, 
 
        Potential amp.        0.7081 Ry
        Total length         46.3494 bohr
 

     total cpu time spent up to now is      180.3 secs

     total energy              =   -2955.58663647 Ry
     estimated scf accuracy    <    5099.49247959 Ry

     iteration #  4     ecut=    29.40 Ry     beta= 0.05
     Davidson diagonalization with overlap
     ethr =  1.00E-02,  avg # of iterations = 10.1

     negative rho (up, down):  1.290E-03 0.000E+00
 
     Adding external electric field

     Computed dipole along edir(3) : 
        Dipole               -6.1502 Ry au,        -15.6323 Debye
        Dipole field         -0.0116 Ry au, 
 
        Potential amp.        1.0759 Ry
        Total length         46.3494 bohr
 

     total cpu time spent up to now is      198.4 secs

     total energy              =   -2949.41654659 Ry
     estimated scf accuracy    <    2202.33999380 Ry

     iteration #  5     ecut=    29.40 Ry     beta= 0.05
     Davidson diagonalization with overlap
     c_bands:  5 eigenvalues not converged
     c_bands:  1 eigenvalues not converged
     c_bands:  1 eigenvalues not converged
     c_bands:  1 eigenvalues not converged
     ethr =  1.00E-02,  avg # of iterations = 14.3

     negative rho (up, down):  1.318E-03 0.000E+00
 
     Adding external electric field

     Computed dipole along edir(3) : 
        Dipole               -5.9852 Ry au,        -15.2127 Debye
        Dipole field         -0.0113 Ry au, 
 
        Potential amp.        1.0470 Ry
        Total length         46.3494 bohr
 

     total cpu time spent up to now is      216.1 secs

     total energy              =   -2966.42420264 Ry
     estimated scf accuracy    <     183.96739906 Ry

     iteration #  6     ecut=    29.40 Ry     beta= 0.05
     Davidson diagonalization with overlap
     ethr =  1.00E-02,  avg # of iterations =  3.7

     negative rho (up, down):  1.320E-03 0.000E+00
 
     Adding external electric field

     Computed dipole along edir(3) : 
        Dipole               -5.8482 Ry au,        -14.8647 Debye
        Dipole field         -0.0110 Ry au, 
 
        Potential amp.        1.0231 Ry
        Total length         46.3494 bohr
 

     total cpu time spent up to now is      227.4 secs

     total energy              =   -2968.00779146 Ry
     estimated scf accuracy    <      99.65386785 Ry

     iteration #  7     ecut=    29.40 Ry     beta= 0.05
     Davidson diagonalization with overlap
     ethr =  1.00E-02,  avg # of iterations =  2.4

     negative rho (up, down):  1.398E-03 0.000E+00
 
     Adding external electric field

     Computed dipole along edir(3) : 
        Dipole               -4.5742 Ry au,        -11.6264 Debye
        Dipole field         -0.0086 Ry au, 
 
        Potential amp.        0.8002 Ry
        Total length         46.3494 bohr
 

     total cpu time spent up to now is      237.8 secs

     total energy              =   -2968.55455062 Ry
     estimated scf accuracy    <      69.62697121 Ry

     iteration #  8     ecut=    29.40 Ry     beta= 0.05
     Davidson diagonalization with overlap
     ethr =  1.00E-02,  avg # of iterations =  1.6

     negative rho (up, down):  1.566E-03 0.000E+00
 
     Adding external electric field

     Computed dipole along edir(3) : 
        Dipole               -2.7763 Ry au,         -7.0565 Debye
        Dipole field         -0.0052 Ry au, 
 
        Potential amp.        0.4857 Ry
        Total length         46.3494 bohr
 

     total cpu time spent up to now is      247.8 secs

     total energy              =   -2968.89568134 Ry
     estimated scf accuracy    <      64.88083899 Ry

     iteration #  9     ecut=    29.40 Ry     beta= 0.05
     Davidson diagonalization with overlap
     ethr =  1.00E-02,  avg # of iterations =  1.3

     negative rho (up, down):  1.808E-03 0.000E+00
 
     Adding external electric field

     Computed dipole along edir(3) : 
        Dipole               -2.6531 Ry au,         -6.7434 Debye
        Dipole field         -0.0050 Ry au, 
 
        Potential amp.        0.4641 Ry
        Total length         46.3494 bohr
 

     total cpu time spent up to now is      258.0 secs

     total energy              =   -2969.90318507 Ry
     estimated scf accuracy    <     833.83892649 Ry

     iteration # 10     ecut=    29.40 Ry     beta= 0.05
     Davidson diagonalization with overlap
     ethr =  1.00E-02,  avg # of iterations =  1.0

     negative rho (up, down):  2.052E-03 0.000E+00
 
     Adding external electric field

     Computed dipole along edir(3) : 
        Dipole               -2.5542 Ry au,         -6.4921 Debye
        Dipole field         -0.0048 Ry au, 
 
        Potential amp.        0.4468 Ry
        Total length         46.3494 bohr
 

     total cpu time spent up to now is      269.0 secs

     total energy              =   -2968.83224049 Ry
     estimated scf accuracy    <     662.87094152 Ry

     iteration # 11     ecut=    29.40 Ry     beta= 0.05
     Davidson diagonalization with overlap
     ethr =  1.00E-02,  avg # of iterations =  1.2

     negative rho (up, down):  1.975E-03 0.000E+00
 
     Adding external electric field

     Computed dipole along edir(3) : 
        Dipole               -4.3160 Ry au,        -10.9701 Debye
        Dipole field         -0.0081 Ry au, 
 
        Potential amp.        0.7550 Ry
        Total length         46.3494 bohr
 

     total cpu time spent up to now is      279.0 secs

     total energy              =   -2959.71165020 Ry
     estimated scf accuracy    <     442.64248838 Ry

     iteration # 12     ecut=    29.40 Ry     beta= 0.05
     Davidson diagonalization with overlap
     ethr =  1.00E-02,  avg # of iterations =  1.5

     negative rho (up, down):  2.087E-03 0.000E+00
 
     Adding external electric field

     Computed dipole along edir(3) : 
        Dipole               -3.8344 Ry au,         -9.7461 Debye
        Dipole field         -0.0072 Ry au, 
 
        Potential amp.        0.6708 Ry
        Total length         46.3494 bohr
 

     total cpu time spent up to now is      289.0 secs

     total energy              =   -2965.27474127 Ry
     estimated scf accuracy    <      51.91102468 Ry

     iteration # 13     ecut=    29.40 Ry     beta= 0.05
     Davidson diagonalization with overlap
     ethr =  1.00E-02,  avg # of iterations =  1.8

     negative rho (up, down):  2.163E-03 0.000E+00
 
     Adding external electric field

     Computed dipole along edir(3) : 
        Dipole               -3.5680 Ry au,         -9.0689 Debye
        Dipole field         -0.0067 Ry au, 
 
        Potential amp.        0.6242 Ry
        Total length         46.3494 bohr
 

     total cpu time spent up to now is      299.3 secs

     total energy              =   -2964.96394203 Ry
     estimated scf accuracy    <      39.43681659 Ry

     iteration # 14     ecut=    29.40 Ry     beta= 0.05
     Davidson diagonalization with overlap
     ethr =  9.86E-03,  avg # of iterations =  2.4

     negative rho (up, down):  2.392E-03 0.000E+00
 
     Adding external electric field

     Computed dipole along edir(3) : 
        Dipole               -3.7905 Ry au,         -9.6345 Debye
        Dipole field         -0.0072 Ry au, 
 
        Potential amp.        0.6631 Ry
        Total length         46.3494 bohr
 

     total cpu time spent up to now is      309.7 secs

     total energy              =   -2964.45359733 Ry
     estimated scf accuracy    <      22.09445865 Ry

     iteration # 15     ecut=    29.40 Ry     beta= 0.05
     Davidson diagonalization with overlap
     c_bands:  3 eigenvalues not converged
     ethr =  5.52E-03,  avg # of iterations = 12.8

     negative rho (up, down):  2.428E-03 0.000E+00
 
     Adding external electric field

     Computed dipole along edir(3) : 
        Dipole               -3.7898 Ry au,         -9.6326 Debye
        Dipole field         -0.0072 Ry au, 
 
        Potential amp.        0.6630 Ry
        Total length         46.3494 bohr
 

     total cpu time spent up to now is      327.8 secs

     total energy              =   -2969.99901193 Ry
     estimated scf accuracy    <     192.55437976 Ry

     iteration # 16     ecut=    29.40 Ry     beta= 0.05
     Davidson diagonalization with overlap
     ethr =  5.52E-03,  avg # of iterations =  2.1

     negative rho (up, down):  2.385E-03 0.000E+00
 
     Adding external electric field

     Computed dipole along edir(3) : 
        Dipole               -3.7830 Ry au,         -9.6154 Debye
        Dipole field         -0.0071 Ry au, 
 
        Potential amp.        0.6618 Ry
        Total length         46.3494 bohr
 

     total cpu time spent up to now is      340.1 secs

     total energy              =   -2970.00767262 Ry
     estimated scf accuracy    <     238.20456844 Ry

     iteration # 17     ecut=    29.40 Ry     beta= 0.05
     Davidson diagonalization with overlap
     ethr =  5.52E-03,  avg # of iterations =  1.0

     negative rho (up, down):  2.169E-03 0.000E+00
 
     Adding external electric field

     Computed dipole along edir(3) : 
        Dipole               -3.8294 Ry au,         -9.7333 Debye
        Dipole field         -0.0072 Ry au, 
 
        Potential amp.        0.6699 Ry
        Total length         46.3494 bohr
 

     total cpu time spent up to now is      349.8 secs

     total energy              =   -2968.93262661 Ry
     estimated scf accuracy    <     239.37172006 Ry

     iteration # 18     ecut=    29.40 Ry     beta= 0.05
     Davidson diagonalization with overlap
     ethr =  5.52E-03,  avg # of iterations =  1.4

     negative rho (up, down):  2.374E-03 0.000E+00
 
     Adding external electric field

     Computed dipole along edir(3) : 
        Dipole               -3.9112 Ry au,         -9.9413 Debye
        Dipole field         -0.0074 Ry au, 
 
        Potential amp.        0.6842 Ry
        Total length         46.3494 bohr
 

     total cpu time spent up to now is      359.8 secs

     total energy              =   -2969.31294583 Ry
     estimated scf accuracy    <     141.40182923 Ry

     iteration # 19     ecut=    29.40 Ry     beta= 0.05
     Davidson diagonalization with overlap
     ethr =  5.52E-03,  avg # of iterations =  2.6

     negative rho (up, down):  2.446E-03 0.000E+00
 
     Adding external electric field

     Computed dipole along edir(3) : 
        Dipole               -3.8778 Ry au,         -9.8563 Debye
        Dipole field         -0.0073 Ry au, 
 
        Potential amp.        0.6784 Ry
        Total length         46.3494 bohr
 

     total cpu time spent up to now is      370.0 secs

     total energy              =   -2969.57011146 Ry
     estimated scf accuracy    <     191.93699872 Ry

     iteration # 20     ecut=    29.40 Ry     beta= 0.05
     Davidson diagonalization with overlap
     ethr =  5.52E-03,  avg # of iterations =  1.6

     negative rho (up, down):  2.156E-03 0.000E+00
 
     Adding external electric field

     Computed dipole along edir(3) : 
        Dipole               -3.3851 Ry au,         -8.6041 Debye
        Dipole field         -0.0064 Ry au, 
 
        Potential amp.        0.5922 Ry
        Total length         46.3494 bohr
 

     total cpu time spent up to now is      380.0 secs

     total energy              =   -2968.16299093 Ry
     estimated scf accuracy    <     228.89575121 Ry

     iteration # 21     ecut=    29.40 Ry     beta= 0.05
     Davidson diagonalization with overlap
     ethr =  5.52E-03,  avg # of iterations =  1.4

     negative rho (up, down):  2.706E-03 0.000E+00
 
     Adding external electric field

     Computed dipole along edir(3) : 
        Dipole               -2.8984 Ry au,         -7.3670 Debye
        Dipole field         -0.0055 Ry au, 
 
        Potential amp.        0.5070 Ry
        Total length         46.3494 bohr
 

     total cpu time spent up to now is      390.0 secs

     total energy              =   -2968.47935301 Ry
     estimated scf accuracy    <      44.96091946 Ry

     iteration # 22     ecut=    29.40 Ry     beta= 0.05
     Davidson diagonalization with overlap
     ethr =  5.52E-03,  avg # of iterations =  1.1

     negative rho (up, down):  3.344E-03 0.000E+00
 
     Adding external electric field

     Computed dipole along edir(3) : 
        Dipole               -2.4937 Ry au,         -6.3384 Debye
        Dipole field         -0.0047 Ry au, 
 
        Potential amp.        0.4362 Ry
        Total length         46.3494 bohr
 

     total cpu time spent up to now is      399.8 secs

     total energy              =   -2968.58041403 Ry
     estimated scf accuracy    <      56.23969097 Ry

     iteration # 23     ecut=    29.40 Ry     beta= 0.05
     Davidson diagonalization with overlap
     ethr =  5.52E-03,  avg # of iterations =  1.3

     negative rho (up, down):  5.953E-03 0.000E+00
 
     Adding external electric field

     Computed dipole along edir(3) : 
        Dipole               -1.8221 Ry au,         -4.6312 Debye
        Dipole field         -0.0034 Ry au, 
 
        Potential amp.        0.3187 Ry
        Total length         46.3494 bohr
 

     total cpu time spent up to now is      409.8 secs

     total energy              =   -2967.70408889 Ry
     estimated scf accuracy    <      84.34068520 Ry

     iteration # 24     ecut=    29.40 Ry     beta= 0.05
     Davidson diagonalization with overlap
     ethr =  5.52E-03,  avg # of iterations =  1.3

     negative rho (up, down):  2.321E-02 0.000E+00
 
     Adding external electric field

     Computed dipole along edir(3) : 
        Dipole               -0.5374 Ry au,         -1.3660 Debye
        Dipole field         -0.0010 Ry au, 
 
        Potential amp.        0.0940 Ry
        Total length         46.3494 bohr
 

     total cpu time spent up to now is      419.7 secs

     total energy              =   -2967.22934084 Ry
     estimated scf accuracy    <       7.53470471 Ry

     iteration # 25     ecut=    29.40 Ry     beta= 0.05
     Davidson diagonalization with overlap
     ethr =  1.88E-03,  avg # of iterations = 11.3

     negative rho (up, down):  1.547E-02 0.000E+00
 
     Adding external electric field

     Computed dipole along edir(3) : 
        Dipole               -0.9740 Ry au,         -2.4757 Debye
        Dipole field         -0.0018 Ry au, 
 
        Potential amp.        0.1704 Ry
        Total length         46.3494 bohr
 

     total cpu time spent up to now is      433.2 secs

     total energy              =   -2967.44697582 Ry
     estimated scf accuracy    <       2.64548217 Ry

     iteration # 26     ecut=    29.40 Ry     beta= 0.05
     Davidson diagonalization with overlap
     ethr =  6.61E-04,  avg # of iterations =  7.4

     negative rho (up, down):  1.085E-02 0.000E+00
 
     Adding external electric field

     Computed dipole along edir(3) : 
        Dipole               -0.8094 Ry au,         -2.0572 Debye
        Dipole field         -0.0015 Ry au, 
 
        Potential amp.        0.1416 Ry
        Total length         46.3494 bohr
 

     total cpu time spent up to now is      445.7 secs

     total energy              =   -2967.53965647 Ry
     estimated scf accuracy    <       2.00045410 Ry

     iteration # 27     ecut=    29.40 Ry     beta= 0.05
     Davidson diagonalization with overlap
     ethr =  5.00E-04,  avg # of iterations =  6.9

     negative rho (up, down):  1.229E-02 0.000E+00
 
     Adding external electric field

     Computed dipole along edir(3) : 
        Dipole               -0.4694 Ry au,         -1.1931 Debye
        Dipole field         -0.0009 Ry au, 
 
        Potential amp.        0.0821 Ry
        Total length         46.3494 bohr
 

     total cpu time spent up to now is      457.5 secs

     total energy              =   -2967.57984782 Ry
     estimated scf accuracy    <       3.27853282 Ry

     iteration # 28     ecut=    29.40 Ry     beta= 0.05
     Davidson diagonalization with overlap
     ethr =  5.00E-04,  avg # of iterations =  2.2

     negative rho (up, down):  7.712E-03 0.000E+00
 
     Adding external electric field

     Computed dipole along edir(3) : 
        Dipole               -0.4607 Ry au,         -1.1710 Debye
        Dipole field         -0.0009 Ry au, 
 
        Potential amp.        0.0806 Ry
        Total length         46.3494 bohr
 

     total cpu time spent up to now is      467.7 secs

     total energy              =   -2967.56609513 Ry
     estimated scf accuracy    <       2.50330043 Ry

     iteration # 29     ecut=    29.40 Ry     beta= 0.05
     Davidson diagonalization with overlap
     ethr =  5.00E-04,  avg # of iterations =  1.6

     negative rho (up, down):  6.146E-03 0.000E+00
 
     Adding external electric field

     Computed dipole along edir(3) : 
        Dipole               -0.4122 Ry au,         -1.0477 Debye
        Dipole field         -0.0008 Ry au, 
 
        Potential amp.        0.0721 Ry
        Total length         46.3494 bohr
 

     total cpu time spent up to now is      477.9 secs

     total energy              =   -2967.50559947 Ry
     estimated scf accuracy    <       2.76964016 Ry

     iteration # 30     ecut=    29.40 Ry     beta= 0.05
     Davidson diagonalization with overlap
     ethr =  5.00E-04,  avg # of iterations =  1.1

     negative rho (up, down):  6.800E-03 0.000E+00
 
     Adding external electric field

     Computed dipole along edir(3) : 
        Dipole               -0.2203 Ry au,         -0.5600 Debye
        Dipole field         -0.0004 Ry au, 
 
        Potential amp.        0.0385 Ry
        Total length         46.3494 bohr
 

     total cpu time spent up to now is      487.7 secs

     total energy              =   -2967.50988568 Ry
     estimated scf accuracy    <       1.95439937 Ry

     iteration # 31     ecut=    29.40 Ry     beta= 0.05
     Davidson diagonalization with overlap
     ethr =  4.89E-04,  avg # of iterations =  1.0

     negative rho (up, down):  7.763E-03 0.000E+00
 
     Adding external electric field

     Computed dipole along edir(3) : 
        Dipole                0.2674 Ry au,          0.6795 Debye
        Dipole field          0.0005 Ry au, 
 
        Potential amp.       -0.0468 Ry
        Total length         46.3494 bohr
 

     total cpu time spent up to now is      497.4 secs

     total energy              =   -2967.46589111 Ry
     estimated scf accuracy    <       1.59939813 Ry

     iteration # 32     ecut=    29.40 Ry     beta= 0.05
     Davidson diagonalization with overlap
     c_bands:  1 eigenvalues not converged
     c_bands:  2 eigenvalues not converged
     ethr =  4.00E-04,  avg # of iterations =  9.6

     negative rho (up, down):  9.861E-03 0.000E+00
 
     Adding external electric field

     Computed dipole along edir(3) : 
        Dipole                0.6433 Ry au,          1.6350 Debye
        Dipole field          0.0012 Ry au, 
 
        Potential amp.       -0.1125 Ry
        Total length         46.3494 bohr
 

     total cpu time spent up to now is      510.3 secs

     total energy              =   -2967.45660423 Ry
     estimated scf accuracy    <       0.35436001 Ry

     iteration # 33     ecut=    29.40 Ry     beta= 0.05
     Davidson diagonalization with overlap
     c_bands:  3 eigenvalues not converged
     c_bands:  5 eigenvalues not converged
     c_bands:  1 eigenvalues not converged
     c_bands:  1 eigenvalues not converged
     c_bands:  2 eigenvalues not converged
     c_bands:  5 eigenvalues not converged
     ethr =  8.86E-05,  avg # of iterations = 24.1

     negative rho (up, down):  8.252E-03 0.000E+00
 
     Adding external electric field

     Computed dipole along edir(3) : 
        Dipole                0.4886 Ry au,          1.2420 Debye
        Dipole field          0.0009 Ry au, 
 
        Potential amp.       -0.0855 Ry
        Total length         46.3494 bohr
 

     total cpu time spent up to now is      533.7 secs

     total energy              =   -2967.47514284 Ry
     estimated scf accuracy    <       0.88537216 Ry

     iteration # 34     ecut=    29.40 Ry     beta= 0.05
     Davidson diagonalization with overlap
     ethr =  8.86E-05,  avg # of iterations =  3.7

     negative rho (up, down):  6.951E-03 0.000E+00
 
     Adding external electric field

     Computed dipole along edir(3) : 
        Dipole                0.3193 Ry au,          0.8116 Debye
        Dipole field          0.0006 Ry au, 
 
        Potential amp.       -0.0559 Ry
        Total length         46.3494 bohr
 

     total cpu time spent up to now is      544.6 secs

     total energy              =   -2967.44001724 Ry
     estimated scf accuracy    <       0.35629869 Ry

     iteration # 35     ecut=    29.40 Ry     beta= 0.05
     Davidson diagonalization with overlap
     c_bands:  1 eigenvalues not converged
     c_bands:  2 eigenvalues not converged
     c_bands:  3 eigenvalues not converged
     c_bands:  1 eigenvalues not converged
     c_bands:  1 eigenvalues not converged
     ethr =  8.86E-05,  avg # of iterations = 19.6

     negative rho (up, down):  7.927E-03 0.000E+00
 
     Adding external electric field

     Computed dipole along edir(3) : 
        Dipole                0.7084 Ry au,          1.8005 Debye
        Dipole field          0.0013 Ry au, 
 
        Potential amp.       -0.1239 Ry
        Total length         46.3494 bohr
 

     total cpu time spent up to now is      564.8 secs

     total energy              =   -2967.47200775 Ry
     estimated scf accuracy    <       0.80615005 Ry

     iteration # 36     ecut=    29.40 Ry     beta= 0.05
     Davidson diagonalization with overlap
     ethr =  8.86E-05,  avg # of iterations =  2.8

     negative rho (up, down):  1.051E-02 0.000E+00
 
     Adding external electric field

     Computed dipole along edir(3) : 
        Dipole                1.3126 Ry au,          3.3362 Debye
        Dipole field          0.0025 Ry au, 
 
        Potential amp.       -0.2296 Ry
        Total length         46.3494 bohr
 

     total cpu time spent up to now is      575.5 secs

     total energy              =   -2967.44418352 Ry
     estimated scf accuracy    <       0.61265853 Ry

     iteration # 37     ecut=    29.40 Ry     beta= 0.05
     Davidson diagonalization with overlap
     c_bands:  1 eigenvalues not converged
     c_bands:  2 eigenvalues not converged
     c_bands:  2 eigenvalues not converged
     c_bands:  2 eigenvalues not converged
     c_bands:  4 eigenvalues not converged
     c_bands:  1 eigenvalues not converged
     c_bands:  1 eigenvalues not converged
     c_bands:  2 eigenvalues not converged
     c_bands:  1 eigenvalues not converged
     ethr =  8.86E-05,  avg # of iterations = 19.7

     negative rho (up, down):  1.059E-02 0.000E+00
 
     Adding external electric field

     Computed dipole along edir(3) : 
        Dipole                1.3128 Ry au,          3.3367 Debye
        Dipole field          0.0025 Ry au, 
 
        Potential amp.       -0.2296 Ry
        Total length         46.3494 bohr
 

     total cpu time spent up to now is      593.6 secs

     total energy              =   -2967.48513927 Ry
     estimated scf accuracy    <       0.58868813 Ry

     iteration # 38     ecut=    29.40 Ry     beta= 0.05
     Davidson diagonalization with overlap
     ethr =  8.86E-05,  avg # of iterations =  6.3

     negative rho (up, down):  9.770E-03 0.000E+00
 
     Adding external electric field

     Computed dipole along edir(3) : 
        Dipole                1.1592 Ry au,          2.9463 Debye
        Dipole field          0.0022 Ry au, 
 
        Potential amp.       -0.2028 Ry
        Total length         46.3494 bohr
 

     total cpu time spent up to now is      604.8 secs

     total energy              =   -2967.46768973 Ry
     estimated scf accuracy    <       0.57966265 Ry

     iteration # 39     ecut=    29.40 Ry     beta= 0.05
     Davidson diagonalization with overlap
     ethr =  8.86E-05,  avg # of iterations =  3.1

     negative rho (up, down):  1.002E-02 0.000E+00
 
     Adding external electric field

     Computed dipole along edir(3) : 
        Dipole                1.1920 Ry au,          3.0297 Debye
        Dipole field          0.0022 Ry au, 
 
        Potential amp.       -0.2085 Ry
        Total length         46.3494 bohr
 

     total cpu time spent up to now is      615.3 secs

     total energy              =   -2967.47319808 Ry
     estimated scf accuracy    <       0.05697618 Ry

     iteration # 40     ecut=    29.40 Ry     beta= 0.05
     Davidson diagonalization with overlap
     c_bands:  1 eigenvalues not converged
     c_bands:  2 eigenvalues not converged
     c_bands:  2 eigenvalues not converged
     c_bands:  1 eigenvalues not converged
     c_bands:  2 eigenvalues not converged
     c_bands:  2 eigenvalues not converged
     c_bands:  1 eigenvalues not converged
     c_bands:  2 eigenvalues not converged
     ethr =  1.42E-05,  avg # of iterations = 19.2

     negative rho (up, down):  9.799E-03 0.000E+00
 
     Adding external electric field

     Computed dipole along edir(3) : 
        Dipole                1.1740 Ry au,          2.9839 Debye
        Dipole field          0.0022 Ry au, 
 
        Potential amp.       -0.2054 Ry
        Total length         46.3494 bohr
 

     total cpu time spent up to now is      632.9 secs

     total energy              =   -2967.47293475 Ry
     estimated scf accuracy    <       0.02446635 Ry

     iteration # 41     ecut=    29.40 Ry     beta= 0.05
     Davidson diagonalization with overlap
     c_bands:  3 eigenvalues not converged
     c_bands:  1 eigenvalues not converged
     c_bands:  1 eigenvalues not converged
     c_bands:  1 eigenvalues not converged
     ethr =  6.12E-06,  avg # of iterations = 15.7

     negative rho (up, down):  1.026E-02 0.000E+00
 
     Adding external electric field

     Computed dipole along edir(3) : 
        Dipole                1.2519 Ry au,          3.1820 Debye
        Dipole field          0.0024 Ry au, 
 
        Potential amp.       -0.2190 Ry
        Total length         46.3494 bohr
 

     total cpu time spent up to now is      647.9 secs

     total energy              =   -2967.47471482 Ry
     estimated scf accuracy    <       0.01364365 Ry

     iteration # 42     ecut=    29.40 Ry     beta= 0.05
     Davidson diagonalization with overlap
     c_bands:  1 eigenvalues not converged
     c_bands:  1 eigenvalues not converged
     c_bands:  1 eigenvalues not converged
     c_bands:  2 eigenvalues not converged
     c_bands:  1 eigenvalues not converged
     c_bands:  2 eigenvalues not converged
     c_bands:  1 eigenvalues not converged
     c_bands:  2 eigenvalues not converged
     ethr =  3.41E-06,  avg # of iterations = 19.3

     negative rho (up, down):  1.109E-02 0.000E+00
 
     Adding external electric field

     Computed dipole along edir(3) : 
        Dipole                1.2176 Ry au,          3.0948 Debye
        Dipole field          0.0023 Ry au, 
 
        Potential amp.       -0.2130 Ry
        Total length         46.3494 bohr
 

     total cpu time spent up to now is      669.5 secs

     total energy              =   -2967.46816388 Ry
     estimated scf accuracy    <       0.12638576 Ry

     iteration # 43     ecut=    29.40 Ry     beta= 0.05
     Davidson diagonalization with overlap
     c_bands:  2 eigenvalues not converged
     c_bands:  3 eigenvalues not converged
     c_bands:  3 eigenvalues not converged
     c_bands:  3 eigenvalues not converged
     c_bands:  3 eigenvalues not converged
     c_bands:  3 eigenvalues not converged
     c_bands:  5 eigenvalues not converged
     c_bands:  2 eigenvalues not converged
     c_bands:  1 eigenvalues not converged
     c_bands:  2 eigenvalues not converged
     ethr =  3.41E-06,  avg # of iterations = 20.0

     negative rho (up, down):  1.301E-02 0.000E+00
 
     Adding external electric field

     Computed dipole along edir(3) : 
        Dipole                1.3181 Ry au,          3.3504 Debye
        Dipole field          0.0025 Ry au, 
 
        Potential amp.       -0.2306 Ry
        Total length         46.3494 bohr
 

     total cpu time spent up to now is      693.0 secs

     total energy              =   -2967.47687835 Ry
     estimated scf accuracy    <       0.08079505 Ry

     iteration # 44     ecut=    29.40 Ry     beta= 0.05
     Davidson diagonalization with overlap
     c_bands:  1 eigenvalues not converged
     c_bands:  1 eigenvalues not converged
     c_bands:  1 eigenvalues not converged
     ethr =  3.41E-06,  avg # of iterations = 15.5

     negative rho (up, down):  1.325E-02 0.000E+00
 
     Adding external electric field

     Computed dipole along edir(3) : 
        Dipole                1.3438 Ry au,          3.4155 Debye
        Dipole field          0.0025 Ry au, 
 
        Potential amp.       -0.2351 Ry
        Total length         46.3494 bohr
 

     total cpu time spent up to now is      707.0 secs

     total energy              =   -2967.47582333 Ry
     estimated scf accuracy    <       0.04540945 Ry

     iteration # 45     ecut=    29.40 Ry     beta= 0.05
     Davidson diagonalization with overlap
     c_bands:  1 eigenvalues not converged
     ethr =  3.41E-06,  avg # of iterations =  8.6

     negative rho (up, down):  1.403E-02 0.000E+00
 
     Adding external electric field

     Computed dipole along edir(3) : 
        Dipole                1.4075 Ry au,          3.5775 Debye
        Dipole field          0.0027 Ry au, 
 
        Potential amp.       -0.2462 Ry
        Total length         46.3494 bohr
 

     total cpu time spent up to now is      719.2 secs

     total energy              =   -2967.47363964 Ry
     estimated scf accuracy    <       0.03368498 Ry

     iteration # 46     ecut=    29.40 Ry     beta= 0.05
     Davidson diagonalization with overlap
     c_bands:  1 eigenvalues not converged
     c_bands:  1 eigenvalues not converged
     c_bands:  1 eigenvalues not converged
     c_bands:  2 eigenvalues not converged
     c_bands:  2 eigenvalues not converged
     ethr =  3.41E-06,  avg # of iterations = 19.1

     negative rho (up, down):  1.460E-02 0.000E+00
 
     Adding external electric field

     Computed dipole along edir(3) : 
        Dipole                1.3854 Ry au,          3.5214 Debye
        Dipole field          0.0026 Ry au, 
 
        Potential amp.       -0.2424 Ry
        Total length         46.3494 bohr
 

     total cpu time spent up to now is      739.7 secs

     total energy              =   -2967.47489362 Ry
     estimated scf accuracy    <       0.00653547 Ry

     iteration # 47     ecut=    29.40 Ry     beta= 0.05
     Davidson diagonalization with overlap
     c_bands:  1 eigenvalues not converged
     c_bands:  1 eigenvalues not converged
     c_bands:  1 eigenvalues not converged
     c_bands:  1 eigenvalues not converged
     c_bands:  1 eigenvalues not converged
     ethr =  1.63E-06,  avg # of iterations = 18.6

     negative rho (up, down):  1.529E-02 0.000E+00
 
     Adding external electric field

     Computed dipole along edir(3) : 
        Dipole                1.3972 Ry au,          3.5513 Debye
        Dipole field          0.0026 Ry au, 
 
        Potential amp.       -0.2444 Ry
        Total length         46.3494 bohr
 

     total cpu time spent up to now is      756.7 secs

     total energy              =   -2967.47550402 Ry
     estimated scf accuracy    <       0.00261308 Ry

     iteration # 48     ecut=    29.40 Ry     beta= 0.05
     Davidson diagonalization with overlap
     ethr =  6.53E-07,  avg # of iterations =  9.5

     negative rho (up, down):  1.644E-02 0.000E+00
 
     Adding external electric field

     Computed dipole along edir(3) : 
        Dipole                1.4211 Ry au,          3.6120 Debye
        Dipole field          0.0027 Ry au, 
 
        Potential amp.       -0.2486 Ry
        Total length         46.3494 bohr
 

     total cpu time spent up to now is      769.4 secs

     total energy              =   -2967.47558476 Ry
     estimated scf accuracy    <       0.00101294 Ry

     iteration # 49     ecut=    29.40 Ry     beta= 0.05
     Davidson diagonalization with overlap
     c_bands:  1 eigenvalues not converged
     ethr =  2.53E-07,  avg # of iterations = 13.3

     negative rho (up, down):  1.662E-02 0.000E+00
 
     Adding external electric field

     Computed dipole along edir(3) : 
        Dipole                1.4183 Ry au,          3.6050 Debye
        Dipole field          0.0027 Ry au, 
 
        Potential amp.       -0.2481 Ry
        Total length         46.3494 bohr
 

     total cpu time spent up to now is      786.6 secs

     total energy              =   -2967.47571852 Ry
     estimated scf accuracy    <       0.00055660 Ry

     iteration # 50     ecut=    29.40 Ry     beta= 0.05
     Davidson diagonalization with overlap
     ethr =  1.39E-07,  avg # of iterations =  6.3

     negative rho (up, down):  1.639E-02 0.000E+00
 
     Adding external electric field

     Computed dipole along edir(3) : 
        Dipole                1.3891 Ry au,          3.5307 Debye
        Dipole field          0.0026 Ry au, 
 
        Potential amp.       -0.2430 Ry
        Total length         46.3494 bohr
 

     total cpu time spent up to now is      798.3 secs

     total energy              =   -2967.47566898 Ry
     estimated scf accuracy    <       0.00036972 Ry

     iteration # 51     ecut=    29.40 Ry     beta= 0.05
     Davidson diagonalization with overlap
     ethr =  9.24E-08,  avg # of iterations = 13.5

     negative rho (up, down):  1.649E-02 0.000E+00
 
     Adding external electric field

     Computed dipole along edir(3) : 
        Dipole                1.3929 Ry au,          3.5404 Debye
        Dipole field          0.0026 Ry au, 
 
        Potential amp.       -0.2437 Ry
        Total length         46.3494 bohr
 

     total cpu time spent up to now is      816.6 secs

     total energy              =   -2967.47570269 Ry
     estimated scf accuracy    <       0.00039560 Ry

     iteration # 52     ecut=    29.40 Ry     beta= 0.05
     Davidson diagonalization with overlap
     ethr =  9.24E-08,  avg # of iterations =  9.0

     negative rho (up, down):  1.622E-02 0.000E+00
 
     Adding external electric field

     Computed dipole along edir(3) : 
        Dipole                1.3903 Ry au,          3.5339 Debye
        Dipole field          0.0026 Ry au, 
 
        Potential amp.       -0.2432 Ry
        Total length         46.3494 bohr
 

     total cpu time spent up to now is      829.0 secs

     total energy              =   -2967.47570916 Ry
     estimated scf accuracy    <       0.00014136 Ry

     iteration # 53     ecut=    29.40 Ry     beta= 0.05
     Davidson diagonalization with overlap
     c_bands:  1 eigenvalues not converged
     c_bands:  1 eigenvalues not converged
     ethr =  3.53E-08,  avg # of iterations = 14.7

     negative rho (up, down):  1.589E-02 0.000E+00
 
     Adding external electric field

     Computed dipole along edir(3) : 
        Dipole                1.3804 Ry au,          3.5088 Debye
        Dipole field          0.0026 Ry au, 
 
        Potential amp.       -0.2415 Ry
        Total length         46.3494 bohr
 

     total cpu time spent up to now is      848.6 secs

     total energy              =   -2967.47573184 Ry
     estimated scf accuracy    <       0.00016518 Ry

     iteration # 54     ecut=    29.40 Ry     beta= 0.05
     Davidson diagonalization with overlap
     ethr =  3.53E-08,  avg # of iterations =  1.8

     negative rho (up, down):  1.570E-02 0.000E+00
 
     Adding external electric field

     Computed dipole along edir(3) : 
        Dipole                1.3715 Ry au,          3.4860 Debye
        Dipole field          0.0026 Ry au, 
 
        Potential amp.       -0.2399 Ry
        Total length         46.3494 bohr
 

     total cpu time spent up to now is      859.0 secs

     total energy              =   -2967.47572510 Ry
     estimated scf accuracy    <       0.00009794 Ry

     iteration # 55     ecut=    29.40 Ry     beta= 0.05
     Davidson diagonalization with overlap
     ethr =  2.45E-08,  avg # of iterations = 12.8

     negative rho (up, down):  1.576E-02 0.000E+00
 
     Adding external electric field

     Computed dipole along edir(3) : 
        Dipole                1.3734 Ry au,          3.4909 Debye
        Dipole field          0.0026 Ry au, 
 
        Potential amp.       -0.2403 Ry
        Total length         46.3494 bohr
 

     total cpu time spent up to now is      877.6 secs

     total energy              =   -2967.47576153 Ry
     estimated scf accuracy    <       0.00007415 Ry

     iteration # 56     ecut=    29.40 Ry     beta= 0.05
     Davidson diagonalization with overlap
     ethr =  1.85E-08,  avg # of iterations =  3.4

     negative rho (up, down):  1.597E-02 0.000E+00
 
     Adding external electric field

     Computed dipole along edir(3) : 
        Dipole                1.3840 Ry au,          3.5178 Debye
        Dipole field          0.0026 Ry au, 
 
        Potential amp.       -0.2421 Ry
        Total length         46.3494 bohr
 

     total cpu time spent up to now is      888.5 secs

     total energy              =   -2967.47576339 Ry
     estimated scf accuracy    <       0.00008135 Ry

     iteration # 57     ecut=    29.40 Ry     beta= 0.05
     Davidson diagonalization with overlap
     ethr =  1.85E-08,  avg # of iterations =  6.4

     negative rho (up, down):  1.599E-02 0.000E+00
 
     Adding external electric field

     Computed dipole along edir(3) : 
        Dipole                1.3846 Ry au,          3.5193 Debye
        Dipole field          0.0026 Ry au, 
 
        Potential amp.       -0.2422 Ry
        Total length         46.3494 bohr
 

     total cpu time spent up to now is      900.7 secs

     total energy              =   -2967.47577625 Ry
     estimated scf accuracy    <       0.00001726 Ry

     iteration # 58     ecut=    29.40 Ry     beta= 0.05
     Davidson diagonalization with overlap
     ethr =  4.31E-09,  avg # of iterations = 11.3

     negative rho (up, down):  1.597E-02 0.000E+00
 
     Adding external electric field

     Computed dipole along edir(3) : 
        Dipole                1.3836 Ry au,          3.5168 Debye
        Dipole field          0.0026 Ry au, 
 
        Potential amp.       -0.2420 Ry
        Total length         46.3494 bohr
 

     total cpu time spent up to now is      917.8 secs

     total energy              =   -2967.47578598 Ry
     estimated scf accuracy    <       0.00000928 Ry

     iteration # 59     ecut=    29.40 Ry     beta= 0.05
     Davidson diagonalization with overlap
     ethr =  2.32E-09,  avg # of iterations =  1.3

     negative rho (up, down):  1.595E-02 0.000E+00
 
     Adding external electric field

     Computed dipole along edir(3) : 
        Dipole                1.3833 Ry au,          3.5159 Debye
        Dipole field          0.0026 Ry au, 
 
        Potential amp.       -0.2420 Ry
        Total length         46.3494 bohr
 

     total cpu time spent up to now is      927.8 secs

     total energy              =   -2967.47579127 Ry
     estimated scf accuracy    <       0.00000826 Ry

     iteration # 60     ecut=    29.40 Ry     beta= 0.05
     Davidson diagonalization with overlap
     ethr =  2.06E-09,  avg # of iterations = 12.6

     negative rho (up, down):  1.600E-02 0.000E+00
 
     Adding external electric field

     Computed dipole along edir(3) : 
        Dipole                1.3871 Ry au,          3.5256 Debye
        Dipole field          0.0026 Ry au, 
 
        Potential amp.       -0.2426 Ry
        Total length         46.3494 bohr
 

     total cpu time spent up to now is      942.2 secs

     total energy              =   -2967.47579814 Ry
     estimated scf accuracy    <       0.00000565 Ry

     iteration # 61     ecut=    29.40 Ry     beta= 0.05
     Davidson diagonalization with overlap
     ethr =  1.41E-09,  avg # of iterations =  9.2

     negative rho (up, down):  1.594E-02 0.000E+00
 
     Adding external electric field

     Computed dipole along edir(3) : 
        Dipole                1.3866 Ry au,          3.5243 Debye
        Dipole field          0.0026 Ry au, 
 
        Potential amp.       -0.2426 Ry
        Total length         46.3494 bohr
 

     total cpu time spent up to now is      955.8 secs

     total energy              =   -2967.47580253 Ry
     estimated scf accuracy    <       0.00000571 Ry

     iteration # 62     ecut=    29.40 Ry     beta= 0.05
     Davidson diagonalization with overlap
     ethr =  1.41E-09,  avg # of iterations =  9.4

     negative rho (up, down):  1.592E-02 0.000E+00
 
     Adding external electric field

     Computed dipole along edir(3) : 
        Dipole                1.3860 Ry au,          3.5227 Debye
        Dipole field          0.0026 Ry au, 
 
        Potential amp.       -0.2425 Ry
        Total length         46.3494 bohr
 

     total cpu time spent up to now is      970.4 secs

     total energy              =   -2967.47580775 Ry
     estimated scf accuracy    <       0.00000174 Ry

     iteration # 63     ecut=    29.40 Ry     beta= 0.05
     Davidson diagonalization with overlap
     ethr =  4.34E-10,  avg # of iterations = 12.0

     negative rho (up, down):  1.593E-02 0.000E+00
 
     Adding external electric field

     Computed dipole along edir(3) : 
        Dipole                1.3862 Ry au,          3.5233 Debye
        Dipole field          0.0026 Ry au, 
 
        Potential amp.       -0.2425 Ry
        Total length         46.3494 bohr
 

     total cpu time spent up to now is      987.4 secs

     total energy              =   -2967.47581202 Ry
     estimated scf accuracy    <       0.00000209 Ry

     iteration # 64     ecut=    29.40 Ry     beta= 0.05
     Davidson diagonalization with overlap
     ethr =  4.34E-10,  avg # of iterations =  1.9

     negative rho (up, down):  1.596E-02 0.000E+00
 
     Adding external electric field

     Computed dipole along edir(3) : 
        Dipole                1.3870 Ry au,          3.5255 Debye
        Dipole field          0.0026 Ry au, 
 
        Potential amp.       -0.2426 Ry
        Total length         46.3494 bohr
 

     total cpu time spent up to now is      997.9 secs

     total energy              =   -2967.47581554 Ry
     estimated scf accuracy    <       0.00000143 Ry

     iteration # 65     ecut=    29.40 Ry     beta= 0.05
     Davidson diagonalization with overlap
     ethr =  3.59E-10,  avg # of iterations =  9.7

     negative rho (up, down):  1.594E-02 0.000E+00
 
     Adding external electric field

     Computed dipole along edir(3) : 
        Dipole                1.3874 Ry au,          3.5265 Debye
        Dipole field          0.0026 Ry au, 
 
        Potential amp.       -0.2427 Ry
        Total length         46.3494 bohr
 

     total cpu time spent up to now is     1015.0 secs

     total energy              =   -2967.47581911 Ry
     estimated scf accuracy    <       0.00000131 Ry

     iteration # 66     ecut=    29.40 Ry     beta= 0.05
     Davidson diagonalization with overlap
     ethr =  3.28E-10,  avg # of iterations =  8.6

     negative rho (up, down):  1.592E-02 0.000E+00
 
     Adding external electric field

     Computed dipole along edir(3) : 
        Dipole                1.3870 Ry au,          3.5255 Debye
        Dipole field          0.0026 Ry au, 
 
        Potential amp.       -0.2426 Ry
        Total length         46.3494 bohr
 

     total cpu time spent up to now is     1028.7 secs

     total energy              =   -2967.47582224 Ry
     estimated scf accuracy    <       0.00000045 Ry

     iteration # 67     ecut=    29.40 Ry     beta= 0.05
     Davidson diagonalization with overlap
     ethr =  1.13E-10,  avg # of iterations = 10.6

     negative rho (up, down):  1.591E-02 0.000E+00
 
     Adding external electric field

     Computed dipole along edir(3) : 
        Dipole                1.3869 Ry au,          3.5250 Debye
        Dipole field          0.0026 Ry au, 
 
        Potential amp.       -0.2426 Ry
        Total length         46.3494 bohr
 

     total cpu time spent up to now is     1044.2 secs

     total energy              =   -2967.47582509 Ry
     estimated scf accuracy    <       0.00000029 Ry

     iteration # 68     ecut=    29.40 Ry     beta= 0.05
     Davidson diagonalization with overlap
     ethr =  7.20E-11,  avg # of iterations =  6.3

     negative rho (up, down):  1.589E-02 0.000E+00
 
     Adding external electric field

     Computed dipole along edir(3) : 
        Dipole                1.3866 Ry au,          3.5243 Debye
        Dipole field          0.0026 Ry au, 
 
        Potential amp.       -0.2426 Ry
        Total length         46.3494 bohr
 

     total cpu time spent up to now is     1056.3 secs

     total energy              =   -2967.47582757 Ry
     estimated scf accuracy    <       0.00000035 Ry

     iteration # 69     ecut=    29.40 Ry     beta= 0.05
     Davidson diagonalization with overlap
     ethr =  7.20E-11,  avg # of iterations =  3.2

     negative rho (up, down):  1.588E-02 0.000E+00
 
     Adding external electric field

     Computed dipole along edir(3) : 
        Dipole                1.3864 Ry au,          3.5238 Debye
        Dipole field          0.0026 Ry au, 
 
        Potential amp.       -0.2425 Ry
        Total length         46.3494 bohr
 

     total cpu time spent up to now is     1067.1 secs

     total energy              =   -2967.47582979 Ry
     estimated scf accuracy    <       0.00000023 Ry

     iteration # 70     ecut=    29.40 Ry     beta= 0.05
     Davidson diagonalization with overlap
     ethr =  5.66E-11,  avg # of iterations =  9.5

     negative rho (up, down):  1.587E-02 0.000E+00
 
     Adding external electric field

     Computed dipole along edir(3) : 
        Dipole                1.3857 Ry au,          3.5222 Debye
        Dipole field          0.0026 Ry au, 
 
        Potential amp.       -0.2424 Ry
        Total length         46.3494 bohr
 

     total cpu time spent up to now is     1082.3 secs

     End of self-consistent calculation

          k = 0.0000 0.0000 0.0000 ( 18029 PWs)   bands (ev):

   -55.2455 -55.2178 -55.2095 -55.1834 -55.1520 -55.1442 -55.1384 -55.0916
   -55.0914 -55.0851 -55.0508 -55.0330 -55.0032 -54.9990 -54.3070 -54.2729
   -31.8122 -31.7618 -31.7129 -31.6229 -31.5605 -31.5504 -31.5456 -31.5431
   -31.5066 -31.4775 -31.4610 -31.4589 -31.4478 -31.4378 -31.4236 -31.4093
   -31.3920 -31.3858 -31.3826 -31.3782 -31.3717 -31.3632 -31.3405 -31.3357
   -31.3338 -31.3140 -31.3113 -31.3097 -31.2888 -31.2749 -31.2594 -31.2389
   -31.2374 -31.2367 -31.2254 -31.2162 -31.1982 -31.1844 -31.1724 -31.1679
   -31.1548 -31.1442 -30.7190 -30.6166 -30.5950 -30.5354 -30.4490 -30.3378
   -20.1053 -19.0870 -16.0749 -15.8278 -15.6879 -15.5896 -15.4685 -15.3352
   -15.2750 -15.1602 -15.0692 -14.9792 -14.9643 -14.9453 -14.9165 -14.8936
   -14.8690 -14.8307 -14.8043 -14.7607 -14.7520 -14.7355 -14.7287 -14.6918
   -14.6886 -14.6438 -14.6354 -14.4786 -14.4081 -14.3481 -14.1264 -12.8077
   -12.6883 -11.1997  -6.8976  -6.8467  -5.0971  -5.0327  -3.4153  -3.2583
    -3.2267  -3.1993  -3.1785  -3.1415  -3.0614  -2.9617  -2.7852  -2.6755
    -2.5398  -2.5298  -2.4840  -2.4566  -2.3998  -2.3211  -2.2292  -2.2027
    -2.1684  -2.1345  -2.1312  -2.1152  -2.1048  -2.0503  -2.0133  -1.9555
    -1.8633  -1.8104  -1.7743  -1.7539  -1.6910  -1.6468  -1.6135  -1.5843
    -1.5778  -1.5708  -1.5135  -1.5112  -1.5031  -1.4911  -1.4734  -1.2851
    -1.2465  -1.1124  -1.0215  -0.9848  -0.9677  -0.8130  -0.8064  -0.7619
    -0.7291  -0.6944  -0.6538  -0.5963  -0.4988  -0.4696  -0.4164  -0.3786
    -0.2705  -0.2383  -0.2078  -0.1531  -0.0452  -0.0370  -0.0113   0.0086
     0.0822   0.1778   0.2074   0.2284   0.3053   0.3104   0.3713   0.4122
     0.4460   0.5209   0.5665   0.5774   0.6691   0.6859   0.6998   0.7261
     0.7294   0.8281   0.8644   0.9089   0.9272   1.0788   1.1732   1.3129
     1.3414   1.6082   1.7033   1.7190   1.8793   2.3048   2.3596   3.8458
     3.9140   3.9524   3.9602   3.9735   4.0531   4.3368   4.3521   4.3639
     4.3736   4.3920

          k = 0.0000 0.0419 0.0000 ( 17933 PWs)   bands (ev):

   -55.2402 -55.2146 -55.2128 -55.1883 -55.1507 -55.1413 -55.1350 -55.0950
   -55.0945 -55.0800 -55.0557 -55.0280 -55.0041 -55.0038 -54.3019 -54.2778
   -31.7549 -31.7239 -31.6588 -31.5684 -31.5380 -31.5080 -31.5060 -31.4990
   -31.4985 -31.4854 -31.4735 -31.4520 -31.4472 -31.4353 -31.4263 -31.4160
   -31.4011 -31.3962 -31.3929 -31.3906 -31.3726 -31.3577 -31.3485 -31.3404
   -31.3364 -31.3163 -31.3143 -31.3096 -31.2945 -31.2892 -31.2890 -31.2675
   -31.2647 -31.2407 -31.2406 -31.2278 -31.2147 -31.2126 -31.2070 -31.2012
   -31.1756 -31.1730 -30.6648 -30.6133 -30.5979 -30.5228 -30.4615 -30.3950
   -20.1037 -19.0868 -15.9477 -15.7144 -15.6018 -15.5263 -15.3640 -15.2746
   -15.2373 -15.1537 -15.1105 -15.0541 -15.0252 -14.9231 -14.9163 -14.8846
   -14.8445 -14.8354 -14.8118 -14.7957 -14.7740 -14.7457 -14.7294 -14.7248
   -14.7168 -14.6790 -14.6504 -14.5354 -14.4654 -14.4052 -14.2408 -12.8103
   -12.7270 -11.1996  -6.8923  -6.8523  -5.0959  -5.0260  -3.2722  -3.2003
    -3.0893  -3.0656  -3.0134  -3.0032  -2.9567  -2.8362  -2.5955  -2.5630
    -2.5035  -2.4780  -2.4139  -2.4086  -2.3660  -2.3277  -2.2828  -2.2678
    -2.2493  -2.2109  -2.1967  -2.1444  -2.1315  -2.0787  -2.0436  -2.0280
    -2.0137  -1.9079  -1.8670  -1.8450  -1.8294  -1.8171  -1.7551  -1.6909
    -1.6762  -1.5977  -1.5835  -1.5323  -1.5188  -1.4043  -1.2438  -1.1916
    -1.1241  -1.0653  -1.0443  -1.0085  -0.8586  -0.8304  -0.6687  -0.6233
    -0.5924  -0.5597  -0.5467  -0.5263  -0.4356  -0.4091  -0.3420  -0.2522
    -0.2350  -0.2153  -0.1991  -0.1634  -0.1276  -0.0865  -0.0587  -0.0443
     0.0730   0.1141   0.1400   0.1751   0.2035   0.2373   0.3059   0.3517
     0.3956   0.4548   0.4944   0.5044   0.5100   0.5455   0.5814   0.7216
     0.7256   0.7700   0.8015   0.8459   0.9614   0.9923   1.0125   1.0361
     1.2126   1.3153   1.5786   1.9014   1.9700   2.2577   2.2704   4.0303
     4.0642   4.0680   4.1368   4.1701   4.2347   4.2491   4.2997   4.3109
     4.3594   4.4080

          k = 0.0000-0.0839 0.0000 ( 17884 PWs)   bands (ev):

   -55.2284 -55.2263 -55.2025 -55.1985 -55.1494 -55.1378 -55.1310 -55.0989
   -55.0981 -55.0694 -55.0663 -55.0178 -55.0140 -55.0050 -54.2900 -54.2897
   -31.6783 -31.6188 -31.6116 -31.5280 -31.5242 -31.5124 -31.5003 -31.4956
   -31.4880 -31.4471 -31.4409 -31.4367 -31.4281 -31.4225 -31.4184 -31.4163
   -31.3980 -31.3953 -31.3882 -31.3779 -31.3749 -31.3732 -31.3704 -31.3324
   -31.3297 -31.3255 -31.3246 -31.3221 -31.3198 -31.3156 -31.3119 -31.3096
   -31.3035 -31.2945 -31.2924 -31.2882 -31.2716 -31.2116 -31.2094 -31.2041
   -31.1997 -31.1743 -30.6054 -30.6053 -30.5319 -30.5316 -30.4923 -30.4921
   -20.1021 -19.0867 -15.7007 -15.6173 -15.4614 -15.4223 -15.3125 -15.2966
   -15.2698 -15.1720 -15.1082 -15.0854 -15.0738 -15.0383 -14.9412 -14.8725
   -14.8648 -14.8521 -14.8365 -14.7976 -14.7948 -14.7424 -14.7343 -14.6771
   -14.6694 -14.6063 -14.6037 -14.6011 -14.5474 -14.5373 -14.4493 -12.7900
   -12.7894 -11.1995  -6.8848  -6.8600  -5.0943  -5.0220  -3.2740  -2.9574
    -2.8245  -2.7874  -2.7237  -2.7154  -2.6738  -2.6657  -2.6548  -2.5889
    -2.5665  -2.5633  -2.5369  -2.4280  -2.4164  -2.4065  -2.3865  -2.3678
    -2.2975  -2.2620  -2.2322  -2.2059  -2.1554  -2.1543  -2.1289  -2.0998
    -2.0978  -2.0197  -1.9887  -1.9493  -1.9096  -1.7198  -1.6730  -1.6311
    -1.6229  -1.5335  -1.4645  -1.4115  -1.3323  -1.3110  -1.1998  -1.1792
    -1.0969  -1.0864  -1.0453  -0.9302  -0.7692  -0.7593  -0.7268  -0.7165
    -0.6961  -0.6890  -0.6603  -0.6516  -0.6298  -0.4747  -0.3975  -0.3424
    -0.3005  -0.2220  -0.1516   0.0158   0.0203   0.0414   0.0678   0.0923
     0.1012   0.1363   0.1522   0.1828   0.1944   0.2255   0.2424   0.2964
     0.3415   0.3879   0.3938   0.4188   0.4442   0.4875   0.4969   0.5004
     0.5556   0.5722   0.6195   0.8274   0.9075   0.9113   0.9195   1.0882
     1.1356   1.3133   1.3380   2.0372   2.0403   2.1942   2.1951   4.1211
     4.1410   4.1552   4.1764   4.2422   4.3189   4.3239   4.3848   4.4203
     4.4274   4.4424

          k = 0.0380 0.0000 0.0000 ( 17913 PWs)   bands (ev):

   -55.2453 -55.2177 -55.2094 -55.1833 -55.1514 -55.1446 -55.1383 -55.0915
   -55.0913 -55.0849 -55.0507 -55.0330 -55.0031 -54.9989 -54.3069 -54.2728
   -31.8123 -31.7618 -31.7139 -31.6280 -31.5644 -31.5506 -31.5495 -31.5434
   -31.5064 -31.4773 -31.4609 -31.4480 -31.4409 -31.4379 -31.4235 -31.3918
   -31.3914 -31.3855 -31.3780 -31.3763 -31.3681 -31.3453 -31.3397 -31.3356
   -31.3335 -31.3311 -31.3154 -31.3112 -31.2921 -31.2747 -31.2597 -31.2375
   -31.2369 -31.2360 -31.2327 -31.2244 -31.1976 -31.1835 -31.1749 -31.1678
   -31.1548 -31.1445 -30.7184 -30.6204 -30.5929 -30.5352 -30.4489 -30.3376
   -20.1051 -19.0868 -15.9964 -15.7391 -15.6785 -15.5501 -15.3830 -15.3388
   -15.2774 -15.1820 -15.0974 -15.0723 -15.0170 -14.9901 -14.9601 -14.9577
   -14.9211 -14.9141 -14.8303 -14.8235 -14.7603 -14.7345 -14.7005 -14.6428
   -14.5949 -14.5524 -14.5109 -14.4808 -14.4774 -14.4476 -14.1256 -12.8042
   -12.6880 -11.2012  -6.9070  -6.8376  -5.0914  -5.0289  -3.2983  -3.2023
    -3.1473  -3.0530  -3.0164  -2.9324  -2.9053  -2.8595  -2.7760  -2.7611
    -2.6710  -2.6255  -2.5625  -2.5392  -2.4391  -2.3718  -2.3153  -2.2802
    -2.1964  -2.1208  -2.0402  -1.9952  -1.9727  -1.9524  -1.9188  -1.8636
    -1.8477  -1.8141  -1.7816  -1.6680  -1.6440  -1.6335  -1.6038  -1.5789
    -1.5455  -1.5312  -1.4567  -1.4357  -1.3878  -1.3391  -1.3182  -1.2552
    -1.1924  -1.0897  -1.0272  -1.0134  -0.9876  -0.8949  -0.8443  -0.7642
    -0.7311  -0.7035  -0.6975  -0.6860  -0.6242  -0.5842  -0.5747  -0.3588
    -0.3154  -0.2478  -0.1804  -0.1543  -0.1372  -0.0985  -0.0244   0.0584
     0.0836   0.1015   0.1250   0.1679   0.2347   0.2709   0.3354   0.3695
     0.4102   0.4300   0.4632   0.4946   0.5373   0.5552   0.6056   0.6750
     0.7181   0.7523   0.7978   0.8099   0.8879   0.9306   0.9731   1.1861
     1.3602   1.5631   1.6181   1.7309   1.8465   2.1893   2.2749   3.8654
     3.9339   4.0333   4.1644   4.1764   4.2314   4.2767   4.3115   4.3288
     4.3550   4.3826

          k = 0.0380 0.0419 0.0000 ( 17878 PWs)   bands (ev):

   -55.2401 -55.2146 -55.2127 -55.1883 -55.1502 -55.1416 -55.1350 -55.0949
   -55.0944 -55.0799 -55.0557 -55.0280 -55.0040 -55.0038 -54.3019 -54.2778
   -31.7551 -31.7240 -31.6597 -31.5743 -31.5379 -31.5114 -31.5067 -31.5032
   -31.4990 -31.4853 -31.4736 -31.4523 -31.4358 -31.4326 -31.4259 -31.4161
   -31.3970 -31.3907 -31.3849 -31.3834 -31.3723 -31.3545 -31.3405 -31.3371
   -31.3312 -31.3258 -31.3160 -31.3144 -31.2962 -31.2919 -31.2886 -31.2684
   -31.2565 -31.2482 -31.2403 -31.2281 -31.2231 -31.2185 -31.2061 -31.2009
   -31.1768 -31.1757 -30.6644 -30.6162 -30.5969 -30.5226 -30.4616 -30.3949
   -20.1035 -19.0866 -15.8765 -15.6404 -15.6083 -15.4605 -15.3074 -15.2609
   -15.2270 -15.1525 -15.1300 -15.0807 -15.0403 -14.9766 -14.9418 -14.9300
   -14.9116 -14.8865 -14.8622 -14.8458 -14.7737 -14.7677 -14.7198 -14.6833
   -14.6610 -14.6056 -14.5935 -14.5463 -14.5297 -14.4989 -14.2404 -12.8079
   -12.7273 -11.2008  -6.8951  -6.8493  -5.0948  -5.0206  -3.2280  -3.1112
    -3.0553  -2.9256  -2.8575  -2.7879  -2.7346  -2.7082  -2.6221  -2.5807
    -2.5194  -2.5033  -2.4492  -2.3853  -2.3375  -2.3150  -2.2571  -2.2461
    -2.1994  -2.1786  -2.1456  -2.1001  -2.0851  -2.0664  -2.0461  -1.9803
    -1.9387  -1.9230  -1.8787  -1.8422  -1.7870  -1.7453  -1.7220  -1.6891
    -1.6279  -1.6186  -1.5322  -1.4712  -1.4411  -1.3215  -1.2650  -1.1500
    -1.1224  -1.0967  -1.0330  -0.9542  -0.8944  -0.8184  -0.7407  -0.7070
    -0.6642  -0.6506  -0.6204  -0.5873  -0.5281  -0.4812  -0.4312  -0.3630
    -0.3517  -0.3026  -0.2493  -0.1973  -0.1682  -0.1283  -0.1059  -0.0214
    -0.0028   0.0239   0.0433   0.0707   0.1150   0.1405   0.1678   0.2064
     0.2590   0.3048   0.3491   0.3746   0.4693   0.5072   0.5874   0.6384
     0.7238   0.7596   0.8377   0.8831   0.9017   0.9670   1.0210   1.1151
     1.1703   1.2703   1.5253   1.9123   1.9735   2.1789   2.2498   4.0042
     4.0571   4.0623   4.1900   4.2317   4.2599   4.2887   4.3349   4.3926
     4.4137   4.4447

          k = 0.0380-0.0839 0.0000 ( 17916 PWs)   bands (ev):

   -55.2284 -55.2263 -55.2025 -55.1985 -55.1492 -55.1381 -55.1310 -55.0990
   -55.0981 -55.0693 -55.0663 -55.0178 -55.0141 -55.0050 -54.2900 -54.2898
   -31.6786 -31.6190 -31.6119 -31.5289 -31.5251 -31.5125 -31.5005 -31.4956
   -31.4881 -31.4599 -31.4428 -31.4416 -31.4387 -31.4259 -31.3998 -31.3978
   -31.3937 -31.3914 -31.3825 -31.3799 -31.3778 -31.3751 -31.3715 -31.3336
   -31.3298 -31.3233 -31.3211 -31.3205 -31.3195 -31.3175 -31.3135 -31.3087
   -31.2938 -31.2926 -31.2914 -31.2801 -31.2769 -31.2227 -31.2202 -31.2041
   -31.1997 -31.1802 -30.6066 -30.6064 -30.5318 -30.5315 -30.4923 -30.4921
   -20.1020 -19.0865 -15.6690 -15.5788 -15.4228 -15.3667 -15.2899 -15.2561
   -15.2132 -15.1425 -15.1150 -15.1107 -15.0478 -15.0008 -14.9376 -14.9186
   -14.8964 -14.8916 -14.8637 -14.8275 -14.7907 -14.7364 -14.7287 -14.7232
   -14.7112 -14.6439 -14.6427 -14.6114 -14.6004 -14.5812 -14.4417 -12.7898
   -12.7892 -11.2005  -6.8878  -6.8554  -5.0966  -5.0168  -3.2316  -2.9727
    -2.8058  -2.7350  -2.6309  -2.5334  -2.5262  -2.4990  -2.4869  -2.4374
    -2.4276  -2.3727  -2.3592  -2.3573  -2.3435  -2.3278  -2.3057  -2.2892
    -2.2544  -2.2354  -2.1907  -2.1536  -2.1436  -2.1232  -2.1084  -2.0802
    -2.0575  -2.0114  -1.9616  -1.9148  -1.8985  -1.7592  -1.7333  -1.6028
    -1.5180  -1.4984  -1.4680  -1.3786  -1.2919  -1.2589  -1.2488  -1.2291
    -1.2096  -1.1516  -1.0917  -1.0448  -0.9879  -0.9418  -0.9201  -0.9124
    -0.8727  -0.8371  -0.7386  -0.6113  -0.5880  -0.5250  -0.5002  -0.3964
    -0.3518  -0.3055  -0.2766  -0.1921  -0.1730  -0.1160  -0.0682  -0.0602
    -0.0567  -0.0469   0.0392   0.0896   0.1027   0.1335   0.1683   0.1941
     0.2371   0.2611   0.2861   0.4378   0.4718   0.4755   0.5368   0.6392
     0.6973   0.7766   0.7886   0.8249   0.8709   0.9530   0.9559   1.0616
     1.0932   1.2983   1.3213   2.0516   2.0544   2.1864   2.1882   4.0240
     4.0840   4.1540   4.1843   4.2342   4.2917   4.3041   4.4059   4.4346
     4.4721   4.4944

          k = 0.0380-0.0419 0.0000 ( 17876 PWs)   bands (ev):

   -55.2401 -55.2146 -55.2127 -55.1883 -55.1502 -55.1416 -55.1350 -55.0949
   -55.0944 -55.0799 -55.0557 -55.0280 -55.0040 -55.0038 -54.3019 -54.2778
   -31.7551 -31.7240 -31.6597 -31.5743 -31.5378 -31.5115 -31.5067 -31.5032
   -31.4990 -31.4853 -31.4737 -31.4523 -31.4358 -31.4326 -31.4260 -31.4163
   -31.3966 -31.3907 -31.3844 -31.3834 -31.3723 -31.3546 -31.3406 -31.3371
   -31.3311 -31.3259 -31.3172 -31.3144 -31.2956 -31.2918 -31.2886 -31.2684
   -31.2564 -31.2485 -31.2406 -31.2281 -31.2229 -31.2186 -31.2053 -31.2009
   -31.1771 -31.1757 -30.6644 -30.6162 -30.5969 -30.5226 -30.4616 -30.3949
   -20.1035 -19.0867 -15.8768 -15.6410 -15.6074 -15.4581 -15.3060 -15.2615
   -15.2269 -15.1530 -15.1357 -15.0800 -15.0417 -14.9768 -14.9415 -14.9302
   -14.9089 -14.8863 -14.8610 -14.8451 -14.7743 -14.7674 -14.7203 -14.6838
   -14.6614 -14.6056 -14.5928 -14.5458 -14.5300 -14.4993 -14.2400 -12.8079
   -12.7273 -11.2008  -6.9024  -6.8407  -5.0941  -5.0219  -3.2138  -3.1200
    -3.0496  -2.9298  -2.8580  -2.8035  -2.7341  -2.7072  -2.6223  -2.5825
    -2.5185  -2.5053  -2.4576  -2.3855  -2.3330  -2.3148  -2.2572  -2.2435
    -2.2003  -2.1794  -2.1421  -2.0933  -2.0790  -2.0667  -2.0459  -1.9802
    -1.9375  -1.9237  -1.8828  -1.8440  -1.7888  -1.7485  -1.7293  -1.6840
    -1.6690  -1.6118  -1.5150  -1.4673  -1.4398  -1.3192  -1.2637  -1.1489
    -1.1324  -1.0882  -1.0302  -0.9550  -0.8892  -0.8135  -0.7249  -0.6993
    -0.6645  -0.6446  -0.6275  -0.5904  -0.5219  -0.4829  -0.4306  -0.3711
    -0.3527  -0.3034  -0.2487  -0.1996  -0.1760  -0.1270  -0.1023  -0.0227
    -0.0033   0.0293   0.0491   0.0752   0.1188   0.1454   0.1700   0.2072
     0.2681   0.3014   0.3471   0.3729   0.4679   0.5046   0.5876   0.6377
     0.7257   0.7544   0.8349   0.8818   0.8962   0.9533   1.0168   1.1151
     1.1709   1.2706   1.5260   1.9124   1.9735   2.1788   2.2504   4.0022
     4.0563   4.0624   4.1867   4.2375   4.2678   4.2907   4.3310   4.3997
     4.4175   4.4421

          k =-0.0760-0.0000 0.0000 ( 17886 PWs)   bands (ev):

   -55.2452 -55.2176 -55.2093 -55.1833 -55.1507 -55.1451 -55.1384 -55.0915
   -55.0913 -55.0847 -55.0507 -55.0330 -55.0031 -54.9989 -54.3069 -54.2728
   -31.8125 -31.7621 -31.7149 -31.6329 -31.5681 -31.5543 -31.5498 -31.5436
   -31.5062 -31.4772 -31.4610 -31.4480 -31.4383 -31.4234 -31.4128 -31.3915
   -31.3857 -31.3779 -31.3711 -31.3647 -31.3592 -31.3561 -31.3445 -31.3403
   -31.3356 -31.3334 -31.3135 -31.3112 -31.2906 -31.2751 -31.2671 -31.2602
   -31.2374 -31.2366 -31.2293 -31.2240 -31.1971 -31.1827 -31.1776 -31.1679
   -31.1552 -31.1452 -30.7180 -30.6241 -30.5915 -30.5351 -30.4488 -30.3376
   -20.1049 -19.0867 -15.8632 -15.7619 -15.5852 -15.4910 -15.3631 -15.2925
   -15.2345 -15.1774 -15.1539 -15.1154 -15.0949 -15.0478 -15.0408 -15.0239
   -14.9966 -14.9533 -14.8219 -14.7720 -14.7598 -14.7395 -14.7038 -14.6389
   -14.6329 -14.5563 -14.5523 -14.5120 -14.4207 -14.3934 -14.1251 -12.8010
   -12.6877 -11.2028  -6.9149  -6.8299  -5.0865  -5.0252  -3.2609  -3.1899
    -3.1356  -3.0142  -2.8821  -2.8063  -2.7528  -2.7276  -2.7119  -2.6724
    -2.6638  -2.5664  -2.5484  -2.5399  -2.5223  -2.3726  -2.2546  -2.1939
    -2.1749  -1.9520  -1.9299  -1.9192  -1.9024  -1.8654  -1.8628  -1.8346
    -1.8125  -1.7691  -1.7536  -1.7492  -1.7086  -1.6111  -1.5802  -1.5750
    -1.5422  -1.4898  -1.4568  -1.4513  -1.4128  -1.3388  -1.2614  -1.1870
    -1.1465  -1.0035  -1.0014  -0.9906  -0.9649  -0.9311  -0.8641  -0.8490
    -0.8203  -0.7453  -0.7352  -0.7152  -0.6722  -0.6175  -0.5881  -0.5378
    -0.5260  -0.4817  -0.2221  -0.2020  -0.1764  -0.1529  -0.0701  -0.0521
    -0.0007   0.0491   0.1221   0.1291   0.1904   0.2175   0.2489   0.2647
     0.3306   0.3723   0.4114   0.4461   0.4546   0.4828   0.5248   0.5744
     0.6503   0.7052   0.7057   0.7470   0.9022   1.0245   1.0419   1.2158
     1.3077   1.3721   1.6218   1.7530   1.8203   2.0535   2.2164   3.8669
     3.9007   3.9848   4.0945   4.1374   4.2031   4.2895   4.3275   4.3355
     4.3701   4.4011

          k =-0.0760 0.0419 0.0000 ( 17914 PWs)   bands (ev):

   -55.2400 -55.2146 -55.2127 -55.1883 -55.1498 -55.1420 -55.1350 -55.0950
   -55.0944 -55.0798 -55.0557 -55.0281 -55.0041 -55.0039 -54.3019 -54.2778
   -31.7554 -31.7242 -31.6608 -31.5801 -31.5380 -31.5155 -31.5079 -31.5071
   -31.4992 -31.4853 -31.4737 -31.4526 -31.4357 -31.4268 -31.4164 -31.4123
   -31.3967 -31.3910 -31.3743 -31.3724 -31.3523 -31.3520 -31.3472 -31.3432
   -31.3404 -31.3364 -31.3145 -31.3017 -31.2934 -31.2909 -31.2884 -31.2756
   -31.2721 -31.2406 -31.2378 -31.2326 -31.2278 -31.2262 -31.2046 -31.2017
   -31.1814 -31.1757 -30.6642 -30.6194 -30.5962 -30.5226 -30.4616 -30.3949
   -20.1034 -19.0865 -15.7495 -15.6947 -15.4983 -15.4011 -15.2910 -15.2128
   -15.1922 -15.1534 -15.1258 -15.0944 -15.0559 -15.0301 -15.0168 -14.9944
   -14.9814 -14.9358 -14.8655 -14.8304 -14.7898 -14.7750 -14.7061 -14.6920
   -14.6718 -14.6094 -14.6055 -14.5993 -14.5259 -14.4912 -14.2400 -12.8056
   -12.7277 -11.2021  -6.9045  -6.8386  -5.0933  -5.0168  -3.1861  -3.0957
    -3.0582  -2.9089  -2.6492  -2.6208  -2.5479  -2.5376  -2.5190  -2.4858
    -2.4637  -2.4364  -2.3733  -2.3391  -2.3257  -2.2948  -2.2507  -2.1975
    -2.1884  -2.1536  -2.1141  -2.0518  -2.0231  -1.9904  -1.9706  -1.9422
    -1.9085  -1.8468  -1.8242  -1.7910  -1.7659  -1.7522  -1.7401  -1.6888
    -1.6004  -1.4925  -1.4835  -1.4371  -1.3995  -1.3273  -1.2689  -1.2565
    -1.0867  -1.0637  -0.9933  -0.9644  -0.9206  -0.8672  -0.8372  -0.7637
    -0.7566  -0.7186  -0.6559  -0.6376  -0.6331  -0.5783  -0.5108  -0.5050
    -0.4992  -0.4951  -0.4229  -0.4022  -0.3444  -0.3170  -0.2435  -0.2141
    -0.1244  -0.0863  -0.0423  -0.0218   0.0022   0.0411   0.0782   0.1848
     0.2257   0.2485   0.3249   0.3816   0.4499   0.4868   0.5345   0.6553
     0.7207   0.7649   0.8726   0.9321   0.9957   1.0200   1.1193   1.1396
     1.1983   1.2320   1.3670   1.9269   1.9758   2.1011   2.2372   4.0144
     4.0342   4.0567   4.0696   4.1608   4.2140   4.2414   4.3170   4.3361
     4.4629   4.5063

          k =-0.0760-0.0839 0.0000 ( 17948 PWs)   bands (ev):

   -55.2284 -55.2263 -55.2025 -55.1986 -55.1489 -55.1384 -55.1311 -55.0990
   -55.0982 -55.0693 -55.0662 -55.0179 -55.0142 -55.0051 -54.2900 -54.2898
   -31.6788 -31.6193 -31.6123 -31.5297 -31.5259 -31.5125 -31.5008 -31.4957
   -31.4881 -31.4676 -31.4494 -31.4439 -31.4398 -31.4262 -31.4005 -31.3982
   -31.3865 -31.3840 -31.3769 -31.3760 -31.3725 -31.3692 -31.3567 -31.3426
   -31.3347 -31.3298 -31.3288 -31.3222 -31.3192 -31.3190 -31.3186 -31.3007
   -31.2935 -31.2905 -31.2721 -31.2675 -31.2670 -31.2430 -31.2391 -31.2041
   -31.1997 -31.1868 -30.6077 -30.6075 -30.5318 -30.5315 -30.4923 -30.4921
   -20.1019 -19.0864 -15.6333 -15.5345 -15.3843 -15.2611 -15.2488 -15.2361
   -15.1840 -15.1197 -15.1055 -15.0557 -15.0427 -15.0120 -14.9961 -14.9902
   -14.9542 -14.8458 -14.8418 -14.8315 -14.8107 -14.7656 -14.7546 -14.7475
   -14.7352 -14.6992 -14.6908 -14.6765 -14.6661 -14.5745 -14.4357 -12.7896
   -12.7890 -11.2014  -6.8900  -6.8514  -5.0987  -5.0117  -3.1862  -2.9996
    -2.8027  -2.7241  -2.6265  -2.4790  -2.4643  -2.3833  -2.3715  -2.3213
    -2.2501  -2.2470  -2.2435  -2.1621  -2.1498  -2.1498  -2.1286  -2.1092
    -2.0697  -2.0607  -2.0371  -2.0263  -1.9846  -1.9540  -1.9409  -1.9242
    -1.9135  -1.9095  -1.8788  -1.8640  -1.8489  -1.8078  -1.7863  -1.7250
    -1.6434  -1.5990  -1.4763  -1.4736  -1.4423  -1.4103  -1.3826  -1.3426
    -1.3222  -1.2746  -1.2565  -1.2285  -1.0452  -1.0293  -0.9753  -0.9353
    -0.9150  -0.9016  -0.8396  -0.7679  -0.7414  -0.7096  -0.6435  -0.5707
    -0.4749  -0.4504  -0.4420  -0.3371  -0.2838  -0.2441  -0.2398  -0.2304
    -0.2064  -0.1580  -0.1383  -0.0765  -0.0373   0.0063   0.0317   0.0486
     0.2299   0.2681   0.3265   0.4180   0.4468   0.5918   0.6401   0.6921
     0.7526   0.8292   0.8403   0.9061   1.0204   1.0325   1.0622   1.1394
     1.1828   1.1885   1.2136   2.0702   2.0723   2.1739   2.1768   3.9756
     4.0830   4.1016   4.1805   4.2468   4.3548   4.3679   4.3972   4.4077
     4.4526   4.4852

     the Fermi energy is     3.9021 ev

!    total energy              =   -2967.47585025 Ry
     estimated scf accuracy    <       0.00000005 Ry
     smearing contrib. (-TS)   =      -0.03654199 Ry
     internal energy E=F+TS    =   -2967.43930827 Ry

     The total energy is F=E-TS. E is the sum of the following terms:
     one-electron contribution =  -23960.91679285 Ry
     hartree contribution      =   12076.11359961 Ry
     xc contribution           =    -491.85810205 Ry
     ewald contribution        =    9409.21836326 Ry
     electric field correction =       0.00362377 Ry

     convergence has been achieved in  70 iterations

     Forces acting on atoms (cartesian axes, Ry/au):

     atom    1 type  1   force =    -0.00026143    0.00019248    0.09243838
     atom    2 type  1   force =    -0.00035418    0.00104045   -0.18343038
     atom    3 type  2   force =     0.00050377   -0.00072320   -0.02349989
     atom    4 type  2   force =     0.00072339   -0.00018345    0.05068460
     atom    5 type  2   force =    -0.01405026   -0.00131441    0.00495120
     atom    6 type  2   force =     0.01521611   -0.00065135    0.00509085
     atom    7 type  1   force =    -0.00048835    0.00105863   -0.00014877
     atom    8 type  1   force =     0.00016018   -0.00054024    0.00040191
     atom    9 type  2   force =    -0.00044078    0.00017205    0.00041320
     atom   10 type  2   force =     0.00040843    0.00016351    0.00047617
     atom   11 type  2   force =     0.00035734    0.00044033    0.00034222
     atom   12 type  2   force =     0.00005702    0.00014021    0.00027101
     atom   13 type  1   force =    -0.00088716   -0.00118557   -0.00011875
     atom   14 type  1   force =     0.00059260   -0.00005227    0.00021569
     atom   15 type  2   force =     0.00051796    0.00076772    0.00005146
     atom   16 type  2   force =    -0.00060903   -0.00036648    0.00006809
     atom   17 type  2   force =     0.00001148    0.00019611   -0.00032828
     atom   18 type  2   force =    -0.00008641    0.00023188   -0.00016826
     atom   19 type  1   force =     0.00059895   -0.00003509   -0.00029124
     atom   20 type  1   force =    -0.00002893    0.00038247    0.00006692
     atom   21 type  2   force =    -0.00004232    0.00015690    0.10498639
     atom   22 type  2   force =    -0.00037818    0.00058599   -0.00069844
     atom   23 type  2   force =    -0.06797786    0.00012996   -0.02680769
     atom   24 type  2   force =     0.06769713    0.00052571   -0.02687838
     atom   25 type  1   force =    -0.00038748   -0.00008786    0.09623068
     atom   26 type  1   force =    -0.00035101   -0.00099227   -0.18323250
     atom   27 type  2   force =     0.00041926   -0.00125435   -0.02225940
     atom   28 type  2   force =     0.00070121   -0.00033554    0.05100365
     atom   29 type  2   force =    -0.01423702   -0.00105768    0.00466161
     atom   30 type  2   force =     0.01518806    0.00021347    0.00484677
     atom   31 type  1   force =    -0.00049988   -0.00146632    0.00016494
     atom   32 type  1   force =     0.00013471    0.00071374   -0.00026986
     atom   33 type  2   force =     0.00002079   -0.00020434    0.00007747
     atom   34 type  2   force =     0.00002466   -0.00006849   -0.00008547
     atom   35 type  2   force =     0.00021538    0.00008638    0.00030790
     atom   36 type  2   force =     0.00039574    0.00045341    0.00005557
     atom   37 type  1   force =    -0.00106676    0.00125308   -0.00006909
     atom   38 type  1   force =     0.00037774    0.00011353   -0.00044050
     atom   39 type  2   force =     0.00038818    0.00021658   -0.00032207
     atom   40 type  2   force =    -0.00008016    0.00019583    0.00006432
     atom   41 type  2   force =    -0.00027208    0.00020792   -0.00045933
     atom   42 type  2   force =     0.00019770    0.00004130    0.00015209
     atom   43 type  1   force =    -0.00063616    0.00011863    0.00011732
     atom   44 type  1   force =    -0.00005775   -0.00017492   -0.00053253
     atom   45 type  2   force =    -0.00005607    0.00015318    0.10491498
     atom   46 type  2   force =    -0.06802607   -0.00037461   -0.02680725
     atom   47 type  2   force =     0.06774484    0.00004585   -0.02689246
     atom   48 type  3   force =    -0.00330013    0.00110500   -0.01721976
     atom   49 type  2   force =    -0.00318419    0.00068057    0.00666932
     atom   50 type  4   force =     0.00303151    0.00081996    0.00263745
     atom   51 type  4   force =     0.00077955    0.00082284   -0.00009257
     atom   52 type  4   force =     0.00157485   -0.00382787    0.00509048
     atom   53 type  4   force =     0.00063417    0.00301619    0.00299009
     atom   54 type  2   force =     0.00089124   -0.00022763    0.00120006
     atom   55 type  4   force =    -0.00086103   -0.00035995   -0.00067393
     atom   56 type  4   force =    -0.00094324   -0.00095797    0.00008404

     Total force =     0.368797     Total SCF correction =     0.000640
  @ DRIVER MODE: Message from server: STATUS
  @ DRIVER MODE: Message from server: GETFORCE
  @ DRIVER MODE: Returning v,forces,stress,ensemble 

     Writing output data file ./calc.save/
  @ DRIVER MODE: Message from server: EXIT
  @ DRIVE MODE: Exiting  
 
     init_run     :     10.62s CPU     10.83s WALL (       1 calls)
     electrons    :   1055.19s CPU   1071.28s WALL (       1 calls)
     forces       :      2.27s CPU      2.36s WALL (       1 calls)

     Called by init_run:
     wfcinit      :      4.77s CPU      4.83s WALL (       1 calls)
     potinit      :      5.26s CPU      5.32s WALL (       1 calls)
     hinit0       :      0.26s CPU      0.26s WALL (       1 calls)

     Called by electrons:
     c_bands      :    894.36s CPU    901.29s WALL (      70 calls)
     sum_band     :    109.98s CPU    113.62s WALL (      70 calls)
     v_of_rho     :     39.36s CPU     41.31s WALL (      71 calls)
     newd         :     14.68s CPU     18.27s WALL (      71 calls)
     mix_rho      :      1.44s CPU      1.45s WALL (      70 calls)
     vdW_kernel   :      4.54s CPU      4.55s WALL (       1 calls)

     Called by c_bands:
     init_us_2    :      6.28s CPU      6.30s WALL (    1420 calls)
     cegterg      :    875.60s CPU    882.28s WALL (     715 calls)

     Called by *egterg:
     cdiaghg      :    141.53s CPU    142.40s WALL (    6582 calls)
     h_psi        :    476.95s CPU    481.57s WALL (    6593 calls)
     s_psi        :     61.88s CPU     62.10s WALL (    6593 calls)
     g_psi        :      1.69s CPU      1.70s WALL (    5868 calls)

     Called by h_psi:
     h_psi:calbec :     58.50s CPU     58.77s WALL (    6593 calls)
     vloc_psi     :    353.34s CPU    357.06s WALL (    6593 calls)
     add_vuspsi   :     61.98s CPU     62.38s WALL (    6593 calls)

     General routines
     calbec       :     78.10s CPU     78.43s WALL (    7333 calls)
     fft          :     19.99s CPU     20.15s WALL (    4473 calls)
     ffts         :      0.13s CPU      0.13s WALL (     141 calls)
     fftw         :    397.73s CPU    401.87s WALL (  940964 calls)
     interpolate  :      0.40s CPU      0.41s WALL (      71 calls)
     davcio       :      0.00s CPU      0.28s WALL (      10 calls)
 
     Parallel routines
 
     PWSCF        :  17m48.26s CPU  18m 5.29s WALL

 
   This run was terminated on:  17:51:26  15Sep2021            

=------------------------------------------------------------------------------=
   JOB DONE.
=------------------------------------------------------------------------------=
