
     Program PWSCF v.6.7GPU starts on 15Sep2021 at 23:18:18 

     This program is part of the open-source Quantum ESPRESSO suite
     for quantum simulation of materials; please cite
         "P. Giannozzi et al., J. Phys.:Condens. Matter 21 395502 (2009);
         "P. Giannozzi et al., J. Phys.:Condens. Matter 29 465901 (2017);
         "P. Giannozzi et al., J. Chem. Phys. 152 154105 (2020);
          URL http://www.quantum-espresso.org", 
     in publications or presentations arising from this work. More details at
     http://www.quantum-espresso.org/quote

     Parallel version (MPI), running on    10 processors

     MPI processes distributed on     1 nodes
     R & G space division:  proc/nbgrp/npool/nimage =      10
     Reading input from /storage/home/hcoda1/3/ntian30/research/carbon/CxH_vib/H2O_calc/ads_slab/CH2NHNH2O_a/out_0024/pw.inp
Warning: card &CELL ignored
Warning: card   CELL_DYNAMICS='IPI', ignored
Warning: card / ignored

     Current dimensions of program PWSCF are:
     Max number of different atomic species (ntypx) = 10
     Max number of k-points (npk) =  40000
     Max angular momentum in pseudopotentials (lmaxx) =  3
     Presently no symmetry can be used with electric field

     Message from routine cell_base_init:
     DEPRECATED: use true lattice parameter, not A to a.u. conversion factor

     **************************************************************************
     Initializing libbeef V0.1.2 with the BEEF-vdW functional.
     Citation: Wellendorff et al., PRB 85, 235149 (2012).
     **************************************************************************


     IMPORTANT: XC functional enforced from input :
     Exchange-correlation= BEEF-VDW
                           (   1   4  43  14   2   0   0)
     Any further DFT definition will be discarded
     Please, verify this is what you really want


     Subspace diagonalization in iterative solution of the eigenvalue problem:
     one sub-group per band group will be used
     scalapack distributed-memory algorithm (size of sub-group:  3*  3 procs)

  @ DRIVER MODE: Connecting to 
 qe_1139763_2852610.sched-torque.pace.gatech.eduubbhv0r6_scratch
  using UNIX socket
  @ DRIVER MODE: Message from server: STATUS
  @ DRIVER MODE: Message from server: INIT
  @ DRIVER MODE: Receiving replica           0          -1
  @ DRIVER MODE: Receiving encoded integer          25
  @ DRIVER MODE:  SCF:  T  FORCE:  T  STRESS:  F  VC:  F  ENSEMBLE:  F
  @ DRIVER MODE:  SCF:  T  FORCE:  T  STRESS:  F  VC:  F  ENSEMBLE:  F
 
     Parallelization info
     --------------------
     sticks:   dense  smooth     PW     G-vecs:    dense   smooth      PW
     Min         327     131     37                56683    14340    2191
     Max         328     133     38                56694    14346    2206
     Sum        3275    1317    379               566857   143421   21985
 
     Using Slab Decomposition
 


     bravais-lattice index     =            0
     lattice parameter (alat)  =       1.8897  a.u.
     unit-cell volume          =    6658.9804 (a.u.)^3
     number of atoms/cell      =           56
     number of atomic types    =            5
     number of electrons       =       403.00
     number of Kohn-Sham states=          211
     kinetic-energy cutoff     =      29.3995  Ry
     charge density cutoff     =     293.9946  Ry
     scf convergence threshold =      7.3E-08
     mixing beta               =       0.0500
     number of iterations used =            8  plain     mixing
     Exchange-correlation= BEEF-VDW
                           (   1   4  43  14   2   0   0)

     celldm(1)=   1.889726  celldm(2)=   0.000000  celldm(3)=   0.000000
     celldm(4)=   0.000000  celldm(5)=   0.000000  celldm(6)=   0.000000

     crystal axes: (cart. coord. in units of alat)
               a(1) = (   6.579727   0.000000   0.000000 )  
               a(2) = (  -0.000775   5.961596   0.000000 )  
               a(3) = (   0.000000   0.000000  25.155947 )  

     reciprocal axes: (cart. coord. in units 2 pi/alat)
               b(1) = (  0.151982  0.000020  0.000000 )  
               b(2) = (  0.000000  0.167740  0.000000 )  
               b(3) = (  0.000000  0.000000  0.039752 )  


     PseudoPot. # 1 for Ti read from file:
     /storage/coda1/p-amedford6/0/shared/rich_project_chbe-medford/medford-share/data/pseudos_module/espresso/nninc/pbe/van/Ti.UPF
     MD5 check sum: 8e4df49b7f0d34bbd5052bf3f5ea0213
     Pseudo is Ultrasoft, Zval = 12.0
     Generated by new atomic code, or converted to UPF format
     Using radial grid of  851 points,  6 beta functions with: 
                l(1) =   0
                l(2) =   0
                l(3) =   1
                l(4) =   1
                l(5) =   2
                l(6) =   2
     Q(r) pseudized with  8 coefficients,  rinner =    1.000   1.000   1.000
                                                       1.000   1.000

     PseudoPot. # 2 for O  read from file:
     /storage/coda1/p-amedford6/0/shared/rich_project_chbe-medford/medford-share/data/pseudos_module/espresso/nninc/pbe/van/O.UPF
     MD5 check sum: 78c19812648e8988a0fe644b0f25305e
     Pseudo is Ultrasoft, Zval =  6.0
     Generated by new atomic code, or converted to UPF format
     Using radial grid of  737 points,  4 beta functions with: 
                l(1) =   0
                l(2) =   0
                l(3) =   1
                l(4) =   1
     Q(r) pseudized with  8 coefficients,  rinner =    0.800   0.800   0.800


     PseudoPot. # 3 for H  read from file:
     /storage/coda1/p-amedford6/0/shared/rich_project_chbe-medford/medford-share/data/pseudos_module/espresso/nninc/pbe/van/H.UPF
     MD5 check sum: b5ee9d7bfd3a09ee7748110bda690ff7
     Pseudo is Ultrasoft, Zval =  1.0
     Generated by new atomic code, or converted to UPF format
     Using radial grid of  615 points,  1 beta functions with: 
                l(1) =   0
     Q(r) pseudized with  8 coefficients,  rinner =    0.800

     PseudoPot. # 4 for N  read from file:
     /storage/coda1/p-amedford6/0/shared/rich_project_chbe-medford/medford-share/data/pseudos_module/espresso/nninc/pbe/van/N.UPF
     MD5 check sum: 90d10febe142ad51ac9d5be1deb811c4
     Pseudo is Ultrasoft, Zval =  5.0
     Generated by new atomic code, or converted to UPF format
     Using radial grid of  729 points,  4 beta functions with: 
                l(1) =   0
                l(2) =   0
                l(3) =   1
                l(4) =   1
     Q(r) pseudized with  8 coefficients,  rinner =    0.800   0.800   0.800


     PseudoPot. # 5 for C  read from file:
     /storage/coda1/p-amedford6/0/shared/rich_project_chbe-medford/medford-share/data/pseudos_module/espresso/nninc/pbe/van/C.UPF
     MD5 check sum: 1a69bf6b8db32088f5b2163dbdb77a27
     Pseudo is Ultrasoft, Zval =  4.0
     Generated by new atomic code, or converted to UPF format
     Using radial grid of  721 points,  4 beta functions with: 
                l(1) =   0
                l(2) =   0
                l(3) =   1
                l(4) =   1
     Q(r) pseudized with  8 coefficients,  rinner =    0.800   0.800   0.800


     atomic species   valence    mass     pseudopotential
        Ti1           12.00    47.86700     Ti( 1.00)
        O1             6.00    15.99900     O ( 1.00)
        H1             1.00     1.00800     H ( 1.00)
        N1             5.00    14.00700     N ( 1.00)
        C1             4.00    12.01100     C ( 1.00)

     No symmetry found



   Cartesian axes

     site n.     atom                  positions (alat units)
         1           Ti1 tau(   1) = (   0.0004258   2.9801865   6.0000000  )
         2           Ti1 tau(   2) = (   3.2906075   1.4906267   6.0002472  )
         3           O1  tau(   3) = (   0.0006271   0.0005054   7.9858123  )
         4           O1  tau(   4) = (   3.2906025   0.0005020   7.3038282  )
         5           O1  tau(   5) = (   4.5942328   1.4918067   9.2879030  )
         6           O1  tau(   6) = (   1.9868534   1.4903216   9.2879459  )
         7           Ti1 tau(   7) = (   3.2907910   2.8959150   9.1758416  )
         8           Ti1 tau(   8) = (   0.0015273   1.4827037   9.2680791  )
         9           O1  tau(   9) = (   3.2960012   0.0062018  11.3595187  )
        10           O1  tau(  10) = (   0.0116148   5.9584955  10.6183126  )
        11           O1  tau(  11) = (   1.2731109   1.5057875  12.6314550  )
        12           O1  tau(  12) = (   5.2959999   1.4755877  12.6679080  )
        13           Ti1 tau(  13) = (   0.0553992   2.9538365  12.5526742  )
        14           Ti1 tau(  14) = (   3.3268292   1.5427496  12.5634199  )
        15           O1  tau(  15) = (   0.1371361   5.9015051  14.6217027  )
        16           O1  tau(  16) = (   3.1880369   0.0098958  13.9252199  )
        17           O1  tau(  17) = (   4.6462182   1.4014471  15.8552565  )
        18           O1  tau(  18) = (   2.0822703   1.5558083  16.1249119  )
        19           Ti1 tau(  19) = (   3.3548958   3.0525267  15.8597497  )
        20           Ti1 tau(  20) = (   0.0948755   1.3182250  15.7908873  )
        21           O1  tau(  21) = (   3.2904802   0.0005063   4.7018136  )
        22           O1  tau(  22) = (   0.0722171   0.0319689  17.1393915  )
        23           O1  tau(  23) = (   1.3043587   1.4918075   6.0039043  )
        24           O1  tau(  24) = (   5.2767064   1.4903225   6.0039473  )
        25           Ti1 tau(  25) = (   0.0000382   5.9609847   6.0000000  )
        26           Ti1 tau(  26) = (   3.2902200   4.4714249   6.0002472  )
        27           O1  tau(  27) = (   0.0002396   2.9813036   7.9858123  )
        28           O1  tau(  28) = (   3.2902150   2.9813002   7.3038282  )
        29           O1  tau(  29) = (   4.5938453   4.4726049   9.2879030  )
        30           O1  tau(  30) = (   1.9864658   4.4711199   9.2879459  )
        31           Ti1 tau(  31) = (   3.2891106   5.8743827   9.1763621  )
        32           Ti1 tau(  32) = (   0.0006254   4.4649316   9.2693709  )
        33           O1  tau(  33) = (   3.2982667   2.9897935  11.3544942  )
        34           O1  tau(  34) = (   0.0092240   2.9805883  10.6323155  )
        35           O1  tau(  35) = (   1.2737041   4.4504026  12.6113924  )
        36           O1  tau(  36) = (   5.2903739   4.4874249  12.6576873  )
        37           Ti1 tau(  37) = (   6.5697415   5.9260651  12.4959683  )
        38           Ti1 tau(  38) = (   3.3125242   4.5024033  12.5372123  )
        39           O1  tau(  39) = (   0.0674008   2.9793056  14.8363759  )
        40           O1  tau(  40) = (   3.2999477   2.9756493  13.9369993  )
        41           O1  tau(  41) = (   4.6108370   4.5787535  15.7719701  )
        42           O1  tau(  42) = (   2.0428421   4.3627697  16.1441833  )
        43           Ti1 tau(  43) = (   3.3552955   0.0804576  15.7648105  )
        44           Ti1 tau(  44) = (   6.5672415   4.5273692  15.9765751  )
        45           O1  tau(  45) = (   3.2900926   2.9813045   4.7018136  )
        46           O1  tau(  46) = (   1.3039711   4.4726057   6.0039043  )
        47           O1  tau(  47) = (   5.2763189   4.4711207   6.0039473  )
        48           H1  tau(  48) = (   4.1035413   2.4672077  18.5646977  )
        49           N1  tau(  49) = (   5.6961598   3.2907635  17.7856741  )
        50           C1  tau(  50) = (   6.4968133   2.7471819  18.6454045  )
        51           H1  tau(  51) = (   6.1325458   2.1374441  19.4777963  )
        52           H1  tau(  52) = (   0.9799315   2.9096255  18.5325614  )
        53           N1  tau(  53) = (   4.3409097   3.1788467  17.8642182  )
        54           O1  tau(  54) = (   3.3174094   5.8609012  18.0981057  )
        55           H1  tau(  55) = (   3.6736973   4.9388346  18.2201127  )
        56           H1  tau(  56) = (   2.3597147   5.7972335  18.2603650  )

     number of k points=    10  Fermi-Dirac smearing, width (Ry)=  0.0073
                       cart. coord. in units 2pi/alat
        k(    1) = (   0.0000000   0.0000000   0.0000000), wk =   0.1250000
        k(    2) = (   0.0000000   0.0419351   0.0000000), wk =   0.2500000
        k(    3) = (   0.0000000  -0.0838702   0.0000000), wk =   0.1250000
        k(    4) = (   0.0379955   0.0000049   0.0000000), wk =   0.2500000
        k(    5) = (   0.0379955   0.0419400   0.0000000), wk =   0.2500000
        k(    6) = (   0.0379955  -0.0838652   0.0000000), wk =   0.2500000
        k(    7) = (   0.0379955  -0.0419301   0.0000000), wk =   0.2500000
        k(    8) = (  -0.0759910  -0.0000099   0.0000000), wk =   0.1250000
        k(    9) = (  -0.0759910   0.0419252   0.0000000), wk =   0.2500000
        k(   10) = (  -0.0759910  -0.0838800   0.0000000), wk =   0.1250000

     Dense  grid:   566857 G-vectors     FFT dimensions: (  72,  64, 270)

     Smooth grid:   143421 G-vectors     FFT dimensions: (  45,  40, 180)

     Estimated max dynamical RAM per process >     367.48 MB

     Estimated total dynamical RAM >       3.59 GB
     Cannot read rho : file not found

     Initial potential from superposition of free atoms

     starting charge  386.99914, renormalised to  403.00000

     negative rho (up, down):  1.702E-02 0.000E+00


     %%%%%%%%%%%%%%%%%%%%%%%%%%%%%%%%%%%%%%%%%%%%%%%%%%%%%%%%%%%%%%%%%%%%%%%%
     %                                                                      %
     % You are using vdW-DF, which was implemented by the Thonhauser group. %
     % Please cite the following two papers that made this development      %
     % possible and the two reviews that describe the various versions:     %
     %                                                                      %
     %   T. Thonhauser et al., PRL 115, 136402 (2015).                      %
     %   T. Thonhauser et al., PRB 76, 125112 (2007).                       %
     %   K. Berland et al., Rep. Prog. Phys. 78, 066501 (2015).             %
     %   D.C. Langreth et al., J. Phys.: Condens. Matter 21, 084203 (2009). %
     %                                                                      %
     %                                                                      %
     % If you are calculating the stress with vdW-DF, please also cite:     %
     %                                                                      %
     %   R. Sabatini et al., J. Phys.: Condens. Matter 24, 424209 (2012).   %
     %                                                                      %
     %%%%%%%%%%%%%%%%%%%%%%%%%%%%%%%%%%%%%%%%%%%%%%%%%%%%%%%%%%%%%%%%%%%%%%%%


 
     Adding external electric field

     Computed dipole along edir(3) : 
        Dipole              -12.3744 Ry au,        -31.4527 Debye
        Dipole field         -0.0234 Ry au, 
 
        Potential amp.        2.1647 Ry
        Total length         46.3494 bohr
 
     Starting wfcs are  305 atomic wfcs
  @ DRIVER MODE: Message from server: STATUS
  @ DRIVER MODE: Message from server: POSDATA
  @ DRIVER MODE: Reading and sharing cell 
  @ DRIVER MODE: Reading and sharing positions 
  @ DRIVER MODE: Received positions 

     total cpu time spent up to now is       11.3 secs

     Self-consistent Calculation

     iteration #  1     ecut=    29.40 Ry     beta= 0.05
     Davidson diagonalization with overlap
     c_bands:  4 eigenvalues not converged
     c_bands:  3 eigenvalues not converged
     c_bands:  3 eigenvalues not converged
     c_bands:  1 eigenvalues not converged
     c_bands:  1 eigenvalues not converged
     c_bands:  4 eigenvalues not converged
     c_bands:  3 eigenvalues not converged
     ethr =  1.00E-05,  avg # of iterations = 27.4

     negative rho (up, down):  9.762E-03 0.000E+00
 
     Adding external electric field

     Computed dipole along edir(3) : 
        Dipole               53.6587 Ry au,        136.3869 Debye
        Dipole field          0.1013 Ry au, 
 
        Potential amp.       -9.3868 Ry
        Total length         46.3494 bohr
 

     total cpu time spent up to now is       59.1 secs

     total energy              =   -2355.33696917 Ry
     estimated scf accuracy    <    7010.77418489 Ry

     iteration #  2     ecut=    29.40 Ry     beta= 0.05
     Davidson diagonalization with overlap
     ethr =  1.00E-02,  avg # of iterations = 24.8

     negative rho (up, down):  4.348E-04 0.000E+00
 
     Adding external electric field

     Computed dipole along edir(3) : 
        Dipole                0.0914 Ry au,          0.2322 Debye
        Dipole field          0.0002 Ry au, 
 
        Potential amp.       -0.0160 Ry
        Total length         46.3494 bohr
 

     total cpu time spent up to now is      138.0 secs

     total energy              =   -2479.22211978 Ry
     estimated scf accuracy    <   70191.98817181 Ry

     iteration #  3     ecut=    29.40 Ry     beta= 0.05
     Davidson diagonalization with overlap
     ethr =  1.00E-02,  avg # of iterations = 15.5

     negative rho (up, down):  4.948E-04 0.000E+00
 
     Adding external electric field

     Computed dipole along edir(3) : 
        Dipole               -3.3167 Ry au,         -8.4302 Debye
        Dipole field         -0.0063 Ry au, 
 
        Potential amp.        0.5802 Ry
        Total length         46.3494 bohr
 

     total cpu time spent up to now is      187.1 secs

     total energy              =   -2957.95127611 Ry
     estimated scf accuracy    <    6215.44661943 Ry

     iteration #  4     ecut=    29.40 Ry     beta= 0.05
     Davidson diagonalization with overlap
     ethr =  1.00E-02,  avg # of iterations = 13.4

     negative rho (up, down):  5.134E-04 0.000E+00
 
     Adding external electric field

     Computed dipole along edir(3) : 
        Dipole               -4.9380 Ry au,        -12.5513 Debye
        Dipole field         -0.0093 Ry au, 
 
        Potential amp.        0.8638 Ry
        Total length         46.3494 bohr
 

     total cpu time spent up to now is      209.8 secs

     total energy              =   -2966.03966868 Ry
     estimated scf accuracy    <    1802.58480842 Ry

     iteration #  5     ecut=    29.40 Ry     beta= 0.05
     Davidson diagonalization with overlap
     ethr =  1.00E-02,  avg # of iterations =  1.9

     negative rho (up, down):  5.744E-04 0.000E+00
 
     Adding external electric field

     Computed dipole along edir(3) : 
        Dipole               -7.2300 Ry au,        -18.3768 Debye
        Dipole field         -0.0136 Ry au, 
 
        Potential amp.        1.2648 Ry
        Total length         46.3494 bohr
 

     total cpu time spent up to now is      220.2 secs

     total energy              =   -2943.14177926 Ry
     estimated scf accuracy    <    1862.76181531 Ry

     iteration #  6     ecut=    29.40 Ry     beta= 0.05
     Davidson diagonalization with overlap
     ethr =  1.00E-02,  avg # of iterations = 13.6

     negative rho (up, down):  5.629E-04 0.000E+00
 
     Adding external electric field

     Computed dipole along edir(3) : 
        Dipole               -6.0100 Ry au,        -15.2760 Debye
        Dipole field         -0.0113 Ry au, 
 
        Potential amp.        1.0514 Ry
        Total length         46.3494 bohr
 

     total cpu time spent up to now is      245.2 secs

     total energy              =   -2978.16530766 Ry
     estimated scf accuracy    <      59.16513934 Ry

     iteration #  7     ecut=    29.40 Ry     beta= 0.05
     Davidson diagonalization with overlap
     ethr =  1.00E-02,  avg # of iterations =  1.5

     negative rho (up, down):  5.797E-04 0.000E+00
 
     Adding external electric field

     Computed dipole along edir(3) : 
        Dipole               -5.1316 Ry au,        -13.0433 Debye
        Dipole field         -0.0097 Ry au, 
 
        Potential amp.        0.8977 Ry
        Total length         46.3494 bohr
 

     total cpu time spent up to now is      255.5 secs

     total energy              =   -2977.29451071 Ry
     estimated scf accuracy    <      20.07662672 Ry

     iteration #  8     ecut=    29.40 Ry     beta= 0.05
     Davidson diagonalization with overlap
     ethr =  4.98E-03,  avg # of iterations =  2.4

     negative rho (up, down):  5.834E-04 0.000E+00
 
     Adding external electric field

     Computed dipole along edir(3) : 
        Dipole               -5.0182 Ry au,        -12.7549 Debye
        Dipole field         -0.0095 Ry au, 
 
        Potential amp.        0.8779 Ry
        Total length         46.3494 bohr
 

     total cpu time spent up to now is      266.0 secs

     total energy              =   -2977.31965784 Ry
     estimated scf accuracy    <      19.62620877 Ry

     iteration #  9     ecut=    29.40 Ry     beta= 0.05
     Davidson diagonalization with overlap
     ethr =  4.87E-03,  avg # of iterations =  1.0

     negative rho (up, down):  7.538E-04 0.000E+00
 
     Adding external electric field

     Computed dipole along edir(3) : 
        Dipole               -2.2225 Ry au,         -5.6491 Debye
        Dipole field         -0.0042 Ry au, 
 
        Potential amp.        0.3888 Ry
        Total length         46.3494 bohr
 

     total cpu time spent up to now is      275.8 secs

     total energy              =   -2973.00196684 Ry
     estimated scf accuracy    <      18.93577590 Ry

     iteration # 10     ecut=    29.40 Ry     beta= 0.05
     Davidson diagonalization with overlap
     ethr =  4.70E-03,  avg # of iterations =  8.1

     negative rho (up, down):  1.409E-03 0.000E+00
 
     Adding external electric field

     Computed dipole along edir(3) : 
        Dipole                0.1514 Ry au,          0.3848 Debye
        Dipole field          0.0003 Ry au, 
 
        Potential amp.       -0.0265 Ry
        Total length         46.3494 bohr
 

     total cpu time spent up to now is      288.9 secs

     total energy              =   -2979.02643558 Ry
     estimated scf accuracy    <     204.26538448 Ry

     iteration # 11     ecut=    29.40 Ry     beta= 0.05
     Davidson diagonalization with overlap
     ethr =  4.70E-03,  avg # of iterations =  8.5

     negative rho (up, down):  1.025E-03 0.000E+00
 
     Adding external electric field

     Computed dipole along edir(3) : 
        Dipole               -1.1204 Ry au,         -2.8479 Debye
        Dipole field         -0.0021 Ry au, 
 
        Potential amp.        0.1960 Ry
        Total length         46.3494 bohr
 

     total cpu time spent up to now is      306.5 secs

     total energy              =   -2976.07403949 Ry
     estimated scf accuracy    <     801.33775623 Ry

     iteration # 12     ecut=    29.40 Ry     beta= 0.05
     Davidson diagonalization with overlap
     ethr =  4.70E-03,  avg # of iterations =  2.2

     negative rho (up, down):  9.499E-04 0.000E+00
 
     Adding external electric field

     Computed dipole along edir(3) : 
        Dipole               -1.7960 Ry au,         -4.5651 Debye
        Dipole field         -0.0034 Ry au, 
 
        Potential amp.        0.3142 Ry
        Total length         46.3494 bohr
 

     total cpu time spent up to now is      317.3 secs

     total energy              =   -2972.93896159 Ry
     estimated scf accuracy    <     474.24630489 Ry

     iteration # 13     ecut=    29.40 Ry     beta= 0.05
     Davidson diagonalization with overlap
     ethr =  4.70E-03,  avg # of iterations =  6.5

     negative rho (up, down):  8.094E-04 0.000E+00
 
     Adding external electric field

     Computed dipole along edir(3) : 
        Dipole               -4.1419 Ry au,        -10.5276 Debye
        Dipole field         -0.0078 Ry au, 
 
        Potential amp.        0.7246 Ry
        Total length         46.3494 bohr
 

     total cpu time spent up to now is      329.7 secs

     total energy              =   -2962.58375089 Ry
     estimated scf accuracy    <     352.67971868 Ry

     iteration # 14     ecut=    29.40 Ry     beta= 0.05
     Davidson diagonalization with overlap
     ethr =  4.70E-03,  avg # of iterations = 13.2

     negative rho (up, down):  9.652E-04 0.000E+00
 
     Adding external electric field

     Computed dipole along edir(3) : 
        Dipole               -2.9634 Ry au,         -7.5323 Debye
        Dipole field         -0.0056 Ry au, 
 
        Potential amp.        0.5184 Ry
        Total length         46.3494 bohr
 

     total cpu time spent up to now is      351.8 secs

     total energy              =   -2974.15763375 Ry
     estimated scf accuracy    <      12.87668756 Ry

     iteration # 15     ecut=    29.40 Ry     beta= 0.05
     Davidson diagonalization with overlap
     ethr =  3.20E-03,  avg # of iterations =  1.7

     negative rho (up, down):  1.167E-03 0.000E+00
 
     Adding external electric field

     Computed dipole along edir(3) : 
        Dipole               -1.8844 Ry au,         -4.7896 Debye
        Dipole field         -0.0036 Ry au, 
 
        Potential amp.        0.3296 Ry
        Total length         46.3494 bohr
 

     total cpu time spent up to now is      362.3 secs

     total energy              =   -2973.74997208 Ry
     estimated scf accuracy    <       3.39481504 Ry

     iteration # 16     ecut=    29.40 Ry     beta= 0.05
     Davidson diagonalization with overlap
     ethr =  8.42E-04,  avg # of iterations =  6.0

     negative rho (up, down):  1.158E-03 0.000E+00
 
     Adding external electric field

     Computed dipole along edir(3) : 
        Dipole               -1.5187 Ry au,         -3.8601 Debye
        Dipole field         -0.0029 Ry au, 
 
        Potential amp.        0.2657 Ry
        Total length         46.3494 bohr
 

     total cpu time spent up to now is      376.4 secs

     total energy              =   -2973.99270001 Ry
     estimated scf accuracy    <       1.73944318 Ry

     iteration # 17     ecut=    29.40 Ry     beta= 0.05
     Davidson diagonalization with overlap
     c_bands:  1 eigenvalues not converged
     c_bands:  2 eigenvalues not converged
     ethr =  4.32E-04,  avg # of iterations = 15.7

     negative rho (up, down):  1.131E-03 0.000E+00
 
     Adding external electric field

     Computed dipole along edir(3) : 
        Dipole               -1.7474 Ry au,         -4.4416 Debye
        Dipole field         -0.0033 Ry au, 
 
        Potential amp.        0.3057 Ry
        Total length         46.3494 bohr
 

     total cpu time spent up to now is      392.9 secs

     total energy              =   -2974.07612000 Ry
     estimated scf accuracy    <       2.34630946 Ry

     iteration # 18     ecut=    29.40 Ry     beta= 0.05
     Davidson diagonalization with overlap
     ethr =  4.32E-04,  avg # of iterations =  1.6

     negative rho (up, down):  1.236E-03 0.000E+00
 
     Adding external electric field

     Computed dipole along edir(3) : 
        Dipole               -1.6716 Ry au,         -4.2487 Debye
        Dipole field         -0.0032 Ry au, 
 
        Potential amp.        0.2924 Ry
        Total length         46.3494 bohr
 

     total cpu time spent up to now is      403.2 secs

     total energy              =   -2974.01591378 Ry
     estimated scf accuracy    <       1.29268459 Ry

     iteration # 19     ecut=    29.40 Ry     beta= 0.05
     Davidson diagonalization with overlap
     ethr =  3.21E-04,  avg # of iterations =  6.0

     negative rho (up, down):  1.622E-03 0.000E+00
 
     Adding external electric field

     Computed dipole along edir(3) : 
        Dipole               -0.7870 Ry au,         -2.0003 Debye
        Dipole field         -0.0015 Ry au, 
 
        Potential amp.        0.1377 Ry
        Total length         46.3494 bohr
 

     total cpu time spent up to now is      415.5 secs

     total energy              =   -2973.97759983 Ry
     estimated scf accuracy    <       0.70286354 Ry

     iteration # 20     ecut=    29.40 Ry     beta= 0.05
     Davidson diagonalization with overlap
     ethr =  1.74E-04,  avg # of iterations =  7.2

     negative rho (up, down):  2.530E-03 0.000E+00
 
     Adding external electric field

     Computed dipole along edir(3) : 
        Dipole               -0.1042 Ry au,         -0.2648 Debye
        Dipole field         -0.0002 Ry au, 
 
        Potential amp.        0.0182 Ry
        Total length         46.3494 bohr
 

     total cpu time spent up to now is      428.9 secs

     total energy              =   -2973.97183795 Ry
     estimated scf accuracy    <       0.65020968 Ry

     iteration # 21     ecut=    29.40 Ry     beta= 0.05
     Davidson diagonalization with overlap
     ethr =  1.61E-04,  avg # of iterations = 11.9

     negative rho (up, down):  2.728E-03 0.000E+00
 
     Adding external electric field

     Computed dipole along edir(3) : 
        Dipole               -0.0413 Ry au,         -0.1050 Debye
        Dipole field         -0.0001 Ry au, 
 
        Potential amp.        0.0072 Ry
        Total length         46.3494 bohr
 

     total cpu time spent up to now is      443.2 secs

     total energy              =   -2973.98956781 Ry
     estimated scf accuracy    <       0.50445968 Ry

     iteration # 22     ecut=    29.40 Ry     beta= 0.05
     Davidson diagonalization with overlap
     ethr =  1.25E-04,  avg # of iterations =  5.7

     negative rho (up, down):  3.126E-03 0.000E+00
 
     Adding external electric field

     Computed dipole along edir(3) : 
        Dipole               -0.0474 Ry au,         -0.1204 Debye
        Dipole field         -0.0001 Ry au, 
 
        Potential amp.        0.0083 Ry
        Total length         46.3494 bohr
 

     total cpu time spent up to now is      455.0 secs

     total energy              =   -2973.93868842 Ry
     estimated scf accuracy    <       0.35857872 Ry

     iteration # 23     ecut=    29.40 Ry     beta= 0.05
     Davidson diagonalization with overlap
     ethr =  8.90E-05,  avg # of iterations =  5.9

     negative rho (up, down):  4.814E-03 0.000E+00
 
     Adding external electric field

     Computed dipole along edir(3) : 
        Dipole                0.5823 Ry au,          1.4802 Debye
        Dipole field          0.0011 Ry au, 
 
        Potential amp.       -0.1019 Ry
        Total length         46.3494 bohr
 

     total cpu time spent up to now is      468.3 secs

     total energy              =   -2973.94195551 Ry
     estimated scf accuracy    <       0.29703825 Ry

     iteration # 24     ecut=    29.40 Ry     beta= 0.05
     Davidson diagonalization with overlap
     c_bands:  1 eigenvalues not converged
     c_bands:  2 eigenvalues not converged
     c_bands:  1 eigenvalues not converged
     c_bands:  4 eigenvalues not converged
     c_bands:  3 eigenvalues not converged
     c_bands:  5 eigenvalues not converged
     c_bands:  2 eigenvalues not converged
     c_bands:  5 eigenvalues not converged
     c_bands:  3 eigenvalues not converged
     c_bands:  5 eigenvalues not converged
     ethr =  7.37E-05,  avg # of iterations = 22.0

     negative rho (up, down):  4.633E-03 0.000E+00
 
     Adding external electric field

     Computed dipole along edir(3) : 
        Dipole                0.5303 Ry au,          1.3479 Debye
        Dipole field          0.0010 Ry au, 
 
        Potential amp.       -0.0928 Ry
        Total length         46.3494 bohr
 

     total cpu time spent up to now is      491.2 secs

     total energy              =   -2973.96542813 Ry
     estimated scf accuracy    <       0.77166989 Ry

     iteration # 25     ecut=    29.40 Ry     beta= 0.05
     Davidson diagonalization with overlap
     ethr =  7.37E-05,  avg # of iterations =  4.4

     negative rho (up, down):  4.683E-03 0.000E+00
 
     Adding external electric field

     Computed dipole along edir(3) : 
        Dipole                0.5799 Ry au,          1.4738 Debye
        Dipole field          0.0011 Ry au, 
 
        Potential amp.       -0.1014 Ry
        Total length         46.3494 bohr
 

     total cpu time spent up to now is      502.5 secs

     total energy              =   -2973.97456502 Ry
     estimated scf accuracy    <       0.12942058 Ry

     iteration # 26     ecut=    29.40 Ry     beta= 0.05
     Davidson diagonalization with overlap
     c_bands:  1 eigenvalues not converged
     c_bands:  2 eigenvalues not converged
     c_bands:  1 eigenvalues not converged
     c_bands:  1 eigenvalues not converged
     ethr =  3.21E-05,  avg # of iterations = 14.9

     negative rho (up, down):  4.861E-03 0.000E+00
 
     Adding external electric field

     Computed dipole along edir(3) : 
        Dipole                0.6340 Ry au,          1.6114 Debye
        Dipole field          0.0012 Ry au, 
 
        Potential amp.       -0.1109 Ry
        Total length         46.3494 bohr
 

     total cpu time spent up to now is      518.3 secs

     total energy              =   -2973.97638152 Ry
     estimated scf accuracy    <       0.09868744 Ry

     iteration # 27     ecut=    29.40 Ry     beta= 0.05
     Davidson diagonalization with overlap
     ethr =  2.45E-05,  avg # of iterations =  2.9

     negative rho (up, down):  5.452E-03 0.000E+00
 
     Adding external electric field

     Computed dipole along edir(3) : 
        Dipole                0.6215 Ry au,          1.5796 Debye
        Dipole field          0.0012 Ry au, 
 
        Potential amp.       -0.1087 Ry
        Total length         46.3494 bohr
 

     total cpu time spent up to now is      529.3 secs

     total energy              =   -2973.96714911 Ry
     estimated scf accuracy    <       0.16407071 Ry

     iteration # 28     ecut=    29.40 Ry     beta= 0.05
     Davidson diagonalization with overlap
     ethr =  2.45E-05,  avg # of iterations =  8.6

     negative rho (up, down):  5.958E-03 0.000E+00
 
     Adding external electric field

     Computed dipole along edir(3) : 
        Dipole                0.6342 Ry au,          1.6120 Debye
        Dipole field          0.0012 Ry au, 
 
        Potential amp.       -0.1109 Ry
        Total length         46.3494 bohr
 

     total cpu time spent up to now is      544.7 secs

     total energy              =   -2973.97588599 Ry
     estimated scf accuracy    <       0.22026764 Ry

     iteration # 29     ecut=    29.40 Ry     beta= 0.05
     Davidson diagonalization with overlap
     c_bands:  3 eigenvalues not converged
     ethr =  2.45E-05,  avg # of iterations =  8.3

     negative rho (up, down):  7.192E-03 0.000E+00
 
     Adding external electric field

     Computed dipole along edir(3) : 
        Dipole                0.7572 Ry au,          1.9246 Debye
        Dipole field          0.0014 Ry au, 
 
        Potential amp.       -0.1325 Ry
        Total length         46.3494 bohr
 

     total cpu time spent up to now is      557.4 secs

     total energy              =   -2973.97083588 Ry
     estimated scf accuracy    <       0.08047458 Ry

     iteration # 30     ecut=    29.40 Ry     beta= 0.05
     Davidson diagonalization with overlap
     c_bands:  1 eigenvalues not converged
     c_bands:  1 eigenvalues not converged
     ethr =  2.00E-05,  avg # of iterations = 10.7

     negative rho (up, down):  7.996E-03 0.000E+00
 
     Adding external electric field

     Computed dipole along edir(3) : 
        Dipole                0.7744 Ry au,          1.9683 Debye
        Dipole field          0.0015 Ry au, 
 
        Potential amp.       -0.1355 Ry
        Total length         46.3494 bohr
 

     total cpu time spent up to now is      570.6 secs

     total energy              =   -2973.97414777 Ry
     estimated scf accuracy    <       0.03326835 Ry

     iteration # 31     ecut=    29.40 Ry     beta= 0.05
     Davidson diagonalization with overlap
     c_bands:  1 eigenvalues not converged
     c_bands:  1 eigenvalues not converged
     c_bands:  1 eigenvalues not converged
     c_bands:  2 eigenvalues not converged
     c_bands:  1 eigenvalues not converged
     ethr =  8.26E-06,  avg # of iterations = 14.5

     negative rho (up, down):  9.900E-03 0.000E+00
 
     Adding external electric field

     Computed dipole along edir(3) : 
        Dipole                0.7782 Ry au,          1.9780 Debye
        Dipole field          0.0015 Ry au, 
 
        Potential amp.       -0.1361 Ry
        Total length         46.3494 bohr
 

     total cpu time spent up to now is      585.1 secs

     total energy              =   -2973.97664927 Ry
     estimated scf accuracy    <       0.01953605 Ry

     iteration # 32     ecut=    29.40 Ry     beta= 0.05
     Davidson diagonalization with overlap
     c_bands:  1 eigenvalues not converged
     c_bands:  3 eigenvalues not converged
     c_bands:  2 eigenvalues not converged
     c_bands:  2 eigenvalues not converged
     c_bands:  3 eigenvalues not converged
     c_bands:  1 eigenvalues not converged
     c_bands:  3 eigenvalues not converged
     c_bands:  1 eigenvalues not converged
     c_bands:  2 eigenvalues not converged
     ethr =  4.85E-06,  avg # of iterations = 19.7

     negative rho (up, down):  1.286E-02 0.000E+00
 
     Adding external electric field

     Computed dipole along edir(3) : 
        Dipole                0.8643 Ry au,          2.1968 Debye
        Dipole field          0.0016 Ry au, 
 
        Potential amp.       -0.1512 Ry
        Total length         46.3494 bohr
 

     total cpu time spent up to now is      602.6 secs

     total energy              =   -2973.97504591 Ry
     estimated scf accuracy    <       0.02057379 Ry

     iteration # 33     ecut=    29.40 Ry     beta= 0.05
     Davidson diagonalization with overlap
     c_bands:  1 eigenvalues not converged
     c_bands:  2 eigenvalues not converged
     c_bands:  2 eigenvalues not converged
     ethr =  4.85E-06,  avg # of iterations = 10.7

     negative rho (up, down):  1.373E-02 0.000E+00
 
     Adding external electric field

     Computed dipole along edir(3) : 
        Dipole                0.9015 Ry au,          2.2913 Debye
        Dipole field          0.0017 Ry au, 
 
        Potential amp.       -0.1577 Ry
        Total length         46.3494 bohr
 

     total cpu time spent up to now is      616.2 secs

     total energy              =   -2973.97411505 Ry
     estimated scf accuracy    <       0.00833020 Ry

     iteration # 34     ecut=    29.40 Ry     beta= 0.05
     Davidson diagonalization with overlap
     c_bands:  1 eigenvalues not converged
     c_bands:  3 eigenvalues not converged
     c_bands:  2 eigenvalues not converged
     ethr =  2.07E-06,  avg # of iterations = 15.5

     negative rho (up, down):  1.314E-02 0.000E+00
 
     Adding external electric field

     Computed dipole along edir(3) : 
        Dipole                0.8660 Ry au,          2.2011 Debye
        Dipole field          0.0016 Ry au, 
 
        Potential amp.       -0.1515 Ry
        Total length         46.3494 bohr
 

     total cpu time spent up to now is      636.4 secs

     total energy              =   -2973.97547603 Ry
     estimated scf accuracy    <       0.00269721 Ry

     iteration # 35     ecut=    29.40 Ry     beta= 0.05
     Davidson diagonalization with overlap
     c_bands:  2 eigenvalues not converged
     ethr =  6.69E-07,  avg # of iterations = 10.5

     negative rho (up, down):  1.368E-02 0.000E+00
 
     Adding external electric field

     Computed dipole along edir(3) : 
        Dipole                0.8690 Ry au,          2.2087 Debye
        Dipole field          0.0016 Ry au, 
 
        Potential amp.       -0.1520 Ry
        Total length         46.3494 bohr
 

     total cpu time spent up to now is      650.7 secs

     total energy              =   -2973.97567639 Ry
     estimated scf accuracy    <       0.00138431 Ry

     iteration # 36     ecut=    29.40 Ry     beta= 0.05
     Davidson diagonalization with overlap
     ethr =  3.44E-07,  avg # of iterations = 12.4

     negative rho (up, down):  1.630E-02 0.000E+00
 
     Adding external electric field

     Computed dipole along edir(3) : 
        Dipole                0.8970 Ry au,          2.2800 Debye
        Dipole field          0.0017 Ry au, 
 
        Potential amp.       -0.1569 Ry
        Total length         46.3494 bohr
 

     total cpu time spent up to now is      668.4 secs

     total energy              =   -2973.97582116 Ry
     estimated scf accuracy    <       0.00118796 Ry

     iteration # 37     ecut=    29.40 Ry     beta= 0.05
     Davidson diagonalization with overlap
     ethr =  2.95E-07,  avg # of iterations = 10.0

     negative rho (up, down):  1.506E-02 0.000E+00
 
     Adding external electric field

     Computed dipole along edir(3) : 
        Dipole                0.8885 Ry au,          2.2584 Debye
        Dipole field          0.0017 Ry au, 
 
        Potential amp.       -0.1554 Ry
        Total length         46.3494 bohr
 

     total cpu time spent up to now is      684.5 secs

     total energy              =   -2973.97595472 Ry
     estimated scf accuracy    <       0.00052447 Ry

     iteration # 38     ecut=    29.40 Ry     beta= 0.05
     Davidson diagonalization with overlap
     ethr =  1.30E-07,  avg # of iterations =  7.4

     negative rho (up, down):  1.506E-02 0.000E+00
 
     Adding external electric field

     Computed dipole along edir(3) : 
        Dipole                0.8902 Ry au,          2.2627 Debye
        Dipole field          0.0017 Ry au, 
 
        Potential amp.       -0.1557 Ry
        Total length         46.3494 bohr
 

     total cpu time spent up to now is      697.0 secs

     total energy              =   -2973.97603073 Ry
     estimated scf accuracy    <       0.00027218 Ry

     iteration # 39     ecut=    29.40 Ry     beta= 0.05
     Davidson diagonalization with overlap
     ethr =  6.75E-08,  avg # of iterations =  8.3

     negative rho (up, down):  1.642E-02 0.000E+00
 
     Adding external electric field

     Computed dipole along edir(3) : 
        Dipole                0.9047 Ry au,          2.2996 Debye
        Dipole field          0.0017 Ry au, 
 
        Potential amp.       -0.1583 Ry
        Total length         46.3494 bohr
 

     total cpu time spent up to now is      709.4 secs

     total energy              =   -2973.97610691 Ry
     estimated scf accuracy    <       0.00024907 Ry

     iteration # 40     ecut=    29.40 Ry     beta= 0.05
     Davidson diagonalization with overlap
     ethr =  6.18E-08,  avg # of iterations =  8.8

     negative rho (up, down):  1.702E-02 0.000E+00
 
     Adding external electric field

     Computed dipole along edir(3) : 
        Dipole                0.9079 Ry au,          2.3076 Debye
        Dipole field          0.0017 Ry au, 
 
        Potential amp.       -0.1588 Ry
        Total length         46.3494 bohr
 

     total cpu time spent up to now is      722.4 secs

     total energy              =   -2973.97616866 Ry
     estimated scf accuracy    <       0.00014151 Ry

     iteration # 41     ecut=    29.40 Ry     beta= 0.05
     Davidson diagonalization with overlap
     ethr =  3.51E-08,  avg # of iterations = 10.1

     negative rho (up, down):  1.707E-02 0.000E+00
 
     Adding external electric field

     Computed dipole along edir(3) : 
        Dipole                0.9104 Ry au,          2.3140 Debye
        Dipole field          0.0017 Ry au, 
 
        Potential amp.       -0.1593 Ry
        Total length         46.3494 bohr
 

     total cpu time spent up to now is      735.9 secs

     total energy              =   -2973.97616681 Ry
     estimated scf accuracy    <       0.00014969 Ry

     iteration # 42     ecut=    29.40 Ry     beta= 0.05
     Davidson diagonalization with overlap
     ethr =  3.51E-08,  avg # of iterations =  5.6

     negative rho (up, down):  1.726E-02 0.000E+00
 
     Adding external electric field

     Computed dipole along edir(3) : 
        Dipole                0.9088 Ry au,          2.3099 Debye
        Dipole field          0.0017 Ry au, 
 
        Potential amp.       -0.1590 Ry
        Total length         46.3494 bohr
 

     total cpu time spent up to now is      750.8 secs

     total energy              =   -2973.97621395 Ry
     estimated scf accuracy    <       0.00006907 Ry

     iteration # 43     ecut=    29.40 Ry     beta= 0.05
     Davidson diagonalization with overlap
     ethr =  1.71E-08,  avg # of iterations =  2.8

     negative rho (up, down):  1.703E-02 0.000E+00
 
     Adding external electric field

     Computed dipole along edir(3) : 
        Dipole                0.9024 Ry au,          2.2936 Debye
        Dipole field          0.0017 Ry au, 
 
        Potential amp.       -0.1579 Ry
        Total length         46.3494 bohr
 

     total cpu time spent up to now is      762.0 secs

     total energy              =   -2973.97623383 Ry
     estimated scf accuracy    <       0.00003289 Ry

     iteration # 44     ecut=    29.40 Ry     beta= 0.05
     Davidson diagonalization with overlap
     ethr =  8.16E-09,  avg # of iterations = 15.4

     negative rho (up, down):  1.713E-02 0.000E+00
 
     Adding external electric field

     Computed dipole along edir(3) : 
        Dipole                0.9071 Ry au,          2.3056 Debye
        Dipole field          0.0017 Ry au, 
 
        Potential amp.       -0.1587 Ry
        Total length         46.3494 bohr
 

     total cpu time spent up to now is      783.4 secs

     total energy              =   -2973.97625959 Ry
     estimated scf accuracy    <       0.00004795 Ry

     iteration # 45     ecut=    29.40 Ry     beta= 0.05
     Davidson diagonalization with overlap
     ethr =  8.16E-09,  avg # of iterations =  8.7

     negative rho (up, down):  1.705E-02 0.000E+00
 
     Adding external electric field

     Computed dipole along edir(3) : 
        Dipole                0.9077 Ry au,          2.3072 Debye
        Dipole field          0.0017 Ry au, 
 
        Potential amp.       -0.1588 Ry
        Total length         46.3494 bohr
 

     total cpu time spent up to now is      799.2 secs

     total energy              =   -2973.97628611 Ry
     estimated scf accuracy    <       0.00001086 Ry

     iteration # 46     ecut=    29.40 Ry     beta= 0.05
     Davidson diagonalization with overlap
     ethr =  2.70E-09,  avg # of iterations = 11.3

     negative rho (up, down):  1.693E-02 0.000E+00
 
     Adding external electric field

     Computed dipole along edir(3) : 
        Dipole                0.9063 Ry au,          2.3036 Debye
        Dipole field          0.0017 Ry au, 
 
        Potential amp.       -0.1585 Ry
        Total length         46.3494 bohr
 

     total cpu time spent up to now is      814.6 secs

     total energy              =   -2973.97630637 Ry
     estimated scf accuracy    <       0.00000619 Ry

     iteration # 47     ecut=    29.40 Ry     beta= 0.05
     Davidson diagonalization with overlap
     ethr =  1.54E-09,  avg # of iterations =  7.5

     negative rho (up, down):  1.689E-02 0.000E+00
 
     Adding external electric field

     Computed dipole along edir(3) : 
        Dipole                0.9073 Ry au,          2.3062 Debye
        Dipole field          0.0017 Ry au, 
 
        Potential amp.       -0.1587 Ry
        Total length         46.3494 bohr
 

     total cpu time spent up to now is      828.0 secs

     total energy              =   -2973.97632435 Ry
     estimated scf accuracy    <       0.00000405 Ry

     iteration # 48     ecut=    29.40 Ry     beta= 0.05
     Davidson diagonalization with overlap
     ethr =  1.01E-09,  avg # of iterations =  9.9

     negative rho (up, down):  1.695E-02 0.000E+00
 
     Adding external electric field

     Computed dipole along edir(3) : 
        Dipole                0.9078 Ry au,          2.3074 Debye
        Dipole field          0.0017 Ry au, 
 
        Potential amp.       -0.1588 Ry
        Total length         46.3494 bohr
 

     total cpu time spent up to now is      846.2 secs

     total energy              =   -2973.97634093 Ry
     estimated scf accuracy    <       0.00000363 Ry

     iteration # 49     ecut=    29.40 Ry     beta= 0.05
     Davidson diagonalization with overlap
     ethr =  9.00E-10,  avg # of iterations =  5.1

     negative rho (up, down):  1.691E-02 0.000E+00
 
     Adding external electric field

     Computed dipole along edir(3) : 
        Dipole                0.9075 Ry au,          2.3066 Debye
        Dipole field          0.0017 Ry au, 
 
        Potential amp.       -0.1588 Ry
        Total length         46.3494 bohr
 

     total cpu time spent up to now is      859.4 secs

     total energy              =   -2973.97635618 Ry
     estimated scf accuracy    <       0.00000105 Ry

     iteration # 50     ecut=    29.40 Ry     beta= 0.05
     Davidson diagonalization with overlap
     ethr =  2.61E-10,  avg # of iterations = 10.5

     negative rho (up, down):  1.694E-02 0.000E+00
 
     Adding external electric field

     Computed dipole along edir(3) : 
        Dipole                0.9084 Ry au,          2.3090 Debye
        Dipole field          0.0017 Ry au, 
 
        Potential amp.       -0.1589 Ry
        Total length         46.3494 bohr
 

     total cpu time spent up to now is      875.1 secs

     total energy              =   -2973.97636944 Ry
     estimated scf accuracy    <       0.00000080 Ry

     iteration # 51     ecut=    29.40 Ry     beta= 0.05
     Davidson diagonalization with overlap
     ethr =  1.99E-10,  avg # of iterations =  8.7

     negative rho (up, down):  1.697E-02 0.000E+00
 
     Adding external electric field

     Computed dipole along edir(3) : 
        Dipole                0.9089 Ry au,          2.3102 Debye
        Dipole field          0.0017 Ry au, 
 
        Potential amp.       -0.1590 Ry
        Total length         46.3494 bohr
 

     total cpu time spent up to now is      890.0 secs

     total energy              =   -2973.97638143 Ry
     estimated scf accuracy    <       0.00000041 Ry

     iteration # 52     ecut=    29.40 Ry     beta= 0.05
     Davidson diagonalization with overlap
     ethr =  1.01E-10,  avg # of iterations =  9.3

     negative rho (up, down):  1.695E-02 0.000E+00
 
     Adding external electric field

     Computed dipole along edir(3) : 
        Dipole                0.9088 Ry au,          2.3098 Debye
        Dipole field          0.0017 Ry au, 
 
        Potential amp.       -0.1590 Ry
        Total length         46.3494 bohr
 

     total cpu time spent up to now is      905.9 secs

     total energy              =   -2973.97639231 Ry
     estimated scf accuracy    <       0.00000032 Ry

     iteration # 53     ecut=    29.40 Ry     beta= 0.05
     Davidson diagonalization with overlap
     ethr =  7.82E-11,  avg # of iterations =  3.9

     negative rho (up, down):  1.692E-02 0.000E+00
 
     Adding external electric field

     Computed dipole along edir(3) : 
        Dipole                0.9086 Ry au,          2.3093 Debye
        Dipole field          0.0017 Ry au, 
 
        Potential amp.       -0.1589 Ry
        Total length         46.3494 bohr
 

     total cpu time spent up to now is      917.2 secs

     total energy              =   -2973.97640209 Ry
     estimated scf accuracy    <       0.00000019 Ry

     iteration # 54     ecut=    29.40 Ry     beta= 0.05
     Davidson diagonalization with overlap
     ethr =  4.69E-11,  avg # of iterations = 12.2

     negative rho (up, down):  1.694E-02 0.000E+00
 
     Adding external electric field

     Computed dipole along edir(3) : 
        Dipole                0.9088 Ry au,          2.3100 Debye
        Dipole field          0.0017 Ry au, 
 
        Potential amp.       -0.1590 Ry
        Total length         46.3494 bohr
 

     total cpu time spent up to now is      934.5 secs

     total energy              =   -2973.97641081 Ry
     estimated scf accuracy    <       0.00000010 Ry

     iteration # 55     ecut=    29.40 Ry     beta= 0.05
     Davidson diagonalization with overlap
     ethr =  2.46E-11,  avg # of iterations = 10.5

     negative rho (up, down):  1.698E-02 0.000E+00
 
     Adding external electric field

     Computed dipole along edir(3) : 
        Dipole                0.9084 Ry au,          2.3089 Debye
        Dipole field          0.0017 Ry au, 
 
        Potential amp.       -0.1589 Ry
        Total length         46.3494 bohr
 

     total cpu time spent up to now is      951.5 secs

     End of self-consistent calculation

          k = 0.0000 0.0000 0.0000 ( 18029 PWs)   bands (ev):

   -55.6363 -55.6022 -55.5178 -55.4820 -55.4755 -55.4626 -55.4408 -55.4288
   -55.4237 -55.4064 -55.3896 -55.3886 -55.3550 -55.2378 -54.6222 -54.5882
   -32.1220 -32.0236 -31.9701 -31.9647 -31.9568 -31.9275 -31.9135 -31.8949
   -31.8820 -31.7890 -31.7826 -31.7767 -31.7491 -31.7438 -31.7384 -31.7038
   -31.6938 -31.6804 -31.6754 -31.6674 -31.6609 -31.6591 -31.6434 -31.6404
   -31.6342 -31.6243 -31.6224 -31.6178 -31.6124 -31.6066 -31.6014 -31.5924
   -31.5824 -31.5800 -31.5796 -31.5773 -31.5718 -31.5365 -31.5280 -31.5125
   -31.4385 -31.3664 -31.0292 -30.9407 -30.9184 -30.8462 -30.7597 -30.6484
   -18.4384 -17.7380 -16.2995 -16.1089 -15.8836 -15.7817 -15.7418 -15.5685
   -15.4380 -15.3952 -15.2686 -15.2030 -15.1795 -15.1606 -15.1467 -15.1140
   -15.0909 -15.0670 -15.0653 -15.0459 -15.0213 -14.9987 -14.9707 -14.9529
   -14.9104 -14.7850 -14.7768 -14.7653 -14.7276 -14.6902 -14.2908 -13.1228
   -13.0062 -12.3708  -7.9116  -6.2082  -5.4179  -4.8224  -3.6707  -3.5789
    -3.5464  -3.5226  -3.4449  -3.3261  -3.2289  -3.0345  -2.9252  -2.8957
    -2.8737  -2.7879  -2.7061  -2.6650  -2.5623  -2.5299  -2.5196  -2.4753
    -2.4204  -2.4056  -2.3755  -2.3620  -2.3263  -2.1932  -2.1742  -2.1358
    -2.0244  -2.0079  -1.9999  -1.9578  -1.9541  -1.9232  -1.9129  -1.8953
    -1.8785  -1.8666  -1.7987  -1.7175  -1.6849  -1.6360  -1.5811  -1.5747
    -1.2735  -1.2569  -1.1895  -1.1580  -1.0875  -1.0536  -1.0397  -1.0249
    -0.9931  -0.8929  -0.8036  -0.7846  -0.7215  -0.6602  -0.5609  -0.5467
    -0.4459  -0.3971  -0.3914  -0.3784  -0.3464  -0.2874  -0.2307  -0.1742
    -0.1244  -0.0417   0.0127   0.0216   0.0637   0.1074   0.1368   0.1953
     0.2576   0.2849   0.3181   0.3332   0.3746   0.4348   0.4562   0.4687
     0.5474   0.5873   0.6128   0.7108   0.7202   0.7590   0.8307   1.0153
     1.0611   1.2004   1.3389   1.4021   1.4681   1.5942   1.8703   1.9722
     2.0184   3.4538   3.5877   3.6087   3.6443   3.7161   3.7627   3.9355
     4.0312   4.0532   4.1154

          k = 0.0000 0.0419 0.0000 ( 17933 PWs)   bands (ev):

   -55.6312 -55.6071 -55.5127 -55.4869 -55.4705 -55.4576 -55.4457 -55.4337
   -55.4188 -55.4053 -55.3943 -55.3837 -55.3598 -55.2386 -54.6171 -54.5931
   -32.0680 -31.9681 -31.9265 -31.9226 -31.9218 -31.9146 -31.8724 -31.8598
   -31.8412 -31.8005 -31.7751 -31.7691 -31.7627 -31.7361 -31.7302 -31.7077
   -31.7026 -31.6936 -31.6912 -31.6775 -31.6737 -31.6720 -31.6523 -31.6410
   -31.6373 -31.6362 -31.6324 -31.6252 -31.6218 -31.6193 -31.6152 -31.6095
   -31.6026 -31.5975 -31.5930 -31.5922 -31.5833 -31.5775 -31.5662 -31.5287
   -31.4370 -31.4045 -30.9751 -30.9373 -30.9214 -30.8336 -30.7723 -30.7055
   -18.4351 -17.7389 -16.1700 -15.9963 -15.7770 -15.6854 -15.6639 -15.5123
   -15.4342 -15.3636 -15.3393 -15.2279 -15.1606 -15.1548 -15.1313 -15.1205
   -15.1078 -15.0800 -15.0740 -15.0524 -15.0347 -15.0279 -14.9989 -14.9551
   -14.9482 -14.8409 -14.8301 -14.8197 -14.7847 -14.7496 -14.4135 -13.1268
   -13.0457 -12.3737  -7.9157  -6.2052  -5.4166  -4.8151  -3.4810  -3.4080
    -3.3720  -3.3581  -3.3100  -3.2028  -3.0845  -2.9017  -2.8405  -2.8101
    -2.7861  -2.7170  -2.6751  -2.6165  -2.6099  -2.5639  -2.5563  -2.4859
    -2.4634  -2.4530  -2.4182  -2.3781  -2.3620  -2.3153  -2.3068  -2.2740
    -2.2366  -2.1669  -2.1285  -2.1119  -2.0918  -2.0590  -1.9963  -1.9379
    -1.8920  -1.8333  -1.8163  -1.6832  -1.6379  -1.5487  -1.4128  -1.3672
    -1.3377  -1.2982  -1.2057  -1.0581  -1.0025  -0.9090  -0.8543  -0.8462
    -0.8182  -0.7382  -0.6865  -0.6592  -0.6060  -0.5957  -0.5723  -0.5457
    -0.4992  -0.4730  -0.4508  -0.4119  -0.3855  -0.3243  -0.2712  -0.2398
    -0.1701  -0.1586  -0.1197  -0.0685  -0.0101   0.0501   0.1084   0.1345
     0.1805   0.2045   0.2206   0.2326   0.2634   0.3704   0.4157   0.4788
     0.5017   0.5554   0.5874   0.6200   0.6677   0.6909   0.7342   0.7733
     0.9355   1.0186   1.0407   1.3617   1.5905   1.6793   1.8313   1.9272
     1.9302   3.6779   3.6879   3.8386   3.8501   3.8765   3.8901   3.9332
     4.0080   4.0251   4.0538

          k = 0.0000-0.0839 0.0000 ( 17884 PWs)   bands (ev):

   -55.6191 -55.6191 -55.5032 -55.4964 -55.4601 -55.4561 -55.4457 -55.4455
   -55.4094 -55.4042 -55.4036 -55.3726 -55.3709 -55.2395 -54.6052 -54.6049
   -31.9358 -31.9357 -31.9129 -31.9128 -31.8821 -31.8460 -31.8173 -31.7869
   -31.7759 -31.7713 -31.7631 -31.7415 -31.7413 -31.7373 -31.7342 -31.7314
   -31.7260 -31.7238 -31.7225 -31.7124 -31.7080 -31.7055 -31.7053 -31.7041
   -31.6802 -31.6686 -31.6379 -31.6313 -31.6304 -31.6296 -31.6227 -31.6219
   -31.6171 -31.6143 -31.6123 -31.6058 -31.5941 -31.5913 -31.5740 -31.5304
   -31.4490 -31.4353 -30.9292 -30.9290 -30.8422 -30.8420 -30.8030 -30.8029
   -18.4319 -17.7399 -15.9330 -15.7814 -15.7444 -15.6220 -15.5246 -15.4833
   -15.4645 -15.4047 -15.3853 -15.3239 -15.3055 -15.2260 -15.1622 -15.1242
   -15.0450 -15.0382 -15.0209 -14.9850 -14.9821 -14.9779 -14.9762 -14.9557
   -14.9462 -14.9243 -14.9220 -14.8970 -14.8866 -14.7700 -14.6472 -13.1085
   -13.1083 -12.3765  -7.9198  -6.2024  -5.4153  -4.8077  -3.1907  -3.0873
    -3.0337  -3.0105  -2.9911  -2.9880  -2.9362  -2.9347  -2.9265  -2.9135
    -2.8303  -2.7510  -2.7356  -2.7041  -2.6704  -2.6635  -2.6451  -2.6190
    -2.5994  -2.5675  -2.5593  -2.4890  -2.4405  -2.4001  -2.3697  -2.3221
    -2.2597  -2.2322  -2.2072  -2.1812  -1.9974  -1.9786  -1.8900  -1.8467
    -1.7536  -1.6710  -1.6466  -1.5781  -1.5158  -1.4567  -1.3421  -1.3149
    -1.2927  -1.2286  -1.1774  -1.0821  -1.0633  -1.0460  -1.0110  -0.9909
    -0.9723  -0.9403  -0.9356  -0.8901  -0.7306  -0.7000  -0.5929  -0.4441
    -0.3632  -0.3344  -0.2854  -0.2568  -0.2485  -0.2280  -0.1404  -0.1328
    -0.1056  -0.0922  -0.0794  -0.0561  -0.0300   0.0217   0.0585   0.0718
     0.0850   0.1311   0.1439   0.1607   0.1726   0.2082   0.2239   0.2580
     0.3499   0.3768   0.4565   0.5277   0.5987   0.6033   0.6759   0.6983
     0.9033   0.9468   1.0774   1.1363   1.7340   1.7355   1.8071   1.8632
     1.8636   3.8190   3.8847   3.9318   3.9384   3.9397   4.0357   4.0551
     4.1096   4.1512   4.1576

          k = 0.0380 0.0000 0.0000 ( 17913 PWs)   bands (ev):

   -55.6362 -55.6021 -55.5176 -55.4819 -55.4756 -55.4624 -55.4407 -55.4287
   -55.4237 -55.4061 -55.3895 -55.3887 -55.3548 -55.2377 -54.6221 -54.5881
   -32.1229 -32.0238 -31.9742 -31.9648 -31.9570 -31.9273 -31.9185 -31.8980
   -31.8819 -31.7860 -31.7821 -31.7571 -31.7435 -31.7383 -31.7289 -31.6936
   -31.6883 -31.6788 -31.6712 -31.6673 -31.6602 -31.6583 -31.6538 -31.6436
   -31.6346 -31.6274 -31.6248 -31.6216 -31.6175 -31.6122 -31.6065 -31.5922
   -31.5840 -31.5802 -31.5797 -31.5751 -31.5713 -31.5367 -31.5293 -31.5125
   -31.4421 -31.3662 -31.0287 -30.9441 -30.9164 -30.8460 -30.7596 -30.6482
   -18.4373 -17.7374 -16.2106 -16.0191 -15.8165 -15.7685 -15.6800 -15.5997
   -15.4478 -15.4057 -15.3332 -15.2986 -15.2777 -15.2715 -15.2691 -15.2040
   -15.1781 -15.0713 -15.0484 -14.9586 -14.9209 -14.9035 -14.8865 -14.8518
   -14.8410 -14.8295 -14.8111 -14.7963 -14.7711 -14.7527 -14.2912 -13.1196
   -13.0059 -12.3763  -7.8903  -6.2103  -5.4377  -4.7797  -3.5082  -3.4211
    -3.3345  -3.2954  -3.2723  -3.2690  -3.1765  -3.0519  -3.0120  -2.9561
    -2.9337  -2.8729  -2.8359  -2.7227  -2.6896  -2.6148  -2.5896  -2.4636
    -2.3706  -2.3150  -2.2750  -2.2308  -2.2033  -2.1728  -2.1216  -2.0603
    -2.0279  -2.0179  -2.0024  -1.9788  -1.9605  -1.9298  -1.9207  -1.9093
    -1.8371  -1.7755  -1.7078  -1.6070  -1.5641  -1.5098  -1.4694  -1.4121
    -1.4021  -1.2509  -1.2217  -1.1357  -1.1232  -1.0977  -1.0742  -1.0220
    -1.0009  -0.9553  -0.9071  -0.8929  -0.8360  -0.7810  -0.7346  -0.6181
    -0.5223  -0.4713  -0.3926  -0.3584  -0.3060  -0.2797  -0.2126  -0.1980
    -0.1346  -0.0725  -0.0047   0.0386   0.0638   0.0828   0.0938   0.1272
     0.1695   0.2005   0.2352   0.2775   0.3119   0.3251   0.3700   0.4008
     0.4599   0.5323   0.5612   0.5849   0.6987   0.7382   0.7850   0.8873
     1.0456   1.0576   1.3288   1.3547   1.4140   1.5638   1.8606   1.8643
     1.9361   3.4704   3.5516   3.8440   3.8477   3.9041   3.9149   3.9236
     3.9355   3.9515   4.0280

          k = 0.0380 0.0419 0.0000 ( 17878 PWs)   bands (ev):

   -55.6311 -55.6071 -55.5125 -55.4869 -55.4705 -55.4574 -55.4457 -55.4336
   -55.4188 -55.4051 -55.3943 -55.3837 -55.3598 -55.2386 -54.6171 -54.5930
   -32.0689 -31.9683 -31.9268 -31.9224 -31.9220 -31.9190 -31.8726 -31.8655
   -31.8446 -31.8006 -31.7726 -31.7686 -31.7462 -31.7302 -31.7192 -31.7073
   -31.7019 -31.6830 -31.6805 -31.6756 -31.6720 -31.6626 -31.6603 -31.6502
   -31.6387 -31.6373 -31.6312 -31.6260 -31.6230 -31.6219 -31.6206 -31.6151
   -31.6108 -31.5973 -31.5920 -31.5889 -31.5875 -31.5835 -31.5633 -31.5311
   -31.4411 -31.4043 -30.9747 -30.9399 -30.9204 -30.8334 -30.7723 -30.7054
   -18.4345 -17.7381 -16.0897 -15.9167 -15.7385 -15.6664 -15.5791 -15.5383
   -15.4303 -15.3867 -15.3472 -15.2989 -15.2747 -15.2372 -15.2067 -15.1518
   -15.1247 -15.0866 -15.0751 -15.0120 -14.9878 -14.9746 -14.9573 -14.9241
   -14.8927 -14.8841 -14.8640 -14.8439 -14.8145 -14.8042 -14.4155 -13.1246
   -13.0460 -12.3790  -7.8920  -6.2005  -5.4462  -4.7832  -3.3472  -3.2818
    -3.1868  -3.1428  -3.1123  -3.0967  -3.0271  -2.9368  -2.8555  -2.8363
    -2.7641  -2.7485  -2.6990  -2.6002  -2.5635  -2.5354  -2.5173  -2.4737
    -2.4449  -2.3894  -2.3636  -2.3480  -2.3311  -2.3106  -2.2972  -2.2709
    -2.2181  -2.1802  -2.1365  -2.0911  -2.0732  -2.0082  -1.9461  -1.9231
    -1.8863  -1.7526  -1.7325  -1.6527  -1.6238  -1.5554  -1.4557  -1.3604
    -1.3325  -1.2397  -1.1270  -1.0678  -1.0422  -1.0076  -0.9787  -0.9226
    -0.8708  -0.8397  -0.8230  -0.7640  -0.7510  -0.6929  -0.6438  -0.5954
    -0.5548  -0.5072  -0.4533  -0.4366  -0.4154  -0.3502  -0.3450  -0.2806
    -0.2646  -0.2443  -0.1907  -0.1492  -0.1204  -0.0637  -0.0516   0.0138
     0.0683   0.1013   0.1331   0.1639   0.2261   0.3201   0.3695   0.4259
     0.5048   0.5528   0.5998   0.6435   0.6667   0.7393   0.7633   0.8004
     0.9047   0.9745   1.0514   1.2877   1.6009   1.6825   1.8360   1.8498
     1.9108   3.6673   3.6777   3.8652   3.8789   3.9421   3.9774   4.0212
     4.0576   4.0652   4.0888

          k = 0.0380-0.0839 0.0000 ( 17916 PWs)   bands (ev):

   -55.6191 -55.6191 -55.5031 -55.4964 -55.4602 -55.4562 -55.4456 -55.4454
   -55.4095 -55.4041 -55.4037 -55.3726 -55.3710 -55.2395 -54.6052 -54.6050
   -31.9365 -31.9365 -31.9130 -31.9128 -31.8824 -31.8465 -31.8178 -31.7936
   -31.7831 -31.7733 -31.7643 -31.7455 -31.7414 -31.7402 -31.7398 -31.7303
   -31.7294 -31.7155 -31.7123 -31.7111 -31.7080 -31.7054 -31.6808 -31.6805
   -31.6795 -31.6525 -31.6429 -31.6368 -31.6336 -31.6303 -31.6273 -31.6211
   -31.6174 -31.6147 -31.6121 -31.6055 -31.6045 -31.6027 -31.5785 -31.5333
   -31.4487 -31.4403 -30.9302 -30.9300 -30.8421 -30.8419 -30.8030 -30.8029
   -18.4314 -17.7392 -15.8952 -15.7182 -15.6919 -15.5622 -15.5176 -15.4528
   -15.4071 -15.3824 -15.3684 -15.3148 -15.3105 -15.2344 -15.2100 -15.1241
   -15.0752 -15.0594 -15.0568 -15.0365 -15.0275 -15.0073 -14.9882 -14.9813
   -14.9573 -14.9514 -14.9446 -14.9386 -14.9177 -14.7571 -14.6426 -13.1083
   -13.1081 -12.3816  -7.8956  -6.1980  -5.4465  -4.7758  -3.1689  -3.0606
    -3.0087  -2.8633  -2.8194  -2.8013  -2.7826  -2.7700  -2.7423  -2.7359
    -2.7297  -2.6713  -2.6503  -2.6339  -2.6118  -2.5821  -2.5626  -2.5520
    -2.5215  -2.5198  -2.4829  -2.4381  -2.4137  -2.3877  -2.3563  -2.3033
    -2.2743  -2.2675  -2.2216  -2.1954  -2.0436  -1.9375  -1.8130  -1.7699
    -1.7193  -1.6609  -1.6050  -1.5734  -1.5230  -1.4843  -1.4734  -1.4244
    -1.3970  -1.3523  -1.3251  -1.2851  -1.2706  -1.2325  -1.1913  -1.1515
    -1.0784  -0.9868  -0.9101  -0.8199  -0.7411  -0.7238  -0.6235  -0.6101
    -0.4826  -0.4410  -0.4269  -0.3787  -0.3655  -0.3349  -0.3181  -0.2747
    -0.2626  -0.2430  -0.2288  -0.2008  -0.1879  -0.1725  -0.0927  -0.0507
     0.0306   0.0487   0.1267   0.1769   0.2693   0.3102   0.3478   0.4023
     0.4676   0.4848   0.5348   0.5657   0.6055   0.6575   0.6985   0.7230
     0.8944   0.9244   1.0522   1.1105   1.7470   1.7485   1.8127   1.8528
     1.8536   3.8282   3.8800   3.9058   3.9227   3.9760   4.0474   4.0724
     4.1188   4.1322   4.1793

          k = 0.0380-0.0419 0.0000 ( 17876 PWs)   bands (ev):

   -55.6311 -55.6071 -55.5125 -55.4869 -55.4705 -55.4574 -55.4457 -55.4336
   -55.4188 -55.4051 -55.3943 -55.3837 -55.3598 -55.2386 -54.6171 -54.5930
   -32.0689 -31.9683 -31.9268 -31.9224 -31.9220 -31.9190 -31.8726 -31.8655
   -31.8447 -31.8006 -31.7726 -31.7685 -31.7460 -31.7302 -31.7191 -31.7073
   -31.7019 -31.6832 -31.6792 -31.6754 -31.6726 -31.6626 -31.6603 -31.6497
   -31.6387 -31.6374 -31.6306 -31.6263 -31.6243 -31.6229 -31.6215 -31.6152
   -31.6112 -31.5973 -31.5915 -31.5887 -31.5875 -31.5774 -31.5687 -31.5300
   -31.4413 -31.4041 -30.9747 -30.9399 -30.9204 -30.8334 -30.7723 -30.7054
   -18.4343 -17.7385 -16.0902 -15.9178 -15.7369 -15.6635 -15.5758 -15.5326
   -15.4308 -15.3858 -15.3429 -15.3002 -15.2922 -15.2552 -15.2030 -15.1522
   -15.1225 -15.0855 -15.0683 -15.0128 -14.9873 -14.9678 -14.9558 -14.9228
   -14.8925 -14.8839 -14.8630 -14.8444 -14.8229 -14.7990 -14.4149 -13.1246
   -13.0460 -12.3790  -7.8938  -6.2077  -5.4379  -4.7722  -3.3493  -3.2896
    -3.1961  -3.1416  -3.1016  -3.0947  -3.0221  -2.9331  -2.8591  -2.8303
    -2.7740  -2.7478  -2.6806  -2.6149  -2.5598  -2.5487  -2.5221  -2.4755
    -2.4372  -2.3922  -2.3703  -2.3467  -2.3272  -2.3073  -2.2827  -2.2709
    -2.2351  -2.2002  -2.1451  -2.1103  -2.0663  -2.0255  -1.9520  -1.9224
    -1.9011  -1.7600  -1.7447  -1.6332  -1.5877  -1.5168  -1.4352  -1.3519
    -1.3411  -1.2652  -1.1297  -1.0814  -1.0375  -1.0142  -0.9589  -0.9337
    -0.8399  -0.8331  -0.8113  -0.7890  -0.7208  -0.6664  -0.6012  -0.5855
    -0.5557  -0.5210  -0.4786  -0.4592  -0.3885  -0.3633  -0.3422  -0.3085
    -0.2927  -0.2522  -0.2241  -0.1676  -0.1312  -0.0751  -0.0455   0.0267
     0.0723   0.1046   0.1290   0.1725   0.2402   0.3248   0.3948   0.4480
     0.5148   0.5672   0.6141   0.6416   0.6758   0.7252   0.7678   0.7953
     0.8714   0.9687   1.0450   1.2907   1.6009   1.6823   1.8238   1.8496
     1.9115   3.6689   3.6769   3.8655   3.9094   3.9439   3.9808   4.0068
     4.0537   4.0697   4.0905

          k =-0.0760-0.0000 0.0000 ( 17886 PWs)   bands (ev):

   -55.6361 -55.6021 -55.5174 -55.4818 -55.4757 -55.4622 -55.4407 -55.4287
   -55.4238 -55.4058 -55.3895 -55.3888 -55.3548 -55.2377 -54.6220 -54.5880
   -32.1238 -32.0241 -31.9783 -31.9650 -31.9573 -31.9271 -31.9233 -31.9012
   -31.8819 -31.7831 -31.7817 -31.7435 -31.7387 -31.7121 -31.7057 -31.6939
   -31.6878 -31.6784 -31.6695 -31.6671 -31.6661 -31.6653 -31.6578 -31.6475
   -31.6436 -31.6372 -31.6267 -31.6210 -31.6178 -31.6161 -31.6120 -31.5921
   -31.5855 -31.5807 -31.5804 -31.5739 -31.5708 -31.5372 -31.5306 -31.5127
   -31.4455 -31.3663 -31.0283 -30.9474 -30.9150 -30.8459 -30.7595 -30.6482
   -18.4364 -17.7369 -16.0518 -15.9375 -15.8718 -15.6934 -15.5888 -15.5382
   -15.4904 -15.4204 -15.4162 -15.3607 -15.3544 -15.3264 -15.3139 -15.2874
   -15.2722 -15.0653 -15.0569 -14.9655 -14.9231 -14.9021 -14.8930 -14.8796
   -14.8552 -14.7969 -14.7697 -14.7594 -14.7543 -14.7422 -14.2918 -13.1165
   -13.0056 -12.3819  -7.8688  -6.2130  -5.4560  -4.7364  -3.4690  -3.3852
    -3.2991  -3.1133  -3.0905  -3.0768  -3.0085  -2.9993  -2.9692  -2.9246
    -2.9032  -2.8876  -2.8855  -2.8487  -2.6770  -2.5461  -2.4908  -2.4348
    -2.2410  -2.2253  -2.2010  -2.1406  -2.1330  -2.1039  -2.0939  -2.0655
    -2.0281  -2.0060  -1.9989  -1.9897  -1.9768  -1.9650  -1.9156  -1.8911
    -1.8705  -1.8592  -1.8247  -1.7283  -1.5672  -1.5062  -1.3496  -1.2617
    -1.2446  -1.2308  -1.2250  -1.2173  -1.1800  -1.1644  -1.1211  -1.1035
    -0.9987  -0.9782  -0.9625  -0.9159  -0.8888  -0.8120  -0.8091  -0.7415
    -0.7280  -0.6625  -0.4744  -0.3864  -0.3309  -0.3115  -0.2316  -0.1965
    -0.1421  -0.0990  -0.0835  -0.0705  -0.0454   0.0048   0.0416   0.0755
     0.0964   0.1336   0.1758   0.2074   0.2312   0.2782   0.2974   0.3410
     0.5083   0.5359   0.5818   0.5948   0.6355   0.8008   0.8655   0.9372
     1.0316   1.0428   1.0489   1.3512   1.4351   1.5394   1.7326   1.8529
     1.8807   3.4722   3.5126   3.6753   3.7410   3.8078   3.8473   3.9341
     3.9737   3.9974   4.0231

          k =-0.0760 0.0419 0.0000 ( 17914 PWs)   bands (ev):

   -55.6311 -55.6071 -55.5124 -55.4869 -55.4707 -55.4573 -55.4457 -55.4336
   -55.4190 -55.4050 -55.3944 -55.3839 -55.3598 -55.2386 -54.6171 -54.5931
   -32.0699 -31.9687 -31.9275 -31.9236 -31.9224 -31.9221 -31.8726 -31.8713
   -31.8482 -31.8009 -31.7704 -31.7683 -31.7309 -31.7089 -31.7072 -31.7052
   -31.6970 -31.6885 -31.6758 -31.6726 -31.6698 -31.6597 -31.6577 -31.6508
   -31.6484 -31.6392 -31.6371 -31.6345 -31.6292 -31.6252 -31.6221 -31.6158
   -31.6146 -31.5973 -31.5934 -31.5920 -31.5884 -31.5824 -31.5654 -31.5320
   -31.4456 -31.4042 -30.9745 -30.9427 -30.9197 -30.8334 -30.7724 -30.7054
   -18.4337 -17.7377 -15.9570 -15.8209 -15.8001 -15.5964 -15.5055 -15.4519
   -15.4214 -15.4033 -15.3871 -15.3470 -15.3357 -15.2814 -15.2652 -15.2416
   -15.2224 -15.1138 -15.0872 -15.0172 -14.9727 -14.9520 -14.9406 -14.9258
   -14.9039 -14.9021 -14.8652 -14.8385 -14.8209 -14.7973 -14.4173 -13.1224
   -13.0463 -12.3843  -7.8699  -6.2032  -5.4664  -4.7405  -3.3257  -3.2542
    -3.1558  -2.9699  -2.9056  -2.8311  -2.8170  -2.7995  -2.7820  -2.7399
    -2.7033  -2.6857  -2.6635  -2.6247  -2.5982  -2.5576  -2.4687  -2.4344
    -2.4165  -2.3955  -2.3662  -2.3529  -2.3020  -2.2523  -2.2097  -2.1805
    -2.1622  -2.1443  -2.1335  -2.1145  -2.1064  -2.0723  -2.0110  -1.9762
    -1.7140  -1.6877  -1.6693  -1.6434  -1.5115  -1.4890  -1.4345  -1.4271
    -1.2908  -1.2391  -1.2135  -1.1414  -1.1225  -1.0897  -1.0420  -0.9666
    -0.9446  -0.9139  -0.8769  -0.8680  -0.8543  -0.8369  -0.8180  -0.7318
    -0.7087  -0.6784  -0.6332  -0.5660  -0.5092  -0.4887  -0.4507  -0.3945
    -0.3612  -0.3391  -0.2871  -0.2443  -0.2062  -0.1706  -0.1320  -0.0303
     0.0294   0.0530   0.1320   0.1825   0.2045   0.2484   0.3608   0.3883
     0.5760   0.6198   0.6602   0.6966   0.7646   0.8132   0.8581   0.8935
     0.9378   0.9532   0.9995   1.0774   1.6149   1.6843   1.7725   1.8287
     1.9001   3.6682   3.6711   3.7553   3.8016   3.8589   3.8841   3.9896
     4.0186   4.1566   4.1676

          k =-0.0760-0.0839 0.0000 ( 17948 PWs)   bands (ev):

   -55.6192 -55.6191 -55.5031 -55.4963 -55.4603 -55.4563 -55.4456 -55.4453
   -55.4096 -55.4041 -55.4038 -55.3727 -55.3711 -55.2396 -54.6052 -54.6050
   -31.9373 -31.9372 -31.9130 -31.9129 -31.8827 -31.8468 -31.8180 -31.7994
   -31.7888 -31.7738 -31.7646 -31.7521 -31.7478 -31.7390 -31.7388 -31.7312
   -31.7308 -31.7183 -31.7156 -31.7091 -31.6830 -31.6807 -31.6755 -31.6695
   -31.6549 -31.6525 -31.6517 -31.6378 -31.6322 -31.6301 -31.6264 -31.6264
   -31.6225 -31.6196 -31.6191 -31.6147 -31.6129 -31.6015 -31.5864 -31.5354
   -31.4486 -31.4455 -30.9312 -30.9310 -30.8421 -30.8419 -30.8030 -30.8029
   -18.4310 -17.7385 -15.8502 -15.6066 -15.5929 -15.5562 -15.5373 -15.4182
   -15.3731 -15.3691 -15.3482 -15.2931 -15.2574 -15.2204 -15.1891 -15.1714
   -15.1480 -15.1367 -15.0949 -15.0920 -15.0850 -15.0630 -15.0213 -15.0109
   -14.9866 -14.9662 -14.9617 -14.9492 -14.9165 -14.7484 -14.6388 -13.1080
   -13.1079 -12.3867  -7.8710  -6.1929  -5.4773  -4.7443  -3.1432  -3.0653
    -3.0171  -2.7995  -2.7547  -2.7367  -2.7008  -2.6410  -2.5877  -2.5705
    -2.5518  -2.5237  -2.5141  -2.4613  -2.4358  -2.4097  -2.3852  -2.3691
    -2.3599  -2.3466  -2.3205  -2.3012  -2.2789  -2.2690  -2.2455  -2.2349
    -2.2130  -2.2048  -2.1907  -2.1682  -2.0789  -1.9972  -1.8962  -1.8368
    -1.7932  -1.7929  -1.7623  -1.7335  -1.7056  -1.7011  -1.6617  -1.6323
    -1.5610  -1.5013  -1.3183  -1.3046  -1.2598  -1.1753  -1.1743  -1.1268
    -1.1180  -1.0665  -1.0393  -0.9927  -0.9431  -0.9101  -0.8222  -0.6690
    -0.6204  -0.6005  -0.5946  -0.5791  -0.5386  -0.5241  -0.4719  -0.4546
    -0.4381  -0.3721  -0.3414  -0.3373  -0.2865  -0.2686  -0.1563  -0.0587
    -0.0308   0.0231   0.0626   0.1823   0.2946   0.3632   0.4647   0.4793
     0.4977   0.5512   0.6593   0.6691   0.7144   0.7767   0.8420   0.8477
     0.8781   0.9422   0.9541   0.9910   1.7650   1.7667   1.8190   1.8384
     1.8385   3.8623   3.9033   3.9537   3.9599   3.9837   4.0338   4.0413
     4.0718   4.1225   4.1381

     the Fermi energy is     3.4862 ev

!    total energy              =   -2973.97649171 Ry
     estimated scf accuracy    <       0.00000007 Ry
     smearing contrib. (-TS)   =      -0.01978026 Ry
     internal energy E=F+TS    =   -2973.95671145 Ry

     The total energy is F=E-TS. E is the sum of the following terms:
     one-electron contribution =  -24367.15946130 Ry
     hartree contribution      =   12278.13420126 Ry
     xc contribution           =    -494.12641701 Ry
     ewald contribution        =    9609.19340844 Ry
     electric field correction =       0.00155716 Ry

     convergence has been achieved in  55 iterations

     Forces acting on atoms (cartesian axes, Ry/au):

     atom    1 type  1   force =     0.00016056   -0.00031278    0.09441802
     atom    2 type  1   force =    -0.00007460   -0.00077168   -0.17586647
     atom    3 type  2   force =     0.00005772   -0.00020031   -0.02181990
     atom    4 type  2   force =     0.00003884   -0.00134412    0.05334248
     atom    5 type  2   force =    -0.00871703   -0.00018122    0.00366963
     atom    6 type  2   force =     0.01038515    0.00047001    0.00302072
     atom    7 type  1   force =    -0.00044876    0.00082031   -0.00103158
     atom    8 type  1   force =     0.00044730    0.00750514    0.00863936
     atom    9 type  2   force =     0.00047021    0.00015266    0.00004332
     atom   10 type  2   force =    -0.00263090    0.00131433   -0.01722955
     atom   11 type  2   force =    -0.00010331    0.00009180   -0.00040781
     atom   12 type  2   force =     0.00032186    0.00007445   -0.00008505
     atom   13 type  1   force =    -0.00042289   -0.00037888   -0.00022584
     atom   14 type  1   force =     0.00036876    0.00008494    0.00022666
     atom   15 type  2   force =     0.00013135   -0.00009046   -0.00027487
     atom   16 type  2   force =     0.00020770    0.00018358    0.00005464
     atom   17 type  2   force =    -0.00008059   -0.00007528    0.00007767
     atom   18 type  2   force =     0.00003195   -0.00005892   -0.00009364
     atom   19 type  1   force =    -0.00049879    0.00024211   -0.00068780
     atom   20 type  1   force =     0.00014716   -0.00014719    0.00008225
     atom   21 type  2   force =     0.00006519   -0.00000411    0.10324893
     atom   22 type  2   force =    -0.00027276   -0.00048655   -0.00011401
     atom   23 type  2   force =    -0.07155124   -0.00011700   -0.02735050
     atom   24 type  2   force =     0.07148875    0.00036866   -0.02736562
     atom   25 type  1   force =     0.00004349   -0.00021332    0.09440662
     atom   26 type  1   force =    -0.00013349   -0.00029540   -0.17599937
     atom   27 type  2   force =     0.00003791   -0.00018486   -0.02071514
     atom   28 type  2   force =     0.00009481   -0.00112507    0.05373003
     atom   29 type  2   force =    -0.00879436   -0.00001983    0.00343734
     atom   30 type  2   force =     0.01030902    0.00036659    0.00286642
     atom   31 type  1   force =    -0.00033016    0.00466476    0.00191076
     atom   32 type  1   force =     0.00042657   -0.00852225    0.00859780
     atom   33 type  2   force =    -0.00003709    0.00003010   -0.00001894
     atom   34 type  2   force =    -0.00403571   -0.00111683   -0.01182774
     atom   35 type  2   force =     0.00012553    0.00007563    0.00032845
     atom   36 type  2   force =     0.00054624    0.00006018   -0.00022876
     atom   37 type  1   force =     0.00061720   -0.00018928   -0.00000759
     atom   38 type  1   force =     0.00023118   -0.00016480   -0.00011102
     atom   39 type  2   force =    -0.00014005   -0.00003481   -0.00022018
     atom   40 type  2   force =     0.00046184    0.00000983    0.00038508
     atom   41 type  2   force =    -0.00010990    0.00044123    0.00010377
     atom   42 type  2   force =     0.00015381    0.00018327   -0.00013444
     atom   43 type  1   force =    -0.00026463   -0.00012189   -0.00009287
     atom   44 type  1   force =     0.00035297    0.00060377    0.00081041
     atom   45 type  2   force =     0.00005421    0.00000197    0.10331601
     atom   46 type  2   force =    -0.07154781   -0.00003825   -0.02734181
     atom   47 type  2   force =     0.07148875    0.00035633   -0.02736626
     atom   48 type  3   force =     0.00051862   -0.00048893   -0.00070293
     atom   49 type  4   force =     0.00017309   -0.00087753    0.00026507
     atom   50 type  5   force =    -0.00248724   -0.00578510    0.00598098
     atom   51 type  3   force =     0.00211626    0.00544769   -0.00655463
     atom   52 type  3   force =    -0.00000574   -0.00029168   -0.00001878
     atom   53 type  4   force =    -0.00021637    0.00035170    0.00099433
     atom   54 type  2   force =     0.00039432   -0.00061438    0.00078022
     atom   55 type  3   force =    -0.00040602    0.00034858   -0.00050292
     atom   56 type  3   force =     0.00084112    0.00000308   -0.00034099

     Total force =     0.364011     Total SCF correction =     0.000561
  @ DRIVER MODE: Message from server: STATUS
  @ DRIVER MODE: Message from server: GETFORCE
  @ DRIVER MODE: Returning v,forces,stress,ensemble 

     Writing output data file ./calc.save/
  @ DRIVER MODE: Message from server: EXIT
  @ DRIVE MODE: Exiting  
 
     init_run     :     10.86s CPU     11.07s WALL (       1 calls)
     electrons    :    927.77s CPU    940.15s WALL (       1 calls)
     forces       :      2.39s CPU      2.48s WALL (       1 calls)

     Called by init_run:
     wfcinit      :      4.84s CPU      4.90s WALL (       1 calls)
     potinit      :      5.35s CPU      5.42s WALL (       1 calls)
     hinit0       :      0.29s CPU      0.31s WALL (       1 calls)

     Called by electrons:
     c_bands      :    798.41s CPU    803.76s WALL (      55 calls)
     sum_band     :     88.39s CPU     91.19s WALL (      55 calls)
     v_of_rho     :     31.90s CPU     33.44s WALL (      56 calls)
     newd         :     12.74s CPU     15.47s WALL (      56 calls)
     mix_rho      :      1.13s CPU      1.14s WALL (      55 calls)
     vdW_kernel   :      4.54s CPU      4.56s WALL (       1 calls)

     Called by c_bands:
     init_us_2    :      5.10s CPU      5.12s WALL (    1120 calls)
     cegterg      :    783.61s CPU    788.75s WALL (     567 calls)

     Called by *egterg:
     cdiaghg      :    127.13s CPU    127.65s WALL (    5790 calls)
     h_psi        :    417.05s CPU    420.67s WALL (    5805 calls)
     s_psi        :     55.21s CPU     55.39s WALL (    5805 calls)
     g_psi        :      1.55s CPU      1.57s WALL (    5228 calls)

     Called by h_psi:
     h_psi:calbec :     51.92s CPU     52.16s WALL (    5805 calls)
     vloc_psi     :    306.91s CPU    309.80s WALL (    5805 calls)
     add_vuspsi   :     55.47s CPU     55.79s WALL (    5805 calls)

     General routines
     calbec       :     67.82s CPU     68.11s WALL (    6395 calls)
     fft          :     15.51s CPU     15.63s WALL (    3528 calls)
     ffts         :      0.10s CPU      0.10s WALL (     111 calls)
     fftw         :    340.49s CPU    343.66s WALL (  809690 calls)
     interpolate  :      0.32s CPU      0.32s WALL (      56 calls)
     davcio       :      0.00s CPU      0.17s WALL (      10 calls)
 
     Parallel routines
 
     PWSCF        :  15m41.26s CPU  15m54.35s WALL

 
   This run was terminated on:  23:34:12  15Sep2021            

=------------------------------------------------------------------------------=
   JOB DONE.
=------------------------------------------------------------------------------=
