
     Program PWSCF v.6.7GPU starts on 23Sep2021 at  1:58:46 

     This program is part of the open-source Quantum ESPRESSO suite
     for quantum simulation of materials; please cite
         "P. Giannozzi et al., J. Phys.:Condens. Matter 21 395502 (2009);
         "P. Giannozzi et al., J. Phys.:Condens. Matter 29 465901 (2017);
         "P. Giannozzi et al., J. Chem. Phys. 152 154105 (2020);
          URL http://www.quantum-espresso.org", 
     in publications or presentations arising from this work. More details at
     http://www.quantum-espresso.org/quote

     Parallel version (MPI), running on    10 processors

     MPI processes distributed on     1 nodes
     R & G space division:  proc/nbgrp/npool/nimage =      10
     Reading input from /storage/home/hcoda1/3/ntian30/research/carbon/CxH_vib/H2O_calc/ads_slab/CH3NNH3HO_a/out_0028/pw.inp
Warning: card &CELL ignored
Warning: card   CELL_DYNAMICS='IPI', ignored
Warning: card / ignored

     Current dimensions of program PWSCF are:
     Max number of different atomic species (ntypx) = 10
     Max number of k-points (npk) =  40000
     Max angular momentum in pseudopotentials (lmaxx) =  3
     Presently no symmetry can be used with electric field

     Message from routine cell_base_init:
     DEPRECATED: use true lattice parameter, not A to a.u. conversion factor

     **************************************************************************
     Initializing libbeef V0.1.2 with the BEEF-vdW functional.
     Citation: Wellendorff et al., PRB 85, 235149 (2012).
     **************************************************************************


     IMPORTANT: XC functional enforced from input :
     Exchange-correlation= BEEF-VDW
                           (   1   4  43  14   2   0   0)
     Any further DFT definition will be discarded
     Please, verify this is what you really want


     Subspace diagonalization in iterative solution of the eigenvalue problem:
     one sub-group per band group will be used
     scalapack distributed-memory algorithm (size of sub-group:  3*  3 procs)

  @ DRIVER MODE: Connecting to 
 qe_1139763_2937318.sched-torque.pace.gatech.edupdthr149_scratch
  using UNIX socket
  @ DRIVER MODE: Message from server: STATUS
  @ DRIVER MODE: Message from server: INIT
  @ DRIVER MODE: Receiving replica           0          -1
  @ DRIVER MODE: Receiving encoded integer          25
  @ DRIVER MODE:  SCF:  T  FORCE:  T  STRESS:  F  VC:  F  ENSEMBLE:  F
  @ DRIVER MODE:  SCF:  T  FORCE:  T  STRESS:  F  VC:  F  ENSEMBLE:  F
 
     Parallelization info
     --------------------
     sticks:   dense  smooth     PW     G-vecs:    dense   smooth      PW
     Min         327     131     37                56683    14340    2191
     Max         328     133     38                56694    14346    2206
     Sum        3275    1317    379               566857   143421   21985
 
     Using Slab Decomposition
 


     bravais-lattice index     =            0
     lattice parameter (alat)  =       1.8897  a.u.
     unit-cell volume          =    6658.9804 (a.u.)^3
     number of atoms/cell      =           58
     number of atomic types    =            5
     number of electrons       =       405.00
     number of Kohn-Sham states=          212
     kinetic-energy cutoff     =      29.3995  Ry
     charge density cutoff     =     293.9946  Ry
     scf convergence threshold =      7.3E-08
     mixing beta               =       0.0500
     number of iterations used =            8  plain     mixing
     Exchange-correlation= BEEF-VDW
                           (   1   4  43  14   2   0   0)

     celldm(1)=   1.889726  celldm(2)=   0.000000  celldm(3)=   0.000000
     celldm(4)=   0.000000  celldm(5)=   0.000000  celldm(6)=   0.000000

     crystal axes: (cart. coord. in units of alat)
               a(1) = (   6.579727   0.000000   0.000000 )  
               a(2) = (  -0.000775   5.961596   0.000000 )  
               a(3) = (   0.000000   0.000000  25.155947 )  

     reciprocal axes: (cart. coord. in units 2 pi/alat)
               b(1) = (  0.151982  0.000020  0.000000 )  
               b(2) = (  0.000000  0.167740  0.000000 )  
               b(3) = (  0.000000  0.000000  0.039752 )  


     PseudoPot. # 1 for Ti read from file:
     /storage/coda1/p-amedford6/0/shared/rich_project_chbe-medford/medford-share/data/pseudos_module/espresso/nninc/pbe/van/Ti.UPF
     MD5 check sum: 8e4df49b7f0d34bbd5052bf3f5ea0213
     Pseudo is Ultrasoft, Zval = 12.0
     Generated by new atomic code, or converted to UPF format
     Using radial grid of  851 points,  6 beta functions with: 
                l(1) =   0
                l(2) =   0
                l(3) =   1
                l(4) =   1
                l(5) =   2
                l(6) =   2
     Q(r) pseudized with  8 coefficients,  rinner =    1.000   1.000   1.000
                                                       1.000   1.000

     PseudoPot. # 2 for O  read from file:
     /storage/coda1/p-amedford6/0/shared/rich_project_chbe-medford/medford-share/data/pseudos_module/espresso/nninc/pbe/van/O.UPF
     MD5 check sum: 78c19812648e8988a0fe644b0f25305e
     Pseudo is Ultrasoft, Zval =  6.0
     Generated by new atomic code, or converted to UPF format
     Using radial grid of  737 points,  4 beta functions with: 
                l(1) =   0
                l(2) =   0
                l(3) =   1
                l(4) =   1
     Q(r) pseudized with  8 coefficients,  rinner =    0.800   0.800   0.800


     PseudoPot. # 3 for N  read from file:
     /storage/coda1/p-amedford6/0/shared/rich_project_chbe-medford/medford-share/data/pseudos_module/espresso/nninc/pbe/van/N.UPF
     MD5 check sum: 90d10febe142ad51ac9d5be1deb811c4
     Pseudo is Ultrasoft, Zval =  5.0
     Generated by new atomic code, or converted to UPF format
     Using radial grid of  729 points,  4 beta functions with: 
                l(1) =   0
                l(2) =   0
                l(3) =   1
                l(4) =   1
     Q(r) pseudized with  8 coefficients,  rinner =    0.800   0.800   0.800


     PseudoPot. # 4 for C  read from file:
     /storage/coda1/p-amedford6/0/shared/rich_project_chbe-medford/medford-share/data/pseudos_module/espresso/nninc/pbe/van/C.UPF
     MD5 check sum: 1a69bf6b8db32088f5b2163dbdb77a27
     Pseudo is Ultrasoft, Zval =  4.0
     Generated by new atomic code, or converted to UPF format
     Using radial grid of  721 points,  4 beta functions with: 
                l(1) =   0
                l(2) =   0
                l(3) =   1
                l(4) =   1
     Q(r) pseudized with  8 coefficients,  rinner =    0.800   0.800   0.800


     PseudoPot. # 5 for H  read from file:
     /storage/coda1/p-amedford6/0/shared/rich_project_chbe-medford/medford-share/data/pseudos_module/espresso/nninc/pbe/van/H.UPF
     MD5 check sum: b5ee9d7bfd3a09ee7748110bda690ff7
     Pseudo is Ultrasoft, Zval =  1.0
     Generated by new atomic code, or converted to UPF format
     Using radial grid of  615 points,  1 beta functions with: 
                l(1) =   0
     Q(r) pseudized with  8 coefficients,  rinner =    0.800

     atomic species   valence    mass     pseudopotential
        Ti1           12.00    47.86700     Ti( 1.00)
        O1             6.00    15.99900     O ( 1.00)
        N1             5.00    14.00700     N ( 1.00)
        C1             4.00    12.01100     C ( 1.00)
        H1             1.00     1.00800     H ( 1.00)

     No symmetry found



   Cartesian axes

     site n.     atom                  positions (alat units)
         1           Ti1 tau(   1) = (   0.0004258   2.9801865   6.0000000  )
         2           Ti1 tau(   2) = (   3.2906075   1.4906267   6.0002472  )
         3           O1  tau(   3) = (   0.0006271   0.0005054   7.9858123  )
         4           O1  tau(   4) = (   3.2906025   0.0005020   7.3038282  )
         5           O1  tau(   5) = (   4.5942328   1.4918067   9.2879030  )
         6           O1  tau(   6) = (   1.9868534   1.4903216   9.2879459  )
         7           Ti1 tau(   7) = (   3.2907910   2.8959150   9.1758416  )
         8           Ti1 tau(   8) = (   0.0015273   1.4827037   9.2680791  )
         9           O1  tau(   9) = (   3.2949357   5.9297256  11.2770696  )
        10           O1  tau(  10) = (   0.0116148   5.9584955  10.6183126  )
        11           O1  tau(  11) = (   1.2901270   1.4659759  12.6218969  )
        12           O1  tau(  12) = (   5.3029181   1.4690452  12.6271982  )
        13           Ti1 tau(  13) = (   6.5637346   3.0486055  12.7052252  )
        14           Ti1 tau(  14) = (   3.3207578   1.2909511  12.6638180  )
        15           O1  tau(  15) = (   0.0081040   5.9567798  14.6379979  )
        16           O1  tau(  16) = (   3.2944190   0.0149942  13.8863584  )
        17           O1  tau(  17) = (   4.5334936   1.5584448  16.0391558  )
        18           O1  tau(  18) = (   2.0244848   1.5379376  16.0854781  )
        19           Ti1 tau(  19) = (   3.2579824   3.0118882  15.6538344  )
        20           Ti1 tau(  20) = (   6.4918182   1.5199401  15.8876453  )
        21           O1  tau(  21) = (   3.2904802   0.0005063   4.7018136  )
        22           O1  tau(  22) = (   6.5166677   0.0216046  17.1949088  )
        23           O1  tau(  23) = (   1.3043587   1.4918075   6.0039043  )
        24           O1  tau(  24) = (   5.2767064   1.4903225   6.0039473  )
        25           Ti1 tau(  25) = (   0.0000382   5.9609847   6.0000000  )
        26           Ti1 tau(  26) = (   3.2902200   4.4714249   6.0002472  )
        27           O1  tau(  27) = (   0.0002396   2.9813036   7.9858123  )
        28           O1  tau(  28) = (   3.2902150   2.9813002   7.3038282  )
        29           O1  tau(  29) = (   4.5938453   4.4726049   9.2879030  )
        30           O1  tau(  30) = (   1.9864658   4.4711199   9.2879459  )
        31           Ti1 tau(  31) = (   3.2891106   5.8743827   9.1763621  )
        32           Ti1 tau(  32) = (   0.0006254   4.4649316   9.2693709  )
        33           O1  tau(  33) = (   3.2959121   3.0085915  11.2438341  )
        34           O1  tau(  34) = (   0.0092240   2.9805883  10.6323155  )
        35           O1  tau(  35) = (   1.2849535   4.4488585  12.6204231  )
        36           O1  tau(  36) = (   5.2878833   4.4365118  12.6243745  )
        37           Ti1 tau(  37) = (   0.0500071   0.0677371  12.6535751  )
        38           Ti1 tau(  38) = (   3.3027700   4.3871210  12.4110406  )
        39           O1  tau(  39) = (   6.5685058   2.9535060  14.6525041  )
        40           O1  tau(  40) = (   3.2696111   2.9719761  13.8704823  )
        41           O1  tau(  41) = (   4.5209813   4.4409030  16.0696701  )
        42           O1  tau(  42) = (   2.0131998   4.4599944  16.0916020  )
        43           Ti1 tau(  43) = (   3.2138439   0.0230873  16.3295100  )
        44           Ti1 tau(  44) = (   6.5234412   4.6200706  16.0754176  )
        45           O1  tau(  45) = (   3.2900926   2.9813045   4.7018136  )
        46           O1  tau(  46) = (   1.3039711   4.4726057   6.0039043  )
        47           O1  tau(  47) = (   5.2763189   4.4711207   6.0039473  )
        48           N1  tau(  48) = (   0.0251376   2.9556585  17.3246074  )
        49           N1  tau(  49) = (   6.3772498   2.5461882  22.2688425  )
        50           C1  tau(  50) = (   0.2111848   2.8484408  18.7116211  )
        51           H1  tau(  51) = (   0.3920758   3.8074029  19.2116250  )
        52           H1  tau(  52) = (   5.9044209   2.3808277  19.1722604  )
        53           H1  tau(  53) = (   1.0233575   2.1342068  18.9364007  )
        54           H1  tau(  54) = (   6.0930523   3.2289774  22.9628454  )
        55           H1  tau(  55) = (   0.2277240   1.7755739  22.7685771  )
        56           H1  tau(  56) = (   0.5282093   2.9785696  21.7129995  )
        57           O1  tau(  57) = (   3.3838229   0.0530270  18.1522483  )
        58           H1  tau(  58) = (   4.2718821   5.8932998  18.5223319  )

     number of k points=    10  Fermi-Dirac smearing, width (Ry)=  0.0073
                       cart. coord. in units 2pi/alat
        k(    1) = (   0.0000000   0.0000000   0.0000000), wk =   0.1250000
        k(    2) = (   0.0000000   0.0419351   0.0000000), wk =   0.2500000
        k(    3) = (   0.0000000  -0.0838702   0.0000000), wk =   0.1250000
        k(    4) = (   0.0379955   0.0000049   0.0000000), wk =   0.2500000
        k(    5) = (   0.0379955   0.0419400   0.0000000), wk =   0.2500000
        k(    6) = (   0.0379955  -0.0838652   0.0000000), wk =   0.2500000
        k(    7) = (   0.0379955  -0.0419301   0.0000000), wk =   0.2500000
        k(    8) = (  -0.0759910  -0.0000099   0.0000000), wk =   0.1250000
        k(    9) = (  -0.0759910   0.0419252   0.0000000), wk =   0.2500000
        k(   10) = (  -0.0759910  -0.0838800   0.0000000), wk =   0.1250000

     Dense  grid:   566857 G-vectors     FFT dimensions: (  72,  64, 270)

     Smooth grid:   143421 G-vectors     FFT dimensions: (  45,  40, 180)

     Estimated max dynamical RAM per process >     367.84 MB

     Estimated total dynamical RAM >       3.59 GB
     Cannot read rho : file not found

     Initial potential from superposition of free atoms

     starting charge  388.99913, renormalised to  405.00000

     negative rho (up, down):  7.828E-03 0.000E+00


     %%%%%%%%%%%%%%%%%%%%%%%%%%%%%%%%%%%%%%%%%%%%%%%%%%%%%%%%%%%%%%%%%%%%%%%%
     %                                                                      %
     % You are using vdW-DF, which was implemented by the Thonhauser group. %
     % Please cite the following two papers that made this development      %
     % possible and the two reviews that describe the various versions:     %
     %                                                                      %
     %   T. Thonhauser et al., PRL 115, 136402 (2015).                      %
     %   T. Thonhauser et al., PRB 76, 125112 (2007).                       %
     %   K. Berland et al., Rep. Prog. Phys. 78, 066501 (2015).             %
     %   D.C. Langreth et al., J. Phys.: Condens. Matter 21, 084203 (2009). %
     %                                                                      %
     %                                                                      %
     % If you are calculating the stress with vdW-DF, please also cite:     %
     %                                                                      %
     %   R. Sabatini et al., J. Phys.: Condens. Matter 24, 424209 (2012).   %
     %                                                                      %
     %%%%%%%%%%%%%%%%%%%%%%%%%%%%%%%%%%%%%%%%%%%%%%%%%%%%%%%%%%%%%%%%%%%%%%%%


 
     Adding external electric field

     Computed dipole along edir(3) : 
        Dipole              -15.1933 Ry au,        -38.6176 Debye
        Dipole field         -0.0287 Ry au, 
 
        Potential amp.        2.6578 Ry
        Total length         46.3494 bohr
 
     Starting wfcs are  307 atomic wfcs
  @ DRIVER MODE: Message from server: STATUS
  @ DRIVER MODE: Message from server: POSDATA
  @ DRIVER MODE: Reading and sharing cell 
  @ DRIVER MODE: Reading and sharing positions 
  @ DRIVER MODE: Received positions 

     total cpu time spent up to now is       11.6 secs

     Self-consistent Calculation

     iteration #  1     ecut=    29.40 Ry     beta= 0.05
     Davidson diagonalization with overlap
     c_bands:  4 eigenvalues not converged
     c_bands:  1 eigenvalues not converged
     c_bands:  1 eigenvalues not converged
     c_bands:  2 eigenvalues not converged
     c_bands:  1 eigenvalues not converged
     c_bands:  2 eigenvalues not converged
     ethr =  1.00E-05,  avg # of iterations = 31.5

     negative rho (up, down):  5.634E-03 0.000E+00
 
     Adding external electric field

     Computed dipole along edir(3) : 
        Dipole               57.0039 Ry au,        144.8895 Debye
        Dipole field          0.1076 Ry au, 
 
        Potential amp.       -9.9720 Ry
        Total length         46.3494 bohr
 

     total cpu time spent up to now is       65.6 secs

     total energy              =   -2295.06480636 Ry
     estimated scf accuracy    <    7743.71028542 Ry

     iteration #  2     ecut=    29.40 Ry     beta= 0.05
     Davidson diagonalization with overlap
     ethr =  1.00E-02,  avg # of iterations = 22.3

     negative rho (up, down):  2.167E-04 0.000E+00
 
     Adding external electric field

     Computed dipole along edir(3) : 
        Dipole               -2.2853 Ry au,         -5.8086 Debye
        Dipole field         -0.0043 Ry au, 
 
        Potential amp.        0.3998 Ry
        Total length         46.3494 bohr
 

     total cpu time spent up to now is      152.6 secs

     total energy              =   -2431.16933275 Ry
     estimated scf accuracy    <   80542.36811245 Ry

     iteration #  3     ecut=    29.40 Ry     beta= 0.05
     Davidson diagonalization with overlap
     ethr =  1.00E-02,  avg # of iterations = 16.5

     negative rho (up, down):  2.634E-04 0.000E+00
 
     Adding external electric field

     Computed dipole along edir(3) : 
        Dipole               -4.9536 Ry au,        -12.5908 Debye
        Dipole field         -0.0093 Ry au, 
 
        Potential amp.        0.8666 Ry
        Total length         46.3494 bohr
 

     total cpu time spent up to now is      203.8 secs

     total energy              =   -2957.47967702 Ry
     estimated scf accuracy    <    8072.34276899 Ry

     iteration #  4     ecut=    29.40 Ry     beta= 0.05
     Davidson diagonalization with overlap
     ethr =  1.00E-02,  avg # of iterations = 11.3

     negative rho (up, down):  2.732E-04 0.000E+00
 
     Adding external electric field

     Computed dipole along edir(3) : 
        Dipole               -5.9889 Ry au,        -15.2223 Debye
        Dipole field         -0.0113 Ry au, 
 
        Potential amp.        1.0477 Ry
        Total length         46.3494 bohr
 

     total cpu time spent up to now is      227.7 secs

     total energy              =   -2971.17183674 Ry
     estimated scf accuracy    <    2338.08726721 Ry

     iteration #  5     ecut=    29.40 Ry     beta= 0.05
     Davidson diagonalization with overlap
     ethr =  1.00E-02,  avg # of iterations =  6.1

     negative rho (up, down):  2.968E-04 0.000E+00
 
     Adding external electric field

     Computed dipole along edir(3) : 
        Dipole               -7.1071 Ry au,        -18.0645 Debye
        Dipole field         -0.0134 Ry au, 
 
        Potential amp.        1.2433 Ry
        Total length         46.3494 bohr
 

     total cpu time spent up to now is      240.4 secs

     total energy              =   -2951.44567541 Ry
     estimated scf accuracy    <    1937.29726856 Ry

     iteration #  6     ecut=    29.40 Ry     beta= 0.05
     Davidson diagonalization with overlap
     ethr =  1.00E-02,  avg # of iterations = 11.8

     negative rho (up, down):  2.864E-04 0.000E+00
 
     Adding external electric field

     Computed dipole along edir(3) : 
        Dipole               -5.4673 Ry au,        -13.8964 Debye
        Dipole field         -0.0103 Ry au, 
 
        Potential amp.        0.9564 Ry
        Total length         46.3494 bohr
 

     total cpu time spent up to now is      264.5 secs

     total energy              =   -2981.19379809 Ry
     estimated scf accuracy    <      51.08688836 Ry

     iteration #  7     ecut=    29.40 Ry     beta= 0.05
     Davidson diagonalization with overlap
     ethr =  1.00E-02,  avg # of iterations =  1.1

     negative rho (up, down):  2.782E-04 0.000E+00
 
     Adding external electric field

     Computed dipole along edir(3) : 
        Dipole               -3.7461 Ry au,         -9.5217 Debye
        Dipole field         -0.0071 Ry au, 
 
        Potential amp.        0.6553 Ry
        Total length         46.3494 bohr
 

     total cpu time spent up to now is      274.7 secs

     total energy              =   -2980.67709416 Ry
     estimated scf accuracy    <      46.06632184 Ry

     iteration #  8     ecut=    29.40 Ry     beta= 0.05
     Davidson diagonalization with overlap
     ethr =  1.00E-02,  avg # of iterations =  1.2

     negative rho (up, down):  2.754E-04 0.000E+00
 
     Adding external electric field

     Computed dipole along edir(3) : 
        Dipole               -3.1047 Ry au,         -7.8914 Debye
        Dipole field         -0.0059 Ry au, 
 
        Potential amp.        0.5431 Ry
        Total length         46.3494 bohr
 

     total cpu time spent up to now is      284.9 secs

     total energy              =   -2981.36572564 Ry
     estimated scf accuracy    <      84.07258742 Ry

     iteration #  9     ecut=    29.40 Ry     beta= 0.05
     Davidson diagonalization with overlap
     ethr =  1.00E-02,  avg # of iterations =  1.1

     negative rho (up, down):  2.755E-04 0.000E+00
 
     Adding external electric field

     Computed dipole along edir(3) : 
        Dipole               -2.8735 Ry au,         -7.3038 Debye
        Dipole field         -0.0054 Ry au, 
 
        Potential amp.        0.5027 Ry
        Total length         46.3494 bohr
 

     total cpu time spent up to now is      295.1 secs

     total energy              =   -2982.53073766 Ry
     estimated scf accuracy    <     259.20680163 Ry

     iteration # 10     ecut=    29.40 Ry     beta= 0.05
     Davidson diagonalization with overlap
     ethr =  1.00E-02,  avg # of iterations =  1.0

     negative rho (up, down):  2.900E-04 0.000E+00
 
     Adding external electric field

     Computed dipole along edir(3) : 
        Dipole                4.7048 Ry au,         11.9584 Debye
        Dipole field          0.0089 Ry au, 
 
        Potential amp.       -0.8230 Ry
        Total length         46.3494 bohr
 

     total cpu time spent up to now is      305.1 secs

     total energy              =   -2994.67132519 Ry
     estimated scf accuracy    <     335.80098681 Ry

     iteration # 11     ecut=    29.40 Ry     beta= 0.05
     Davidson diagonalization with overlap
     ethr =  1.00E-02,  avg # of iterations = 13.9

     negative rho (up, down):  3.489E-04 0.000E+00
 
     Adding external electric field

     Computed dipole along edir(3) : 
        Dipole                5.4689 Ry au,         13.9005 Debye
        Dipole field          0.0103 Ry au, 
 
        Potential amp.       -0.9567 Ry
        Total length         46.3494 bohr
 

     total cpu time spent up to now is      327.3 secs

     total energy              =   -3005.87956464 Ry
     estimated scf accuracy    <    4575.31760785 Ry

     iteration # 12     ecut=    29.40 Ry     beta= 0.05
     Davidson diagonalization with overlap
     ethr =  1.00E-02,  avg # of iterations =  1.3

     negative rho (up, down):  3.936E-04 0.000E+00
 
     Adding external electric field

     Computed dipole along edir(3) : 
        Dipole                6.3428 Ry au,         16.1218 Debye
        Dipole field          0.0120 Ry au, 
 
        Potential amp.       -1.1096 Ry
        Total length         46.3494 bohr
 

     total cpu time spent up to now is      337.6 secs

     total energy              =   -3006.69494166 Ry
     estimated scf accuracy    <    3357.80804120 Ry

     iteration # 13     ecut=    29.40 Ry     beta= 0.05
     Davidson diagonalization with overlap
     ethr =  1.00E-02,  avg # of iterations =  1.0

     negative rho (up, down):  4.543E-04 0.000E+00
 
     Adding external electric field

     Computed dipole along edir(3) : 
        Dipole                8.3893 Ry au,         21.3234 Debye
        Dipole field          0.0158 Ry au, 
 
        Potential amp.       -1.4676 Ry
        Total length         46.3494 bohr
 

     total cpu time spent up to now is      347.7 secs

     total energy              =   -3015.48188368 Ry
     estimated scf accuracy    <    3323.62135662 Ry

     iteration # 14     ecut=    29.40 Ry     beta= 0.05
     Davidson diagonalization with overlap
     ethr =  1.00E-02,  avg # of iterations =  1.0

     negative rho (up, down):  7.837E-04 0.000E+00
 
     Adding external electric field

     Computed dipole along edir(3) : 
        Dipole                5.7802 Ry au,         14.6919 Debye
        Dipole field          0.0109 Ry au, 
 
        Potential amp.       -1.0112 Ry
        Total length         46.3494 bohr
 

     total cpu time spent up to now is      357.8 secs

     total energy              =   -2930.61531726 Ry
     estimated scf accuracy    <    4143.31922680 Ry

     iteration # 15     ecut=    29.40 Ry     beta= 0.05
     Davidson diagonalization with overlap
     ethr =  1.00E-02,  avg # of iterations = 12.2

     negative rho (up, down):  2.472E-04 0.000E+00
 
     Adding external electric field

     Computed dipole along edir(3) : 
        Dipole                1.5165 Ry au,          3.8546 Debye
        Dipole field          0.0029 Ry au, 
 
        Potential amp.       -0.2653 Ry
        Total length         46.3494 bohr
 

     total cpu time spent up to now is      388.5 secs

     total energy              =   -2957.07290242 Ry
     estimated scf accuracy    <    1912.98251779 Ry

     iteration # 16     ecut=    29.40 Ry     beta= 0.05
     Davidson diagonalization with overlap
     ethr =  1.00E-02,  avg # of iterations = 11.9

     negative rho (up, down):  3.180E-04 0.000E+00
 
     Adding external electric field

     Computed dipole along edir(3) : 
        Dipole                1.2399 Ry au,          3.1516 Debye
        Dipole field          0.0023 Ry au, 
 
        Potential amp.       -0.2169 Ry
        Total length         46.3494 bohr
 

     total cpu time spent up to now is      406.8 secs

     total energy              =   -2975.18144376 Ry
     estimated scf accuracy    <      43.96642295 Ry

     iteration # 17     ecut=    29.40 Ry     beta= 0.05
     Davidson diagonalization with overlap
     ethr =  1.00E-02,  avg # of iterations =  3.3

     negative rho (up, down):  4.272E-04 0.000E+00
 
     Adding external electric field

     Computed dipole along edir(3) : 
        Dipole               -0.3509 Ry au,         -0.8919 Debye
        Dipole field         -0.0007 Ry au, 
 
        Potential amp.        0.0614 Ry
        Total length         46.3494 bohr
 

     total cpu time spent up to now is      418.0 secs

     total energy              =   -2974.93835603 Ry
     estimated scf accuracy    <      14.68684231 Ry

     iteration # 18     ecut=    29.40 Ry     beta= 0.05
     Davidson diagonalization with overlap
     ethr =  3.63E-03,  avg # of iterations =  7.2

     negative rho (up, down):  4.814E-04 0.000E+00
 
     Adding external electric field

     Computed dipole along edir(3) : 
        Dipole                0.6653 Ry au,          1.6910 Debye
        Dipole field          0.0013 Ry au, 
 
        Potential amp.       -0.1164 Ry
        Total length         46.3494 bohr
 

     total cpu time spent up to now is      431.6 secs

     total energy              =   -2976.79819317 Ry
     estimated scf accuracy    <       3.12091401 Ry

     iteration # 19     ecut=    29.40 Ry     beta= 0.05
     Davidson diagonalization with overlap
     ethr =  7.71E-04,  avg # of iterations =  4.1

     negative rho (up, down):  6.118E-04 0.000E+00
 
     Adding external electric field

     Computed dipole along edir(3) : 
        Dipole                2.7876 Ry au,          7.0852 Debye
        Dipole field          0.0053 Ry au, 
 
        Potential amp.       -0.4876 Ry
        Total length         46.3494 bohr
 

     total cpu time spent up to now is      443.9 secs

     total energy              =   -2976.86628510 Ry
     estimated scf accuracy    <       3.90003527 Ry

     iteration # 20     ecut=    29.40 Ry     beta= 0.05
     Davidson diagonalization with overlap
     c_bands:  2 eigenvalues not converged
     c_bands:  1 eigenvalues not converged
     c_bands:  2 eigenvalues not converged
     ethr =  7.71E-04,  avg # of iterations = 14.3

     negative rho (up, down):  8.004E-04 0.000E+00
 
     Adding external electric field

     Computed dipole along edir(3) : 
        Dipole                2.6383 Ry au,          6.7060 Debye
        Dipole field          0.0050 Ry au, 
 
        Potential amp.       -0.4615 Ry
        Total length         46.3494 bohr
 

     total cpu time spent up to now is      463.2 secs

     total energy              =   -2977.25394574 Ry
     estimated scf accuracy    <      69.53589244 Ry

     iteration # 21     ecut=    29.40 Ry     beta= 0.05
     Davidson diagonalization with overlap
     ethr =  7.71E-04,  avg # of iterations =  3.0

     negative rho (up, down):  1.363E-03 0.000E+00
 
     Adding external electric field

     Computed dipole along edir(3) : 
        Dipole                2.7023 Ry au,          6.8685 Debye
        Dipole field          0.0051 Ry au, 
 
        Potential amp.       -0.4727 Ry
        Total length         46.3494 bohr
 

     total cpu time spent up to now is      474.4 secs

     total energy              =   -2977.20808390 Ry
     estimated scf accuracy    <      28.88868697 Ry

     iteration # 22     ecut=    29.40 Ry     beta= 0.05
     Davidson diagonalization with overlap
     c_bands:  3 eigenvalues not converged
     ethr =  7.71E-04,  avg # of iterations =  4.2

     negative rho (up, down):  1.845E-03 0.000E+00
 
     Adding external electric field

     Computed dipole along edir(3) : 
        Dipole                1.8568 Ry au,          4.7194 Debye
        Dipole field          0.0035 Ry au, 
 
        Potential amp.       -0.3248 Ry
        Total length         46.3494 bohr
 

     total cpu time spent up to now is      486.1 secs

     total energy              =   -2976.22455901 Ry
     estimated scf accuracy    <      29.41272934 Ry

     iteration # 23     ecut=    29.40 Ry     beta= 0.05
     Davidson diagonalization with overlap
     ethr =  7.71E-04,  avg # of iterations =  4.2

     negative rho (up, down):  1.576E-03 0.000E+00
 
     Adding external electric field

     Computed dipole along edir(3) : 
        Dipole                1.1485 Ry au,          2.9193 Debye
        Dipole field          0.0022 Ry au, 
 
        Potential amp.       -0.2009 Ry
        Total length         46.3494 bohr
 

     total cpu time spent up to now is      497.7 secs

     total energy              =   -2976.34408788 Ry
     estimated scf accuracy    <       3.39859481 Ry

     iteration # 24     ecut=    29.40 Ry     beta= 0.05
     Davidson diagonalization with overlap
     ethr =  7.71E-04,  avg # of iterations =  6.5

     negative rho (up, down):  1.494E-03 0.000E+00
 
     Adding external electric field

     Computed dipole along edir(3) : 
        Dipole                1.4067 Ry au,          3.5756 Debye
        Dipole field          0.0027 Ry au, 
 
        Potential amp.       -0.2461 Ry
        Total length         46.3494 bohr
 

     total cpu time spent up to now is      510.1 secs

     total energy              =   -2976.52844322 Ry
     estimated scf accuracy    <       0.72065756 Ry

     iteration # 25     ecut=    29.40 Ry     beta= 0.05
     Davidson diagonalization with overlap
     c_bands:  1 eigenvalues not converged
     c_bands:  1 eigenvalues not converged
     c_bands:  2 eigenvalues not converged
     ethr =  1.78E-04,  avg # of iterations = 11.9

     negative rho (up, down):  1.379E-03 0.000E+00
 
     Adding external electric field

     Computed dipole along edir(3) : 
        Dipole                1.4616 Ry au,          3.7151 Debye
        Dipole field          0.0028 Ry au, 
 
        Potential amp.       -0.2557 Ry
        Total length         46.3494 bohr
 

     total cpu time spent up to now is      524.2 secs

     total energy              =   -2976.49773238 Ry
     estimated scf accuracy    <       0.80714277 Ry

     iteration # 26     ecut=    29.40 Ry     beta= 0.05
     Davidson diagonalization with overlap
     c_bands:  2 eigenvalues not converged
     ethr =  1.78E-04,  avg # of iterations =  4.9

     negative rho (up, down):  1.918E-03 0.000E+00
 
     Adding external electric field

     Computed dipole along edir(3) : 
        Dipole                0.9279 Ry au,          2.3585 Debye
        Dipole field          0.0018 Ry au, 
 
        Potential amp.       -0.1623 Ry
        Total length         46.3494 bohr
 

     total cpu time spent up to now is      536.0 secs

     total energy              =   -2976.29306794 Ry
     estimated scf accuracy    <       1.25262095 Ry

     iteration # 27     ecut=    29.40 Ry     beta= 0.05
     Davidson diagonalization with overlap
     c_bands:  1 eigenvalues not converged
     c_bands:  1 eigenvalues not converged
     c_bands:  1 eigenvalues not converged
     c_bands:  1 eigenvalues not converged
     c_bands:  1 eigenvalues not converged
     c_bands:  1 eigenvalues not converged
     ethr =  1.78E-04,  avg # of iterations = 17.1

     negative rho (up, down):  2.938E-03 0.000E+00
 
     Adding external electric field

     Computed dipole along edir(3) : 
        Dipole                1.2451 Ry au,          3.1647 Debye
        Dipole field          0.0023 Ry au, 
 
        Potential amp.       -0.2178 Ry
        Total length         46.3494 bohr
 

     total cpu time spent up to now is      555.2 secs

     total energy              =   -2976.46141874 Ry
     estimated scf accuracy    <       0.32543968 Ry

     iteration # 28     ecut=    29.40 Ry     beta= 0.05
     Davidson diagonalization with overlap
     c_bands:  1 eigenvalues not converged
     c_bands:  1 eigenvalues not converged
     c_bands:  2 eigenvalues not converged
     ethr =  8.04E-05,  avg # of iterations = 10.8

     negative rho (up, down):  3.137E-03 0.000E+00
 
     Adding external electric field

     Computed dipole along edir(3) : 
        Dipole                1.4203 Ry au,          3.6100 Debye
        Dipole field          0.0027 Ry au, 
 
        Potential amp.       -0.2485 Ry
        Total length         46.3494 bohr
 

     total cpu time spent up to now is      568.5 secs

     total energy              =   -2976.45291186 Ry
     estimated scf accuracy    <       0.60765298 Ry

     iteration # 29     ecut=    29.40 Ry     beta= 0.05
     Davidson diagonalization with overlap
     c_bands:  2 eigenvalues not converged
     ethr =  8.04E-05,  avg # of iterations =  3.8

     negative rho (up, down):  3.975E-03 0.000E+00
 
     Adding external electric field

     Computed dipole along edir(3) : 
        Dipole                1.5950 Ry au,          4.0542 Debye
        Dipole field          0.0030 Ry au, 
 
        Potential amp.       -0.2790 Ry
        Total length         46.3494 bohr
 

     total cpu time spent up to now is      580.2 secs

     total energy              =   -2976.45570653 Ry
     estimated scf accuracy    <       0.27450032 Ry

     iteration # 30     ecut=    29.40 Ry     beta= 0.05
     Davidson diagonalization with overlap
     ethr =  6.78E-05,  avg # of iterations =  2.7

     negative rho (up, down):  4.419E-03 0.000E+00
 
     Adding external electric field

     Computed dipole along edir(3) : 
        Dipole                1.8442 Ry au,          4.6875 Debye
        Dipole field          0.0035 Ry au, 
 
        Potential amp.       -0.3226 Ry
        Total length         46.3494 bohr
 

     total cpu time spent up to now is      591.1 secs

     total energy              =   -2976.44210854 Ry
     estimated scf accuracy    <       0.30013466 Ry

     iteration # 31     ecut=    29.40 Ry     beta= 0.05
     Davidson diagonalization with overlap
     c_bands:  2 eigenvalues not converged
     ethr =  6.78E-05,  avg # of iterations =  5.7

     negative rho (up, down):  1.179E-02 0.000E+00
 
     Adding external electric field

     Computed dipole along edir(3) : 
        Dipole                2.1612 Ry au,          5.4932 Debye
        Dipole field          0.0041 Ry au, 
 
        Potential amp.       -0.3781 Ry
        Total length         46.3494 bohr
 

     total cpu time spent up to now is      603.1 secs

     total energy              =   -2976.44526377 Ry
     estimated scf accuracy    <       0.11755457 Ry

     iteration # 32     ecut=    29.40 Ry     beta= 0.05
     Davidson diagonalization with overlap
     c_bands:  1 eigenvalues not converged
     c_bands:  1 eigenvalues not converged
     c_bands:  2 eigenvalues not converged
     c_bands:  2 eigenvalues not converged
     c_bands:  1 eigenvalues not converged
     ethr =  2.90E-05,  avg # of iterations = 13.9

     negative rho (up, down):  1.162E-02 0.000E+00
 
     Adding external electric field

     Computed dipole along edir(3) : 
        Dipole                2.1225 Ry au,          5.3948 Debye
        Dipole field          0.0040 Ry au, 
 
        Potential amp.       -0.3713 Ry
        Total length         46.3494 bohr
 

     total cpu time spent up to now is      621.5 secs

     total energy              =   -2976.45557629 Ry
     estimated scf accuracy    <       0.29215579 Ry

     iteration # 33     ecut=    29.40 Ry     beta= 0.05
     Davidson diagonalization with overlap
     ethr =  2.90E-05,  avg # of iterations =  4.6

     negative rho (up, down):  1.131E-02 0.000E+00
 
     Adding external electric field

     Computed dipole along edir(3) : 
        Dipole                2.0083 Ry au,          5.1045 Debye
        Dipole field          0.0038 Ry au, 
 
        Potential amp.       -0.3513 Ry
        Total length         46.3494 bohr
 

     total cpu time spent up to now is      632.8 secs

     total energy              =   -2976.44835040 Ry
     estimated scf accuracy    <       0.15616428 Ry

     iteration # 34     ecut=    29.40 Ry     beta= 0.05
     Davidson diagonalization with overlap
     ethr =  2.90E-05,  avg # of iterations =  1.3

     negative rho (up, down):  1.084E-02 0.000E+00
 
     Adding external electric field

     Computed dipole along edir(3) : 
        Dipole                1.8576 Ry au,          4.7214 Debye
        Dipole field          0.0035 Ry au, 
 
        Potential amp.       -0.3250 Ry
        Total length         46.3494 bohr
 

     total cpu time spent up to now is      643.1 secs

     total energy              =   -2976.44334571 Ry
     estimated scf accuracy    <       0.10162722 Ry

     iteration # 35     ecut=    29.40 Ry     beta= 0.05
     Davidson diagonalization with overlap
     ethr =  2.51E-05,  avg # of iterations =  2.6

     negative rho (up, down):  1.017E-02 0.000E+00
 
     Adding external electric field

     Computed dipole along edir(3) : 
        Dipole                1.8625 Ry au,          4.7341 Debye
        Dipole field          0.0035 Ry au, 
 
        Potential amp.       -0.3258 Ry
        Total length         46.3494 bohr
 

     total cpu time spent up to now is      654.3 secs

     total energy              =   -2976.44549626 Ry
     estimated scf accuracy    <       0.07802952 Ry

     iteration # 36     ecut=    29.40 Ry     beta= 0.05
     Davidson diagonalization with overlap
     ethr =  1.93E-05,  avg # of iterations =  1.1

     negative rho (up, down):  2.600E-02 0.000E+00
 
     Adding external electric field

     Computed dipole along edir(3) : 
        Dipole                1.6822 Ry au,          4.2756 Debye
        Dipole field          0.0032 Ry au, 
 
        Potential amp.       -0.2943 Ry
        Total length         46.3494 bohr
 

     total cpu time spent up to now is      664.5 secs

     total energy              =   -2976.42986880 Ry
     estimated scf accuracy    <       0.07303652 Ry

     iteration # 37     ecut=    29.40 Ry     beta= 0.05
     Davidson diagonalization with overlap
     c_bands:  2 eigenvalues not converged
     c_bands:  1 eigenvalues not converged
     c_bands:  1 eigenvalues not converged
     ethr =  1.80E-05,  avg # of iterations = 11.0

     negative rho (up, down):  3.217E-02 0.000E+00
 
     Adding external electric field

     Computed dipole along edir(3) : 
        Dipole                1.7297 Ry au,          4.3965 Debye
        Dipole field          0.0033 Ry au, 
 
        Potential amp.       -0.3026 Ry
        Total length         46.3494 bohr
 

     total cpu time spent up to now is      680.9 secs

     total energy              =   -2976.43606207 Ry
     estimated scf accuracy    <       0.07212422 Ry

     iteration # 38     ecut=    29.40 Ry     beta= 0.05
     Davidson diagonalization with overlap
     ethr =  1.78E-05,  avg # of iterations =  4.2

     negative rho (up, down):  3.663E-02 0.000E+00
 
     Adding external electric field

     Computed dipole along edir(3) : 
        Dipole                1.7589 Ry au,          4.4706 Debye
        Dipole field          0.0033 Ry au, 
 
        Potential amp.       -0.3077 Ry
        Total length         46.3494 bohr
 

     total cpu time spent up to now is      692.4 secs

     total energy              =   -2976.43773812 Ry
     estimated scf accuracy    <       0.04464249 Ry

     iteration # 39     ecut=    29.40 Ry     beta= 0.05
     Davidson diagonalization with overlap
     ethr =  1.10E-05,  avg # of iterations =  2.5

     negative rho (up, down):  3.578E-02 0.000E+00
 
     Adding external electric field

     Computed dipole along edir(3) : 
        Dipole                1.8010 Ry au,          4.5778 Debye
        Dipole field          0.0034 Ry au, 
 
        Potential amp.       -0.3151 Ry
        Total length         46.3494 bohr
 

     total cpu time spent up to now is      703.5 secs

     total energy              =   -2976.43710349 Ry
     estimated scf accuracy    <       0.04045843 Ry

     iteration # 40     ecut=    29.40 Ry     beta= 0.05
     Davidson diagonalization with overlap
     ethr =  9.99E-06,  avg # of iterations =  2.5

     negative rho (up, down):  3.337E-02 0.000E+00
 
     Adding external electric field

     Computed dipole along edir(3) : 
        Dipole                1.7950 Ry au,          4.5625 Debye
        Dipole field          0.0034 Ry au, 
 
        Potential amp.       -0.3140 Ry
        Total length         46.3494 bohr
 

     total cpu time spent up to now is      714.7 secs

     total energy              =   -2976.43598933 Ry
     estimated scf accuracy    <       0.03488422 Ry

     iteration # 41     ecut=    29.40 Ry     beta= 0.05
     Davidson diagonalization with overlap
     c_bands:  1 eigenvalues not converged
     ethr =  8.61E-06,  avg # of iterations =  6.5

     negative rho (up, down):  3.178E-02 0.000E+00
 
     Adding external electric field

     Computed dipole along edir(3) : 
        Dipole                1.6801 Ry au,          4.2703 Debye
        Dipole field          0.0032 Ry au, 
 
        Potential amp.       -0.2939 Ry
        Total length         46.3494 bohr
 

     total cpu time spent up to now is      727.1 secs

     total energy              =   -2976.43234279 Ry
     estimated scf accuracy    <       0.02773485 Ry

     iteration # 42     ecut=    29.40 Ry     beta= 0.05
     Davidson diagonalization with overlap
     c_bands:  1 eigenvalues not converged
     ethr =  6.85E-06,  avg # of iterations =  8.3

     negative rho (up, down):  4.588E-02 0.000E+00
 
     Adding external electric field

     Computed dipole along edir(3) : 
        Dipole                1.5093 Ry au,          3.8364 Debye
        Dipole field          0.0028 Ry au, 
 
        Potential amp.       -0.2640 Ry
        Total length         46.3494 bohr
 

     total cpu time spent up to now is      740.3 secs

     total energy              =   -2976.43073709 Ry
     estimated scf accuracy    <       0.02338690 Ry

     iteration # 43     ecut=    29.40 Ry     beta= 0.05
     Davidson diagonalization with overlap
     c_bands:  1 eigenvalues not converged
     c_bands:  1 eigenvalues not converged
     c_bands:  1 eigenvalues not converged
     c_bands:  1 eigenvalues not converged
     c_bands:  1 eigenvalues not converged
     c_bands:  1 eigenvalues not converged
     ethr =  5.77E-06,  avg # of iterations = 14.5

     negative rho (up, down):  5.665E-02 0.000E+00
 
     Adding external electric field

     Computed dipole along edir(3) : 
        Dipole                1.5521 Ry au,          3.9451 Debye
        Dipole field          0.0029 Ry au, 
 
        Potential amp.       -0.2715 Ry
        Total length         46.3494 bohr
 

     total cpu time spent up to now is      758.5 secs

     total energy              =   -2976.43288000 Ry
     estimated scf accuracy    <       0.08212821 Ry

     iteration # 44     ecut=    29.40 Ry     beta= 0.05
     Davidson diagonalization with overlap
     c_bands:  1 eigenvalues not converged
     c_bands:  2 eigenvalues not converged
     c_bands:  1 eigenvalues not converged
     c_bands:  1 eigenvalues not converged
     ethr =  5.77E-06,  avg # of iterations = 11.2

     negative rho (up, down):  6.123E-02 0.000E+00
 
     Adding external electric field

     Computed dipole along edir(3) : 
        Dipole                1.5513 Ry au,          3.9430 Debye
        Dipole field          0.0029 Ry au, 
 
        Potential amp.       -0.2714 Ry
        Total length         46.3494 bohr
 

     total cpu time spent up to now is      771.8 secs

     total energy              =   -2976.43372342 Ry
     estimated scf accuracy    <       0.04857563 Ry

     iteration # 45     ecut=    29.40 Ry     beta= 0.05
     Davidson diagonalization with overlap
     c_bands:  1 eigenvalues not converged
     c_bands:  2 eigenvalues not converged
     c_bands:  1 eigenvalues not converged
     ethr =  5.77E-06,  avg # of iterations =  6.8

     negative rho (up, down):  4.764E-02 0.000E+00
 
     Adding external electric field

     Computed dipole along edir(3) : 
        Dipole                1.3245 Ry au,          3.3665 Debye
        Dipole field          0.0025 Ry au, 
 
        Potential amp.       -0.2317 Ry
        Total length         46.3494 bohr
 

     total cpu time spent up to now is      783.6 secs

     total energy              =   -2976.42625656 Ry
     estimated scf accuracy    <       0.04357125 Ry

     iteration # 46     ecut=    29.40 Ry     beta= 0.05
     Davidson diagonalization with overlap
     c_bands:  1 eigenvalues not converged
     ethr =  5.77E-06,  avg # of iterations = 10.4

     negative rho (up, down):  3.578E-02 0.000E+00
 
     Adding external electric field

     Computed dipole along edir(3) : 
        Dipole                1.1626 Ry au,          2.9552 Debye
        Dipole field          0.0022 Ry au, 
 
        Potential amp.       -0.2034 Ry
        Total length         46.3494 bohr
 

     total cpu time spent up to now is      798.1 secs

     total energy              =   -2976.42597064 Ry
     estimated scf accuracy    <       0.01202992 Ry

     iteration # 47     ecut=    29.40 Ry     beta= 0.05
     Davidson diagonalization with overlap
     c_bands:  1 eigenvalues not converged
     ethr =  2.97E-06,  avg # of iterations =  6.4

     negative rho (up, down):  3.668E-02 0.000E+00
 
     Adding external electric field

     Computed dipole along edir(3) : 
        Dipole                1.1538 Ry au,          2.9328 Debye
        Dipole field          0.0022 Ry au, 
 
        Potential amp.       -0.2018 Ry
        Total length         46.3494 bohr
 

     total cpu time spent up to now is      811.4 secs

     total energy              =   -2976.42671369 Ry
     estimated scf accuracy    <       0.00849497 Ry

     iteration # 48     ecut=    29.40 Ry     beta= 0.05
     Davidson diagonalization with overlap
     c_bands:  1 eigenvalues not converged
     ethr =  2.10E-06,  avg # of iterations =  3.8

     negative rho (up, down):  2.685E-02 0.000E+00
 
     Adding external electric field

     Computed dipole along edir(3) : 
        Dipole                1.0190 Ry au,          2.5901 Debye
        Dipole field          0.0019 Ry au, 
 
        Potential amp.       -0.1783 Ry
        Total length         46.3494 bohr
 

     total cpu time spent up to now is      823.1 secs

     total energy              =   -2976.42464419 Ry
     estimated scf accuracy    <       0.00814075 Ry

     iteration # 49     ecut=    29.40 Ry     beta= 0.05
     Davidson diagonalization with overlap
     c_bands:  1 eigenvalues not converged
     ethr =  2.01E-06,  avg # of iterations =  8.8

     negative rho (up, down):  1.266E-02 0.000E+00
 
     Adding external electric field

     Computed dipole along edir(3) : 
        Dipole                0.7244 Ry au,          1.8412 Debye
        Dipole field          0.0014 Ry au, 
 
        Potential amp.       -0.1267 Ry
        Total length         46.3494 bohr
 

     total cpu time spent up to now is      837.0 secs

     total energy              =   -2976.42368183 Ry
     estimated scf accuracy    <       0.00640648 Ry

     iteration # 50     ecut=    29.40 Ry     beta= 0.05
     Davidson diagonalization with overlap
     c_bands:  1 eigenvalues not converged
     ethr =  1.58E-06,  avg # of iterations =  4.5

     negative rho (up, down):  1.223E-02 0.000E+00
 
     Adding external electric field

     Computed dipole along edir(3) : 
        Dipole                0.7172 Ry au,          1.8229 Debye
        Dipole field          0.0014 Ry au, 
 
        Potential amp.       -0.1255 Ry
        Total length         46.3494 bohr
 

     total cpu time spent up to now is      848.8 secs

     total energy              =   -2976.42386296 Ry
     estimated scf accuracy    <       0.00384311 Ry

     iteration # 51     ecut=    29.40 Ry     beta= 0.05
     Davidson diagonalization with overlap
     ethr =  9.49E-07,  avg # of iterations =  1.9

     negative rho (up, down):  1.314E-02 0.000E+00
 
     Adding external electric field

     Computed dipole along edir(3) : 
        Dipole                0.6597 Ry au,          1.6769 Debye
        Dipole field          0.0012 Ry au, 
 
        Potential amp.       -0.1154 Ry
        Total length         46.3494 bohr
 

     total cpu time spent up to now is      859.7 secs

     total energy              =   -2976.42390103 Ry
     estimated scf accuracy    <       0.00333977 Ry

     iteration # 52     ecut=    29.40 Ry     beta= 0.05
     Davidson diagonalization with overlap
     ethr =  8.25E-07,  avg # of iterations =  5.2

     negative rho (up, down):  1.182E-02 0.000E+00
 
     Adding external electric field

     Computed dipole along edir(3) : 
        Dipole                0.6688 Ry au,          1.7000 Debye
        Dipole field          0.0013 Ry au, 
 
        Potential amp.       -0.1170 Ry
        Total length         46.3494 bohr
 

     total cpu time spent up to now is      871.6 secs

     total energy              =   -2976.42402475 Ry
     estimated scf accuracy    <       0.00379375 Ry

     iteration # 53     ecut=    29.40 Ry     beta= 0.05
     Davidson diagonalization with overlap
     ethr =  8.25E-07,  avg # of iterations =  1.0

     negative rho (up, down):  1.142E-02 0.000E+00
 
     Adding external electric field

     Computed dipole along edir(3) : 
        Dipole                0.6632 Ry au,          1.6856 Debye
        Dipole field          0.0013 Ry au, 
 
        Potential amp.       -0.1160 Ry
        Total length         46.3494 bohr
 

     total cpu time spent up to now is      881.7 secs

     total energy              =   -2976.42397474 Ry
     estimated scf accuracy    <       0.00380631 Ry

     iteration # 54     ecut=    29.40 Ry     beta= 0.05
     Davidson diagonalization with overlap
     ethr =  8.25E-07,  avg # of iterations =  1.9

     negative rho (up, down):  9.808E-03 0.000E+00
 
     Adding external electric field

     Computed dipole along edir(3) : 
        Dipole                0.6199 Ry au,          1.5756 Debye
        Dipole field          0.0012 Ry au, 
 
        Potential amp.       -0.1084 Ry
        Total length         46.3494 bohr
 

     total cpu time spent up to now is      892.6 secs

     total energy              =   -2976.42343595 Ry
     estimated scf accuracy    <       0.00345409 Ry

     iteration # 55     ecut=    29.40 Ry     beta= 0.05
     Davidson diagonalization with overlap
     ethr =  8.25E-07,  avg # of iterations =  9.4

     negative rho (up, down):  9.176E-03 0.000E+00
 
     Adding external electric field

     Computed dipole along edir(3) : 
        Dipole                0.6744 Ry au,          1.7142 Debye
        Dipole field          0.0013 Ry au, 
 
        Potential amp.       -0.1180 Ry
        Total length         46.3494 bohr
 

     total cpu time spent up to now is      911.1 secs

     total energy              =   -2976.42309381 Ry
     estimated scf accuracy    <       0.00791903 Ry

     iteration # 56     ecut=    29.40 Ry     beta= 0.05
     Davidson diagonalization with overlap
     ethr =  8.25E-07,  avg # of iterations =  5.1

     negative rho (up, down):  1.001E-02 0.000E+00
 
     Adding external electric field

     Computed dipole along edir(3) : 
        Dipole                0.7086 Ry au,          1.8012 Debye
        Dipole field          0.0013 Ry au, 
 
        Potential amp.       -0.1240 Ry
        Total length         46.3494 bohr
 

     total cpu time spent up to now is      925.2 secs

     total energy              =   -2976.42354691 Ry
     estimated scf accuracy    <       0.00162285 Ry

     iteration # 57     ecut=    29.40 Ry     beta= 0.05
     Davidson diagonalization with overlap
     ethr =  4.01E-07,  avg # of iterations =  8.4

     negative rho (up, down):  1.169E-02 0.000E+00
 
     Adding external electric field

     Computed dipole along edir(3) : 
        Dipole                0.7121 Ry au,          1.8099 Debye
        Dipole field          0.0013 Ry au, 
 
        Potential amp.       -0.1246 Ry
        Total length         46.3494 bohr
 

     total cpu time spent up to now is      943.4 secs

     total energy              =   -2976.42335267 Ry
     estimated scf accuracy    <       0.00344732 Ry

     iteration # 58     ecut=    29.40 Ry     beta= 0.05
     Davidson diagonalization with overlap
     ethr =  4.01E-07,  avg # of iterations =  5.0

     negative rho (up, down):  1.164E-02 0.000E+00
 
     Adding external electric field

     Computed dipole along edir(3) : 
        Dipole                0.6812 Ry au,          1.7314 Debye
        Dipole field          0.0013 Ry au, 
 
        Potential amp.       -0.1192 Ry
        Total length         46.3494 bohr
 

     total cpu time spent up to now is      957.6 secs

     total energy              =   -2976.42376766 Ry
     estimated scf accuracy    <       0.00102021 Ry

     iteration # 59     ecut=    29.40 Ry     beta= 0.05
     Davidson diagonalization with overlap
     ethr =  2.52E-07,  avg # of iterations =  2.3

     negative rho (up, down):  1.129E-02 0.000E+00
 
     Adding external electric field

     Computed dipole along edir(3) : 
        Dipole                0.7286 Ry au,          1.8520 Debye
        Dipole field          0.0014 Ry au, 
 
        Potential amp.       -0.1275 Ry
        Total length         46.3494 bohr
 

     total cpu time spent up to now is      968.8 secs

     total energy              =   -2976.42326732 Ry
     estimated scf accuracy    <       0.00148050 Ry

     iteration # 60     ecut=    29.40 Ry     beta= 0.05
     Davidson diagonalization with overlap
     ethr =  2.52E-07,  avg # of iterations =  6.1

     negative rho (up, down):  1.102E-02 0.000E+00
 
     Adding external electric field

     Computed dipole along edir(3) : 
        Dipole                0.6977 Ry au,          1.7734 Debye
        Dipole field          0.0013 Ry au, 
 
        Potential amp.       -0.1221 Ry
        Total length         46.3494 bohr
 

     total cpu time spent up to now is      986.3 secs

     total energy              =   -2976.42343946 Ry
     estimated scf accuracy    <       0.00121957 Ry

     iteration # 61     ecut=    29.40 Ry     beta= 0.05
     Davidson diagonalization with overlap
     ethr =  2.52E-07,  avg # of iterations =  6.0

     negative rho (up, down):  1.159E-02 0.000E+00
 
     Adding external electric field

     Computed dipole along edir(3) : 
        Dipole                0.6988 Ry au,          1.7763 Debye
        Dipole field          0.0013 Ry au, 
 
        Potential amp.       -0.1223 Ry
        Total length         46.3494 bohr
 

     total cpu time spent up to now is      999.1 secs

     total energy              =   -2976.42351235 Ry
     estimated scf accuracy    <       0.00036445 Ry

     iteration # 62     ecut=    29.40 Ry     beta= 0.05
     Davidson diagonalization with overlap
     ethr =  9.00E-08,  avg # of iterations =  5.5

     negative rho (up, down):  1.206E-02 0.000E+00
 
     Adding external electric field

     Computed dipole along edir(3) : 
        Dipole                0.6994 Ry au,          1.7776 Debye
        Dipole field          0.0013 Ry au, 
 
        Potential amp.       -0.1223 Ry
        Total length         46.3494 bohr
 

     total cpu time spent up to now is     1013.5 secs

     total energy              =   -2976.42352652 Ry
     estimated scf accuracy    <       0.00033385 Ry

     iteration # 63     ecut=    29.40 Ry     beta= 0.05
     Davidson diagonalization with overlap
     ethr =  8.24E-08,  avg # of iterations =  1.6

     negative rho (up, down):  1.254E-02 0.000E+00
 
     Adding external electric field

     Computed dipole along edir(3) : 
        Dipole                0.6985 Ry au,          1.7754 Debye
        Dipole field          0.0013 Ry au, 
 
        Potential amp.       -0.1222 Ry
        Total length         46.3494 bohr
 

     total cpu time spent up to now is     1024.2 secs

     total energy              =   -2976.42350225 Ry
     estimated scf accuracy    <       0.00020088 Ry

     iteration # 64     ecut=    29.40 Ry     beta= 0.05
     Davidson diagonalization with overlap
     ethr =  4.96E-08,  avg # of iterations =  6.0

     negative rho (up, down):  1.240E-02 0.000E+00
 
     Adding external electric field

     Computed dipole along edir(3) : 
        Dipole                0.6919 Ry au,          1.7587 Debye
        Dipole field          0.0013 Ry au, 
 
        Potential amp.       -0.1210 Ry
        Total length         46.3494 bohr
 

     total cpu time spent up to now is     1039.2 secs

     total energy              =   -2976.42352351 Ry
     estimated scf accuracy    <       0.00019358 Ry

     iteration # 65     ecut=    29.40 Ry     beta= 0.05
     Davidson diagonalization with overlap
     ethr =  4.78E-08,  avg # of iterations =  2.6

     negative rho (up, down):  1.163E-02 0.000E+00
 
     Adding external electric field

     Computed dipole along edir(3) : 
        Dipole                0.6716 Ry au,          1.7070 Debye
        Dipole field          0.0013 Ry au, 
 
        Potential amp.       -0.1175 Ry
        Total length         46.3494 bohr
 

     total cpu time spent up to now is     1050.4 secs

     total energy              =   -2976.42349965 Ry
     estimated scf accuracy    <       0.00012474 Ry

     iteration # 66     ecut=    29.40 Ry     beta= 0.05
     Davidson diagonalization with overlap
     ethr =  3.08E-08,  avg # of iterations =  7.8

     negative rho (up, down):  1.098E-02 0.000E+00
 
     Adding external electric field

     Computed dipole along edir(3) : 
        Dipole                0.6536 Ry au,          1.6612 Debye
        Dipole field          0.0012 Ry au, 
 
        Potential amp.       -0.1143 Ry
        Total length         46.3494 bohr
 

     total cpu time spent up to now is     1069.3 secs

     total energy              =   -2976.42344232 Ry
     estimated scf accuracy    <       0.00038030 Ry

     iteration # 67     ecut=    29.40 Ry     beta= 0.05
     Davidson diagonalization with overlap
     ethr =  3.08E-08,  avg # of iterations =  6.5

     negative rho (up, down):  1.025E-02 0.000E+00
 
     Adding external electric field

     Computed dipole along edir(3) : 
        Dipole                0.6497 Ry au,          1.6514 Debye
        Dipole field          0.0012 Ry au, 
 
        Potential amp.       -0.1137 Ry
        Total length         46.3494 bohr
 

     total cpu time spent up to now is     1088.7 secs

     total energy              =   -2976.42349587 Ry
     estimated scf accuracy    <       0.00010585 Ry

     iteration # 68     ecut=    29.40 Ry     beta= 0.05
     Davidson diagonalization with overlap
     ethr =  2.61E-08,  avg # of iterations =  5.4

     negative rho (up, down):  1.011E-02 0.000E+00
 
     Adding external electric field

     Computed dipole along edir(3) : 
        Dipole                0.6483 Ry au,          1.6478 Debye
        Dipole field          0.0012 Ry au, 
 
        Potential amp.       -0.1134 Ry
        Total length         46.3494 bohr
 

     total cpu time spent up to now is     1104.3 secs

     total energy              =   -2976.42351887 Ry
     estimated scf accuracy    <       0.00006681 Ry

     iteration # 69     ecut=    29.40 Ry     beta= 0.05
     Davidson diagonalization with overlap
     ethr =  1.65E-08,  avg # of iterations =  5.0

     negative rho (up, down):  9.922E-03 0.000E+00
 
     Adding external electric field

     Computed dipole along edir(3) : 
        Dipole                0.6414 Ry au,          1.6304 Debye
        Dipole field          0.0012 Ry au, 
 
        Potential amp.       -0.1122 Ry
        Total length         46.3494 bohr
 

     total cpu time spent up to now is     1116.3 secs

     total energy              =   -2976.42351923 Ry
     estimated scf accuracy    <       0.00002246 Ry

     iteration # 70     ecut=    29.40 Ry     beta= 0.05
     Davidson diagonalization with overlap
     ethr =  5.55E-09,  avg # of iterations =  5.9

     negative rho (up, down):  9.685E-03 0.000E+00
 
     Adding external electric field

     Computed dipole along edir(3) : 
        Dipole                0.6354 Ry au,          1.6150 Debye
        Dipole field          0.0012 Ry au, 
 
        Potential amp.       -0.1112 Ry
        Total length         46.3494 bohr
 

     total cpu time spent up to now is     1132.0 secs

     total energy              =   -2976.42352689 Ry
     estimated scf accuracy    <       0.00002119 Ry

     iteration # 71     ecut=    29.40 Ry     beta= 0.05
     Davidson diagonalization with overlap
     ethr =  5.23E-09,  avg # of iterations =  5.0

     negative rho (up, down):  9.618E-03 0.000E+00
 
     Adding external electric field

     Computed dipole along edir(3) : 
        Dipole                0.6312 Ry au,          1.6044 Debye
        Dipole field          0.0012 Ry au, 
 
        Potential amp.       -0.1104 Ry
        Total length         46.3494 bohr
 

     total cpu time spent up to now is     1144.2 secs

     total energy              =   -2976.42352878 Ry
     estimated scf accuracy    <       0.00000558 Ry

     iteration # 72     ecut=    29.40 Ry     beta= 0.05
     Davidson diagonalization with overlap
     ethr =  1.38E-09,  avg # of iterations =  7.7

     negative rho (up, down):  9.627E-03 0.000E+00
 
     Adding external electric field

     Computed dipole along edir(3) : 
        Dipole                0.6314 Ry au,          1.6048 Debye
        Dipole field          0.0012 Ry au, 
 
        Potential amp.       -0.1105 Ry
        Total length         46.3494 bohr
 

     total cpu time spent up to now is     1162.4 secs

     total energy              =   -2976.42353297 Ry
     estimated scf accuracy    <       0.00000504 Ry

     iteration # 73     ecut=    29.40 Ry     beta= 0.05
     Davidson diagonalization with overlap
     ethr =  1.24E-09,  avg # of iterations =  1.0

     negative rho (up, down):  9.643E-03 0.000E+00
 
     Adding external electric field

     Computed dipole along edir(3) : 
        Dipole                0.6337 Ry au,          1.6107 Debye
        Dipole field          0.0012 Ry au, 
 
        Potential amp.       -0.1109 Ry
        Total length         46.3494 bohr
 

     total cpu time spent up to now is     1172.5 secs

     total energy              =   -2976.42353265 Ry
     estimated scf accuracy    <       0.00000474 Ry

     iteration # 74     ecut=    29.40 Ry     beta= 0.05
     Davidson diagonalization with overlap
     ethr =  1.17E-09,  avg # of iterations =  7.7

     negative rho (up, down):  9.565E-03 0.000E+00
 
     Adding external electric field

     Computed dipole along edir(3) : 
        Dipole                0.6316 Ry au,          1.6053 Debye
        Dipole field          0.0012 Ry au, 
 
        Potential amp.       -0.1105 Ry
        Total length         46.3494 bohr
 

     total cpu time spent up to now is     1191.8 secs

     total energy              =   -2976.42353495 Ry
     estimated scf accuracy    <       0.00001046 Ry

     iteration # 75     ecut=    29.40 Ry     beta= 0.05
     Davidson diagonalization with overlap
     ethr =  1.17E-09,  avg # of iterations =  5.9

     negative rho (up, down):  9.551E-03 0.000E+00
 
     Adding external electric field

     Computed dipole along edir(3) : 
        Dipole                0.6315 Ry au,          1.6052 Debye
        Dipole field          0.0012 Ry au, 
 
        Potential amp.       -0.1105 Ry
        Total length         46.3494 bohr
 

     total cpu time spent up to now is     1206.3 secs

     total energy              =   -2976.42353730 Ry
     estimated scf accuracy    <       0.00000091 Ry

     iteration # 76     ecut=    29.40 Ry     beta= 0.05
     Davidson diagonalization with overlap
     ethr =  2.25E-10,  avg # of iterations =  5.0

     negative rho (up, down):  9.567E-03 0.000E+00
 
     Adding external electric field

     Computed dipole along edir(3) : 
        Dipole                0.6325 Ry au,          1.6076 Debye
        Dipole field          0.0012 Ry au, 
 
        Potential amp.       -0.1106 Ry
        Total length         46.3494 bohr
 

     total cpu time spent up to now is     1223.2 secs

     total energy              =   -2976.42353889 Ry
     estimated scf accuracy    <       0.00000075 Ry

     iteration # 77     ecut=    29.40 Ry     beta= 0.05
     Davidson diagonalization with overlap
     ethr =  1.85E-10,  avg # of iterations =  2.0

     negative rho (up, down):  9.565E-03 0.000E+00
 
     Adding external electric field

     Computed dipole along edir(3) : 
        Dipole                0.6328 Ry au,          1.6085 Debye
        Dipole field          0.0012 Ry au, 
 
        Potential amp.       -0.1107 Ry
        Total length         46.3494 bohr
 

     total cpu time spent up to now is     1234.2 secs

     total energy              =   -2976.42354008 Ry
     estimated scf accuracy    <       0.00000040 Ry

     iteration # 78     ecut=    29.40 Ry     beta= 0.05
     Davidson diagonalization with overlap
     ethr =  9.89E-11,  avg # of iterations =  4.6

     negative rho (up, down):  9.565E-03 0.000E+00
 
     Adding external electric field

     Computed dipole along edir(3) : 
        Dipole                0.6328 Ry au,          1.6085 Debye
        Dipole field          0.0012 Ry au, 
 
        Potential amp.       -0.1107 Ry
        Total length         46.3494 bohr
 

     total cpu time spent up to now is     1248.6 secs

     total energy              =   -2976.42354123 Ry
     estimated scf accuracy    <       0.00000028 Ry

     iteration # 79     ecut=    29.40 Ry     beta= 0.05
     Davidson diagonalization with overlap
     ethr =  7.01E-11,  avg # of iterations =  4.1

     negative rho (up, down):  9.582E-03 0.000E+00
 
     Adding external electric field

     Computed dipole along edir(3) : 
        Dipole                0.6332 Ry au,          1.6093 Debye
        Dipole field          0.0012 Ry au, 
 
        Potential amp.       -0.1108 Ry
        Total length         46.3494 bohr
 

     total cpu time spent up to now is     1261.7 secs

     total energy              =   -2976.42354216 Ry
     estimated scf accuracy    <       0.00000037 Ry

     iteration # 80     ecut=    29.40 Ry     beta= 0.05
     Davidson diagonalization with overlap
     ethr =  7.01E-11,  avg # of iterations =  4.6

     negative rho (up, down):  9.585E-03 0.000E+00
 
     Adding external electric field

     Computed dipole along edir(3) : 
        Dipole                0.6331 Ry au,          1.6093 Debye
        Dipole field          0.0012 Ry au, 
 
        Potential amp.       -0.1108 Ry
        Total length         46.3494 bohr
 

     total cpu time spent up to now is     1274.4 secs

     total energy              =   -2976.42354305 Ry
     estimated scf accuracy    <       0.00000026 Ry

     iteration # 81     ecut=    29.40 Ry     beta= 0.05
     Davidson diagonalization with overlap
     ethr =  6.48E-11,  avg # of iterations =  1.2

     negative rho (up, down):  9.589E-03 0.000E+00
 
     Adding external electric field

     Computed dipole along edir(3) : 
        Dipole                0.6332 Ry au,          1.6095 Debye
        Dipole field          0.0012 Ry au, 
 
        Potential amp.       -0.1108 Ry
        Total length         46.3494 bohr
 

     total cpu time spent up to now is     1284.6 secs

     total energy              =   -2976.42354381 Ry
     estimated scf accuracy    <       0.00000025 Ry

     iteration # 82     ecut=    29.40 Ry     beta= 0.05
     Davidson diagonalization with overlap
     ethr =  6.06E-11,  avg # of iterations =  6.0

     negative rho (up, down):  9.591E-03 0.000E+00
 
     Adding external electric field

     Computed dipole along edir(3) : 
        Dipole                0.6332 Ry au,          1.6094 Debye
        Dipole field          0.0012 Ry au, 
 
        Potential amp.       -0.1108 Ry
        Total length         46.3494 bohr
 

     total cpu time spent up to now is     1297.9 secs

     total energy              =   -2976.42354455 Ry
     estimated scf accuracy    <       0.00000014 Ry

     iteration # 83     ecut=    29.40 Ry     beta= 0.05
     Davidson diagonalization with overlap
     ethr =  3.44E-11,  avg # of iterations =  2.4

     negative rho (up, down):  9.578E-03 0.000E+00
 
     Adding external electric field

     Computed dipole along edir(3) : 
        Dipole                0.6333 Ry au,          1.6096 Debye
        Dipole field          0.0012 Ry au, 
 
        Potential amp.       -0.1108 Ry
        Total length         46.3494 bohr
 

     total cpu time spent up to now is     1309.3 secs

     total energy              =   -2976.42354523 Ry
     estimated scf accuracy    <       0.00000010 Ry

     iteration # 84     ecut=    29.40 Ry     beta= 0.05
     Davidson diagonalization with overlap
     ethr =  2.35E-11,  avg # of iterations =  5.8

     negative rho (up, down):  9.570E-03 0.000E+00
 
     Adding external electric field

     Computed dipole along edir(3) : 
        Dipole                0.6332 Ry au,          1.6095 Debye
        Dipole field          0.0012 Ry au, 
 
        Potential amp.       -0.1108 Ry
        Total length         46.3494 bohr
 

     total cpu time spent up to now is     1327.6 secs

     total energy              =   -2976.42354579 Ry
     estimated scf accuracy    <       0.00000027 Ry

     iteration # 85     ecut=    29.40 Ry     beta= 0.05
     Davidson diagonalization with overlap
     ethr =  2.35E-11,  avg # of iterations =  5.1

     negative rho (up, down):  9.593E-03 0.000E+00
 
     Adding external electric field

     Computed dipole along edir(3) : 
        Dipole                0.6332 Ry au,          1.6094 Debye
        Dipole field          0.0012 Ry au, 
 
        Potential amp.       -0.1108 Ry
        Total length         46.3494 bohr
 

     total cpu time spent up to now is     1346.4 secs

     End of self-consistent calculation

          k = 0.0000 0.0000 0.0000 ( 18029 PWs)   bands (ev):

   -56.5673 -56.5338 -55.6425 -55.6074 -55.4271 -55.3605 -55.2308 -55.1181
   -55.0842 -55.0364 -55.0040 -54.9700 -54.9117 -54.8173 -54.7470 -54.6136
   -32.9860 -32.8378 -32.8097 -32.7467 -32.6565 -32.6131 -32.1243 -31.9019
   -31.8628 -31.8413 -31.7867 -31.7788 -31.7536 -31.6604 -31.6400 -31.5954
   -31.5636 -31.5466 -31.5239 -31.5113 -31.5050 -31.4957 -31.4651 -31.4628
   -31.4406 -31.4215 -31.3562 -31.3221 -31.2998 -31.2928 -31.2418 -31.2340
   -31.2166 -31.1948 -31.1828 -31.1674 -31.1603 -31.1303 -31.1247 -31.0927
   -31.0478 -31.0041 -31.0024 -30.9820 -30.9491 -30.8878 -30.8511 -30.8007
   -16.6705 -16.1123 -16.0876 -15.8837 -15.7612 -15.7558 -15.7127 -15.6435
   -15.4748 -15.4057 -15.3773 -15.3163 -15.1718 -15.0564 -14.9592 -14.7787
   -14.7054 -14.7000 -14.6815 -14.6736 -14.6569 -14.6360 -14.5770 -14.5187
   -14.4761 -14.4112 -14.3674 -14.2217 -14.0205 -13.9957 -13.9495 -13.6157
   -13.5087 -13.5035  -7.7438  -4.2459  -4.0294  -4.0102  -3.6983  -3.5790
    -3.4064  -3.2539  -3.1902  -3.1442  -3.0859  -3.0760  -2.9348  -2.9278
    -2.9201  -2.9137  -2.8304  -2.7703  -2.7070  -2.6199  -2.6043  -2.5096
    -2.4629  -2.3036  -2.2773  -2.1766  -2.1044  -2.0991  -2.0330  -2.0098
    -1.9626  -1.9175  -1.9083  -1.8733  -1.8301  -1.7830  -1.7650  -1.6536
    -1.6455  -1.5810  -1.5739  -1.5515  -1.4380  -1.4181  -1.3483  -1.2028
    -1.1818  -1.1783  -1.1316  -1.1139  -1.0325  -0.9355  -0.8693  -0.8425
    -0.7866  -0.6978  -0.6512  -0.6294  -0.5570  -0.5372  -0.4632  -0.4192
    -0.4070  -0.3863  -0.3436  -0.2299  -0.1430  -0.1100  -0.0563  -0.0309
     0.0018   0.0291   0.0484   0.0967   0.1664   0.2530   0.2733   0.4123
     0.4644   0.5014   0.5765   0.6106   0.6172   0.7067   0.7378   0.7677
     0.8139   0.8886   0.9029   0.9042   0.9632   1.0471   1.1022   1.1580
     1.1662   1.2021   1.2105   1.2615   1.3499   1.3703   1.4393   1.4944
     1.8213   1.8809   2.4818   2.7272   2.8987   3.1755   3.3678   3.6711
     3.7131   3.7310   3.7312   4.0372

          k = 0.0000 0.0419 0.0000 ( 17933 PWs)   bands (ev):

   -56.5624 -56.5386 -55.6378 -55.6119 -55.4248 -55.3627 -55.2304 -55.1131
   -55.0891 -55.0340 -55.0043 -54.9722 -54.9109 -54.8166 -54.7478 -54.6142
   -32.9327 -32.8336 -32.8135 -32.7336 -32.6697 -32.6689 -32.0719 -31.8511
   -31.8491 -31.8328 -31.8125 -31.7938 -31.7864 -31.6572 -31.6339 -31.5911
   -31.5790 -31.5706 -31.5185 -31.5004 -31.4618 -31.4614 -31.4575 -31.4483
   -31.4440 -31.3966 -31.3351 -31.3104 -31.2869 -31.2560 -31.2535 -31.2333
   -31.2289 -31.2170 -31.1994 -31.1869 -31.1796 -31.1639 -31.1601 -31.0912
   -31.0473 -31.0341 -31.0009 -30.9979 -30.9486 -30.9155 -30.8511 -30.8205
   -16.5501 -16.0835 -16.0073 -15.9300 -15.8239 -15.6935 -15.6785 -15.5363
   -15.5347 -15.3515 -15.3356 -15.2821 -15.1153 -15.0698 -15.0014 -14.8350
   -14.7579 -14.7360 -14.7285 -14.6774 -14.6509 -14.5862 -14.5752 -14.5218
   -14.4639 -14.4225 -14.4153 -14.2825 -14.0935 -14.0521 -13.9492 -13.6244
   -13.5506 -13.5183  -7.7440  -4.0639  -4.0342  -4.0102  -3.6936  -3.4037
    -3.2632  -3.2126  -3.1773  -3.0339  -3.0149  -2.9954  -2.9819  -2.9358
    -2.9194  -2.8111  -2.7702  -2.6826  -2.6457  -2.6092  -2.5503  -2.4735
    -2.4614  -2.4252  -2.3042  -2.2271  -2.2223  -2.1845  -2.1170  -2.0767
    -2.0454  -2.0268  -1.9208  -1.9109  -1.8852  -1.7957  -1.7307  -1.7199
    -1.6778  -1.6099  -1.5670  -1.4198  -1.3974  -1.3360  -1.3070  -1.2537
    -1.1878  -1.1328  -1.0985  -1.0488  -0.9437  -0.9134  -0.8931  -0.8095
    -0.7544  -0.7362  -0.6687  -0.6288  -0.5571  -0.4510  -0.4047  -0.3628
    -0.3276  -0.2573  -0.1908  -0.1715  -0.1484  -0.1268  -0.0867  -0.0440
     0.0336   0.0448   0.0687   0.0982   0.1194   0.1586   0.2264   0.3013
     0.3487   0.3852   0.4837   0.5115   0.5507   0.5696   0.5946   0.6301
     0.7242   0.7433   0.7560   0.8304   0.9024   0.9590   1.0093   1.0973
     1.1602   1.1813   1.2101   1.2418   1.2817   1.3101   1.3904   1.3989
     1.7376   1.7932   2.4615   2.9973   3.0012   3.1915   3.5535   3.5652
     3.5981   3.6792   3.8863   4.0398

          k = 0.0000-0.0839 0.0000 ( 17884 PWs)   bands (ev):

   -56.5511 -56.5498 -55.6300 -55.6196 -55.4224 -55.3650 -55.2299 -55.1016
   -55.1004 -55.0315 -55.0046 -54.9747 -54.9100 -54.8159 -54.7485 -54.6148
   -32.8243 -32.8227 -32.8029 -32.8014 -32.7022 -32.7010 -31.9482 -31.9390
   -31.8245 -31.8161 -31.8133 -31.8092 -31.7409 -31.6909 -31.6535 -31.6259
   -31.5891 -31.5795 -31.5033 -31.4724 -31.4655 -31.4529 -31.4521 -31.3699
   -31.3471 -31.3218 -31.3203 -31.2990 -31.2902 -31.2833 -31.2817 -31.2794
   -31.2671 -31.2338 -31.2220 -31.2164 -31.1982 -31.1611 -31.1579 -31.0930
   -31.0898 -31.0468 -31.0079 -30.9956 -30.9596 -30.9480 -30.8512 -30.8360
   -16.2518 -16.2502 -16.0787 -15.7997 -15.7915 -15.6794 -15.6793 -15.5139
   -15.4868 -15.3364 -15.2439 -15.2085 -15.1434 -15.0400 -15.0087 -14.9055
   -14.8797 -14.8568 -14.7998 -14.6275 -14.5802 -14.5430 -14.5383 -14.5274
   -14.4339 -14.4296 -14.4263 -14.3825 -14.1970 -14.1350 -13.9489 -13.6136
   -13.6130 -13.5323  -7.7442  -4.0396  -4.0098  -3.6892  -3.6090  -3.6088
    -3.1722  -3.1005  -3.0979  -3.0424  -3.0323  -2.9597  -2.9461  -2.9272
    -2.8072  -2.6999  -2.6834  -2.6048  -2.5492  -2.5310  -2.5227  -2.5130
    -2.4279  -2.4216  -2.3685  -2.3162  -2.2158  -2.2119  -2.1909  -2.1218
    -2.0805  -1.9838  -1.9457  -1.9228  -1.8439  -1.8348  -1.8151  -1.7877
    -1.7795  -1.6982  -1.6816  -1.4542  -1.3511  -1.2942  -1.2634  -1.1836
    -1.1179  -1.0618  -1.0154  -0.9551  -0.8561  -0.8186  -0.7981  -0.7713
    -0.7146  -0.6634  -0.6436  -0.6298  -0.5709  -0.5328  -0.4934  -0.4098
    -0.3774  -0.3320  -0.3222  -0.2949  -0.2222  -0.1829  -0.1043  -0.0747
    -0.0317   0.0516   0.0654   0.0757   0.1106   0.2044   0.2679   0.3114
     0.3710   0.3782   0.4283   0.4374   0.4823   0.4872   0.5380   0.5569
     0.5733   0.6075   0.6587   0.7216   0.8159   0.9008   0.9228   0.9618
     1.0459   1.1625   1.2103   1.2858   1.2960   1.3266   1.3543   1.4748
     1.6170   1.6950   2.4450   3.2529   3.2543   3.3738   3.3746   3.4356
     3.4366   3.8107   3.8193   4.0613

          k = 0.0380 0.0000 0.0000 ( 17913 PWs)   bands (ev):

   -56.5672 -56.5337 -55.6424 -55.6073 -55.4270 -55.3604 -55.2307 -55.1180
   -55.0841 -55.0363 -55.0039 -54.9699 -54.9117 -54.8173 -54.7469 -54.6135
   -32.9866 -32.8376 -32.8096 -32.7449 -32.6562 -32.6128 -32.1243 -31.9122
   -31.8625 -31.8291 -31.7789 -31.7747 -31.7533 -31.6603 -31.6519 -31.5952
   -31.5641 -31.5480 -31.5236 -31.5136 -31.5033 -31.4954 -31.4674 -31.4621
   -31.4389 -31.4217 -31.3564 -31.3219 -31.2936 -31.2906 -31.2417 -31.2338
   -31.2122 -31.1945 -31.1789 -31.1671 -31.1603 -31.1301 -31.1257 -31.0982
   -31.0503 -31.0039 -31.0023 -30.9819 -30.9511 -30.8877 -30.8514 -30.8005
   -16.5685 -16.0849 -16.0424 -16.0409 -15.8246 -15.7105 -15.6103 -15.5985
   -15.5353 -15.3354 -15.3251 -15.2942 -15.2210 -15.2062 -14.8437 -14.8142
   -14.8097 -14.7980 -14.7599 -14.6944 -14.6627 -14.5759 -14.5464 -14.5274
   -14.4249 -14.3946 -14.3383 -14.2798 -14.0149 -13.9950 -13.9494 -13.6131
   -13.5084 -13.5005  -7.7420  -4.0295  -4.0099  -3.9616  -3.6865  -3.4809
    -3.4037  -3.2389  -3.2148  -3.1861  -3.0631  -2.9814  -2.9297  -2.9225
    -2.9027  -2.7899  -2.7395  -2.6857  -2.6686  -2.6268  -2.5109  -2.4521
    -2.4346  -2.4053  -2.3351  -2.2718  -2.2302  -2.0565  -2.0315  -1.9262
    -1.9169  -1.8494  -1.8100  -1.7780  -1.7611  -1.7479  -1.7120  -1.6600
    -1.6015  -1.5833  -1.5765  -1.4967  -1.4127  -1.3879  -1.3463  -1.2992
    -1.2854  -1.1938  -1.0963  -1.0377  -0.9569  -0.9302  -0.8410  -0.8218
    -0.8024  -0.7521  -0.7081  -0.6484  -0.6132  -0.5833  -0.5445  -0.5011
    -0.4873  -0.4383  -0.3767  -0.3530  -0.2869  -0.2491  -0.1992  -0.0527
     0.0050   0.0402   0.1130   0.1583   0.2019   0.2556   0.3275   0.3980
[...]
   -56.5623 -56.5386 -55.6377 -55.6119 -55.4247 -55.3626 -55.2303 -55.1130
   -55.0890 -55.0339 -55.0042 -54.9722 -54.9108 -54.8165 -54.7477 -54.6141
   -32.9333 -32.8334 -32.8136 -32.7320 -32.6694 -32.6689 -32.0720 -31.8648
   -31.8509 -31.8234 -31.8123 -31.7865 -31.7756 -31.6571 -31.6440 -31.5910
   -31.5778 -31.5730 -31.5193 -31.4995 -31.4632 -31.4613 -31.4598 -31.4481
   -31.4430 -31.3967 -31.3357 -31.3102 -31.2789 -31.2568 -31.2535 -31.2343
   -31.2293 -31.2116 -31.1969 -31.1867 -31.1782 -31.1634 -31.1605 -31.0970
   -31.0494 -31.0340 -31.0009 -30.9979 -30.9510 -30.9154 -30.8518 -30.8204
   -16.4537 -16.0806 -16.0206 -15.9529 -15.7878 -15.7717 -15.6342 -15.5816
   -15.4616 -15.3492 -15.2911 -15.2049 -15.1890 -15.1344 -14.9023 -14.8577
   -14.8413 -14.7852 -14.7549 -14.7025 -14.6664 -14.6224 -14.5676 -14.4998
   -14.4656 -14.4267 -14.3907 -14.3269 -14.0870 -14.0528 -13.9491 -13.6225
   -13.5508 -13.5161  -7.7428  -4.0343  -4.0102  -3.7838  -3.6898  -3.3298
    -3.2342  -3.1680  -3.1257  -3.0865  -2.9996  -2.9261  -2.8918  -2.8707
    -2.8316  -2.7501  -2.6710  -2.6433  -2.5936  -2.5640  -2.5283  -2.4559
    -2.4112  -2.3601  -2.2950  -2.2336  -2.2082  -2.1497  -2.1134  -2.0772
    -2.0081  -1.9624  -1.9164  -1.8506  -1.8334  -1.7909  -1.7230  -1.6802
    -1.6497  -1.6007  -1.5672  -1.4236  -1.4030  -1.3671  -1.3049  -1.2410
    -1.2163  -1.1944  -1.1543  -1.0525  -1.0196  -1.0075  -0.9510  -0.8705
    -0.7960  -0.7003  -0.6644  -0.6056  -0.5789  -0.5607  -0.4969  -0.4307
    -0.4123  -0.3831  -0.3302  -0.2877  -0.2704  -0.2414  -0.1703  -0.1267
    -0.0905  -0.0145   0.0222   0.0615   0.0766   0.1185   0.2071   0.2776
     0.3004   0.3489   0.4330   0.4887   0.5175   0.5520   0.5808   0.6044
     0.6447   0.7088   0.7340   0.7895   0.9007   0.9529   1.0648   1.1270
     1.1495   1.1583   1.1831   1.2360   1.2607   1.3167   1.3239   1.3729
     1.6876   1.7839   2.3914   2.9902   3.1381   3.2381   3.4213   3.5804
     3.6733   3.7161   3.9528   4.0656

          k = 0.0380-0.0839 0.0000 ( 17916 PWs)   bands (ev):

   -56.5511 -56.5498 -55.6300 -55.6196 -55.4224 -55.3650 -55.2300 -55.1016
   -55.1005 -55.0315 -55.0046 -54.9747 -54.9101 -54.8159 -54.7486 -54.6149
   -32.8243 -32.8227 -32.8034 -32.8020 -32.7015 -32.7004 -31.9485 -31.9393
   -31.8245 -31.8170 -31.8134 -31.8114 -31.7314 -31.6858 -31.6536 -31.6324
   -31.5891 -31.5849 -31.5025 -31.4735 -31.4652 -31.4536 -31.4527 -31.3701
   -31.3492 -31.3217 -31.3203 -31.3015 -31.2926 -31.2840 -31.2817 -31.2809
   -31.2596 -31.2339 -31.2186 -31.2091 -31.1976 -31.1604 -31.1583 -31.0975
   -31.0911 -31.0488 -31.0079 -30.9955 -30.9593 -30.9509 -30.8522 -30.8360
   -16.1827 -16.1810 -16.0771 -15.8288 -15.8255 -15.7236 -15.7190 -15.4878
   -15.4603 -15.3000 -15.2177 -15.1843 -15.0851 -14.9892 -14.9675 -14.9468
   -14.9351 -14.8904 -14.8078 -14.6540 -14.6351 -14.6122 -14.5609 -14.5366
   -14.4762 -14.4526 -14.4214 -14.3697 -14.1860 -14.1341 -13.9489 -13.6134
   -13.6129 -13.5303  -7.7436  -4.0399  -4.0101  -3.6891  -3.3980  -3.3966
    -3.1593  -3.0449  -3.0364  -3.0001  -2.9962  -2.9705  -2.7786  -2.7743
    -2.7365  -2.6747  -2.6621  -2.5662  -2.5205  -2.4980  -2.4410  -2.3751
    -2.3307  -2.3088  -2.2514  -2.2357  -2.1874  -2.1725  -2.0857  -2.0594
    -2.0504  -2.0322  -1.9588  -1.9358  -1.8883  -1.8384  -1.8217  -1.7664
    -1.7284  -1.6594  -1.6178  -1.5099  -1.4010  -1.3678  -1.3296  -1.2584
    -1.1654  -1.0820  -1.0348  -1.0149  -0.9883  -0.9704  -0.9348  -0.9135
    -0.8758  -0.8539  -0.8086  -0.7459  -0.6903  -0.6698  -0.5327  -0.4884
    -0.4371  -0.4140  -0.3813  -0.3607  -0.2934  -0.2067  -0.1783  -0.1249
    -0.0777  -0.0235   0.0193   0.0306   0.0670   0.0844   0.1094   0.1754
     0.2245   0.2499   0.3350   0.3586   0.4161   0.5201   0.5490   0.6063
     0.6437   0.6859   0.7343   0.7555   0.8981   0.9395   1.0510   1.0997
     1.1121   1.1590   1.1683   1.2843   1.2891   1.3213   1.3362   1.4733
     1.5396   1.7397   2.3774   3.2605   3.2627   3.4084   3.4104   3.6022
     3.6033   3.7827   3.7907   4.1038

          k = 0.0380-0.0419 0.0000 ( 17876 PWs)   bands (ev):

   -56.5623 -56.5386 -55.6377 -55.6119 -55.4247 -55.3626 -55.2303 -55.1130
   -55.0890 -55.0339 -55.0042 -54.9722 -54.9108 -54.8165 -54.7477 -54.6141
   -32.9333 -32.8334 -32.8136 -32.7320 -32.6694 -32.6689 -32.0720 -31.8648
   -31.8509 -31.8234 -31.8123 -31.7865 -31.7756 -31.6571 -31.6441 -31.5910
   -31.5779 -31.5729 -31.5196 -31.4992 -31.4632 -31.4613 -31.4599 -31.4481
   -31.4430 -31.3967 -31.3357 -31.3102 -31.2789 -31.2571 -31.2535 -31.2331
   -31.2290 -31.2125 -31.1931 -31.1867 -31.1820 -31.1635 -31.1604 -31.0970
   -31.0495 -31.0339 -31.0009 -30.9979 -30.9509 -30.9154 -30.8517 -30.8204
   -16.4535 -16.0806 -16.0213 -15.9528 -15.7873 -15.7717 -15.6339 -15.5817
   -15.4610 -15.3493 -15.2909 -15.2038 -15.1894 -15.1365 -14.9013 -14.8589
   -14.8394 -14.7962 -14.7443 -14.7066 -14.6684 -14.6203 -14.5634 -14.4988
   -14.4684 -14.4240 -14.3905 -14.3283 -14.0880 -14.0529 -13.9491 -13.6225
   -13.5508 -13.5156  -7.7428  -4.0343  -4.0102  -3.7832  -3.6853  -3.3298
    -3.2352  -3.1706  -3.1258  -3.0859  -3.0040  -2.9260  -2.8918  -2.8704
    -2.8323  -2.7500  -2.6722  -2.6438  -2.5909  -2.5623  -2.5202  -2.4553
    -2.4127  -2.3607  -2.2983  -2.2358  -2.2056  -2.1519  -2.1176  -2.0861
    -2.0147  -1.9616  -1.9364  -1.8603  -1.8356  -1.7788  -1.7250  -1.6865
    -1.6429  -1.5980  -1.5646  -1.4219  -1.4038  -1.3602  -1.3076  -1.2278
    -1.2200  -1.1893  -1.1310  -1.0512  -1.0173  -1.0086  -0.9447  -0.8608
    -0.7971  -0.7059  -0.6647  -0.6072  -0.5964  -0.5563  -0.4947  -0.4311
    -0.4016  -0.3800  -0.3574  -0.2793  -0.2688  -0.1993  -0.1638  -0.1468
    -0.1280  -0.0074   0.0179   0.0695   0.0884   0.1552   0.2249   0.2549
     0.2756   0.3452   0.4368   0.4859   0.5256   0.5439   0.5709   0.6043
     0.6242   0.7055   0.7398   0.7855   0.8976   0.9586   1.0670   1.1293
     1.1376   1.1609   1.1874   1.2301   1.2610   1.3176   1.3218   1.3729
     1.7016   1.7833   2.3902   2.9905   3.1384   3.2382   3.4204   3.5803
     3.6740   3.7157   3.9504   4.0657

          k =-0.0760-0.0000 0.0000 ( 17886 PWs)   bands (ev):

   -56.5672 -56.5337 -55.6423 -55.6072 -55.4270 -55.3604 -55.2307 -55.1179
   -55.0841 -55.0362 -55.0038 -54.9699 -54.9117 -54.8172 -54.7469 -54.6134
   -32.9872 -32.8375 -32.8095 -32.7431 -32.6565 -32.6128 -32.1245 -31.9211
   -31.8624 -31.8148 -31.7787 -31.7651 -31.7532 -31.6661 -31.6601 -31.5951
   -31.5649 -31.5496 -31.5236 -31.5160 -31.5018 -31.4952 -31.4696 -31.4614
   -31.4378 -31.4220 -31.3568 -31.3218 -31.2943 -31.2808 -31.2415 -31.2337
   -31.2082 -31.1943 -31.1749 -31.1667 -31.1604 -31.1301 -31.1283 -31.1043
   -31.0534 -31.0038 -31.0023 -30.9819 -30.9531 -30.8877 -30.8520 -30.8005
   -16.4171 -16.1238 -16.0807 -15.9774 -15.9571 -15.7081 -15.6438 -15.5109
   -15.4350 -15.3207 -15.3032 -15.2871 -15.2786 -15.1673 -14.9601 -14.9028
   -14.8838 -14.8525 -14.6992 -14.6892 -14.6787 -14.6036 -14.5369 -14.5014
   -14.4372 -14.3964 -14.3298 -14.2566 -14.0096 -13.9965 -13.9493 -13.6107
   -13.5081 -13.4978  -7.7404  -4.0297  -4.0098  -3.6738  -3.5693  -3.5650
    -3.4695  -3.1858  -3.1607  -3.0563  -3.0515  -3.0035  -2.9268  -2.9082
    -2.8527  -2.7703  -2.6277  -2.5886  -2.5766  -2.4729  -2.4591  -2.4135
    -2.3502  -2.3147  -2.2570  -2.2429  -2.1853  -2.1707  -2.1625  -2.0405
    -1.8950  -1.8252  -1.8155  -1.8066  -1.6992  -1.6681  -1.6360  -1.6071
    -1.5758  -1.5729  -1.5398  -1.5187  -1.4589  -1.4457  -1.4062  -1.3596
    -1.2088  -1.1412  -1.0899  -1.0739  -1.0213  -0.9540  -0.9093  -0.8624
    -0.8388  -0.7741  -0.7115  -0.6880  -0.6613  -0.6050  -0.5978  -0.5664
    -0.5089  -0.4511  -0.4014  -0.3680  -0.3633  -0.3074  -0.2833  -0.2515
    -0.0895   0.0182   0.0710   0.1135   0.1810   0.2446   0.2769   0.3147
     0.3349   0.4461   0.4867   0.5215   0.5715   0.6308   0.6862   0.7079
     0.7211   0.8081   0.8400   0.8738   0.8767   0.9337   0.9889   1.0149
     1.0937   1.1051   1.1468   1.1558   1.1652   1.2284   1.3207   1.4690
     1.5231   1.8631   2.3446   2.8526   2.9841   3.1220   3.1738   3.5302
     3.7078   3.7393   3.9161   4.1385

          k =-0.0760 0.0419 0.0000 ( 17914 PWs)   bands (ev):

   -56.5623 -56.5386 -55.6377 -55.6119 -55.4248 -55.3626 -55.2303 -55.1130
   -55.0891 -55.0339 -55.0042 -54.9722 -54.9109 -54.8166 -54.7477 -54.6142
   -32.9341 -32.8334 -32.8136 -32.7308 -32.6694 -32.6691 -32.0723 -31.8761
   -31.8509 -31.8128 -31.8126 -31.7865 -31.7620 -31.6571 -31.6555 -31.5910
   -31.5769 -31.5758 -31.5207 -31.4986 -31.4651 -31.4624 -31.4609 -31.4479
   -31.4425 -31.3970 -31.3364 -31.3102 -31.2705 -31.2579 -31.2536 -31.2342
   -31.2294 -31.2077 -31.1918 -31.1868 -31.1802 -31.1628 -31.1609 -31.1037
   -31.0520 -31.0339 -31.0009 -30.9979 -30.9535 -30.9154 -30.8527 -30.8204
   -16.3031 -16.0779 -16.0772 -15.9520 -15.8797 -15.7772 -15.5909 -15.5831
   -15.3687 -15.3403 -15.2548 -15.2246 -15.1942 -15.0773 -14.9842 -14.8738
   -14.8646 -14.8463 -14.7915 -14.7169 -14.7007 -14.6059 -14.5664 -14.5449
   -14.4846 -14.4170 -14.3590 -14.3397 -14.0814 -14.0561 -13.9491 -13.6208
   -13.5511 -13.5137  -7.7417  -4.0346  -4.0104  -3.6812  -3.3619  -3.3266
    -3.2571  -3.1610  -3.0461  -3.0137  -3.0109  -2.9788  -2.8375  -2.8022
    -2.7888  -2.7019  -2.6820  -2.5562  -2.4951  -2.4274  -2.3403  -2.3347
    -2.2815  -2.2774  -2.2300  -2.2154  -2.1858  -2.1225  -2.1050  -2.0878
    -2.0296  -1.9477  -1.8749  -1.8668  -1.7796  -1.7524  -1.7205  -1.6788
    -1.6186  -1.5872  -1.5304  -1.4939  -1.4634  -1.4519  -1.4412  -1.3580
    -1.2360  -1.1945  -1.1266  -1.0260  -1.0195  -0.9860  -0.9314  -0.9032
    -0.8497  -0.8248  -0.8010  -0.7565  -0.6607  -0.6205  -0.6086  -0.5333
    -0.4817  -0.4566  -0.4460  -0.3861  -0.3173  -0.2855  -0.2773  -0.2550
    -0.2112  -0.1800  -0.1237  -0.0919   0.0027   0.1143   0.1679   0.2396
     0.2564   0.3241   0.3462   0.5009   0.5103   0.5418   0.6167   0.6405
     0.6592   0.7254   0.7585   0.8145   0.8579   1.0115   1.0390   1.0831
     1.1484   1.1824   1.1963   1.2515   1.2796   1.3098   1.3352   1.4534
     1.5071   1.8090   2.3345   3.0061   3.1768   3.2102   3.2843   3.6787
     3.7564   3.7836   3.8520   4.1376

          k =-0.0760-0.0839 0.0000 ( 17948 PWs)   bands (ev):

   -56.5512 -56.5498 -55.6300 -55.6196 -55.4224 -55.3651 -55.2300 -55.1017
   -55.1005 -55.0315 -55.0046 -54.9746 -54.9101 -54.8159 -54.7486 -54.6149
   -32.8243 -32.8228 -32.8040 -32.8026 -32.7008 -32.6997 -31.9488 -31.9396
   -31.8245 -31.8194 -31.8134 -31.8117 -31.7217 -31.6789 -31.6537 -31.6406
   -31.5909 -31.5892 -31.5018 -31.4746 -31.4648 -31.4541 -31.4533 -31.3701
   -31.3513 -31.3218 -31.3203 -31.3027 -31.2953 -31.2854 -31.2819 -31.2814
   -31.2531 -31.2339 -31.2156 -31.2014 -31.1968 -31.1593 -31.1590 -31.1031
   -31.0921 -31.0508 -31.0080 -30.9955 -30.9592 -30.9538 -30.8532 -30.8361
   -16.0754 -16.0289 -16.0271 -15.9836 -15.9820 -15.7202 -15.7158 -15.4653
   -15.4360 -15.2563 -15.1526 -15.1286 -15.0851 -15.0435 -14.9720 -14.9178
   -14.8882 -14.8561 -14.8301 -14.7679 -14.7381 -14.6338 -14.6010 -14.5535
   -14.5171 -14.4553 -14.4144 -14.3653 -14.1768 -14.1341 -13.9489 -13.6133
   -13.6127 -13.5284  -7.7430  -4.0401  -4.0104  -3.6887  -3.1467  -3.1049
    -3.1006  -3.0680  -3.0608  -2.9893  -2.8543  -2.8512  -2.7561  -2.6490
    -2.6225  -2.5995  -2.5390  -2.5296  -2.4295  -2.3799  -2.3750  -2.3605
    -2.3242  -2.2947  -2.2882  -2.2282  -2.0892  -2.0732  -2.0243  -1.9706
    -1.8964  -1.8877  -1.8783  -1.8411  -1.7997  -1.7742  -1.7630  -1.7360
    -1.7313  -1.7267  -1.6169  -1.5122  -1.4649  -1.3716  -1.3673  -1.3584
    -1.3206  -1.2935  -1.2600  -1.2538  -1.2248  -1.1449  -1.1187  -1.0487
    -0.9351  -0.9167  -0.8753  -0.8269  -0.7231  -0.7048  -0.6152  -0.5790
    -0.5676  -0.5074  -0.4791  -0.4631  -0.4046  -0.3653  -0.2338  -0.1941
    -0.1824  -0.1656  -0.1433  -0.1069  -0.0455   0.0159   0.0474   0.0492
     0.1538   0.2536   0.3424   0.4106   0.4200   0.4436   0.5301   0.6355
     0.6763   0.7009   0.7493   0.8731   0.9908   1.0203   1.1265   1.1531
     1.1621   1.2621   1.2796   1.2847   1.3048   1.3139   1.3495   1.4158
     1.4766   1.7659   2.3147   3.3197   3.3229   3.3811   3.3867   3.6974
     3.6998   3.8110   3.8161   4.1338

     the Fermi energy is     2.3918 ev

!    total energy              =   -2976.42355122 Ry
     estimated scf accuracy    <       0.00000006 Ry
     smearing contrib. (-TS)   =      -0.01084515 Ry
     internal energy E=F+TS    =   -2976.41270607 Ry

     The total energy is F=E-TS. E is the sum of the following terms:
     one-electron contribution =  -22707.54244610 Ry
     hartree contribution      =   11450.11671781 Ry
     xc contribution           =    -495.34655486 Ry
     ewald contribution        =    8776.35882051 Ry
     electric field correction =       0.00075657 Ry

     convergence has been achieved in  85 iterations

     Forces acting on atoms (cartesian axes, Ry/au):

     atom    1 type  1   force =     0.00002323   -0.00052335    0.12630479
     atom    2 type  1   force =    -0.00009512    0.00041503   -0.15469663
     atom    3 type  2   force =     0.00002747    0.00002651   -0.06830795
     atom    4 type  2   force =     0.00005940   -0.00010823    0.01703589
     atom    5 type  2   force =    -0.00486783   -0.00242574   -0.01324595
     atom    6 type  2   force =     0.00655029   -0.00180369   -0.01376392
     atom    7 type  1   force =    -0.00029317   -0.00661699    0.05923510
     atom    8 type  1   force =     0.00038255    0.00687159    0.10031242
     atom    9 type  2   force =    -0.00002307    0.00065994    0.00129643
     atom   10 type  2   force =    -0.00261426   -0.00001589   -0.06340493
     atom   11 type  2   force =     0.00044888   -0.00068836   -0.00028511
     atom   12 type  2   force =    -0.00086431   -0.00112682   -0.00109815
     atom   13 type  1   force =    -0.00029749    0.00071971   -0.00135224
     atom   14 type  1   force =    -0.00033118   -0.00039369   -0.00022635
     atom   15 type  2   force =    -0.00065701   -0.00039396   -0.00063306
     atom   16 type  2   force =     0.00019671    0.00092173   -0.00030771
     atom   17 type  2   force =     0.00078247    0.00010446   -0.00053729
     atom   18 type  2   force =    -0.00021186   -0.00014609   -0.00003821
     atom   19 type  1   force =    -0.00020953   -0.00010445   -0.00090574
     atom   20 type  1   force =     0.00072799    0.00087625   -0.00036456
     atom   21 type  2   force =     0.00006296    0.00015534    0.09779987
     atom   22 type  2   force =     0.00041161   -0.00034835    0.00137285
     atom   23 type  2   force =    -0.08275951    0.00005502   -0.03313074
     atom   24 type  2   force =     0.08270142    0.00050277   -0.03320700
     atom   25 type  1   force =     0.00006775   -0.00035797    0.12645495
     atom   26 type  1   force =    -0.00011312   -0.00149625   -0.15487462
     atom   27 type  2   force =     0.00011478   -0.00046886   -0.06668198
     atom   28 type  2   force =     0.00004837    0.00167360    0.01197486
     atom   29 type  2   force =    -0.00342364    0.00422312   -0.01621899
     atom   30 type  2   force =     0.00505273    0.00456652   -0.01662107
     atom   31 type  1   force =    -0.00015975    0.00216681    0.04256854
     atom   32 type  1   force =     0.00044496   -0.00893797    0.10088835
     atom   33 type  2   force =    -0.00048511   -0.00013189   -0.00040810
     atom   34 type  2   force =    -0.00212606   -0.00026291   -0.07626914
     atom   35 type  2   force =    -0.00008284    0.00069924    0.00085808
     atom   36 type  2   force =    -0.00051023    0.00051714    0.00038449
     atom   37 type  1   force =     0.00043152    0.00060190   -0.00013684
     atom   38 type  1   force =    -0.00042237   -0.00066721   -0.00065661
     atom   39 type  2   force =     0.00044773   -0.00030606   -0.00045316
     atom   40 type  2   force =     0.00037002   -0.00061979   -0.00003139
     atom   41 type  2   force =     0.00024455    0.00048416   -0.00004076
     atom   42 type  2   force =    -0.00022477   -0.00021017    0.00012574
     atom   43 type  1   force =     0.00052305    0.00134885   -0.00089520
     atom   44 type  1   force =    -0.00027097   -0.00105671    0.00089677
     atom   45 type  2   force =     0.00009208   -0.00001467    0.09764599
     atom   46 type  2   force =    -0.08280711    0.00003751   -0.03318227
     atom   47 type  2   force =     0.08271515    0.00045661   -0.03318943
     atom   48 type  3   force =    -0.00005743    0.00046293   -0.00021106
     atom   49 type  3   force =     0.00012296   -0.00001613   -0.00100470
     atom   50 type  4   force =     0.00403671    0.00312926   -0.00032807
     atom   51 type  5   force =     0.00079046    0.00016070   -0.00094036
     atom   52 type  5   force =    -0.00331149   -0.00223593    0.00106748
     atom   53 type  5   force =    -0.00078832    0.00014734    0.00063238
     atom   54 type  5   force =    -0.00008341   -0.00004632    0.00005162
     atom   55 type  5   force =     0.00034039    0.00013974    0.00011887
     atom   56 type  5   force =     0.00013926   -0.00004748    0.00020055
     atom   57 type  2   force =    -0.00182796   -0.00057407    0.00028312
     atom   58 type  5   force =     0.00156148    0.00002227    0.00014013

     Total force =     0.420745     Total SCF correction =     0.000596
  @ DRIVER MODE: Message from server: STATUS
  @ DRIVER MODE: Message from server: GETFORCE
  @ DRIVER MODE: Returning v,forces,stress,ensemble 

     Writing output data file ./calc.save/
  @ DRIVER MODE: Message from server: EXIT
  @ DRIVE MODE: Exiting  
 
     init_run     :     10.97s CPU     11.18s WALL (       1 calls)
     electrons    :   1315.32s CPU   1334.81s WALL (       1 calls)
     forces       :      2.50s CPU      2.59s WALL (       1 calls)

     Called by init_run:
     wfcinit      :      4.94s CPU      5.01s WALL (       1 calls)
     potinit      :      5.35s CPU      5.41s WALL (       1 calls)
     hinit0       :      0.30s CPU      0.31s WALL (       1 calls)

     Called by electrons:
     c_bands      :   1107.88s CPU   1115.77s WALL (      85 calls)
     sum_band     :    140.14s CPU    144.89s WALL (      85 calls)
     v_of_rho     :     49.02s CPU     51.40s WALL (      86 calls)
     newd         :     20.91s CPU     25.33s WALL (      86 calls)
     mix_rho      :      1.86s CPU      1.89s WALL (      85 calls)
     vdW_kernel   :      4.55s CPU      4.56s WALL (       1 calls)

     Called by c_bands:
     init_us_2    :      9.84s CPU      9.88s WALL (    1720 calls)
     cegterg      :   1082.79s CPU   1090.34s WALL (     867 calls)

     Called by *egterg:
     cdiaghg      :    139.77s CPU    140.33s WALL (    6265 calls)
     h_psi        :    600.57s CPU    605.96s WALL (    6282 calls)
     s_psi        :     76.93s CPU     77.16s WALL (    6282 calls)
     g_psi        :      2.44s CPU      2.46s WALL (    5405 calls)

     Called by h_psi:
     h_psi:calbec :     75.35s CPU     75.70s WALL (    6282 calls)
     vloc_psi     :    442.66s CPU    447.05s WALL (    6282 calls)
     add_vuspsi   :     77.71s CPU     78.08s WALL (    6282 calls)

     General routines
     calbec       :    100.31s CPU    100.74s WALL (    7172 calls)
     fft          :     26.19s CPU     26.37s WALL (    5418 calls)
     ffts         :      0.17s CPU      0.18s WALL (     171 calls)
     fftw         :    495.62s CPU    500.54s WALL ( 1193800 calls)
     interpolate  :      0.55s CPU      0.55s WALL (      86 calls)
     davcio       :      0.00s CPU      0.76s WALL (      10 calls)
 
     Parallel routines
 
     PWSCF        :  22m 9.06s CPU  22m30.08s WALL

 
   This run was terminated on:   2:21:16  23Sep2021            

=------------------------------------------------------------------------------=
   JOB DONE.
=------------------------------------------------------------------------------=
