
     Program PWSCF v.6.7GPU starts on  2Aug2021 at 16:54:37 

     This program is part of the open-source Quantum ESPRESSO suite
     for quantum simulation of materials; please cite
         "P. Giannozzi et al., J. Phys.:Condens. Matter 21 395502 (2009);
         "P. Giannozzi et al., J. Phys.:Condens. Matter 29 465901 (2017);
         "P. Giannozzi et al., J. Chem. Phys. 152 154105 (2020);
          URL http://www.quantum-espresso.org", 
     in publications or presentations arising from this work. More details at
     http://www.quantum-espresso.org/quote

     Parallel version (MPI), running on    16 processors

     MPI processes distributed on     1 nodes
     R & G space division:  proc/nbgrp/npool/nimage =      16
     Reading input from /storage/home/hcoda1/3/ntian30/research/carbon/02Aug_vib_paired/ads_slab/CH3NNH3_a/out_0017/pw.inp
Warning: card &CELL ignored
Warning: card   CELL_DYNAMICS='IPI', ignored
Warning: card / ignored

     Current dimensions of program PWSCF are:
     Max number of different atomic species (ntypx) = 10
     Max number of k-points (npk) =  40000
     Max angular momentum in pseudopotentials (lmaxx) =  3
     Presently no symmetry can be used with electric field

     Message from routine cell_base_init:
     DEPRECATED: use true lattice parameter, not A to a.u. conversion factor

     **************************************************************************
     Initializing libbeef V0.1.2 with the BEEF-vdW functional.
     Citation: Wellendorff et al., PRB 85, 235149 (2012).
     **************************************************************************


     IMPORTANT: XC functional enforced from input :
     Exchange-correlation= BEEF-VDW
                           (   1   4  43  14   2   0   0)
     Any further DFT definition will be discarded
     Please, verify this is what you really want


     Subspace diagonalization in iterative solution of the eigenvalue problem:
     one sub-group per band group will be used
     scalapack distributed-memory algorithm (size of sub-group:  4*  4 procs)

  @ DRIVER MODE: Connecting to 
 qe_1139763_2482544.sched-torque.pace.gatech.eduo5p8u298_scratch
  using UNIX socket
  @ DRIVER MODE: Message from server: STATUS
  @ DRIVER MODE: Message from server: INIT
  @ DRIVER MODE: Receiving replica           0          -1
  @ DRIVER MODE: Receiving encoded integer          25
  @ DRIVER MODE:  SCF:  T  FORCE:  T  STRESS:  F  VC:  F  ENSEMBLE:  F
  @ DRIVER MODE:  SCF:  T  FORCE:  T  STRESS:  F  VC:  F  ENSEMBLE:  F
 
     Parallelization info
     --------------------
     sticks:   dense  smooth     PW     G-vecs:    dense   smooth      PW
     Min         204      82     23                35422     8962    1367
     Max         205      84     24                35435     8968    1382
     Sum        3275    1317    379               566857   143421   21985
 
     Using Slab Decomposition
 


     bravais-lattice index     =            0
     lattice parameter (alat)  =       1.8897  a.u.
     unit-cell volume          =    6658.9804 (a.u.)^3
     number of atoms/cell      =           56
     number of atomic types    =            5
     number of electrons       =       398.00
     number of Kohn-Sham states=          209
     kinetic-energy cutoff     =      29.3995  Ry
     charge density cutoff     =     293.9946  Ry
     scf convergence threshold =      7.3E-08
     mixing beta               =       0.0500
     number of iterations used =            8  plain     mixing
     Exchange-correlation= BEEF-VDW
                           (   1   4  43  14   2   0   0)

     celldm(1)=   1.889726  celldm(2)=   0.000000  celldm(3)=   0.000000
     celldm(4)=   0.000000  celldm(5)=   0.000000  celldm(6)=   0.000000

     crystal axes: (cart. coord. in units of alat)
               a(1) = (   6.579727   0.000000   0.000000 )  
               a(2) = (  -0.000775   5.961596   0.000000 )  
               a(3) = (   0.000000   0.000000  25.155947 )  

     reciprocal axes: (cart. coord. in units 2 pi/alat)
               b(1) = (  0.151982  0.000020  0.000000 )  
               b(2) = (  0.000000  0.167740  0.000000 )  
               b(3) = (  0.000000  0.000000  0.039752 )  


     PseudoPot. # 1 for Ti read from file:
     /storage/coda1/p-amedford6/0/shared/rich_project_chbe-medford/medford-share/data/pseudos_module/espresso/nninc/pbe/van/Ti.UPF
     MD5 check sum: 8e4df49b7f0d34bbd5052bf3f5ea0213
     Pseudo is Ultrasoft, Zval = 12.0
     Generated by new atomic code, or converted to UPF format
     Using radial grid of  851 points,  6 beta functions with: 
                l(1) =   0
                l(2) =   0
                l(3) =   1
                l(4) =   1
                l(5) =   2
                l(6) =   2
     Q(r) pseudized with  8 coefficients,  rinner =    1.000   1.000   1.000
                                                       1.000   1.000

     PseudoPot. # 2 for O  read from file:
     /storage/coda1/p-amedford6/0/shared/rich_project_chbe-medford/medford-share/data/pseudos_module/espresso/nninc/pbe/van/O.UPF
     MD5 check sum: 78c19812648e8988a0fe644b0f25305e
     Pseudo is Ultrasoft, Zval =  6.0
     Generated by new atomic code, or converted to UPF format
     Using radial grid of  737 points,  4 beta functions with: 
                l(1) =   0
                l(2) =   0
                l(3) =   1
                l(4) =   1
     Q(r) pseudized with  8 coefficients,  rinner =    0.800   0.800   0.800


     PseudoPot. # 3 for N  read from file:
     /storage/coda1/p-amedford6/0/shared/rich_project_chbe-medford/medford-share/data/pseudos_module/espresso/nninc/pbe/van/N.UPF
     MD5 check sum: 90d10febe142ad51ac9d5be1deb811c4
     Pseudo is Ultrasoft, Zval =  5.0
     Generated by new atomic code, or converted to UPF format
     Using radial grid of  729 points,  4 beta functions with: 
                l(1) =   0
                l(2) =   0
                l(3) =   1
                l(4) =   1
     Q(r) pseudized with  8 coefficients,  rinner =    0.800   0.800   0.800


     PseudoPot. # 4 for C  read from file:
     /storage/coda1/p-amedford6/0/shared/rich_project_chbe-medford/medford-share/data/pseudos_module/espresso/nninc/pbe/van/C.UPF
     MD5 check sum: 1a69bf6b8db32088f5b2163dbdb77a27
     Pseudo is Ultrasoft, Zval =  4.0
     Generated by new atomic code, or converted to UPF format
     Using radial grid of  721 points,  4 beta functions with: 
                l(1) =   0
                l(2) =   0
                l(3) =   1
                l(4) =   1
     Q(r) pseudized with  8 coefficients,  rinner =    0.800   0.800   0.800


     PseudoPot. # 5 for H  read from file:
     /storage/coda1/p-amedford6/0/shared/rich_project_chbe-medford/medford-share/data/pseudos_module/espresso/nninc/pbe/van/H.UPF
     MD5 check sum: b5ee9d7bfd3a09ee7748110bda690ff7
     Pseudo is Ultrasoft, Zval =  1.0
     Generated by new atomic code, or converted to UPF format
     Using radial grid of  615 points,  1 beta functions with: 
                l(1) =   0
     Q(r) pseudized with  8 coefficients,  rinner =    0.800

     atomic species   valence    mass     pseudopotential
        Ti1           12.00    47.86700     Ti( 1.00)
        O1             6.00    15.99900     O ( 1.00)
        N1             5.00    14.00700     N ( 1.00)
        C1             4.00    12.01100     C ( 1.00)
        H1             1.00     1.00800     H ( 1.00)

     No symmetry found



   Cartesian axes

     site n.     atom                  positions (alat units)
         1           Ti1 tau(   1) = (   0.0004258   2.9801865   6.0000000  )
         2           Ti1 tau(   2) = (   3.2906075   1.4906267   6.0002472  )
         3           O1  tau(   3) = (   0.0006271   0.0005054   7.9858123  )
         4           O1  tau(   4) = (   3.2906025   0.0005020   7.3038282  )
         5           O1  tau(   5) = (   4.5942328   1.4918067   9.2879030  )
         6           O1  tau(   6) = (   1.9868534   1.4903216   9.2879459  )
         7           Ti1 tau(   7) = (   3.2907910   2.8959150   9.1758416  )
         8           Ti1 tau(   8) = (   0.0015273   1.4827037   9.2680791  )
         9           O1  tau(   9) = (   3.2727297   5.9424138  11.2974721  )
        10           O1  tau(  10) = (   0.0116148   5.9584955  10.6183126  )
        11           O1  tau(  11) = (   1.3027692   1.4721713  12.6242268  )
        12           O1  tau(  12) = (   5.2784376   1.4723552  12.6258992  )
        13           Ti1 tau(  13) = (   6.4570204   2.9507206  12.7630554  )
        14           Ti1 tau(  14) = (   3.1467966   1.4649636  12.4688949  )
        15           O1  tau(  15) = (   6.5600513   5.9133837  14.5918744  )
        16           O1  tau(  16) = (   3.2766225   5.9390981  13.8789110  )
        17           O1  tau(  17) = (   4.4915826   1.4834571  16.0540230  )
        18           O1  tau(  18) = (   2.0416982   1.4849982  16.0411193  )
        19           Ti1 tau(  19) = (   3.2679172   2.9642910  15.6858091  )
        20           Ti1 tau(  20) = (   6.5495220   1.5641796  16.1095294  )
        21           O1  tau(  21) = (   3.2904802   0.0005063   4.7018136  )
        22           O1  tau(  22) = (   6.5606002   0.0080969  17.2010096  )
        23           O1  tau(  23) = (   1.3043587   1.4918075   6.0039043  )
        24           O1  tau(  24) = (   5.2767064   1.4903225   6.0039473  )
        25           Ti1 tau(  25) = (   0.0000382   5.9609847   6.0000000  )
        26           Ti1 tau(  26) = (   3.2902200   4.4714249   6.0002472  )
        27           O1  tau(  27) = (   0.0002396   2.9813036   7.9858123  )
        28           O1  tau(  28) = (   3.2902150   2.9813002   7.3038282  )
        29           O1  tau(  29) = (   4.5938453   4.4726049   9.2879030  )
        30           O1  tau(  30) = (   1.9864658   4.4711199   9.2879459  )
        31           Ti1 tau(  31) = (   3.2891106   5.8743827   9.1763621  )
        32           Ti1 tau(  32) = (   0.0006254   4.4649316   9.2693709  )
        33           O1  tau(  33) = (   3.2718307   2.9587034  11.2961003  )
        34           O1  tau(  34) = (   0.0092240   2.9805883  10.6323155  )
        35           O1  tau(  35) = (   1.3028232   4.4416136  12.6207192  )
        36           O1  tau(  36) = (   5.2777600   4.4366566  12.6238879  )
        37           Ti1 tau(  37) = (   6.4830488   5.9304874  12.7660964  )
        38           Ti1 tau(  38) = (   3.1463657   4.4448748  12.4639736  )
        39           O1  tau(  39) = (   6.5417323   2.9404903  14.6589984  )
        40           O1  tau(  40) = (   3.2789452   2.9619718  13.8791424  )
        41           O1  tau(  41) = (   4.4971312   4.4676043  16.0556370  )
        42           O1  tau(  42) = (   2.0400509   4.4648231  16.0515753  )
        43           Ti1 tau(  43) = (   3.2598176   5.9476019  15.6881950  )
        44           Ti1 tau(  44) = (   6.5485469   4.5424454  16.1156095  )
        45           O1  tau(  45) = (   3.2900926   2.9813045   4.7018136  )
        46           O1  tau(  46) = (   1.3039711   4.4726057   6.0039043  )
        47           O1  tau(  47) = (   5.2763189   4.4711207   6.0039473  )
        48           N1  tau(  48) = (   0.0016189   2.9795595  17.3279962  )
        49           C1  tau(  49) = (   0.1681806   3.0735589  18.7581663  )
        50           H1  tau(  50) = (   6.0068595   3.7517258  19.1894632  )
        51           H1  tau(  51) = (   0.0766375   2.0971904  19.2409400  )
        52           H1  tau(  52) = (   1.1565538   3.4901639  19.0026035  )
        53           N1  tau(  53) = (   4.7601180   1.8141088  21.6614004  )
        54           H1  tau(  54) = (   4.4666586   2.7830198  21.5980365  )
        55           H1  tau(  55) = (   4.1231612   1.2775871  21.0809158  )
        56           H1  tau(  56) = (   4.6015807   1.5257772  22.6208530  )

     number of k points=    10  Fermi-Dirac smearing, width (Ry)=  0.0073
                       cart. coord. in units 2pi/alat
        k(    1) = (   0.0000000   0.0000000   0.0000000), wk =   0.1250000
        k(    2) = (   0.0000000   0.0419351   0.0000000), wk =   0.2500000
        k(    3) = (   0.0000000  -0.0838702   0.0000000), wk =   0.1250000
        k(    4) = (   0.0379955   0.0000049   0.0000000), wk =   0.2500000
        k(    5) = (   0.0379955   0.0419400   0.0000000), wk =   0.2500000
        k(    6) = (   0.0379955  -0.0838652   0.0000000), wk =   0.2500000
        k(    7) = (   0.0379955  -0.0419301   0.0000000), wk =   0.2500000
        k(    8) = (  -0.0759910  -0.0000099   0.0000000), wk =   0.1250000
        k(    9) = (  -0.0759910   0.0419252   0.0000000), wk =   0.2500000
        k(   10) = (  -0.0759910  -0.0838800   0.0000000), wk =   0.1250000

     Dense  grid:   566857 G-vectors     FFT dimensions: (  72,  64, 270)

     Smooth grid:   143421 G-vectors     FFT dimensions: (  45,  40, 180)

     Estimated max dynamical RAM per process >     230.24 MB

     Estimated total dynamical RAM >       3.60 GB
     Cannot read rho : file not found

     Initial potential from superposition of free atoms

     starting charge  381.99914, renormalised to  398.00000

     negative rho (up, down):  9.480E-03 0.000E+00


     %%%%%%%%%%%%%%%%%%%%%%%%%%%%%%%%%%%%%%%%%%%%%%%%%%%%%%%%%%%%%%%%%%%%%%%%
     %                                                                      %
     % You are using vdW-DF, which was implemented by the Thonhauser group. %
     % Please cite the following two papers that made this development      %
     % possible and the two reviews that describe the various versions:     %
     %                                                                      %
     %   T. Thonhauser et al., PRL 115, 136402 (2015).                      %
     %   T. Thonhauser et al., PRB 76, 125112 (2007).                       %
     %   K. Berland et al., Rep. Prog. Phys. 78, 066501 (2015).             %
     %   D.C. Langreth et al., J. Phys.: Condens. Matter 21, 084203 (2009). %
     %                                                                      %
     %                                                                      %
     % If you are calculating the stress with vdW-DF, please also cite:     %
     %                                                                      %
     %   R. Sabatini et al., J. Phys.: Condens. Matter 24, 424209 (2012).   %
     %                                                                      %
     %%%%%%%%%%%%%%%%%%%%%%%%%%%%%%%%%%%%%%%%%%%%%%%%%%%%%%%%%%%%%%%%%%%%%%%%


 
     Adding external electric field

     Computed dipole along edir(3) : 
        Dipole              -11.3709 Ry au,        -28.9020 Debye
        Dipole field         -0.0215 Ry au, 
 
        Potential amp.        1.9892 Ry
        Total length         46.3494 bohr
 
     Starting wfcs are  302 atomic wfcs
  @ DRIVER MODE: Message from server: STATUS
  @ DRIVER MODE: Message from server: POSDATA
  @ DRIVER MODE: Reading and sharing cell 
  @ DRIVER MODE: Reading and sharing positions 
  @ DRIVER MODE: Received positions 

     total cpu time spent up to now is        9.7 secs

     Self-consistent Calculation

     iteration #  1     ecut=    29.40 Ry     beta= 0.05
     Davidson diagonalization with overlap
     c_bands:  1 eigenvalues not converged
     c_bands:  1 eigenvalues not converged
     c_bands:  2 eigenvalues not converged
     c_bands:  1 eigenvalues not converged
     c_bands:  1 eigenvalues not converged
     c_bands:  1 eigenvalues not converged
     c_bands:  1 eigenvalues not converged
     c_bands:  2 eigenvalues not converged
     c_bands:  2 eigenvalues not converged
     ethr =  1.00E-05,  avg # of iterations = 19.6

     negative rho (up, down):  8.259E-03 0.000E+00
 
     Adding external electric field

     Computed dipole along edir(3) : 
        Dipole               44.5728 Ry au,        113.2927 Debye
        Dipole field          0.0841 Ry au, 
 
        Potential amp.       -7.7973 Ry
        Total length         46.3494 bohr
 

     total cpu time spent up to now is       48.6 secs

     total energy              =   -2520.80405134 Ry
     estimated scf accuracy    <    4705.81752671 Ry

     iteration #  2     ecut=    29.40 Ry     beta= 0.05
     Davidson diagonalization with overlap
     ethr =  1.00E-02,  avg # of iterations = 22.0

     negative rho (up, down):  1.383E-03 0.000E+00
 
     Adding external electric field

     Computed dipole along edir(3) : 
        Dipole               -3.6609 Ry au,         -9.3051 Debye
        Dipole field         -0.0069 Ry au, 
 
        Potential amp.        0.6404 Ry
        Total length         46.3494 bohr
 

     total cpu time spent up to now is      107.3 secs

     total energy              =   -2438.70400436 Ry
     estimated scf accuracy    <   72348.34342591 Ry

     iteration #  3     ecut=    29.40 Ry     beta= 0.05
     Davidson diagonalization with overlap
     ethr =  1.00E-02,  avg # of iterations = 16.1

     negative rho (up, down):  1.455E-03 0.000E+00
 
     Adding external electric field

     Computed dipole along edir(3) : 
        Dipole               -5.3144 Ry au,        -13.5079 Debye
        Dipole field         -0.0100 Ry au, 
 
        Potential amp.        0.9297 Ry
        Total length         46.3494 bohr
 

     total cpu time spent up to now is      153.4 secs

     total energy              =   -2929.50636725 Ry
     estimated scf accuracy    <    4568.66162746 Ry

     iteration #  4     ecut=    29.40 Ry     beta= 0.05
     Davidson diagonalization with overlap
     ethr =  1.00E-02,  avg # of iterations = 14.5

     negative rho (up, down):  1.476E-03 0.000E+00
 
     Adding external electric field

     Computed dipole along edir(3) : 
        Dipole               -6.0877 Ry au,        -15.4734 Debye
        Dipole field         -0.0115 Ry au, 
 
        Potential amp.        1.0650 Ry
        Total length         46.3494 bohr
 

     total cpu time spent up to now is      168.1 secs

     total energy              =   -2933.49013313 Ry
     estimated scf accuracy    <    1524.46565966 Ry

     iteration #  5     ecut=    29.40 Ry     beta= 0.05
     Davidson diagonalization with overlap
     ethr =  1.00E-02,  avg # of iterations =  6.1

     negative rho (up, down):  1.524E-03 0.000E+00
 
     Adding external electric field

     Computed dipole along edir(3) : 
        Dipole               -6.8394 Ry au,        -17.3839 Debye
        Dipole field         -0.0129 Ry au, 
 
        Potential amp.        1.1964 Ry
        Total length         46.3494 bohr
 

     total cpu time spent up to now is      177.7 secs

     total energy              =   -2920.21284989 Ry
     estimated scf accuracy    <     942.67785160 Ry

     iteration #  6     ecut=    29.40 Ry     beta= 0.05
     Davidson diagonalization with overlap
     c_bands:  1 eigenvalues not converged
     ethr =  1.00E-02,  avg # of iterations = 12.7

     negative rho (up, down):  1.231E-03 0.000E+00
 
     Adding external electric field

     Computed dipole along edir(3) : 
        Dipole               -5.6446 Ry au,        -14.3471 Debye
        Dipole field         -0.0107 Ry au, 
 
        Potential amp.        0.9874 Ry
        Total length         46.3494 bohr
 

     total cpu time spent up to now is      197.6 secs

     total energy              =   -2946.28689924 Ry
     estimated scf accuracy    <      30.48514671 Ry

     iteration #  7     ecut=    29.40 Ry     beta= 0.05
     Davidson diagonalization with overlap
     ethr =  7.66E-03,  avg # of iterations =  2.1

     negative rho (up, down):  1.404E-03 0.000E+00
 
     Adding external electric field

     Computed dipole along edir(3) : 
        Dipole               -4.6618 Ry au,        -11.8490 Debye
        Dipole field         -0.0088 Ry au, 
 
        Potential amp.        0.8155 Ry
        Total length         46.3494 bohr
 

     total cpu time spent up to now is      229.5 secs

     total energy              =   -2946.15470227 Ry
     estimated scf accuracy    <      19.39998812 Ry

     iteration #  8     ecut=    29.40 Ry     beta= 0.05
     Davidson diagonalization with overlap
     ethr =  4.87E-03,  avg # of iterations =  3.1

     negative rho (up, down):  2.616E-03 0.000E+00
 
     Adding external electric field

     Computed dipole along edir(3) : 
        Dipole               -0.1663 Ry au,         -0.4226 Debye
        Dipole field         -0.0003 Ry au, 
 
        Potential amp.        0.0291 Ry
        Total length         46.3494 bohr
 

     total cpu time spent up to now is      237.2 secs

     total energy              =   -2946.33621627 Ry
     estimated scf accuracy    <      18.00819338 Ry

     iteration #  9     ecut=    29.40 Ry     beta= 0.05
     Davidson diagonalization with overlap
     ethr =  4.52E-03,  avg # of iterations = 15.3

     negative rho (up, down):  2.932E-03 0.000E+00
 
     Adding external electric field

     Computed dipole along edir(3) : 
        Dipole                1.0899 Ry au,          2.7704 Debye
        Dipole field          0.0021 Ry au, 
 
        Potential amp.       -0.1907 Ry
        Total length         46.3494 bohr
 

     total cpu time spent up to now is      254.8 secs

     total energy              =   -2995.45381765 Ry
     estimated scf accuracy    <    2981.91452970 Ry

     iteration # 10     ecut=    29.40 Ry     beta= 0.05
     Davidson diagonalization with overlap
     ethr =  4.52E-03,  avg # of iterations =  2.5

     negative rho (up, down):  8.123E-03 0.000E+00
 
     Adding external electric field

     Computed dipole along edir(3) : 
        Dipole                5.7231 Ry au,         14.5467 Debye
        Dipole field          0.0108 Ry au, 
 
        Potential amp.       -1.0012 Ry
        Total length         46.3494 bohr
 

     total cpu time spent up to now is      262.6 secs

     total energy              =   -3057.68749810 Ry
     estimated scf accuracy    <    3340.27934371 Ry

     iteration # 11     ecut=    29.40 Ry     beta= 0.05
     Davidson diagonalization with overlap
     ethr =  4.52E-03,  avg # of iterations = 15.8

     negative rho (up, down):  9.666E-03 0.000E+00
 
     Adding external electric field

     Computed dipole along edir(3) : 
        Dipole                7.2997 Ry au,         18.5540 Debye
        Dipole field          0.0138 Ry au, 
 
        Potential amp.       -1.2770 Ry
        Total length         46.3494 bohr
 

     total cpu time spent up to now is      276.6 secs

     total energy              =   -3048.41024330 Ry
     estimated scf accuracy    <    5812.18203978 Ry

     iteration # 12     ecut=    29.40 Ry     beta= 0.05
     Davidson diagonalization with overlap
     ethr =  4.52E-03,  avg # of iterations =  1.1

     negative rho (up, down):  1.010E-02 0.000E+00
 
     Adding external electric field

     Computed dipole along edir(3) : 
        Dipole                7.6899 Ry au,         19.5458 Debye
        Dipole field          0.0145 Ry au, 
 
        Potential amp.       -1.3452 Ry
        Total length         46.3494 bohr
 

     total cpu time spent up to now is      283.9 secs

     total energy              =   -3063.12809354 Ry
     estimated scf accuracy    <    4793.23371968 Ry

     iteration # 13     ecut=    29.40 Ry     beta= 0.05
     Davidson diagonalization with overlap
     ethr =  4.52E-03,  avg # of iterations =  1.0

     negative rho (up, down):  6.230E-03 0.000E+00
 
     Adding external electric field

     Computed dipole along edir(3) : 
        Dipole                7.7395 Ry au,         19.6718 Debye
        Dipole field          0.0146 Ry au, 
 
        Potential amp.       -1.3539 Ry
        Total length         46.3494 bohr
 

     total cpu time spent up to now is      298.8 secs

     total energy              =   -2993.07197729 Ry
     estimated scf accuracy    <    5442.43433273 Ry

     iteration # 14     ecut=    29.40 Ry     beta= 0.05
     Davidson diagonalization with overlap
     ethr =  4.52E-03,  avg # of iterations = 14.5

     negative rho (up, down):  2.050E-03 0.000E+00
 
     Adding external electric field

     Computed dipole along edir(3) : 
        Dipole                2.8573 Ry au,          7.2626 Debye
        Dipole field          0.0054 Ry au, 
 
        Potential amp.       -0.4998 Ry
        Total length         46.3494 bohr
 

     total cpu time spent up to now is      313.3 secs

     total energy              =   -2932.57575549 Ry
     estimated scf accuracy    <    3084.19816462 Ry

     iteration # 15     ecut=    29.40 Ry     beta= 0.05
     Davidson diagonalization with overlap
     c_bands:  2 eigenvalues not converged
     c_bands:  1 eigenvalues not converged
     c_bands:  1 eigenvalues not converged
     c_bands:  2 eigenvalues not converged
     ethr =  4.52E-03,  avg # of iterations = 15.7

     negative rho (up, down):  2.040E-03 0.000E+00
 
     Adding external electric field

     Computed dipole along edir(3) : 
        Dipole                2.0686 Ry au,          5.2578 Debye
        Dipole field          0.0039 Ry au, 
 
        Potential amp.       -0.3619 Ry
        Total length         46.3494 bohr
 

     total cpu time spent up to now is      332.5 secs

     total energy              =   -2948.17927597 Ry
     estimated scf accuracy    <     653.04778634 Ry

     iteration # 16     ecut=    29.40 Ry     beta= 0.05
     Davidson diagonalization with overlap
     ethr =  4.52E-03,  avg # of iterations =  2.5

     negative rho (up, down):  2.185E-03 0.000E+00
 
     Adding external electric field

     Computed dipole along edir(3) : 
        Dipole                2.7145 Ry au,          6.8997 Debye
        Dipole field          0.0051 Ry au, 
 
        Potential amp.       -0.4749 Ry
        Total length         46.3494 bohr
 

     total cpu time spent up to now is      340.3 secs

     total energy              =   -2952.98018656 Ry
     estimated scf accuracy    <     586.65509050 Ry

     iteration # 17     ecut=    29.40 Ry     beta= 0.05
     Davidson diagonalization with overlap
     ethr =  4.52E-03,  avg # of iterations =  1.3

     negative rho (up, down):  1.029E-03 0.000E+00
 
     Adding external electric field

     Computed dipole along edir(3) : 
        Dipole               -6.5541 Ry au,        -16.6588 Debye
        Dipole field         -0.0124 Ry au, 
 
        Potential amp.        1.1465 Ry
        Total length         46.3494 bohr
 

     total cpu time spent up to now is      347.5 secs

     total energy              =   -2919.56758614 Ry
     estimated scf accuracy    <     910.00034193 Ry

     iteration # 18     ecut=    29.40 Ry     beta= 0.05
     Davidson diagonalization with overlap
     ethr =  4.52E-03,  avg # of iterations = 12.5

     negative rho (up, down):  1.075E-03 0.000E+00
 
     Adding external electric field

     Computed dipole along edir(3) : 
        Dipole               -3.1334 Ry au,         -7.9643 Debye
        Dipole field         -0.0059 Ry au, 
 
        Potential amp.        0.5481 Ry
        Total length         46.3494 bohr
 

     total cpu time spent up to now is      367.7 secs

     total energy              =   -2940.88485889 Ry
     estimated scf accuracy    <     314.92911122 Ry

     iteration # 19     ecut=    29.40 Ry     beta= 0.05
     Davidson diagonalization with overlap
     ethr =  4.52E-03,  avg # of iterations =  3.6

     negative rho (up, down):  1.472E-03 0.000E+00
 
     Adding external electric field

     Computed dipole along edir(3) : 
        Dipole                2.2031 Ry au,          5.5996 Debye
        Dipole field          0.0042 Ry au, 
 
        Potential amp.       -0.3854 Ry
        Total length         46.3494 bohr
 

     total cpu time spent up to now is      376.0 secs

     total energy              =   -2939.68904143 Ry
     estimated scf accuracy    <      43.54934182 Ry

     iteration # 20     ecut=    29.40 Ry     beta= 0.05
     Davidson diagonalization with overlap
     ethr =  4.52E-03,  avg # of iterations = 10.6

     negative rho (up, down):  1.316E-03 0.000E+00
 
     Adding external electric field

     Computed dipole along edir(3) : 
        Dipole                0.2094 Ry au,          0.5323 Debye
        Dipole field          0.0004 Ry au, 
 
        Potential amp.       -0.0366 Ry
        Total length         46.3494 bohr
 

     total cpu time spent up to now is      389.7 secs

     total energy              =   -2943.06739182 Ry
     estimated scf accuracy    <      12.21843575 Ry

     iteration # 21     ecut=    29.40 Ry     beta= 0.05
     Davidson diagonalization with overlap
     ethr =  3.07E-03,  avg # of iterations =  2.0

     negative rho (up, down):  1.320E-03 0.000E+00
 
     Adding external electric field

     Computed dipole along edir(3) : 
        Dipole                0.3338 Ry au,          0.8484 Debye
        Dipole field          0.0006 Ry au, 
 
        Potential amp.       -0.0584 Ry
        Total length         46.3494 bohr
 

     total cpu time spent up to now is      397.4 secs

     total energy              =   -2943.52792663 Ry
     estimated scf accuracy    <       3.16155110 Ry

     iteration # 22     ecut=    29.40 Ry     beta= 0.05
     Davidson diagonalization with overlap
     ethr =  7.94E-04,  avg # of iterations =  2.2

     negative rho (up, down):  1.354E-03 0.000E+00
 
     Adding external electric field

     Computed dipole along edir(3) : 
        Dipole                0.8903 Ry au,          2.2629 Debye
        Dipole field          0.0017 Ry au, 
 
        Potential amp.       -0.1557 Ry
        Total length         46.3494 bohr
 

     total cpu time spent up to now is      405.2 secs

     total energy              =   -2943.58413811 Ry
     estimated scf accuracy    <       3.16914701 Ry

     iteration # 23     ecut=    29.40 Ry     beta= 0.05
     Davidson diagonalization with overlap
     c_bands:  3 eigenvalues not converged
     ethr =  7.94E-04,  avg # of iterations =  3.4

     negative rho (up, down):  1.322E-03 0.000E+00
 
     Adding external electric field

     Computed dipole along edir(3) : 
        Dipole                0.2755 Ry au,          0.7002 Debye
        Dipole field          0.0005 Ry au, 
 
        Potential amp.       -0.0482 Ry
        Total length         46.3494 bohr
 

     total cpu time spent up to now is      428.9 secs

     total energy              =   -2943.62429256 Ry
     estimated scf accuracy    <       3.30657277 Ry

     iteration # 24     ecut=    29.40 Ry     beta= 0.05
     Davidson diagonalization with overlap
     ethr =  7.94E-04,  avg # of iterations =  1.6

     negative rho (up, down):  1.268E-03 0.000E+00
 
     Adding external electric field

     Computed dipole along edir(3) : 
        Dipole               -0.9094 Ry au,         -2.3114 Debye
        Dipole field         -0.0017 Ry au, 
 
        Potential amp.        0.1591 Ry
        Total length         46.3494 bohr
 

     total cpu time spent up to now is      436.3 secs

     total energy              =   -2943.72624121 Ry
     estimated scf accuracy    <       3.34984327 Ry

     iteration # 25     ecut=    29.40 Ry     beta= 0.05
     Davidson diagonalization with overlap
     ethr =  7.94E-04,  avg # of iterations =  4.6

     negative rho (up, down):  1.340E-03 0.000E+00
 
     Adding external electric field

     Computed dipole along edir(3) : 
        Dipole                0.6058 Ry au,          1.5397 Debye
        Dipole field          0.0011 Ry au, 
 
        Potential amp.       -0.1060 Ry
        Total length         46.3494 bohr
 

     total cpu time spent up to now is      444.7 secs

     total energy              =   -2943.00709405 Ry
     estimated scf accuracy    <      19.19775273 Ry

     iteration # 26     ecut=    29.40 Ry     beta= 0.05
     Davidson diagonalization with overlap
     ethr =  7.94E-04,  avg # of iterations =  3.1

     negative rho (up, down):  1.342E-03 0.000E+00
 
     Adding external electric field

     Computed dipole along edir(3) : 
        Dipole                1.1895 Ry au,          3.0234 Debye
        Dipole field          0.0022 Ry au, 
 
        Potential amp.       -0.2081 Ry
        Total length         46.3494 bohr
 

     total cpu time spent up to now is      452.6 secs

     total energy              =   -2943.57841731 Ry
     estimated scf accuracy    <       3.42141625 Ry

     iteration # 27     ecut=    29.40 Ry     beta= 0.05
     Davidson diagonalization with overlap
     ethr =  7.94E-04,  avg # of iterations =  1.4

     negative rho (up, down):  1.166E-03 0.000E+00
 
     Adding external electric field

     Computed dipole along edir(3) : 
        Dipole                3.2540 Ry au,          8.2708 Debye
        Dipole field          0.0061 Ry au, 
 
        Potential amp.       -0.5692 Ry
        Total length         46.3494 bohr
 

     total cpu time spent up to now is      467.9 secs

     total energy              =   -2943.17211617 Ry
     estimated scf accuracy    <       3.24665351 Ry

     iteration # 28     ecut=    29.40 Ry     beta= 0.05
     Davidson diagonalization with overlap
     ethr =  7.94E-04,  avg # of iterations = 14.3

     negative rho (up, down):  1.137E-03 0.000E+00
 
     Adding external electric field

     Computed dipole along edir(3) : 
        Dipole                1.0180 Ry au,          2.5874 Debye
        Dipole field          0.0019 Ry au, 
 
        Potential amp.       -0.1781 Ry
        Total length         46.3494 bohr
 

     total cpu time spent up to now is      498.4 secs

     total energy              =   -2942.70927797 Ry
     estimated scf accuracy    <     231.52015337 Ry

     iteration # 29     ecut=    29.40 Ry     beta= 0.05
     Davidson diagonalization with overlap
     c_bands:  1 eigenvalues not converged
     c_bands:  1 eigenvalues not converged
     c_bands:  1 eigenvalues not converged
     ethr =  7.94E-04,  avg # of iterations = 16.7

     negative rho (up, down):  1.138E-03 0.000E+00
 
     Adding external electric field

     Computed dipole along edir(3) : 
        Dipole                1.1516 Ry au,          2.9272 Debye
        Dipole field          0.0022 Ry au, 
 
        Potential amp.       -0.2015 Ry
        Total length         46.3494 bohr
 

     total cpu time spent up to now is      527.7 secs

     total energy              =   -2943.77755357 Ry
     estimated scf accuracy    <      63.30121218 Ry

     iteration # 30     ecut=    29.40 Ry     beta= 0.05
     Davidson diagonalization with overlap
     ethr =  7.94E-04,  avg # of iterations =  1.1

     negative rho (up, down):  1.221E-03 0.000E+00
 
     Adding external electric field

     Computed dipole along edir(3) : 
        Dipole                1.3922 Ry au,          3.5387 Debye
        Dipole field          0.0026 Ry au, 
 
        Potential amp.       -0.2435 Ry
        Total length         46.3494 bohr
 

     total cpu time spent up to now is      536.7 secs

     total energy              =   -2942.93339836 Ry
     estimated scf accuracy    <      55.95317443 Ry

     iteration # 31     ecut=    29.40 Ry     beta= 0.05
     Davidson diagonalization with overlap
     ethr =  7.94E-04,  avg # of iterations =  5.1

     negative rho (up, down):  1.277E-03 0.000E+00
 
     Adding external electric field

     Computed dipole along edir(3) : 
        Dipole                0.2121 Ry au,          0.5390 Debye
        Dipole field          0.0004 Ry au, 
 
        Potential amp.       -0.0371 Ry
        Total length         46.3494 bohr
 

     total cpu time spent up to now is      545.4 secs

     total energy              =   -2941.85602530 Ry
     estimated scf accuracy    <      13.91540546 Ry

     iteration # 32     ecut=    29.40 Ry     beta= 0.05
     Davidson diagonalization with overlap
     c_bands:  1 eigenvalues not converged
     c_bands:  4 eigenvalues not converged
     c_bands:  1 eigenvalues not converged
     c_bands:  1 eigenvalues not converged
     ethr =  7.94E-04,  avg # of iterations = 18.0

     negative rho (up, down):  1.319E-03 0.000E+00
 
     Adding external electric field

     Computed dipole along edir(3) : 
        Dipole                0.0897 Ry au,          0.2279 Debye
        Dipole field          0.0002 Ry au, 
 
        Potential amp.       -0.0157 Ry
        Total length         46.3494 bohr
 

     total cpu time spent up to now is      561.1 secs

     total energy              =   -2943.10630227 Ry
     estimated scf accuracy    <       4.84138035 Ry

     iteration # 33     ecut=    29.40 Ry     beta= 0.05
     Davidson diagonalization with overlap
     ethr =  7.94E-04,  avg # of iterations =  1.5

     negative rho (up, down):  1.457E-03 0.000E+00
 
     Adding external electric field

     Computed dipole along edir(3) : 
        Dipole                0.6566 Ry au,          1.6688 Debye
        Dipole field          0.0012 Ry au, 
 
        Potential amp.       -0.1149 Ry
        Total length         46.3494 bohr
 

     total cpu time spent up to now is      568.6 secs

     total energy              =   -2942.85539961 Ry
     estimated scf accuracy    <       2.79208978 Ry

     iteration # 34     ecut=    29.40 Ry     beta= 0.05
     Davidson diagonalization with overlap
     ethr =  7.02E-04,  avg # of iterations =  2.0

     negative rho (up, down):  1.645E-03 0.000E+00
 
     Adding external electric field

     Computed dipole along edir(3) : 
        Dipole                0.5938 Ry au,          1.5094 Debye
        Dipole field          0.0011 Ry au, 
 
        Potential amp.       -0.1039 Ry
        Total length         46.3494 bohr
 

     total cpu time spent up to now is      587.9 secs

     total energy              =   -2942.85337635 Ry
     estimated scf accuracy    <       0.49408711 Ry

     iteration # 35     ecut=    29.40 Ry     beta= 0.05
     Davidson diagonalization with overlap
     c_bands:  1 eigenvalues not converged
     c_bands:  1 eigenvalues not converged
     c_bands:  1 eigenvalues not converged
     ethr =  1.24E-04,  avg # of iterations = 16.3

     negative rho (up, down):  1.635E-03 0.000E+00
 
     Adding external electric field

     Computed dipole along edir(3) : 
        Dipole                0.5692 Ry au,          1.4466 Debye
        Dipole field          0.0011 Ry au, 
 
        Potential amp.       -0.0996 Ry
        Total length         46.3494 bohr
 

     total cpu time spent up to now is      621.7 secs

     total energy              =   -2942.96051208 Ry
     estimated scf accuracy    <       0.41787796 Ry

     iteration # 36     ecut=    29.40 Ry     beta= 0.05
     Davidson diagonalization with overlap
     ethr =  1.05E-04,  avg # of iterations =  1.3

     negative rho (up, down):  1.633E-03 0.000E+00
 
     Adding external electric field

     Computed dipole along edir(3) : 
        Dipole                0.5396 Ry au,          1.3715 Debye
        Dipole field          0.0010 Ry au, 
 
        Potential amp.       -0.0944 Ry
        Total length         46.3494 bohr
 

     total cpu time spent up to now is      629.8 secs

     total energy              =   -2942.96270228 Ry
     estimated scf accuracy    <       0.40139960 Ry

     iteration # 37     ecut=    29.40 Ry     beta= 0.05
     Davidson diagonalization with overlap
     ethr =  1.01E-04,  avg # of iterations =  1.0

     negative rho (up, down):  1.625E-03 0.000E+00
 
     Adding external electric field

     Computed dipole along edir(3) : 
        Dipole                0.3678 Ry au,          0.9349 Debye
        Dipole field          0.0007 Ry au, 
 
        Potential amp.       -0.0643 Ry
        Total length         46.3494 bohr
 

     total cpu time spent up to now is      636.8 secs

     total energy              =   -2942.92701771 Ry
     estimated scf accuracy    <       0.40625603 Ry

     iteration # 38     ecut=    29.40 Ry     beta= 0.05
     Davidson diagonalization with overlap
     ethr =  1.01E-04,  avg # of iterations =  1.0

     negative rho (up, down):  1.682E-03 0.000E+00
 
     Adding external electric field

     Computed dipole along edir(3) : 
        Dipole                0.0287 Ry au,          0.0730 Debye
        Dipole field          0.0001 Ry au, 
 
        Potential amp.       -0.0050 Ry
        Total length         46.3494 bohr
 

     total cpu time spent up to now is      647.3 secs

     total energy              =   -2942.90857786 Ry
     estimated scf accuracy    <       0.31356358 Ry

     iteration # 39     ecut=    29.40 Ry     beta= 0.05
     Davidson diagonalization with overlap
     c_bands:  3 eigenvalues not converged
     c_bands:  1 eigenvalues not converged
     c_bands:  2 eigenvalues not converged
     c_bands:  2 eigenvalues not converged
     c_bands:  2 eigenvalues not converged
     c_bands:  1 eigenvalues not converged
     ethr =  7.88E-05,  avg # of iterations = 17.4

     negative rho (up, down):  1.996E-03 0.000E+00
 
     Adding external electric field

     Computed dipole along edir(3) : 
        Dipole                0.3243 Ry au,          0.8243 Debye
        Dipole field          0.0006 Ry au, 
 
        Potential amp.       -0.0567 Ry
        Total length         46.3494 bohr
 

     total cpu time spent up to now is      661.1 secs

     total energy              =   -2942.89720848 Ry
     estimated scf accuracy    <       0.66613809 Ry

     iteration # 40     ecut=    29.40 Ry     beta= 0.05
     Davidson diagonalization with overlap
     ethr =  7.88E-05,  avg # of iterations =  7.6

     negative rho (up, down):  2.547E-03 0.000E+00
 
     Adding external electric field

     Computed dipole along edir(3) : 
        Dipole                0.4853 Ry au,          1.2334 Debye
        Dipole field          0.0009 Ry au, 
 
        Potential amp.       -0.0849 Ry
        Total length         46.3494 bohr
 

     total cpu time spent up to now is      670.2 secs

     total energy              =   -2942.89907967 Ry
     estimated scf accuracy    <       0.15827952 Ry

     iteration # 41     ecut=    29.40 Ry     beta= 0.05
     Davidson diagonalization with overlap
     c_bands:  2 eigenvalues not converged
     c_bands:  1 eigenvalues not converged
     c_bands:  1 eigenvalues not converged
     c_bands:  1 eigenvalues not converged
     ethr =  3.98E-05,  avg # of iterations = 16.0

     negative rho (up, down):  2.877E-03 0.000E+00
 
     Adding external electric field

     Computed dipole along edir(3) : 
        Dipole                0.4138 Ry au,          1.0517 Debye
        Dipole field          0.0008 Ry au, 
 
        Potential amp.       -0.0724 Ry
        Total length         46.3494 bohr
 

     total cpu time spent up to now is      683.9 secs

     total energy              =   -2942.91197551 Ry
     estimated scf accuracy    <       0.10149842 Ry

     iteration # 42     ecut=    29.40 Ry     beta= 0.05
     Davidson diagonalization with overlap
     c_bands:  2 eigenvalues not converged
     ethr =  2.55E-05,  avg # of iterations =  4.8

     negative rho (up, down):  3.764E-03 0.000E+00
 
     Adding external electric field

     Computed dipole along edir(3) : 
        Dipole                0.2885 Ry au,          0.7333 Debye
        Dipole field          0.0005 Ry au, 
 
        Potential amp.       -0.0505 Ry
        Total length         46.3494 bohr
 

     total cpu time spent up to now is      694.5 secs

     total energy              =   -2942.89986624 Ry
     estimated scf accuracy    <       0.08194506 Ry

     iteration # 43     ecut=    29.40 Ry     beta= 0.05
     Davidson diagonalization with overlap
     c_bands:  1 eigenvalues not converged
     c_bands:  1 eigenvalues not converged
     ethr =  2.06E-05,  avg # of iterations = 13.4

     negative rho (up, down):  3.257E-03 0.000E+00
 
     Adding external electric field

     Computed dipole along edir(3) : 
        Dipole                0.4765 Ry au,          1.2111 Debye
        Dipole field          0.0009 Ry au, 
 
        Potential amp.       -0.0834 Ry
        Total length         46.3494 bohr
 

     total cpu time spent up to now is      706.7 secs

     total energy              =   -2942.90329716 Ry
     estimated scf accuracy    <       0.03905908 Ry

     iteration # 44     ecut=    29.40 Ry     beta= 0.05
     Davidson diagonalization with overlap
     c_bands:  1 eigenvalues not converged
     ethr =  9.81E-06,  avg # of iterations = 11.0

     negative rho (up, down):  3.283E-03 0.000E+00
 
     Adding external electric field

     Computed dipole along edir(3) : 
        Dipole                0.4860 Ry au,          1.2352 Debye
        Dipole field          0.0009 Ry au, 
 
        Potential amp.       -0.0850 Ry
        Total length         46.3494 bohr
 

     total cpu time spent up to now is      717.1 secs

     total energy              =   -2942.90535392 Ry
     estimated scf accuracy    <       0.04066159 Ry

     iteration # 45     ecut=    29.40 Ry     beta= 0.05
     Davidson diagonalization with overlap
     ethr =  9.81E-06,  avg # of iterations =  5.9

     negative rho (up, down):  5.360E-03 0.000E+00
 
     Adding external electric field

     Computed dipole along edir(3) : 
        Dipole                0.4290 Ry au,          1.0904 Debye
        Dipole field          0.0008 Ry au, 
 
        Potential amp.       -0.0750 Ry
        Total length         46.3494 bohr
 

     total cpu time spent up to now is      725.8 secs

     total energy              =   -2942.90486353 Ry
     estimated scf accuracy    <       0.02734002 Ry

     iteration # 46     ecut=    29.40 Ry     beta= 0.05
     Davidson diagonalization with overlap
     ethr =  6.87E-06,  avg # of iterations =  6.3

     negative rho (up, down):  9.356E-03 0.000E+00
 
     Adding external electric field

     Computed dipole along edir(3) : 
        Dipole                0.3864 Ry au,          0.9822 Debye
        Dipole field          0.0007 Ry au, 
 
        Potential amp.       -0.0676 Ry
        Total length         46.3494 bohr
 

     total cpu time spent up to now is      734.7 secs

     total energy              =   -2942.90486272 Ry
     estimated scf accuracy    <       0.01162060 Ry

     iteration # 47     ecut=    29.40 Ry     beta= 0.05
     Davidson diagonalization with overlap
     c_bands:  1 eigenvalues not converged
     ethr =  2.92E-06,  avg # of iterations = 12.3

     negative rho (up, down):  9.399E-03 0.000E+00
 
     Adding external electric field

     Computed dipole along edir(3) : 
        Dipole                0.3755 Ry au,          0.9545 Debye
        Dipole field          0.0007 Ry au, 
 
        Potential amp.       -0.0657 Ry
        Total length         46.3494 bohr
 

     total cpu time spent up to now is      748.8 secs

     total energy              =   -2942.90797650 Ry
     estimated scf accuracy    <       0.01563974 Ry

     iteration # 48     ecut=    29.40 Ry     beta= 0.05
     Davidson diagonalization with overlap
     ethr =  2.92E-06,  avg # of iterations =  1.8

     negative rho (up, down):  9.978E-03 0.000E+00
 
     Adding external electric field

     Computed dipole along edir(3) : 
        Dipole                0.4083 Ry au,          1.0377 Debye
        Dipole field          0.0008 Ry au, 
 
        Potential amp.       -0.0714 Ry
        Total length         46.3494 bohr
 

     total cpu time spent up to now is      757.8 secs

     total energy              =   -2942.90695891 Ry
     estimated scf accuracy    <       0.01927560 Ry

     iteration # 49     ecut=    29.40 Ry     beta= 0.05
     Davidson diagonalization with overlap
     ethr =  2.92E-06,  avg # of iterations =  1.5

     negative rho (up, down):  9.837E-03 0.000E+00
 
     Adding external electric field

     Computed dipole along edir(3) : 
        Dipole                0.4205 Ry au,          1.0689 Debye
        Dipole field          0.0008 Ry au, 
 
        Potential amp.       -0.0736 Ry
        Total length         46.3494 bohr
 

     total cpu time spent up to now is      766.9 secs

     total energy              =   -2942.90594449 Ry
     estimated scf accuracy    <       0.00851917 Ry

     iteration # 50     ecut=    29.40 Ry     beta= 0.05
     Davidson diagonalization with overlap
     ethr =  2.14E-06,  avg # of iterations =  6.5

     negative rho (up, down):  1.025E-02 0.000E+00
 
     Adding external electric field

     Computed dipole along edir(3) : 
        Dipole                0.4199 Ry au,          1.0674 Debye
        Dipole field          0.0008 Ry au, 
 
        Potential amp.       -0.0735 Ry
        Total length         46.3494 bohr
 

     total cpu time spent up to now is      776.1 secs

     total energy              =   -2942.90631383 Ry
     estimated scf accuracy    <       0.00353844 Ry

     iteration # 51     ecut=    29.40 Ry     beta= 0.05
     Davidson diagonalization with overlap
     ethr =  8.89E-07,  avg # of iterations =  3.6

     negative rho (up, down):  9.907E-03 0.000E+00
 
     Adding external electric field

     Computed dipole along edir(3) : 
        Dipole                0.4620 Ry au,          1.1744 Debye
        Dipole field          0.0009 Ry au, 
 
        Potential amp.       -0.0808 Ry
        Total length         46.3494 bohr
 

     total cpu time spent up to now is      784.9 secs

     total energy              =   -2942.90634234 Ry
     estimated scf accuracy    <       0.00197027 Ry

     iteration # 52     ecut=    29.40 Ry     beta= 0.05
     Davidson diagonalization with overlap
     ethr =  4.95E-07,  avg # of iterations =  6.0

     negative rho (up, down):  1.056E-02 0.000E+00
 
     Adding external electric field

     Computed dipole along edir(3) : 
        Dipole                0.4813 Ry au,          1.2234 Debye
        Dipole field          0.0009 Ry au, 
 
        Potential amp.       -0.0842 Ry
        Total length         46.3494 bohr
 

     total cpu time spent up to now is      795.8 secs

     total energy              =   -2942.90666825 Ry
     estimated scf accuracy    <       0.00205847 Ry

     iteration # 53     ecut=    29.40 Ry     beta= 0.05
     Davidson diagonalization with overlap
     ethr =  4.95E-07,  avg # of iterations =  2.2

     negative rho (up, down):  1.100E-02 0.000E+00
 
     Adding external electric field

     Computed dipole along edir(3) : 
        Dipole                0.4452 Ry au,          1.1317 Debye
        Dipole field          0.0008 Ry au, 
 
        Potential amp.       -0.0779 Ry
        Total length         46.3494 bohr
 

     total cpu time spent up to now is      810.5 secs

     total energy              =   -2942.90641698 Ry
     estimated scf accuracy    <       0.00266666 Ry

     iteration # 54     ecut=    29.40 Ry     beta= 0.05
     Davidson diagonalization with overlap
     ethr =  4.95E-07,  avg # of iterations =  4.7

     negative rho (up, down):  1.090E-02 0.000E+00
 
     Adding external electric field

     Computed dipole along edir(3) : 
        Dipole                0.4459 Ry au,          1.1335 Debye
        Dipole field          0.0008 Ry au, 
 
        Potential amp.       -0.0780 Ry
        Total length         46.3494 bohr
 

     total cpu time spent up to now is      821.8 secs

     total energy              =   -2942.90659676 Ry
     estimated scf accuracy    <       0.00042981 Ry

     iteration # 55     ecut=    29.40 Ry     beta= 0.05
     Davidson diagonalization with overlap
     ethr =  1.08E-07,  avg # of iterations =  5.0

     negative rho (up, down):  1.081E-02 0.000E+00
 
     Adding external electric field

     Computed dipole along edir(3) : 
        Dipole                0.4460 Ry au,          1.1336 Debye
        Dipole field          0.0008 Ry au, 
 
        Potential amp.       -0.0780 Ry
        Total length         46.3494 bohr
 

     total cpu time spent up to now is      831.2 secs

     total energy              =   -2942.90663820 Ry
     estimated scf accuracy    <       0.00037944 Ry

     iteration # 56     ecut=    29.40 Ry     beta= 0.05
     Davidson diagonalization with overlap
     ethr =  9.53E-08,  avg # of iterations =  1.0

     negative rho (up, down):  1.146E-02 0.000E+00
 
     Adding external electric field

     Computed dipole along edir(3) : 
        Dipole                0.4478 Ry au,          1.1381 Debye
        Dipole field          0.0008 Ry au, 
 
        Potential amp.       -0.0783 Ry
        Total length         46.3494 bohr
 

     total cpu time spent up to now is      838.2 secs

     total energy              =   -2942.90668512 Ry
     estimated scf accuracy    <       0.00039356 Ry

     iteration # 57     ecut=    29.40 Ry     beta= 0.05
     Davidson diagonalization with overlap
     ethr =  9.53E-08,  avg # of iterations =  5.3

     negative rho (up, down):  1.174E-02 0.000E+00
 
     Adding external electric field

     Computed dipole along edir(3) : 
        Dipole                0.4458 Ry au,          1.1330 Debye
        Dipole field          0.0008 Ry au, 
 
        Potential amp.       -0.0780 Ry
        Total length         46.3494 bohr
 

     total cpu time spent up to now is      858.8 secs

     total energy              =   -2942.90676063 Ry
     estimated scf accuracy    <       0.00036162 Ry

     iteration # 58     ecut=    29.40 Ry     beta= 0.05
     Davidson diagonalization with overlap
     ethr =  9.09E-08,  avg # of iterations =  1.0

     negative rho (up, down):  1.125E-02 0.000E+00
 
     Adding external electric field

     Computed dipole along edir(3) : 
        Dipole                0.4499 Ry au,          1.1436 Debye
        Dipole field          0.0008 Ry au, 
 
        Potential amp.       -0.0787 Ry
        Total length         46.3494 bohr
 

     total cpu time spent up to now is      875.8 secs

     total energy              =   -2942.90676570 Ry
     estimated scf accuracy    <       0.00043617 Ry

     iteration # 59     ecut=    29.40 Ry     beta= 0.05
     Davidson diagonalization with overlap
     ethr =  9.09E-08,  avg # of iterations =  2.6

     negative rho (up, down):  1.124E-02 0.000E+00
 
     Adding external electric field

     Computed dipole along edir(3) : 
        Dipole                0.4500 Ry au,          1.1437 Debye
        Dipole field          0.0008 Ry au, 
 
        Potential amp.       -0.0787 Ry
        Total length         46.3494 bohr
 

     total cpu time spent up to now is      886.9 secs

     total energy              =   -2942.90680077 Ry
     estimated scf accuracy    <       0.00062011 Ry

     iteration # 60     ecut=    29.40 Ry     beta= 0.05
     Davidson diagonalization with overlap
     ethr =  9.09E-08,  avg # of iterations =  2.0

     negative rho (up, down):  1.122E-02 0.000E+00
 
     Adding external electric field

     Computed dipole along edir(3) : 
        Dipole                0.4482 Ry au,          1.1392 Debye
        Dipole field          0.0008 Ry au, 
 
        Potential amp.       -0.0784 Ry
        Total length         46.3494 bohr
 

     total cpu time spent up to now is      903.9 secs

     total energy              =   -2942.90675930 Ry
     estimated scf accuracy    <       0.00067564 Ry

     iteration # 61     ecut=    29.40 Ry     beta= 0.05
     Davidson diagonalization with overlap
     ethr =  9.09E-08,  avg # of iterations =  1.0

     negative rho (up, down):  1.096E-02 0.000E+00
 
     Adding external electric field

     Computed dipole along edir(3) : 
        Dipole                0.4450 Ry au,          1.1311 Debye
        Dipole field          0.0008 Ry au, 
 
        Potential amp.       -0.0779 Ry
        Total length         46.3494 bohr
 

     total cpu time spent up to now is      910.9 secs

     total energy              =   -2942.90660433 Ry
     estimated scf accuracy    <       0.00055285 Ry

     iteration # 62     ecut=    29.40 Ry     beta= 0.05
     Davidson diagonalization with overlap
     ethr =  9.09E-08,  avg # of iterations =  5.1

     negative rho (up, down):  1.089E-02 0.000E+00
 
     Adding external electric field

     Computed dipole along edir(3) : 
        Dipole                0.4492 Ry au,          1.1418 Debye
        Dipole field          0.0008 Ry au, 
 
        Potential amp.       -0.0786 Ry
        Total length         46.3494 bohr
 

     total cpu time spent up to now is      921.5 secs

     total energy              =   -2942.90669045 Ry
     estimated scf accuracy    <       0.00010832 Ry

     iteration # 63     ecut=    29.40 Ry     beta= 0.05
     Davidson diagonalization with overlap
     ethr =  2.72E-08,  avg # of iterations =  4.2

     negative rho (up, down):  1.122E-02 0.000E+00
 
     Adding external electric field

     Computed dipole along edir(3) : 
        Dipole                0.4517 Ry au,          1.1481 Debye
        Dipole field          0.0009 Ry au, 
 
        Potential amp.       -0.0790 Ry
        Total length         46.3494 bohr
 

     total cpu time spent up to now is      929.9 secs

     total energy              =   -2942.90670408 Ry
     estimated scf accuracy    <       0.00007080 Ry

     iteration # 64     ecut=    29.40 Ry     beta= 0.05
     Davidson diagonalization with overlap
     ethr =  1.78E-08,  avg # of iterations =  4.7

     negative rho (up, down):  1.114E-02 0.000E+00
 
     Adding external electric field

     Computed dipole along edir(3) : 
        Dipole                0.4528 Ry au,          1.1510 Debye
        Dipole field          0.0009 Ry au, 
 
        Potential amp.       -0.0792 Ry
        Total length         46.3494 bohr
 

     total cpu time spent up to now is      939.2 secs

     total energy              =   -2942.90671257 Ry
     estimated scf accuracy    <       0.00002803 Ry

     iteration # 65     ecut=    29.40 Ry     beta= 0.05
     Davidson diagonalization with overlap
     ethr =  7.04E-09,  avg # of iterations =  5.0

     negative rho (up, down):  1.109E-02 0.000E+00
 
     Adding external electric field

     Computed dipole along edir(3) : 
        Dipole                0.4534 Ry au,          1.1525 Debye
        Dipole field          0.0009 Ry au, 
 
        Potential amp.       -0.0793 Ry
        Total length         46.3494 bohr
 

     total cpu time spent up to now is      949.4 secs

     total energy              =   -2942.90671906 Ry
     estimated scf accuracy    <       0.00001943 Ry

     iteration # 66     ecut=    29.40 Ry     beta= 0.05
     Davidson diagonalization with overlap
     ethr =  4.88E-09,  avg # of iterations =  4.2

     negative rho (up, down):  1.109E-02 0.000E+00
 
     Adding external electric field

     Computed dipole along edir(3) : 
        Dipole                0.4531 Ry au,          1.1517 Debye
        Dipole field          0.0009 Ry au, 
 
        Potential amp.       -0.0793 Ry
        Total length         46.3494 bohr
 

     total cpu time spent up to now is      957.9 secs

     total energy              =   -2942.90672298 Ry
     estimated scf accuracy    <       0.00001339 Ry

     iteration # 67     ecut=    29.40 Ry     beta= 0.05
     Davidson diagonalization with overlap
     ethr =  3.36E-09,  avg # of iterations =  5.4

     negative rho (up, down):  1.103E-02 0.000E+00
 
     Adding external electric field

     Computed dipole along edir(3) : 
        Dipole                0.4555 Ry au,          1.1577 Debye
        Dipole field          0.0009 Ry au, 
 
        Potential amp.       -0.0797 Ry
        Total length         46.3494 bohr
 

     total cpu time spent up to now is      972.3 secs

     total energy              =   -2942.90672945 Ry
     estimated scf accuracy    <       0.00000943 Ry

     iteration # 68     ecut=    29.40 Ry     beta= 0.05
     Davidson diagonalization with overlap
     ethr =  2.37E-09,  avg # of iterations =  4.9

     negative rho (up, down):  1.103E-02 0.000E+00
 
     Adding external electric field

     Computed dipole along edir(3) : 
        Dipole                0.4555 Ry au,          1.1577 Debye
        Dipole field          0.0009 Ry au, 
 
        Potential amp.       -0.0797 Ry
        Total length         46.3494 bohr
 

     total cpu time spent up to now is      984.9 secs

     total energy              =   -2942.90673333 Ry
     estimated scf accuracy    <       0.00000900 Ry

     iteration # 69     ecut=    29.40 Ry     beta= 0.05
     Davidson diagonalization with overlap
     ethr =  2.26E-09,  avg # of iterations =  5.3

     negative rho (up, down):  1.101E-02 0.000E+00
 
     Adding external electric field

     Computed dipole along edir(3) : 
        Dipole                0.4546 Ry au,          1.1554 Debye
        Dipole field          0.0009 Ry au, 
 
        Potential amp.       -0.0795 Ry
        Total length         46.3494 bohr
 

     total cpu time spent up to now is     1001.4 secs

     total energy              =   -2942.90673566 Ry
     estimated scf accuracy    <       0.00000485 Ry

     iteration # 70     ecut=    29.40 Ry     beta= 0.05
     Davidson diagonalization with overlap
     ethr =  1.22E-09,  avg # of iterations =  5.0

     negative rho (up, down):  1.101E-02 0.000E+00
 
     Adding external electric field

     Computed dipole along edir(3) : 
        Dipole                0.4549 Ry au,          1.1563 Debye
        Dipole field          0.0009 Ry au, 
 
        Potential amp.       -0.0796 Ry
        Total length         46.3494 bohr
 

     total cpu time spent up to now is     1012.0 secs

     total energy              =   -2942.90673933 Ry
     estimated scf accuracy    <       0.00000291 Ry

     iteration # 71     ecut=    29.40 Ry     beta= 0.05
     Davidson diagonalization with overlap
     ethr =  7.31E-10,  avg # of iterations =  5.0

     negative rho (up, down):  1.099E-02 0.000E+00
 
     Adding external electric field

     Computed dipole along edir(3) : 
        Dipole                0.4547 Ry au,          1.1556 Debye
        Dipole field          0.0009 Ry au, 
 
        Potential amp.       -0.0795 Ry
        Total length         46.3494 bohr
 

     total cpu time spent up to now is     1025.9 secs

     total energy              =   -2942.90674230 Ry
     estimated scf accuracy    <       0.00000155 Ry

     iteration # 72     ecut=    29.40 Ry     beta= 0.05
     Davidson diagonalization with overlap
     ethr =  3.88E-10,  avg # of iterations =  5.2

     negative rho (up, down):  1.093E-02 0.000E+00
 
     Adding external electric field

     Computed dipole along edir(3) : 
        Dipole                0.4540 Ry au,          1.1540 Debye
        Dipole field          0.0009 Ry au, 
 
        Potential amp.       -0.0794 Ry
        Total length         46.3494 bohr
 

     total cpu time spent up to now is     1037.8 secs

     total energy              =   -2942.90674484 Ry
     estimated scf accuracy    <       0.00000125 Ry

     iteration # 73     ecut=    29.40 Ry     beta= 0.05
     Davidson diagonalization with overlap
     ethr =  3.15E-10,  avg # of iterations =  5.0

     negative rho (up, down):  1.092E-02 0.000E+00
 
     Adding external electric field

     Computed dipole along edir(3) : 
        Dipole                0.4543 Ry au,          1.1546 Debye
        Dipole field          0.0009 Ry au, 
 
        Potential amp.       -0.0795 Ry
        Total length         46.3494 bohr
 

     total cpu time spent up to now is     1047.9 secs

     total energy              =   -2942.90674716 Ry
     estimated scf accuracy    <       0.00000045 Ry

     iteration # 74     ecut=    29.40 Ry     beta= 0.05
     Davidson diagonalization with overlap
     ethr =  1.12E-10,  avg # of iterations =  5.5

     negative rho (up, down):  1.092E-02 0.000E+00
 
     Adding external electric field

     Computed dipole along edir(3) : 
        Dipole                0.4543 Ry au,          1.1548 Debye
        Dipole field          0.0009 Ry au, 
 
        Potential amp.       -0.0795 Ry
        Total length         46.3494 bohr
 

     total cpu time spent up to now is     1073.8 secs

     total energy              =   -2942.90674922 Ry
     estimated scf accuracy    <       0.00000037 Ry

     iteration # 75     ecut=    29.40 Ry     beta= 0.05
     Davidson diagonalization with overlap
     ethr =  9.28E-11,  avg # of iterations =  1.0

     negative rho (up, down):  1.092E-02 0.000E+00
 
     Adding external electric field

     Computed dipole along edir(3) : 
        Dipole                0.4543 Ry au,          1.1548 Debye
        Dipole field          0.0009 Ry au, 
 
        Potential amp.       -0.0795 Ry
        Total length         46.3494 bohr
 

     total cpu time spent up to now is     1083.5 secs

     total energy              =   -2942.90675099 Ry
     estimated scf accuracy    <       0.00000027 Ry

     iteration # 76     ecut=    29.40 Ry     beta= 0.05
     Davidson diagonalization with overlap
     ethr =  6.89E-11,  avg # of iterations =  6.0

     negative rho (up, down):  1.091E-02 0.000E+00
 
     Adding external electric field

     Computed dipole along edir(3) : 
        Dipole                0.4541 Ry au,          1.1543 Debye
        Dipole field          0.0009 Ry au, 
 
        Potential amp.       -0.0794 Ry
        Total length         46.3494 bohr
 

     total cpu time spent up to now is     1093.3 secs

     total energy              =   -2942.90675265 Ry
     estimated scf accuracy    <       0.00000011 Ry

     iteration # 77     ecut=    29.40 Ry     beta= 0.05
     Davidson diagonalization with overlap
     ethr =  2.81E-11,  avg # of iterations =  4.9

     negative rho (up, down):  1.091E-02 0.000E+00
 
     Adding external electric field

     Computed dipole along edir(3) : 
        Dipole                0.4541 Ry au,          1.1541 Debye
        Dipole field          0.0009 Ry au, 
 
        Potential amp.       -0.0794 Ry
        Total length         46.3494 bohr
 

     total cpu time spent up to now is     1102.5 secs

     total energy              =   -2942.90675413 Ry
     estimated scf accuracy    <       0.00000008 Ry

     iteration # 78     ecut=    29.40 Ry     beta= 0.05
     Davidson diagonalization with overlap
     ethr =  1.93E-11,  avg # of iterations =  3.4

     negative rho (up, down):  1.096E-02 0.000E+00
 
     Adding external electric field

     Computed dipole along edir(3) : 
        Dipole                0.4540 Ry au,          1.1539 Debye
        Dipole field          0.0009 Ry au, 
 
        Potential amp.       -0.0794 Ry
        Total length         46.3494 bohr
 

     total cpu time spent up to now is     1121.7 secs

     End of self-consistent calculation

          k = 0.0000 0.0000 0.0000 ( 18029 PWs)   bands (ev):

   -56.6126 -56.5790 -55.7322 -55.7238 -55.6968 -55.6915 -55.5868 -55.5510
   -55.3702 -55.3349 -55.2775 -55.2715 -55.2436 -55.1693 -54.7325 -54.6187
   -33.0405 -32.8873 -32.8591 -32.7888 -32.6978 -32.6665 -32.2069 -32.1960
   -32.1297 -32.0186 -31.9737 -31.9454 -31.9316 -31.9066 -31.8740 -31.8715
   -31.8676 -31.8607 -31.8377 -31.8348 -31.8228 -31.7950 -31.7697 -31.7561
   -31.7429 -31.7230 -31.7152 -31.6920 -31.6699 -31.6159 -31.6017 -31.5918
   -31.5136 -31.5090 -31.4885 -31.4468 -31.4369 -31.4050 -31.3982 -31.3738
   -31.3526 -31.2941 -31.2339 -30.9735 -30.9610 -30.8785 -30.8387 -30.7476
   -16.7767 -16.3426 -16.1129 -15.9752 -15.9077 -15.8533 -15.8079 -15.6875
   -15.6142 -15.6076 -15.5671 -15.5371 -15.4665 -15.3255 -15.2273 -15.1742
   -15.1299 -15.0088 -14.9484 -14.9161 -14.9116 -14.8772 -14.8576 -14.6613
   -14.6368 -14.5342 -14.5248 -14.3987 -14.1768 -13.7762 -13.7234 -13.6662
   -12.8022  -7.4955  -4.3424  -3.8378  -3.8015  -3.7718  -3.6005  -3.5133
    -3.4059  -3.3928  -3.3122  -3.1935  -3.1476  -3.0998  -2.9842  -2.9839
    -2.8345  -2.8007  -2.7884  -2.7847  -2.7418  -2.6827  -2.6661  -2.6221
    -2.6186  -2.6062  -2.4583  -2.3560  -2.2895  -2.2673  -2.2571  -2.2212
    -2.1434  -2.1234  -2.1080  -2.1043  -2.0044  -1.8552  -1.8545  -1.8228
    -1.7794  -1.7773  -1.7403  -1.7253  -1.5893  -1.5159  -1.4128  -1.3957
    -1.3568  -1.2927  -1.2863  -1.1880  -1.1141  -1.0513  -1.0259  -0.9168
    -0.8742  -0.8521  -0.7628  -0.7004  -0.6607  -0.6434  -0.6263  -0.5231
    -0.5022  -0.4916  -0.4068  -0.3950  -0.3376  -0.2564  -0.2365  -0.2306
    -0.1423  -0.1373  -0.0454  -0.0030   0.0384   0.0836   0.1793   0.1976
     0.3006   0.3362   0.3573   0.4773   0.4901   0.5530   0.6203   0.6881
     0.7192   0.7438   0.7732   0.7949   0.8679   0.9830   0.9880   1.0894
     1.1289   1.2968   1.3358   1.3788   1.6235   1.6493   2.3209   2.6620
     2.8220   3.1205   3.3111   3.4221   3.6373   3.6525   3.6578   3.8346
     3.8811

          k = 0.0000 0.0419 0.0000 ( 17933 PWs)   bands (ev):

   -56.6077 -56.5839 -55.7271 -55.7189 -55.7018 -55.6960 -55.5816 -55.5561
   -55.3651 -55.3398 -55.2724 -55.2699 -55.2484 -55.1707 -54.7311 -54.6200
   -32.9871 -32.8830 -32.8629 -32.7755 -32.7225 -32.7111 -32.1539 -32.1432
   -32.0742 -32.0042 -31.9677 -31.9345 -31.9338 -31.9276 -31.8926 -31.8784
   -31.8729 -31.8716 -31.8668 -31.8553 -31.7919 -31.7906 -31.7826 -31.7728
   -31.7549 -31.7080 -31.6998 -31.6906 -31.6172 -31.6122 -31.5951 -31.5882
   -31.5226 -31.5092 -31.4956 -31.4763 -31.4447 -31.4171 -31.4113 -31.3997
   -31.3743 -31.3509 -31.1866 -30.9727 -30.9600 -30.8996 -30.8393 -30.7782
   -16.6554 -16.2203 -16.0287 -16.0094 -15.9155 -15.8321 -15.7910 -15.6270
   -15.6269 -15.5789 -15.5524 -15.4707 -15.4471 -15.3566 -15.2700 -15.2619
   -15.1742 -15.0107 -15.0032 -14.9809 -14.9505 -14.8547 -14.7969 -14.7107
   -14.6332 -14.5817 -14.5389 -14.4209 -14.2453 -13.7834 -13.7230 -13.7073
   -12.8112  -7.4910  -4.1606  -3.8008  -3.7795  -3.6596  -3.4383  -3.3610
    -3.3183  -3.2580  -3.1882  -3.1383  -3.1256  -3.1130  -2.9518  -2.8913
    -2.7960  -2.7896  -2.7758  -2.7663  -2.7565  -2.7172  -2.6655  -2.6224
    -2.6081  -2.5605  -2.5177  -2.4913  -2.4628  -2.4234  -2.3585  -2.3301
    -2.2665  -2.2424  -2.1755  -2.0500  -2.0409  -2.0287  -1.8453  -1.8215
    -1.8131  -1.7674  -1.6991  -1.6135  -1.4657  -1.4220  -1.4106  -1.3661
    -1.3627  -1.1907  -1.1746  -1.1455  -1.0685  -1.0417  -1.0304  -0.9598
    -0.8935  -0.8817  -0.8428  -0.7311  -0.6564  -0.5950  -0.5287  -0.4489
    -0.4423  -0.4005  -0.3841  -0.3206  -0.3092  -0.2689  -0.2561  -0.2459
    -0.1687  -0.1254  -0.0833  -0.0530  -0.0372   0.0871   0.1132   0.2099
     0.2349   0.2443   0.2950   0.3546   0.3740   0.3943   0.4149   0.4214
     0.5987   0.6261   0.7081   0.7987   0.9225   0.9758   1.0370   1.0598
     1.0837   1.2424   1.2479   1.3761   1.5040   1.6211   2.1936   2.9288
     2.9343   3.1289   3.4711   3.4991   3.5298   3.6113   3.6290   3.7788
     3.8231

          k = 0.0000-0.0839 0.0000 ( 17884 PWs)   bands (ev):

   -56.5959 -56.5956 -55.7168 -55.7125 -55.7075 -55.7069 -55.5715 -55.5661
   -55.3552 -55.3496 -55.2683 -55.2604 -55.2603 -55.1722 -54.7296 -54.6213
   -32.8730 -32.8728 -32.8562 -32.8560 -32.7434 -32.7431 -32.0265 -32.0234
   -32.0158 -32.0105 -31.9684 -31.9677 -31.9642 -31.9631 -31.9208 -31.9172
   -31.9052 -31.9000 -31.8676 -31.8662 -31.8235 -31.8191 -31.7732 -31.7680
   -31.7064 -31.6990 -31.6371 -31.6301 -31.6056 -31.6035 -31.6034 -31.5562
   -31.5545 -31.5226 -31.4871 -31.4862 -31.4860 -31.4469 -31.4469 -31.4420
   -31.4091 -31.3758 -31.1129 -30.9933 -30.9591 -30.9287 -30.8398 -30.8062
   -16.3543 -16.3536 -15.9429 -15.9387 -15.7885 -15.7879 -15.7713 -15.7712
   -15.6507 -15.6441 -15.4565 -15.4514 -15.3453 -15.3394 -15.2307 -15.2293
   -15.2222 -15.2193 -15.1434 -15.1291 -14.8341 -14.8294 -14.7192 -14.7169
   -14.6684 -14.6627 -14.4986 -14.4941 -14.3313 -13.7700 -13.7699 -13.7227
   -12.8201  -7.4864  -3.8001  -3.7872  -3.7065  -3.7063  -3.2443  -3.2350
    -3.2169  -3.2165  -3.1171  -3.1153  -3.0690  -3.0631  -2.8983  -2.8759
    -2.8084  -2.7766  -2.7694  -2.7513  -2.7468  -2.7234  -2.7187  -2.7114
    -2.6733  -2.6406  -2.5393  -2.5346  -2.4650  -2.4297  -2.3085  -2.2433
    -2.2300  -2.1776  -2.1403  -2.1303  -1.9397  -1.9202  -1.9132  -1.9074
    -1.8373  -1.8309  -1.8187  -1.7260  -1.7071  -1.5775  -1.5686  -1.3088
    -1.3019  -1.1264  -1.1114  -1.0938  -1.0533  -1.0197  -0.9790  -0.9068
    -0.8814  -0.7568  -0.7508  -0.7475  -0.7077  -0.6071  -0.5669  -0.5114
    -0.5075  -0.4276  -0.4164  -0.4023  -0.3763  -0.3066  -0.1887  -0.1777
    -0.1556  -0.1085  -0.0921   0.0111   0.0413   0.0556   0.0914   0.1265
     0.1533   0.1631   0.2210   0.2972   0.2992   0.3220   0.3688   0.3735
     0.3915   0.4840   0.5992   0.6873   0.9671   0.9954   1.1086   1.1091
     1.1298   1.2113   1.2212   1.2477   1.3737   1.6011   2.0623   3.1714
     3.1718   3.3072   3.3074   3.3682   3.3685   3.7353   3.7530   3.8612
     3.8734

          k = 0.0380 0.0000 0.0000 ( 17913 PWs)   bands (ev):

   -56.6125 -56.5789 -55.7313 -55.7244 -55.6966 -55.6914 -55.5867 -55.5509
   -55.3700 -55.3348 -55.2774 -55.2714 -55.2435 -55.1692 -54.7324 -54.6186
   -33.0412 -32.8871 -32.8590 -32.7868 -32.6975 -32.6663 -32.2109 -32.1964
   -32.1298 -31.9992 -31.9732 -31.9455 -31.9314 -31.8996 -31.8940 -31.8726
   -31.8675 -31.8606 -31.8356 -31.8353 -31.8243 -31.7888 -31.7856 -31.7668
   -31.7227 -31.7151 -31.7140 -31.6919 -31.6695 -31.6184 -31.5990 -31.5900
   -31.5202 -31.5090 -31.4883 -31.4466 -31.4366 -31.4049 -31.3986 -31.3736
   -31.3523 -31.2939 -31.2333 -30.9733 -30.9620 -30.8784 -30.8386 -30.7475
   -16.6729 -16.2659 -16.1328 -16.0787 -15.9574 -15.8043 -15.7118 -15.6912
   -15.6158 -15.5998 -15.5446 -15.5244 -15.4877 -15.4674 -15.1727 -15.1671
   -15.1290 -15.0549 -15.0484 -15.0276 -14.9473 -14.7524 -14.7473 -14.7432
   -14.6405 -14.5730 -14.5031 -14.3983 -14.1749 -13.7735 -13.7233 -13.6659
   -12.8007  -7.4938  -4.0587  -3.8019  -3.7715  -3.6765  -3.5437  -3.5116
    -3.4218  -3.3463  -3.1823  -3.1672  -3.1348  -3.1034  -2.9497  -2.9355
    -2.9155  -2.8210  -2.8130  -2.7724  -2.7497  -2.7029  -2.6452  -2.6232
    -2.5431  -2.4959  -2.4269  -2.3331  -2.2702  -2.2574  -2.2448  -2.2368
    -2.1300  -2.0929  -2.0393  -1.9186  -1.9029  -1.8709  -1.8099  -1.7817
    -1.7710  -1.7620  -1.6971  -1.6783  -1.6663  -1.5322  -1.4731  -1.4261
    -1.3681  -1.3103  -1.2651  -1.1813  -1.1089  -1.0894  -1.0456  -1.0107
    -0.9630  -0.9347  -0.9070  -0.8395  -0.7597  -0.6715  -0.6059  -0.5934
    -0.5455  -0.4955  -0.4365  -0.4044  -0.3958  -0.3567  -0.2970  -0.1430
    -0.1071  -0.0667  -0.0431  -0.0126   0.0235   0.1274   0.1767   0.1890
     0.1955   0.2163   0.2926   0.3928   0.4273   0.4606   0.5540   0.5952
     0.6448   0.7550   0.7592   0.7726   0.8575   0.8957   0.9301   0.9563
     1.0082   1.1928   1.2470   1.3689   1.4963   1.6561   2.1755   2.8056
     2.8388   3.1197   3.2805   3.3905   3.6410   3.6672   3.7322   3.7325
     3.9013

          k = 0.0380 0.0419 0.0000 ( 17878 PWs)   bands (ev):

   -56.6076 -56.5839 -55.7264 -55.7195 -55.7016 -55.6962 -55.5815 -55.5560
   -55.3650 -55.3398 -55.2724 -55.2699 -55.2484 -55.1707 -54.7310 -54.6199
   -32.9877 -32.8828 -32.8630 -32.7739 -32.7225 -32.7108 -32.1581 -32.1439
   -32.0743 -31.9871 -31.9672 -31.9345 -31.9338 -31.9157 -31.9016 -31.8848
   -31.8739 -31.8733 -31.8724 -31.8550 -31.7919 -31.7884 -31.7796 -31.7738
   -31.7680 -31.7080 -31.6907 -31.6843 -31.6169 -31.6141 -31.5941 -31.5860
   -31.5223 -31.5147 -31.4957 -31.4761 -31.4445 -31.4172 -31.4114 -31.4004
   -31.3743 -31.3507 -31.1862 -30.9727 -30.9608 -30.8994 -30.8396 -30.7782
   -16.5577 -16.1481 -16.1152 -15.9997 -15.8863 -15.8831 -15.7276 -15.7002
   -15.6270 -15.5156 -15.4910 -15.4711 -15.4469 -15.4457 -15.3269 -15.1721
   -15.1221 -15.0966 -15.0864 -15.0194 -14.8886 -14.8670 -14.8289 -14.7841
   -14.6228 -14.6064 -14.5153 -14.4213 -14.2440 -13.7814 -13.7229 -13.7075
   -12.8101  -7.4899  -3.8811  -3.8012  -3.7793  -3.5037  -3.3990  -3.3447
    -3.2719  -3.2438  -3.0470  -3.0377  -3.0062  -2.9706  -2.9349  -2.9178
    -2.8448  -2.8065  -2.7652  -2.7573  -2.6975  -2.6694  -2.6639  -2.6165
    -2.5833  -2.5570  -2.5073  -2.4889  -2.4318  -2.3464  -2.3154  -2.2722
    -2.1917  -2.1617  -2.1352  -2.0800  -2.0035  -1.9921  -1.8961  -1.8446
    -1.8175  -1.6899  -1.6424  -1.5597  -1.5233  -1.5041  -1.4557  -1.4150
    -1.3241  -1.2900  -1.2256  -1.1974  -1.1241  -1.0885  -1.0594  -1.0533
    -0.9204  -0.9026  -0.8208  -0.7847  -0.7685  -0.6906  -0.6607  -0.5757
    -0.5397  -0.5107  -0.4777  -0.4467  -0.4160  -0.3688  -0.3471  -0.3063
    -0.2190  -0.1559  -0.1411  -0.1052  -0.0500   0.0610   0.0782   0.1220
     0.1682   0.2156   0.2376   0.3110   0.3606   0.3784   0.4063   0.4440
     0.5679   0.6653   0.7242   0.8622   0.8846   0.9371   0.9865   1.0238
     1.1109   1.1667   1.2253   1.3681   1.4303   1.6405   2.1612   2.9214
     3.0801   3.1717   3.3283   3.5133   3.5967   3.6509   3.7331   3.7905
     3.9105

          k = 0.0380-0.0839 0.0000 ( 17916 PWs)   bands (ev):

   -56.5959 -56.5956 -55.7165 -55.7119 -55.7080 -55.7074 -55.5715 -55.5661
   -55.3552 -55.3496 -55.2684 -55.2605 -55.2604 -55.1723 -54.7297 -54.6214
   -32.8731 -32.8728 -32.8568 -32.8566 -32.7427 -32.7424 -32.0323 -32.0295
   -32.0183 -32.0124 -31.9643 -31.9632 -31.9488 -31.9482 -31.9209 -31.9172
   -31.9054 -31.9001 -31.8794 -31.8780 -31.8236 -31.8191 -31.7727 -31.7681
   -31.7065 -31.6992 -31.6377 -31.6309 -31.6042 -31.6041 -31.6018 -31.5553
   -31.5534 -31.5233 -31.4881 -31.4861 -31.4860 -31.4469 -31.4469 -31.4420
   -31.4121 -31.3758 -31.1129 -30.9932 -30.9599 -30.9287 -30.8405 -30.8062
   -16.2849 -16.2839 -15.9316 -15.9283 -15.8645 -15.8624 -15.7561 -15.7555
   -15.6235 -15.6174 -15.4376 -15.4314 -15.3319 -15.3267 -15.2257 -15.2167
   -15.1937 -15.1854 -15.1649 -15.1591 -14.9121 -14.9077 -14.8143 -14.8073
   -14.6383 -14.6318 -14.4914 -14.4856 -14.3289 -13.7698 -13.7698 -13.7227
   -12.8194  -7.4860  -3.8007  -3.7871  -3.4953  -3.4940  -3.1420  -3.1394
    -3.1274  -3.1265  -3.0810  -3.0773  -2.9932  -2.9849  -2.7939  -2.7892
    -2.7713  -2.7322  -2.7250  -2.6910  -2.6833  -2.6724  -2.6632  -2.6546
    -2.5997  -2.5551  -2.5002  -2.4421  -2.4045  -2.3985  -2.2793  -2.1896
    -2.1879  -2.1475  -2.1294  -2.0923  -2.0584  -2.0508  -1.9408  -1.9354
    -1.8734  -1.8420  -1.8205  -1.6774  -1.6659  -1.5828  -1.5730  -1.3861
    -1.3820  -1.3280  -1.3186  -1.1796  -1.1510  -1.1170  -1.0913  -0.9994
    -0.9884  -0.8926  -0.8851  -0.8100  -0.7953  -0.6909  -0.6722  -0.6258
    -0.6206  -0.5995  -0.5440  -0.4807  -0.4092  -0.3476  -0.2676  -0.2275
    -0.2098  -0.1653  -0.1438  -0.1188  -0.0994  -0.0378  -0.0237   0.0178
     0.0471   0.1043   0.1558   0.2237   0.2340   0.3748   0.4692   0.4739
     0.5040   0.6499   0.7391   0.7962   0.9726   0.9958   1.1173   1.1183
     1.1525   1.1728   1.2124   1.2238   1.3688   1.6252   2.1319   3.1751
     3.1765   3.3379   3.3397   3.5370   3.5376   3.7068   3.7223   3.8589
     3.8699

          k = 0.0380-0.0419 0.0000 ( 17876 PWs)   bands (ev):

   -56.6076 -56.5839 -55.7264 -55.7195 -55.7016 -55.6962 -55.5815 -55.5560
   -55.3650 -55.3398 -55.2724 -55.2699 -55.2484 -55.1707 -54.7310 -54.6199
   -32.9877 -32.8828 -32.8630 -32.7739 -32.7225 -32.7108 -32.1581 -32.1439
   -32.0743 -31.9871 -31.9672 -31.9345 -31.9339 -31.9157 -31.9015 -31.8847
   -31.8739 -31.8736 -31.8722 -31.8550 -31.7919 -31.7884 -31.7794 -31.7738
   -31.7681 -31.7080 -31.6907 -31.6843 -31.6169 -31.6141 -31.5941 -31.5860
   -31.5223 -31.5146 -31.4957 -31.4761 -31.4446 -31.4172 -31.4113 -31.4005
   -31.3743 -31.3507 -31.1862 -30.9725 -30.9609 -30.8996 -30.8395 -30.7781
   -16.5575 -16.1480 -16.1159 -15.9996 -15.8858 -15.8831 -15.7273 -15.7004
   -15.6271 -15.5155 -15.4909 -15.4713 -15.4474 -15.4455 -15.3270 -15.1720
   -15.1218 -15.0969 -15.0866 -15.0196 -14.8880 -14.8669 -14.8286 -14.7844
   -14.6228 -14.6064 -14.5153 -14.4213 -14.2440 -13.7814 -13.7230 -13.7075
   -12.8101  -7.4899  -3.8804  -3.8011  -3.7793  -3.5027  -3.4009  -3.3456
    -3.2702  -3.2439  -3.0463  -3.0369  -3.0057  -2.9689  -2.9354  -2.9164
    -2.8450  -2.8222  -2.7674  -2.7506  -2.6981  -2.6707  -2.6576  -2.6159
    -2.5810  -2.5573  -2.5040  -2.4859  -2.4378  -2.3482  -2.3147  -2.2708
    -2.1917  -2.1651  -2.1323  -2.0842  -2.0006  -1.9930  -1.8900  -1.8474
    -1.8160  -1.6852  -1.6468  -1.5610  -1.5231  -1.5063  -1.4537  -1.4178
    -1.3189  -1.2860  -1.2245  -1.1970  -1.1255  -1.0884  -1.0634  -1.0544
    -0.9199  -0.9032  -0.8247  -0.7832  -0.7612  -0.7034  -0.6626  -0.5830
    -0.5341  -0.5021  -0.4964  -0.4565  -0.4082  -0.3674  -0.3546  -0.3052
    -0.2276  -0.1577  -0.1249  -0.0982  -0.0245   0.0301   0.0691   0.1408
     0.1673   0.2357   0.2404   0.3001   0.3589   0.3782   0.4015   0.4581
     0.5727   0.6614   0.7166   0.8532   0.8891   0.9390   0.9871   1.0227
     1.1114   1.1663   1.2258   1.3690   1.4284   1.6411   2.1608   2.9221
     3.0804   3.1717   3.3272   3.5131   3.5977   3.6504   3.7288   3.7902
     3.9061

          k =-0.0760-0.0000 0.0000 ( 17886 PWs)   bands (ev):

   -56.6125 -56.5789 -55.7304 -55.7252 -55.6966 -55.6914 -55.5866 -55.5509
   -55.3700 -55.3348 -55.2773 -55.2713 -55.2434 -55.1692 -54.7324 -54.6185
   -33.0419 -32.8869 -32.8589 -32.7848 -32.6977 -32.6662 -32.2149 -32.1968
   -32.1298 -31.9731 -31.9640 -31.9458 -31.9313 -31.9297 -31.8917 -31.8755
   -31.8674 -31.8606 -31.8365 -31.8318 -31.8276 -31.8006 -31.7796 -31.7671
   -31.7227 -31.7151 -31.6998 -31.6918 -31.6692 -31.6208 -31.5965 -31.5889
   -31.5274 -31.5096 -31.4882 -31.4465 -31.4366 -31.4048 -31.3994 -31.3735
   -31.3524 -31.2939 -31.2328 -30.9732 -30.9633 -30.8784 -30.8388 -30.7475
   -16.5102 -16.2225 -16.2158 -16.0534 -16.0313 -15.8007 -15.7641 -15.6177
   -15.6136 -15.5591 -15.5528 -15.5016 -15.4819 -15.4685 -15.2442 -15.1768
   -15.1708 -15.1096 -15.0827 -15.0595 -14.9650 -14.8381 -14.6955 -14.6652
   -14.6504 -14.5847 -14.4959 -14.3981 -14.1735 -13.7709 -13.7232 -13.6655
   -12.7992  -7.4922  -3.8023  -3.7714  -3.6710  -3.6674  -3.6395  -3.5259
    -3.2726  -3.2557  -3.2216  -3.1040  -3.0817  -2.9518  -2.8955  -2.8762
    -2.8246  -2.8172  -2.7872  -2.7128  -2.7085  -2.6757  -2.5770  -2.5111
    -2.4672  -2.4164  -2.3946  -2.3372  -2.3303  -2.3045  -2.2513  -2.1826
    -2.1551  -2.0500  -2.0419  -1.9986  -1.9223  -1.9003  -1.8886  -1.7712
    -1.7269  -1.7150  -1.6687  -1.6363  -1.6009  -1.5528  -1.4808  -1.4561
    -1.4252  -1.3785  -1.3028  -1.2666  -1.2415  -1.2094  -1.0988  -1.0064
    -0.9874  -0.8982  -0.8526  -0.8261  -0.7984  -0.7790  -0.6903  -0.6893
    -0.6654  -0.5454  -0.5334  -0.4757  -0.4365  -0.3615  -0.3201  -0.2988
    -0.2495  -0.1178  -0.0366  -0.0098   0.0361   0.0659   0.1386   0.1966
     0.2148   0.2452   0.3409   0.3934   0.4378   0.4836   0.5200   0.5389
     0.6059   0.6282   0.6943   0.7725   0.8344   0.8559   0.9117   0.9536
     1.0531   1.0618   1.1816   1.2857   1.3592   1.6571   2.0480   2.7960
     2.9324   3.0242   3.1188   3.4778   3.4991   3.6789   3.7927   3.8219
     3.8489

          k =-0.0760 0.0419 0.0000 ( 17914 PWs)   bands (ev):

   -56.6076 -56.5839 -55.7256 -55.7203 -55.7014 -55.6964 -55.5815 -55.5561
   -55.3650 -55.3398 -55.2724 -55.2699 -55.2484 -55.1707 -54.7310 -54.6199
   -32.9885 -32.8828 -32.8630 -32.7725 -32.7227 -32.7107 -32.1624 -32.1447
   -32.0745 -31.9677 -31.9526 -31.9358 -31.9345 -31.9335 -31.8954 -31.8884
   -31.8814 -31.8782 -31.8729 -31.8550 -31.7923 -31.7873 -31.7807 -31.7745
   -31.7728 -31.7081 -31.6907 -31.6729 -31.6167 -31.6163 -31.5935 -31.5841
   -31.5224 -31.5207 -31.4960 -31.4762 -31.4445 -31.4172 -31.4119 -31.4013
   -31.3743 -31.3508 -31.1860 -30.9726 -30.9620 -30.8996 -30.8400 -30.7782
   -16.3968 -16.1710 -16.1377 -15.9781 -15.9695 -15.8760 -15.7171 -15.6755
   -15.6255 -15.5125 -15.4704 -15.4671 -15.4485 -15.3837 -15.3375 -15.2269
   -15.1444 -15.1249 -15.0568 -15.0451 -14.9990 -14.8857 -14.8415 -14.8088
   -14.6214 -14.5967 -14.5053 -14.4220 -14.2431 -13.7796 -13.7229 -13.7078
   -12.8091  -7.4889  -3.8017  -3.7792  -3.4753  -3.4610  -3.3901  -3.3643
    -3.1451  -3.1350  -3.0403  -3.0146  -2.9641  -2.9417  -2.8407  -2.7768
    -2.7691  -2.7617  -2.6922  -2.6732  -2.6588  -2.6404  -2.6214  -2.5737
    -2.5669  -2.5294  -2.4953  -2.4546  -2.3763  -2.2644  -2.2569  -2.1975
    -2.1911  -2.1374  -2.0984  -2.0377  -1.9992  -1.9791  -1.9201  -1.8123
    -1.7537  -1.7471  -1.6402  -1.6106  -1.6044  -1.5866  -1.4992  -1.4274
    -1.3756  -1.3319  -1.2932  -1.2514  -1.2102  -1.1917  -1.1380  -1.0898
    -1.0271  -0.9716  -0.9344  -0.8952  -0.8377  -0.7900  -0.7673  -0.6985
    -0.6619  -0.5806  -0.5575  -0.5147  -0.4712  -0.4551  -0.4401  -0.3949
    -0.3302  -0.2971  -0.2013  -0.1947  -0.1647  -0.0639  -0.0097   0.0546
     0.1766   0.1898   0.2897   0.3054   0.3512   0.3809   0.5150   0.5719
     0.6605   0.7042   0.7979   0.8297   0.8623   0.9246   1.0331   1.0355
     1.0973   1.1022   1.2125   1.3087   1.3618   1.6588   2.1394   2.9336
     3.1065   3.1202   3.2190   3.6197   3.6666   3.6756   3.7211   3.8345
     3.9302

          k =-0.0760-0.0839 0.0000 ( 17948 PWs)   bands (ev):

   -56.5959 -56.5956 -55.7161 -55.7110 -55.7088 -55.7080 -55.5715 -55.5661
   -55.3552 -55.3497 -55.2684 -55.2605 -55.2604 -55.1723 -54.7297 -54.6214
   -32.8731 -32.8728 -32.8575 -32.8572 -32.7419 -32.7416 -32.0365 -32.0339
   -32.0203 -32.0143 -31.9643 -31.9632 -31.9210 -31.9195 -31.9181 -31.9172
   -31.9060 -31.9034 -31.9020 -31.8997 -31.8237 -31.8192 -31.7728 -31.7675
   -31.7066 -31.6994 -31.6383 -31.6316 -31.6048 -31.6047 -31.5980 -31.5543
   -31.5523 -31.5241 -31.4890 -31.4861 -31.4860 -31.4469 -31.4469 -31.4421
   -31.4151 -31.3758 -31.1129 -30.9931 -30.9607 -30.9287 -30.8411 -30.8062
   -16.1249 -16.1229 -16.0908 -16.0905 -15.8207 -15.8170 -15.7731 -15.7714
   -15.5988 -15.5929 -15.3860 -15.3758 -15.3700 -15.3659 -15.2418 -15.2329
   -15.1697 -15.1589 -15.0700 -15.0666 -15.0033 -14.9972 -14.9595 -14.9398
   -14.6230 -14.6153 -14.4877 -14.4791 -14.3268 -13.7697 -13.7696 -13.7226
   -12.8188  -7.4856  -3.8011  -3.7869  -3.2246  -3.2241  -3.1585  -3.1572
    -3.0367  -3.0319  -2.9550  -2.9545  -2.8554  -2.8511  -2.7642  -2.7117
    -2.7102  -2.7077  -2.6948  -2.6661  -2.5556  -2.5548  -2.5406  -2.5254
    -2.4698  -2.4677  -2.4521  -2.3808  -2.3674  -2.3317  -2.2923  -2.1859
    -2.1722  -2.1560  -2.1299  -2.0690  -2.0551  -2.0436  -1.9960  -1.9734
    -1.8935  -1.8263  -1.7861  -1.6660  -1.6625  -1.6527  -1.6407  -1.4854
    -1.4496  -1.4186  -1.4086  -1.4028  -1.3587  -1.2601  -1.2522  -1.1178
    -1.1152  -1.0458  -0.9637  -0.9407  -0.9184  -0.7840  -0.7439  -0.7028
    -0.6978  -0.6729  -0.6473  -0.6277  -0.6003  -0.4486  -0.4292  -0.3951
    -0.3642  -0.3561  -0.3151  -0.2464  -0.1666  -0.0858  -0.0847  -0.0182
     0.0333   0.0956   0.1833   0.1961   0.2001   0.4829   0.5632   0.6502
     0.7293   0.7929   0.8590   0.8836   0.9440   0.9831   1.1233   1.1261
     1.1449   1.1453   1.2053   1.2137   1.3615   1.6453   2.2076   3.2350
     3.2353   3.3025   3.3029   3.6266   3.6321   3.7411   3.7501   3.8597
     3.8651

     the Fermi energy is     2.5001 ev

!    total energy              =   -2942.90676755 Ry
     estimated scf accuracy    <       0.00000005 Ry
     smearing contrib. (-TS)   =      -0.00477844 Ry
     internal energy E=F+TS    =   -2942.90198911 Ry

     The total energy is F=E-TS. E is the sum of the following terms:
     one-electron contribution =  -23225.96799586 Ry
     hartree contribution      =   11703.27264506 Ry
     xc contribution           =    -487.47152693 Ry
     ewald contribution        =    9067.26449970 Ry
     electric field correction =       0.00038892 Ry

     convergence has been achieved in  78 iterations

     Forces acting on atoms (cartesian axes, Ry/au):

     atom    1 type  1   force =     0.00000984   -0.00043857    0.12431505
     atom    2 type  1   force =    -0.00006006   -0.00054557   -0.16061749
     atom    3 type  2   force =     0.00016403   -0.00030297   -0.06835848
     atom    4 type  2   force =    -0.00005221   -0.00038709    0.02754036
     atom    5 type  2   force =    -0.01677840    0.00113108   -0.00832923
     atom    6 type  2   force =     0.01783016    0.00162998   -0.01022162
     atom    7 type  1   force =     0.00039869   -0.00408173    0.02179718
     atom    8 type  1   force =     0.00019996   -0.00219378    0.11165962
     atom    9 type  2   force =     0.00010521    0.00018786   -0.00030049
     atom   10 type  2   force =    -0.00319849    0.00010884   -0.07305938
     atom   11 type  2   force =    -0.00034217    0.00033061   -0.00007471
     atom   12 type  2   force =     0.00013885    0.00045230   -0.00003615
     atom   13 type  1   force =     0.00012069   -0.00024498   -0.00004194
     atom   14 type  1   force =    -0.00014871    0.00004325   -0.00033896
     atom   15 type  2   force =    -0.00003999   -0.00025967    0.00017717
     atom   16 type  2   force =     0.00033135    0.00076715    0.00002267
     atom   17 type  2   force =     0.00017097    0.00030675   -0.00027381
     atom   18 type  2   force =    -0.00018151    0.00020932    0.00013663
     atom   19 type  1   force =     0.00048360   -0.00011048   -0.00026121
     atom   20 type  1   force =     0.00023615   -0.00028430   -0.00050727
     atom   21 type  2   force =     0.00010156    0.00008150    0.09967025
     atom   22 type  2   force =     0.00007661    0.00091254    0.00055983
     atom   23 type  2   force =    -0.07915617    0.00008673   -0.03242535
     atom   24 type  2   force =     0.07906296    0.00051410   -0.03241975
     atom   25 type  1   force =     0.00002869   -0.00041483    0.12383486
     atom   26 type  1   force =    -0.00003775   -0.00042485   -0.16073549
     atom   27 type  2   force =     0.00028710   -0.00046895   -0.06734821
     atom   28 type  2   force =    -0.00005463   -0.00020248    0.02727557
     atom   29 type  2   force =    -0.01730901    0.00074028   -0.00825672
     atom   30 type  2   force =     0.01827777    0.00113720   -0.01009347
     atom   31 type  1   force =     0.00033720   -0.00099779    0.02126319
     atom   32 type  1   force =     0.00021592   -0.00027218    0.11221183
     atom   33 type  2   force =     0.00012173    0.00051072   -0.00006855
     atom   34 type  2   force =    -0.00294565   -0.00065425   -0.07291409
     atom   35 type  2   force =    -0.00024613    0.00027138   -0.00010046
     atom   36 type  2   force =     0.00009699    0.00013634   -0.00003749
     atom   37 type  1   force =     0.00012753   -0.00015291    0.00023066
     atom   38 type  1   force =     0.00007491    0.00004952    0.00029277
     atom   39 type  2   force =     0.00020156    0.00038213   -0.00015932
     atom   40 type  2   force =     0.00010368    0.00034434    0.00016527
     atom   41 type  2   force =    -0.00015934    0.00032930    0.00019465
     atom   42 type  2   force =    -0.00001542    0.00060753   -0.00000035
     atom   43 type  1   force =     0.00058454    0.00054312    0.00044850
     atom   44 type  1   force =     0.00018834    0.00020645   -0.00047419
     atom   45 type  2   force =     0.00010560    0.00005070    0.09969721
     atom   46 type  2   force =    -0.07916565    0.00012701   -0.03242599
     atom   47 type  2   force =     0.07906694    0.00056116   -0.03241528
     atom   48 type  3   force =     0.00110561   -0.00037830   -0.00141591
     atom   49 type  4   force =     0.00304678   -0.00237577   -0.00088057
     atom   50 type  5   force =    -0.00200723    0.00200861    0.00311873
     atom   51 type  5   force =    -0.00054135    0.00060614    0.00010300
     atom   52 type  5   force =    -0.00083198   -0.00046784    0.00036737
     atom   53 type  3   force =     0.00098621   -0.00023441    0.00034659
     atom   54 type  5   force =    -0.00011803    0.00080931   -0.00091307
     atom   55 type  5   force =     0.00020816    0.00034540    0.00030791
     atom   56 type  5   force =    -0.00120601   -0.00063493   -0.00023189

     Total force =     0.424930     Total SCF correction =     0.000548
  @ DRIVER MODE: Message from server: STATUS
  @ DRIVER MODE: Message from server: GETFORCE
  @ DRIVER MODE: Returning v,forces,stress,ensemble 

     Writing output data file ./calc.save/
  @ DRIVER MODE: Message from server: EXIT
  @ DRIVE MODE: Exiting  
 
     init_run     :      7.41s CPU      7.54s WALL (       1 calls)
     electrons    :   1094.64s CPU   1112.16s WALL (       1 calls)
     forces       :      2.27s CPU      2.32s WALL (       1 calls)

     Called by init_run:
     wfcinit      :      3.38s CPU      3.42s WALL (       1 calls)
     potinit      :      3.54s CPU      3.59s WALL (       1 calls)
     hinit0       :      0.20s CPU      0.21s WALL (       1 calls)

     Called by electrons:
     c_bands      :    906.72s CPU    917.31s WALL (      78 calls)
     sum_band     :    140.92s CPU    143.38s WALL (      78 calls)
     v_of_rho     :     30.69s CPU     32.19s WALL (      79 calls)
     newd         :     12.34s CPU     15.01s WALL (      79 calls)
     mix_rho      :      6.12s CPU      6.17s WALL (      78 calls)
     vdW_kernel   :      3.03s CPU      3.04s WALL (       1 calls)

     Called by c_bands:
     init_us_2    :      5.18s CPU      5.20s WALL (    1580 calls)
     cegterg      :    892.15s CPU    902.34s WALL (     791 calls)

     Called by *egterg:
     cdiaghg      :    208.50s CPU    210.26s WALL (    5870 calls)
     h_psi        :    444.14s CPU    451.52s WALL (    5880 calls)
     s_psi        :     46.09s CPU     46.25s WALL (    5880 calls)
     g_psi        :      1.19s CPU      1.20s WALL (    5079 calls)

     Called by h_psi:
     h_psi:calbec :     49.20s CPU     49.42s WALL (    5880 calls)
     vloc_psi     :    346.14s CPU    353.12s WALL (    5880 calls)
     add_vuspsi   :     46.39s CPU     46.56s WALL (    5880 calls)

     General routines
     calbec       :     67.93s CPU     68.23s WALL (    6700 calls)
     fft          :     17.07s CPU     17.67s WALL (    4977 calls)
     ffts         :      0.19s CPU      0.20s WALL (     157 calls)
     fftw         :    434.45s CPU    441.91s WALL ( 1046964 calls)
     interpolate  :      0.46s CPU      0.48s WALL (      79 calls)
     davcio       :      0.00s CPU      0.09s WALL (      10 calls)
 
     Parallel routines
 
     PWSCF        :  18m27.08s CPU  18m45.00s WALL

 
   This run was terminated on:  17:13:22   2Aug2021            

=------------------------------------------------------------------------------=
   JOB DONE.
=------------------------------------------------------------------------------=
