
     Program PWSCF v.6.7GPU starts on 20Sep2021 at 22:48:32 

     This program is part of the open-source Quantum ESPRESSO suite
     for quantum simulation of materials; please cite
         "P. Giannozzi et al., J. Phys.:Condens. Matter 21 395502 (2009);
         "P. Giannozzi et al., J. Phys.:Condens. Matter 29 465901 (2017);
         "P. Giannozzi et al., J. Chem. Phys. 152 154105 (2020);
          URL http://www.quantum-espresso.org", 
     in publications or presentations arising from this work. More details at
     http://www.quantum-espresso.org/quote

     Parallel version (MPI), running on    10 processors

     MPI processes distributed on     1 nodes
     R & G space division:  proc/nbgrp/npool/nimage =      10
     Reading input from /storage/home/hcoda1/3/ntian30/research/carbon/CxH_vib/H2O_calc/ads_slab/CH3H2O_a/out_0014/pw.inp
Warning: card &CELL ignored
Warning: card   CELL_DYNAMICS='IPI', ignored
Warning: card / ignored

     Current dimensions of program PWSCF are:
     Max number of different atomic species (ntypx) = 10
     Max number of k-points (npk) =  40000
     Max angular momentum in pseudopotentials (lmaxx) =  3
     Presently no symmetry can be used with electric field

     Message from routine cell_base_init:
     DEPRECATED: use true lattice parameter, not A to a.u. conversion factor

     **************************************************************************
     Initializing libbeef V0.1.2 with the BEEF-vdW functional.
     Citation: Wellendorff et al., PRB 85, 235149 (2012).
     **************************************************************************


     IMPORTANT: XC functional enforced from input :
     Exchange-correlation= BEEF-VDW
                           (   1   4  43  14   2   0   0)
     Any further DFT definition will be discarded
     Please, verify this is what you really want


     Subspace diagonalization in iterative solution of the eigenvalue problem:
     one sub-group per band group will be used
     scalapack distributed-memory algorithm (size of sub-group:  3*  3 procs)

  @ DRIVER MODE: Connecting to 
 qe_1139763_2911776.sched-torque.pace.gatech.edu1m5qvb17_scratch
  using UNIX socket
  @ DRIVER MODE: Message from server: STATUS
  @ DRIVER MODE: Message from server: INIT
  @ DRIVER MODE: Receiving replica           0          -1
  @ DRIVER MODE: Receiving encoded integer          25
  @ DRIVER MODE:  SCF:  T  FORCE:  T  STRESS:  F  VC:  F  ENSEMBLE:  F
  @ DRIVER MODE:  SCF:  T  FORCE:  T  STRESS:  F  VC:  F  ENSEMBLE:  F
 
     Parallelization info
     --------------------
     sticks:   dense  smooth     PW     G-vecs:    dense   smooth      PW
     Min         327     131     37                56683    14340    2191
     Max         328     133     38                56694    14346    2206
     Sum        3275    1317    379               566857   143421   21985
 
     Using Slab Decomposition
 


     bravais-lattice index     =            0
     lattice parameter (alat)  =       1.8897  a.u.
     unit-cell volume          =    6658.9804 (a.u.)^3
     number of atoms/cell      =           54
     number of atomic types    =            4
     number of electrons       =       393.00
     number of Kohn-Sham states=          206
     kinetic-energy cutoff     =      29.3995  Ry
     charge density cutoff     =     293.9946  Ry
     scf convergence threshold =      7.3E-08
     mixing beta               =       0.0500
     number of iterations used =            8  plain     mixing
     Exchange-correlation= BEEF-VDW
                           (   1   4  43  14   2   0   0)

     celldm(1)=   1.889726  celldm(2)=   0.000000  celldm(3)=   0.000000
     celldm(4)=   0.000000  celldm(5)=   0.000000  celldm(6)=   0.000000

     crystal axes: (cart. coord. in units of alat)
               a(1) = (   6.579727   0.000000   0.000000 )  
               a(2) = (  -0.000775   5.961596   0.000000 )  
               a(3) = (   0.000000   0.000000  25.155947 )  

     reciprocal axes: (cart. coord. in units 2 pi/alat)
               b(1) = (  0.151982  0.000020  0.000000 )  
               b(2) = (  0.000000  0.167740  0.000000 )  
               b(3) = (  0.000000  0.000000  0.039752 )  


     PseudoPot. # 1 for Ti read from file:
     /storage/coda1/p-amedford6/0/shared/rich_project_chbe-medford/medford-share/data/pseudos_module/espresso/nninc/pbe/van/Ti.UPF
     MD5 check sum: 8e4df49b7f0d34bbd5052bf3f5ea0213
     Pseudo is Ultrasoft, Zval = 12.0
     Generated by new atomic code, or converted to UPF format
     Using radial grid of  851 points,  6 beta functions with: 
                l(1) =   0
                l(2) =   0
                l(3) =   1
                l(4) =   1
                l(5) =   2
                l(6) =   2
     Q(r) pseudized with  8 coefficients,  rinner =    1.000   1.000   1.000
                                                       1.000   1.000

     PseudoPot. # 2 for O  read from file:
     /storage/coda1/p-amedford6/0/shared/rich_project_chbe-medford/medford-share/data/pseudos_module/espresso/nninc/pbe/van/O.UPF
     MD5 check sum: 78c19812648e8988a0fe644b0f25305e
     Pseudo is Ultrasoft, Zval =  6.0
     Generated by new atomic code, or converted to UPF format
     Using radial grid of  737 points,  4 beta functions with: 
                l(1) =   0
                l(2) =   0
                l(3) =   1
                l(4) =   1
     Q(r) pseudized with  8 coefficients,  rinner =    0.800   0.800   0.800


     PseudoPot. # 3 for C  read from file:
     /storage/coda1/p-amedford6/0/shared/rich_project_chbe-medford/medford-share/data/pseudos_module/espresso/nninc/pbe/van/C.UPF
     MD5 check sum: 1a69bf6b8db32088f5b2163dbdb77a27
     Pseudo is Ultrasoft, Zval =  4.0
     Generated by new atomic code, or converted to UPF format
     Using radial grid of  721 points,  4 beta functions with: 
                l(1) =   0
                l(2) =   0
                l(3) =   1
                l(4) =   1
     Q(r) pseudized with  8 coefficients,  rinner =    0.800   0.800   0.800


     PseudoPot. # 4 for H  read from file:
     /storage/coda1/p-amedford6/0/shared/rich_project_chbe-medford/medford-share/data/pseudos_module/espresso/nninc/pbe/van/H.UPF
     MD5 check sum: b5ee9d7bfd3a09ee7748110bda690ff7
     Pseudo is Ultrasoft, Zval =  1.0
     Generated by new atomic code, or converted to UPF format
     Using radial grid of  615 points,  1 beta functions with: 
                l(1) =   0
     Q(r) pseudized with  8 coefficients,  rinner =    0.800

     atomic species   valence    mass     pseudopotential
        Ti1           12.00    47.86700     Ti( 1.00)
        O1             6.00    15.99900     O ( 1.00)
        C1             4.00    12.01100     C ( 1.00)
        H1             1.00     1.00800     H ( 1.00)

     No symmetry found



   Cartesian axes

     site n.     atom                  positions (alat units)
         1           Ti1 tau(   1) = (   0.0004258   2.9801865   6.0000000  )
         2           Ti1 tau(   2) = (   3.2906075   1.4906267   6.0002472  )
         3           O1  tau(   3) = (   0.0006271   0.0005054   7.9858123  )
         4           O1  tau(   4) = (   3.2906025   0.0005020   7.3038282  )
         5           O1  tau(   5) = (   4.5942328   1.4918067   9.2879030  )
         6           O1  tau(   6) = (   1.9868534   1.4903216   9.2879459  )
         7           Ti1 tau(   7) = (   3.3154911   2.9426235   9.1630835  )
         8           Ti1 tau(   8) = (   0.0285409   1.6075342   9.3657832  )
         9           O1  tau(   9) = (   3.2815087   0.0160907  11.3545821  )
        10           O1  tau(  10) = (   0.0024802   0.0106306  10.6007539  )
        11           O1  tau(  11) = (   1.2725489   1.5064038  12.6453836  )
        12           O1  tau(  12) = (   5.2753141   1.5150378  12.6350139  )
        13           Ti1 tau(  13) = (   0.0284581   2.9538459  12.7835337  )
        14           Ti1 tau(  14) = (   3.3388075   1.4895305  12.5082680  )
        15           O1  tau(  15) = (   6.5535251   0.0144872  14.6406477  )
        16           O1  tau(  16) = (   3.2781334   0.0285334  13.9682696  )
        17           O1  tau(  17) = (   4.5366274   1.5703088  16.0558364  )
        18           O1  tau(  18) = (   2.0012422   1.5648880  16.0484572  )
        19           Ti1 tau(  19) = (   3.2604835   3.0254881  15.6976271  )
        20           Ti1 tau(  20) = (   6.5333720   1.5229778  16.1593769  )
        21           O1  tau(  21) = (   3.2904802   0.0005063   4.7018136  )
        22           O1  tau(  22) = (   6.5574971   0.0350135  17.1872057  )
        23           O1  tau(  23) = (   1.3043587   1.4918075   6.0039043  )
        24           O1  tau(  24) = (   5.2767064   1.4903225   6.0039473  )
        25           Ti1 tau(  25) = (   0.0000382   5.9609847   6.0000000  )
        26           Ti1 tau(  26) = (   3.2902200   4.4714249   6.0002472  )
        27           O1  tau(  27) = (   0.0002396   2.9813036   7.9858123  )
        28           O1  tau(  28) = (   3.2902150   2.9813002   7.3038282  )
        29           O1  tau(  29) = (   4.5938453   4.4726049   9.2879030  )
        30           O1  tau(  30) = (   1.9864658   4.4711199   9.2879459  )
        31           Ti1 tau(  31) = (   3.3083403   5.9269411   9.1538128  )
        32           Ti1 tau(  32) = (   0.0303829   4.5362093   9.2612125  )
        33           O1  tau(  33) = (   3.2841341   2.9899418  11.3555480  )
        34           O1  tau(  34) = (   0.0038936   2.9924975  10.5838058  )
        35           O1  tau(  35) = (   1.2726398   4.4822405  12.6394144  )
        36           O1  tau(  36) = (   5.2736595   4.4864409  12.6303220  )
        37           Ti1 tau(  37) = (   0.0300145   5.9360250  12.5182071  )
        38           Ti1 tau(  38) = (   3.3377519   4.4811756  12.4937589  )
        39           O1  tau(  39) = (   6.5654514   3.0136449  14.7225067  )
        40           O1  tau(  40) = (   3.2707049   3.0114760  13.9116621  )
        41           O1  tau(  41) = (   4.5328936   4.4881537  16.0752462  )
        42           O1  tau(  42) = (   1.9999049   4.4921254  16.0707699  )
        43           Ti1 tau(  43) = (   3.2502456   0.0519323  15.7983500  )
        44           Ti1 tau(  44) = (   6.5407796   4.6451211  15.8442649  )
        45           O1  tau(  45) = (   3.2900926   2.9813045   4.7018136  )
        46           O1  tau(  46) = (   1.3039711   4.4726057   6.0039043  )
        47           O1  tau(  47) = (   5.2763189   4.4711207   6.0039473  )
        48           C1  tau(  48) = (   6.5619928   2.8946514  17.8930439  )
        49           H1  tau(  49) = (   6.5552299   3.9601472  18.1196503  )
        50           H1  tau(  50) = (   0.8860557   2.4850835  18.3732843  )
        51           H1  tau(  51) = (   5.6817198   2.4733575  18.3891814  )
        52           O1  tau(  52) = (   3.2572702   0.1178616  18.1992317  )
        53           H1  tau(  53) = (   4.0330629   5.5870706  18.5079137  )
        54           H1  tau(  54) = (   2.4710694   5.5989049  18.5058656  )

     number of k points=    10  Fermi-Dirac smearing, width (Ry)=  0.0073
                       cart. coord. in units 2pi/alat
        k(    1) = (   0.0000000   0.0000000   0.0000000), wk =   0.1250000
        k(    2) = (   0.0000000   0.0419351   0.0000000), wk =   0.2500000
        k(    3) = (   0.0000000  -0.0838702   0.0000000), wk =   0.1250000
        k(    4) = (   0.0379955   0.0000049   0.0000000), wk =   0.2500000
        k(    5) = (   0.0379955   0.0419400   0.0000000), wk =   0.2500000
        k(    6) = (   0.0379955  -0.0838652   0.0000000), wk =   0.2500000
        k(    7) = (   0.0379955  -0.0419301   0.0000000), wk =   0.2500000
        k(    8) = (  -0.0759910  -0.0000099   0.0000000), wk =   0.1250000
        k(    9) = (  -0.0759910   0.0419252   0.0000000), wk =   0.2500000
        k(   10) = (  -0.0759910  -0.0838800   0.0000000), wk =   0.1250000

     Dense  grid:   566857 G-vectors     FFT dimensions: (  72,  64, 270)

     Smooth grid:   143421 G-vectors     FFT dimensions: (  45,  40, 180)

     Estimated max dynamical RAM per process >     362.43 MB

     Estimated total dynamical RAM >       3.54 GB
     Cannot read rho : file not found

     Initial potential from superposition of free atoms

     starting charge  376.99916, renormalised to  393.00000

     negative rho (up, down):  1.843E-02 0.000E+00


     %%%%%%%%%%%%%%%%%%%%%%%%%%%%%%%%%%%%%%%%%%%%%%%%%%%%%%%%%%%%%%%%%%%%%%%%
     %                                                                      %
     % You are using vdW-DF, which was implemented by the Thonhauser group. %
     % Please cite the following two papers that made this development      %
     % possible and the two reviews that describe the various versions:     %
     %                                                                      %
     %   T. Thonhauser et al., PRL 115, 136402 (2015).                      %
     %   T. Thonhauser et al., PRB 76, 125112 (2007).                       %
     %   K. Berland et al., Rep. Prog. Phys. 78, 066501 (2015).             %
     %   D.C. Langreth et al., J. Phys.: Condens. Matter 21, 084203 (2009). %
     %                                                                      %
     %                                                                      %
     % If you are calculating the stress with vdW-DF, please also cite:     %
     %                                                                      %
     %   R. Sabatini et al., J. Phys.: Condens. Matter 24, 424209 (2012).   %
     %                                                                      %
     %%%%%%%%%%%%%%%%%%%%%%%%%%%%%%%%%%%%%%%%%%%%%%%%%%%%%%%%%%%%%%%%%%%%%%%%


 
     Adding external electric field

     Computed dipole along edir(3) : 
        Dipole               -6.6597 Ry au,        -16.9273 Debye
        Dipole field         -0.0126 Ry au, 
 
        Potential amp.        1.1650 Ry
        Total length         46.3494 bohr
 
     Starting wfcs are  297 atomic wfcs
  @ DRIVER MODE: Message from server: STATUS
  @ DRIVER MODE: Message from server: POSDATA
  @ DRIVER MODE: Reading and sharing cell 
  @ DRIVER MODE: Reading and sharing positions 
  @ DRIVER MODE: Received positions 

     total cpu time spent up to now is      127.1 secs

     Self-consistent Calculation

     iteration #  1     ecut=    29.40 Ry     beta= 0.05
     Davidson diagonalization with overlap
     c_bands:  2 eigenvalues not converged
     c_bands:  2 eigenvalues not converged
     c_bands:  2 eigenvalues not converged
     c_bands:  1 eigenvalues not converged
     c_bands:  1 eigenvalues not converged
     ethr =  1.00E-05,  avg # of iterations = 18.0

     negative rho (up, down):  1.746E-02 0.000E+00
 
     Adding external electric field

     Computed dipole along edir(3) : 
        Dipole               31.5480 Ry au,         80.1870 Debye
        Dipole field          0.0595 Ry au, 
 
        Potential amp.       -5.5188 Ry
        Total length         46.3494 bohr
 

     total cpu time spent up to now is      231.6 secs

     total energy              =   -2713.81845283 Ry
     estimated scf accuracy    <    2414.39470412 Ry

     iteration #  2     ecut=    29.40 Ry     beta= 0.05
     Davidson diagonalization with overlap
     c_bands:  4 eigenvalues not converged
     c_bands:  4 eigenvalues not converged
     c_bands:  3 eigenvalues not converged
     c_bands:  3 eigenvalues not converged
     c_bands:  2 eigenvalues not converged
     c_bands:  2 eigenvalues not converged
     ethr =  1.00E-02,  avg # of iterations = 20.0

     negative rho (up, down):  7.817E-03 0.000E+00
 
     Adding external electric field

     Computed dipole along edir(3) : 
        Dipole               -2.0856 Ry au,         -5.3011 Debye
        Dipole field         -0.0039 Ry au, 
 
        Potential amp.        0.3648 Ry
        Total length         46.3494 bohr
 

     total cpu time spent up to now is      415.8 secs

     total energy              =   -2590.60578484 Ry
     estimated scf accuracy    <   46092.56315229 Ry

     iteration #  3     ecut=    29.40 Ry     beta= 0.05
     Davidson diagonalization with overlap
     ethr =  1.00E-02,  avg # of iterations = 15.6

     negative rho (up, down):  7.864E-03 0.000E+00
 
     Adding external electric field

     Computed dipole along edir(3) : 
        Dipole               -3.7090 Ry au,         -9.4274 Debye
        Dipole field         -0.0070 Ry au, 
 
        Potential amp.        0.6488 Ry
        Total length         46.3494 bohr
 

     total cpu time spent up to now is      503.2 secs

     total energy              =   -2920.64154585 Ry
     estimated scf accuracy    <    1984.57666716 Ry

     iteration #  4     ecut=    29.40 Ry     beta= 0.05
     Davidson diagonalization with overlap
     ethr =  1.00E-02,  avg # of iterations =  5.0

     negative rho (up, down):  7.980E-03 0.000E+00
 
     Adding external electric field

     Computed dipole along edir(3) : 
        Dipole               -5.1253 Ry au,        -13.0273 Debye
        Dipole field         -0.0097 Ry au, 
 
        Potential amp.        0.8966 Ry
        Total length         46.3494 bohr
 

     total cpu time spent up to now is      718.9 secs

     total energy              =   -2905.73096814 Ry
     estimated scf accuracy    <    1712.04711255 Ry

     iteration #  5     ecut=    29.40 Ry     beta= 0.05
     Davidson diagonalization with overlap
     ethr =  1.00E-02,  avg # of iterations = 14.5

     negative rho (up, down):  7.614E-03 0.000E+00
 
     Adding external electric field

     Computed dipole along edir(3) : 
        Dipole               -4.6962 Ry au,        -11.9366 Debye
        Dipole field         -0.0089 Ry au, 
 
        Potential amp.        0.8215 Ry
        Total length         46.3494 bohr
 

     total cpu time spent up to now is      785.8 secs

     total energy              =   -2936.73161760 Ry
     estimated scf accuracy    <      15.96010865 Ry

     iteration #  6     ecut=    29.40 Ry     beta= 0.05
     Davidson diagonalization with overlap
     ethr =  4.06E-03,  avg # of iterations =  2.1

     negative rho (up, down):  8.009E-03 0.000E+00
 
     Adding external electric field

     Computed dipole along edir(3) : 
        Dipole               -1.5531 Ry au,         -3.9476 Debye
        Dipole field         -0.0029 Ry au, 
 
        Potential amp.        0.2717 Ry
        Total length         46.3494 bohr
 

     total cpu time spent up to now is      830.1 secs

     total energy              =   -2931.79884675 Ry
     estimated scf accuracy    <      14.11626586 Ry

     iteration #  7     ecut=    29.40 Ry     beta= 0.05
     Davidson diagonalization with overlap
     ethr =  3.59E-03,  avg # of iterations = 12.9

     negative rho (up, down):  8.027E-03 0.000E+00
 
     Adding external electric field

     Computed dipole along edir(3) : 
        Dipole               -1.3029 Ry au,         -3.3115 Debye
        Dipole field         -0.0025 Ry au, 
 
        Potential amp.        0.2279 Ry
        Total length         46.3494 bohr
 

     total cpu time spent up to now is     1001.4 secs

     total energy              =   -2938.93281339 Ry
     estimated scf accuracy    <     397.93311364 Ry

     iteration #  8     ecut=    29.40 Ry     beta= 0.05
     Davidson diagonalization with overlap
     ethr =  3.59E-03,  avg # of iterations =  4.7

     negative rho (up, down):  7.918E-03 0.000E+00
 
     Adding external electric field

     Computed dipole along edir(3) : 
        Dipole               -1.5194 Ry au,         -3.8619 Debye
        Dipole field         -0.0029 Ry au, 
 
        Potential amp.        0.2658 Ry
        Total length         46.3494 bohr
 

     total cpu time spent up to now is     1098.9 secs

     total energy              =   -2937.99744700 Ry
     estimated scf accuracy    <     555.94944312 Ry

     iteration #  9     ecut=    29.40 Ry     beta= 0.05
     Davidson diagonalization with overlap
     ethr =  3.59E-03,  avg # of iterations =  1.2

     negative rho (up, down):  7.562E-03 0.000E+00
 
     Adding external electric field

     Computed dipole along edir(3) : 
        Dipole               -2.9029 Ry au,         -7.3784 Debye
        Dipole field         -0.0055 Ry au, 
 
        Potential amp.        0.5078 Ry
        Total length         46.3494 bohr
 

     total cpu time spent up to now is     1174.0 secs

     total energy              =   -2929.33181584 Ry
     estimated scf accuracy    <     463.79576906 Ry

     iteration # 10     ecut=    29.40 Ry     beta= 0.05
     Davidson diagonalization with overlap
     ethr =  3.59E-03,  avg # of iterations =  6.2

     negative rho (up, down):  7.513E-03 0.000E+00
 
     Adding external electric field

     Computed dipole along edir(3) : 
        Dipole               -2.7582 Ry au,         -7.0105 Debye
        Dipole field         -0.0052 Ry au, 
 
        Potential amp.        0.4825 Ry
        Total length         46.3494 bohr
 

     total cpu time spent up to now is     1237.7 secs

     total energy              =   -2932.67498558 Ry
     estimated scf accuracy    <      88.01889560 Ry

     iteration # 11     ecut=    29.40 Ry     beta= 0.05
     Davidson diagonalization with overlap
     ethr =  3.59E-03,  avg # of iterations =  2.4

     negative rho (up, down):  7.484E-03 0.000E+00
 
     Adding external electric field

     Computed dipole along edir(3) : 
        Dipole               -2.7217 Ry au,         -6.9179 Debye
        Dipole field         -0.0051 Ry au, 
 
        Potential amp.        0.4761 Ry
        Total length         46.3494 bohr
 

     total cpu time spent up to now is     1365.0 secs

     total energy              =   -2931.67872201 Ry
     estimated scf accuracy    <      77.57691139 Ry

     iteration # 12     ecut=    29.40 Ry     beta= 0.05
     Davidson diagonalization with overlap
     c_bands:  4 eigenvalues not converged
     ethr =  3.59E-03,  avg # of iterations =  7.6

     negative rho (up, down):  7.349E-03 0.000E+00
 
     Adding external electric field

     Computed dipole along edir(3) : 
        Dipole               -2.9806 Ry au,         -7.5760 Debye
        Dipole field         -0.0056 Ry au, 
 
        Potential amp.        0.5214 Ry
        Total length         46.3494 bohr
 

     total cpu time spent up to now is     1378.0 secs

     total energy              =   -2932.63981924 Ry
     estimated scf accuracy    <       9.95988717 Ry

     iteration # 13     ecut=    29.40 Ry     beta= 0.05
     Davidson diagonalization with overlap
     ethr =  2.53E-03,  avg # of iterations = 10.5

     negative rho (up, down):  7.337E-03 0.000E+00
 
     Adding external electric field

     Computed dipole along edir(3) : 
        Dipole               -2.7421 Ry au,         -6.9697 Debye
        Dipole field         -0.0052 Ry au, 
 
        Potential amp.        0.4797 Ry
        Total length         46.3494 bohr
 

     total cpu time spent up to now is     1395.6 secs

     total energy              =   -2933.94617293 Ry
     estimated scf accuracy    <       2.41619011 Ry

     iteration # 14     ecut=    29.40 Ry     beta= 0.05
     Davidson diagonalization with overlap
     ethr =  6.15E-04,  avg # of iterations =  6.1

     negative rho (up, down):  7.432E-03 0.000E+00
 
     Adding external electric field

     Computed dipole along edir(3) : 
        Dipole               -2.1853 Ry au,         -5.5544 Debye
        Dipole field         -0.0041 Ry au, 
 
        Potential amp.        0.3823 Ry
        Total length         46.3494 bohr
 

     total cpu time spent up to now is     1460.9 secs

     total energy              =   -2933.94506145 Ry
     estimated scf accuracy    <       2.31601746 Ry

     iteration # 15     ecut=    29.40 Ry     beta= 0.05
     Davidson diagonalization with overlap
     ethr =  5.89E-04,  avg # of iterations =  1.6

     negative rho (up, down):  7.708E-03 0.000E+00
 
     Adding external electric field

     Computed dipole along edir(3) : 
        Dipole               -1.0419 Ry au,         -2.6483 Debye
        Dipole field         -0.0020 Ry au, 
 
        Potential amp.        0.1823 Ry
        Total length         46.3494 bohr
 

     total cpu time spent up to now is     1484.9 secs

     total energy              =   -2933.81806818 Ry
     estimated scf accuracy    <       1.17837089 Ry

     iteration # 16     ecut=    29.40 Ry     beta= 0.05
     Davidson diagonalization with overlap
     c_bands:  1 eigenvalues not converged
     c_bands:  3 eigenvalues not converged
     c_bands:  4 eigenvalues not converged
     c_bands:  1 eigenvalues not converged
     c_bands:  4 eigenvalues not converged
     c_bands:  2 eigenvalues not converged
     c_bands:  1 eigenvalues not converged
     ethr =  3.00E-04,  avg # of iterations = 18.7

     negative rho (up, down):  7.576E-03 0.000E+00
 
     Adding external electric field

     Computed dipole along edir(3) : 
        Dipole               -1.4148 Ry au,         -3.5962 Debye
        Dipole field         -0.0027 Ry au, 
 
        Potential amp.        0.2475 Ry
        Total length         46.3494 bohr
 

     total cpu time spent up to now is     1504.1 secs

     total energy              =   -2933.89178275 Ry
     estimated scf accuracy    <       1.07930335 Ry

     iteration # 17     ecut=    29.40 Ry     beta= 0.05
     Davidson diagonalization with overlap
     ethr =  2.75E-04,  avg # of iterations =  3.2

     negative rho (up, down):  7.633E-03 0.000E+00
 
     Adding external electric field

     Computed dipole along edir(3) : 
        Dipole               -1.3944 Ry au,         -3.5442 Debye
        Dipole field         -0.0026 Ry au, 
 
        Potential amp.        0.2439 Ry
        Total length         46.3494 bohr
 

     total cpu time spent up to now is     1524.4 secs

     total energy              =   -2933.81719856 Ry
     estimated scf accuracy    <       0.61349292 Ry

     iteration # 18     ecut=    29.40 Ry     beta= 0.05
     Davidson diagonalization with overlap
     c_bands:  1 eigenvalues not converged
     c_bands:  2 eigenvalues not converged
     c_bands:  2 eigenvalues not converged
     c_bands:  4 eigenvalues not converged
     c_bands:  4 eigenvalues not converged
     c_bands:  2 eigenvalues not converged
     c_bands:  1 eigenvalues not converged
     c_bands:  1 eigenvalues not converged
     ethr =  1.56E-04,  avg # of iterations = 19.9

     negative rho (up, down):  8.108E-03 0.000E+00
 
     Adding external electric field

     Computed dipole along edir(3) : 
        Dipole               -0.2179 Ry au,         -0.5538 Debye
        Dipole field         -0.0004 Ry au, 
 
        Potential amp.        0.0381 Ry
        Total length         46.3494 bohr
 

     total cpu time spent up to now is     1693.9 secs

     total energy              =   -2933.82694420 Ry
     estimated scf accuracy    <       1.59855753 Ry

     iteration # 19     ecut=    29.40 Ry     beta= 0.05
     Davidson diagonalization with overlap
     ethr =  1.56E-04,  avg # of iterations = 10.6

     negative rho (up, down):  8.357E-03 0.000E+00
 
     Adding external electric field

     Computed dipole along edir(3) : 
        Dipole                0.3355 Ry au,          0.8528 Debye
        Dipole field          0.0006 Ry au, 
 
        Potential amp.       -0.0587 Ry
        Total length         46.3494 bohr
 

     total cpu time spent up to now is     1943.0 secs

     total energy              =   -2933.80577624 Ry
     estimated scf accuracy    <       0.50774861 Ry

     iteration # 20     ecut=    29.40 Ry     beta= 0.05
     Davidson diagonalization with overlap
     c_bands:  1 eigenvalues not converged
     c_bands:  3 eigenvalues not converged
     c_bands:  2 eigenvalues not converged
     c_bands:  3 eigenvalues not converged
     c_bands:  1 eigenvalues not converged
     c_bands:  1 eigenvalues not converged
     c_bands:  1 eigenvalues not converged
     c_bands:  1 eigenvalues not converged
     ethr =  1.29E-04,  avg # of iterations = 20.0

     negative rho (up, down):  8.452E-03 0.000E+00
 
     Adding external electric field

     Computed dipole along edir(3) : 
        Dipole                0.2262 Ry au,          0.5749 Debye
        Dipole field          0.0004 Ry au, 
 
        Potential amp.       -0.0396 Ry
        Total length         46.3494 bohr
 

     total cpu time spent up to now is     2084.2 secs

     total energy              =   -2933.88116164 Ry
     estimated scf accuracy    <       0.55206106 Ry

     iteration # 21     ecut=    29.40 Ry     beta= 0.05
     Davidson diagonalization with overlap
     ethr =  1.29E-04,  avg # of iterations =  3.1

     negative rho (up, down):  9.343E-03 0.000E+00
 
     Adding external electric field

     Computed dipole along edir(3) : 
        Dipole                0.0583 Ry au,          0.1483 Debye
        Dipole field          0.0001 Ry au, 
 
        Potential amp.       -0.0102 Ry
        Total length         46.3494 bohr
 

     total cpu time spent up to now is     2094.9 secs

     total energy              =   -2933.77417043 Ry
     estimated scf accuracy    <       0.45077472 Ry

     iteration # 22     ecut=    29.40 Ry     beta= 0.05
     Davidson diagonalization with overlap
     c_bands:  2 eigenvalues not converged
     c_bands:  1 eigenvalues not converged
     c_bands:  2 eigenvalues not converged
     c_bands:  3 eigenvalues not converged
     c_bands:  1 eigenvalues not converged
     c_bands:  1 eigenvalues not converged
     ethr =  1.15E-04,  avg # of iterations = 19.5

     negative rho (up, down):  9.543E-03 0.000E+00
 
     Adding external electric field

     Computed dipole along edir(3) : 
        Dipole                0.2937 Ry au,          0.7465 Debye
        Dipole field          0.0006 Ry au, 
 
        Potential amp.       -0.0514 Ry
        Total length         46.3494 bohr
 

     total cpu time spent up to now is     2117.2 secs

     total energy              =   -2933.90199757 Ry
     estimated scf accuracy    <       0.90205906 Ry

     iteration # 23     ecut=    29.40 Ry     beta= 0.05
     Davidson diagonalization with overlap
     ethr =  1.15E-04,  avg # of iterations =  1.8

     negative rho (up, down):  9.325E-03 0.000E+00
 
     Adding external electric field

     Computed dipole along edir(3) : 
        Dipole                0.7103 Ry au,          1.8054 Debye
        Dipole field          0.0013 Ry au, 
 
        Potential amp.       -0.1243 Ry
        Total length         46.3494 bohr
 

     total cpu time spent up to now is     2127.5 secs

     total energy              =   -2933.82578440 Ry
     estimated scf accuracy    <       0.83858271 Ry

     iteration # 24     ecut=    29.40 Ry     beta= 0.05
     Davidson diagonalization with overlap
     c_bands:  3 eigenvalues not converged
     ethr =  1.15E-04,  avg # of iterations = 13.2

     negative rho (up, down):  9.824E-03 0.000E+00
 
     Adding external electric field

     Computed dipole along edir(3) : 
        Dipole                0.6928 Ry au,          1.7610 Debye
        Dipole field          0.0013 Ry au, 
 
        Potential amp.       -0.1212 Ry
        Total length         46.3494 bohr
 

     total cpu time spent up to now is     2185.5 secs

     total energy              =   -2933.85713639 Ry
     estimated scf accuracy    <       0.08664222 Ry

     iteration # 25     ecut=    29.40 Ry     beta= 0.05
     Davidson diagonalization with overlap
     c_bands:  3 eigenvalues not converged
     c_bands:  2 eigenvalues not converged
     c_bands:  2 eigenvalues not converged
     c_bands:  3 eigenvalues not converged
     c_bands:  3 eigenvalues not converged
     c_bands:  2 eigenvalues not converged
     c_bands:  4 eigenvalues not converged
     c_bands:  1 eigenvalues not converged
     c_bands:  1 eigenvalues not converged
     ethr =  2.20E-05,  avg # of iterations = 20.0

     negative rho (up, down):  9.709E-03 0.000E+00
 
     Adding external electric field

     Computed dipole along edir(3) : 
        Dipole                0.5414 Ry au,          1.3762 Debye
        Dipole field          0.0010 Ry au, 
 
        Potential amp.       -0.0947 Ry
        Total length         46.3494 bohr
 

     total cpu time spent up to now is     2215.4 secs

     total energy              =   -2933.85917746 Ry
     estimated scf accuracy    <       0.03797602 Ry

     iteration # 26     ecut=    29.40 Ry     beta= 0.05
     Davidson diagonalization with overlap
     c_bands:  1 eigenvalues not converged
     c_bands:  1 eigenvalues not converged
     c_bands:  1 eigenvalues not converged
     c_bands:  2 eigenvalues not converged
     c_bands:  1 eigenvalues not converged
     c_bands:  1 eigenvalues not converged
     ethr =  9.66E-06,  avg # of iterations = 18.5

     negative rho (up, down):  9.802E-03 0.000E+00
 
     Adding external electric field

     Computed dipole along edir(3) : 
        Dipole                0.5743 Ry au,          1.4597 Debye
        Dipole field          0.0011 Ry au, 
 
        Potential amp.       -0.1005 Ry
        Total length         46.3494 bohr
 

     total cpu time spent up to now is     2234.5 secs

     total energy              =   -2933.86215949 Ry
     estimated scf accuracy    <       0.04416706 Ry

     iteration # 27     ecut=    29.40 Ry     beta= 0.05
     Davidson diagonalization with overlap
     c_bands:  1 eigenvalues not converged
     c_bands:  1 eigenvalues not converged
     ethr =  9.66E-06,  avg # of iterations =  7.4

     negative rho (up, down):  1.018E-02 0.000E+00
 
     Adding external electric field

     Computed dipole along edir(3) : 
        Dipole                0.6830 Ry au,          1.7359 Debye
        Dipole field          0.0013 Ry au, 
 
        Potential amp.       -0.1195 Ry
        Total length         46.3494 bohr
 

     total cpu time spent up to now is     2246.3 secs

     total energy              =   -2933.86358855 Ry
     estimated scf accuracy    <       0.01571864 Ry

     iteration # 28     ecut=    29.40 Ry     beta= 0.05
     Davidson diagonalization with overlap
     c_bands:  2 eigenvalues not converged
     c_bands:  1 eigenvalues not converged
     c_bands:  1 eigenvalues not converged
     c_bands:  2 eigenvalues not converged
     c_bands:  2 eigenvalues not converged
     c_bands:  1 eigenvalues not converged
     c_bands:  1 eigenvalues not converged
     c_bands:  1 eigenvalues not converged
     ethr =  4.00E-06,  avg # of iterations = 19.4

     negative rho (up, down):  1.148E-02 0.000E+00
 
     Adding external electric field

     Computed dipole along edir(3) : 
        Dipole                0.7737 Ry au,          1.9666 Debye
        Dipole field          0.0015 Ry au, 
 
        Potential amp.       -0.1354 Ry
        Total length         46.3494 bohr
 

     total cpu time spent up to now is     2264.3 secs

     total energy              =   -2933.86461254 Ry
     estimated scf accuracy    <       0.02634333 Ry

     iteration # 29     ecut=    29.40 Ry     beta= 0.05
     Davidson diagonalization with overlap
     c_bands:  1 eigenvalues not converged
     ethr =  4.00E-06,  avg # of iterations = 12.1

     negative rho (up, down):  1.500E-02 0.000E+00
 
     Adding external electric field

     Computed dipole along edir(3) : 
        Dipole                0.8820 Ry au,          2.2419 Debye
        Dipole field          0.0017 Ry au, 
 
        Potential amp.       -0.1543 Ry
        Total length         46.3494 bohr
 

     total cpu time spent up to now is     2277.9 secs

     total energy              =   -2933.86384595 Ry
     estimated scf accuracy    <       0.00941098 Ry

     iteration # 30     ecut=    29.40 Ry     beta= 0.05
     Davidson diagonalization with overlap
     c_bands:  2 eigenvalues not converged
     c_bands:  2 eigenvalues not converged
     c_bands:  2 eigenvalues not converged
     c_bands:  2 eigenvalues not converged
     c_bands:  1 eigenvalues not converged
     ethr =  2.39E-06,  avg # of iterations = 17.9

     negative rho (up, down):  1.496E-02 0.000E+00
 
     Adding external electric field

     Computed dipole along edir(3) : 
        Dipole                0.7709 Ry au,          1.9595 Debye
        Dipole field          0.0015 Ry au, 
 
        Potential amp.       -0.1349 Ry
        Total length         46.3494 bohr
 

     total cpu time spent up to now is     2437.5 secs

     total energy              =   -2933.86388819 Ry
     estimated scf accuracy    <       0.04042924 Ry

     iteration # 31     ecut=    29.40 Ry     beta= 0.05
     Davidson diagonalization with overlap
     c_bands:  1 eigenvalues not converged
     c_bands:  1 eigenvalues not converged
     c_bands:  1 eigenvalues not converged
     c_bands:  1 eigenvalues not converged
     c_bands:  3 eigenvalues not converged
     ethr =  2.39E-06,  avg # of iterations = 16.5

     negative rho (up, down):  1.539E-02 0.000E+00
 
     Adding external electric field

     Computed dipole along edir(3) : 
        Dipole                0.8421 Ry au,          2.1404 Debye
        Dipole field          0.0016 Ry au, 
 
        Potential amp.       -0.1473 Ry
        Total length         46.3494 bohr
 

     total cpu time spent up to now is     2456.8 secs

     total energy              =   -2933.86576981 Ry
     estimated scf accuracy    <       0.00490372 Ry

     iteration # 32     ecut=    29.40 Ry     beta= 0.05
     Davidson diagonalization with overlap
     c_bands:  1 eigenvalues not converged
     c_bands:  1 eigenvalues not converged
     c_bands:  1 eigenvalues not converged
     c_bands:  1 eigenvalues not converged
     ethr =  1.25E-06,  avg # of iterations = 14.0

     negative rho (up, down):  1.702E-02 0.000E+00
 
     Adding external electric field

     Computed dipole along edir(3) : 
        Dipole                0.8484 Ry au,          2.1565 Debye
        Dipole field          0.0016 Ry au, 
 
        Potential amp.       -0.1484 Ry
        Total length         46.3494 bohr
 

     total cpu time spent up to now is     2471.9 secs

     total energy              =   -2933.86607645 Ry
     estimated scf accuracy    <       0.00534403 Ry

     iteration # 33     ecut=    29.40 Ry     beta= 0.05
     Davidson diagonalization with overlap
     c_bands:  1 eigenvalues not converged
     ethr =  1.25E-06,  avg # of iterations = 12.5

     negative rho (up, down):  1.661E-02 0.000E+00
 
     Adding external electric field

     Computed dipole along edir(3) : 
        Dipole                0.7923 Ry au,          2.0139 Debye
        Dipole field          0.0015 Ry au, 
 
        Potential amp.       -0.1386 Ry
        Total length         46.3494 bohr
 

     total cpu time spent up to now is     2485.9 secs

     total energy              =   -2933.86594511 Ry
     estimated scf accuracy    <       0.00166209 Ry

     iteration # 34     ecut=    29.40 Ry     beta= 0.05
     Davidson diagonalization with overlap
     c_bands:  1 eigenvalues not converged
     ethr =  4.23E-07,  avg # of iterations = 13.9

     negative rho (up, down):  1.672E-02 0.000E+00
 
     Adding external electric field

     Computed dipole along edir(3) : 
        Dipole                0.8003 Ry au,          2.0341 Debye
        Dipole field          0.0015 Ry au, 
 
        Potential amp.       -0.1400 Ry
        Total length         46.3494 bohr
 

     total cpu time spent up to now is     2504.3 secs

     total energy              =   -2933.86627836 Ry
     estimated scf accuracy    <       0.00046812 Ry

     iteration # 35     ecut=    29.40 Ry     beta= 0.05
     Davidson diagonalization with overlap
     ethr =  1.19E-07,  avg # of iterations =  7.8

     negative rho (up, down):  1.676E-02 0.000E+00
 
     Adding external electric field

     Computed dipole along edir(3) : 
        Dipole                0.8019 Ry au,          2.0382 Debye
        Dipole field          0.0015 Ry au, 
 
        Potential amp.       -0.1403 Ry
        Total length         46.3494 bohr
 

     total cpu time spent up to now is     2516.4 secs

     total energy              =   -2933.86630802 Ry
     estimated scf accuracy    <       0.00030683 Ry

     iteration # 36     ecut=    29.40 Ry     beta= 0.05
     Davidson diagonalization with overlap
     ethr =  7.81E-08,  avg # of iterations = 13.5

     negative rho (up, down):  1.688E-02 0.000E+00
 
     Adding external electric field

     Computed dipole along edir(3) : 
        Dipole                0.7958 Ry au,          2.0228 Debye
        Dipole field          0.0015 Ry au, 
 
        Potential amp.       -0.1392 Ry
        Total length         46.3494 bohr
 

     total cpu time spent up to now is     2534.2 secs

     total energy              =   -2933.86636593 Ry
     estimated scf accuracy    <       0.00027754 Ry

     iteration # 37     ecut=    29.40 Ry     beta= 0.05
     Davidson diagonalization with overlap
     c_bands:  1 eigenvalues not converged
     ethr =  7.06E-08,  avg # of iterations = 14.0

     negative rho (up, down):  1.754E-02 0.000E+00
 
     Adding external electric field

     Computed dipole along edir(3) : 
        Dipole                0.8254 Ry au,          2.0979 Debye
        Dipole field          0.0016 Ry au, 
 
        Potential amp.       -0.1444 Ry
        Total length         46.3494 bohr
 

     total cpu time spent up to now is     2553.2 secs

     total energy              =   -2933.86642855 Ry
     estimated scf accuracy    <       0.00028566 Ry

     iteration # 38     ecut=    29.40 Ry     beta= 0.05
     Davidson diagonalization with overlap
     ethr =  7.06E-08,  avg # of iterations = 11.9

     negative rho (up, down):  1.773E-02 0.000E+00
 
     Adding external electric field

     Computed dipole along edir(3) : 
        Dipole                0.8228 Ry au,          2.0914 Debye
        Dipole field          0.0016 Ry au, 
 
        Potential amp.       -0.1439 Ry
        Total length         46.3494 bohr
 

     total cpu time spent up to now is     2571.5 secs

     total energy              =   -2933.86652456 Ry
     estimated scf accuracy    <       0.00011214 Ry

     iteration # 39     ecut=    29.40 Ry     beta= 0.05
     Davidson diagonalization with overlap
     ethr =  2.85E-08,  avg # of iterations =  8.4

     negative rho (up, down):  1.791E-02 0.000E+00
 
     Adding external electric field

     Computed dipole along edir(3) : 
        Dipole                0.8213 Ry au,          2.0876 Debye
        Dipole field          0.0015 Ry au, 
 
        Potential amp.       -0.1437 Ry
        Total length         46.3494 bohr
 

     total cpu time spent up to now is     2584.3 secs

     total energy              =   -2933.86656962 Ry
     estimated scf accuracy    <       0.00003208 Ry

     iteration # 40     ecut=    29.40 Ry     beta= 0.05
     Davidson diagonalization with overlap
     c_bands:  1 eigenvalues not converged
     ethr =  8.16E-09,  avg # of iterations = 13.5

     negative rho (up, down):  1.782E-02 0.000E+00
 
     Adding external electric field

     Computed dipole along edir(3) : 
        Dipole                0.8230 Ry au,          2.0918 Debye
        Dipole field          0.0016 Ry au, 
 
        Potential amp.       -0.1440 Ry
        Total length         46.3494 bohr
 

     total cpu time spent up to now is     2696.3 secs

     total energy              =   -2933.86660355 Ry
     estimated scf accuracy    <       0.00003578 Ry

     iteration # 41     ecut=    29.40 Ry     beta= 0.05
     Davidson diagonalization with overlap
     ethr =  8.16E-09,  avg # of iterations = 12.2

     negative rho (up, down):  1.780E-02 0.000E+00
 
     Adding external electric field

     Computed dipole along edir(3) : 
        Dipole                0.8210 Ry au,          2.0868 Debye
        Dipole field          0.0015 Ry au, 
 
        Potential amp.       -0.1436 Ry
        Total length         46.3494 bohr
 

     total cpu time spent up to now is     2712.5 secs

     total energy              =   -2933.86663729 Ry
     estimated scf accuracy    <       0.00001535 Ry

     iteration # 42     ecut=    29.40 Ry     beta= 0.05
     Davidson diagonalization with overlap
     ethr =  3.91E-09,  avg # of iterations =  2.0

     negative rho (up, down):  1.767E-02 0.000E+00
 
     Adding external electric field

     Computed dipole along edir(3) : 
        Dipole                0.8174 Ry au,          2.0775 Debye
        Dipole field          0.0015 Ry au, 
 
        Potential amp.       -0.1430 Ry
        Total length         46.3494 bohr
 

     total cpu time spent up to now is     2723.2 secs

     total energy              =   -2933.86666197 Ry
     estimated scf accuracy    <       0.00001052 Ry

     iteration # 43     ecut=    29.40 Ry     beta= 0.05
     Davidson diagonalization with overlap
     c_bands:  1 eigenvalues not converged
     ethr =  2.68E-09,  avg # of iterations = 13.6

     negative rho (up, down):  1.769E-02 0.000E+00
 
     Adding external electric field

     Computed dipole along edir(3) : 
        Dipole                0.8208 Ry au,          2.0864 Debye
        Dipole field          0.0015 Ry au, 
 
        Potential amp.       -0.1436 Ry
        Total length         46.3494 bohr
 

     total cpu time spent up to now is     2743.0 secs

     total energy              =   -2933.86668739 Ry
     estimated scf accuracy    <       0.00001243 Ry

     iteration # 44     ecut=    29.40 Ry     beta= 0.05
     Davidson diagonalization with overlap
     ethr =  2.68E-09,  avg # of iterations = 10.4

     negative rho (up, down):  1.764E-02 0.000E+00
 
     Adding external electric field

     Computed dipole along edir(3) : 
        Dipole                0.8204 Ry au,          2.0852 Debye
        Dipole field          0.0015 Ry au, 
 
        Potential amp.       -0.1435 Ry
        Total length         46.3494 bohr
 

     total cpu time spent up to now is     2757.8 secs

     total energy              =   -2933.86671050 Ry
     estimated scf accuracy    <       0.00000194 Ry

     iteration # 45     ecut=    29.40 Ry     beta= 0.05
     Davidson diagonalization with overlap
     ethr =  4.93E-10,  avg # of iterations = 12.4

     negative rho (up, down):  1.761E-02 0.000E+00
 
     Adding external electric field

     Computed dipole along edir(3) : 
        Dipole                0.8201 Ry au,          2.0845 Debye
        Dipole field          0.0015 Ry au, 
 
        Potential amp.       -0.1435 Ry
        Total length         46.3494 bohr
 

     total cpu time spent up to now is     2776.3 secs

     total energy              =   -2933.86673068 Ry
     estimated scf accuracy    <       0.00000144 Ry

     iteration # 46     ecut=    29.40 Ry     beta= 0.05
     Davidson diagonalization with overlap
     ethr =  3.67E-10,  avg # of iterations =  1.1

     negative rho (up, down):  1.756E-02 0.000E+00
 
     Adding external electric field

     Computed dipole along edir(3) : 
        Dipole                0.8205 Ry au,          2.0855 Debye
        Dipole field          0.0015 Ry au, 
 
        Potential amp.       -0.1435 Ry
        Total length         46.3494 bohr
 

     total cpu time spent up to now is     2786.1 secs

     total energy              =   -2933.86674859 Ry
     estimated scf accuracy    <       0.00000112 Ry

     iteration # 47     ecut=    29.40 Ry     beta= 0.05
     Davidson diagonalization with overlap
     c_bands:  1 eigenvalues not converged
     ethr =  2.85E-10,  avg # of iterations = 16.3

     negative rho (up, down):  1.756E-02 0.000E+00
 
     Adding external electric field

     Computed dipole along edir(3) : 
        Dipole                0.8195 Ry au,          2.0829 Debye
        Dipole field          0.0015 Ry au, 
 
        Potential amp.       -0.1434 Ry
        Total length         46.3494 bohr
 

     total cpu time spent up to now is     2867.3 secs

     total energy              =   -2933.86676519 Ry
     estimated scf accuracy    <       0.00000249 Ry

     iteration # 48     ecut=    29.40 Ry     beta= 0.05
     Davidson diagonalization with overlap
     ethr =  2.85E-10,  avg # of iterations = 11.8

     negative rho (up, down):  1.755E-02 0.000E+00
 
     Adding external electric field

     Computed dipole along edir(3) : 
        Dipole                0.8195 Ry au,          2.0831 Debye
        Dipole field          0.0015 Ry au, 
 
        Potential amp.       -0.1434 Ry
        Total length         46.3494 bohr
 

     total cpu time spent up to now is     2884.1 secs

     total energy              =   -2933.86678014 Ry
     estimated scf accuracy    <       0.00000041 Ry

     iteration # 49     ecut=    29.40 Ry     beta= 0.05
     Davidson diagonalization with overlap
     ethr =  1.04E-10,  avg # of iterations =  6.1

     negative rho (up, down):  1.753E-02 0.000E+00
 
     Adding external electric field

     Computed dipole along edir(3) : 
        Dipole                0.8192 Ry au,          2.0822 Debye
        Dipole field          0.0015 Ry au, 
 
        Potential amp.       -0.1433 Ry
        Total length         46.3494 bohr
 

     total cpu time spent up to now is     2896.5 secs

     total energy              =   -2933.86679351 Ry
     estimated scf accuracy    <       0.00000018 Ry

     iteration # 50     ecut=    29.40 Ry     beta= 0.05
     Davidson diagonalization with overlap
     ethr =  4.66E-11,  avg # of iterations = 12.6

     negative rho (up, down):  1.752E-02 0.000E+00
 
     Adding external electric field

     Computed dipole along edir(3) : 
        Dipole                0.8193 Ry au,          2.0825 Debye
        Dipole field          0.0015 Ry au, 
 
        Potential amp.       -0.1433 Ry
        Total length         46.3494 bohr
 

     total cpu time spent up to now is     2915.4 secs

     total energy              =   -2933.86680548 Ry
     estimated scf accuracy    <       0.00000011 Ry

     iteration # 51     ecut=    29.40 Ry     beta= 0.05
     Davidson diagonalization with overlap
     ethr =  2.91E-11,  avg # of iterations =  4.5

     negative rho (up, down):  1.752E-02 0.000E+00
 
     Adding external electric field

     Computed dipole along edir(3) : 
        Dipole                0.8192 Ry au,          2.0821 Debye
        Dipole field          0.0015 Ry au, 
 
        Potential amp.       -0.1433 Ry
        Total length         46.3494 bohr
 

     total cpu time spent up to now is     2927.3 secs

     total energy              =   -2933.86681631 Ry
     estimated scf accuracy    <       0.00000010 Ry

     iteration # 52     ecut=    29.40 Ry     beta= 0.05
     Davidson diagonalization with overlap
     c_bands:  1 eigenvalues not converged
     ethr =  2.55E-11,  avg # of iterations = 12.6

     negative rho (up, down):  1.749E-02 0.000E+00
 
     Adding external electric field

     Computed dipole along edir(3) : 
        Dipole                0.8191 Ry au,          2.0819 Debye
        Dipole field          0.0015 Ry au, 
 
        Potential amp.       -0.1433 Ry
        Total length         46.3494 bohr
 

     total cpu time spent up to now is     2944.3 secs

     End of self-consistent calculation

          k = 0.0000 0.0000 0.0000 ( 18029 PWs)   bands (ev):

   -55.8894 -55.8535 -55.8469 -55.8210 -55.8103 -55.7790 -55.7460 -55.6902
   -55.6597 -55.6506 -55.6175 -55.6099 -55.5513 -55.5506 -54.8988 -54.8647
   -32.4044 -32.3583 -32.2622 -32.2412 -32.1811 -32.1613 -32.1607 -32.1271
   -32.1166 -32.1069 -32.0881 -32.0833 -32.0647 -32.0494 -32.0479 -32.0303
   -31.9985 -31.9926 -31.9804 -31.9796 -31.9544 -31.9514 -31.9460 -31.9307
   -31.9277 -31.9048 -31.9013 -31.8881 -31.8826 -31.8744 -31.8719 -31.8465
   -31.8218 -31.8058 -31.7940 -31.7918 -31.7695 -31.7550 -31.7530 -31.7370
   -31.7361 -31.6585 -31.3085 -31.2120 -31.1897 -31.1249 -31.0388 -30.9279
   -19.3371 -16.6146 -16.3386 -16.1899 -16.0511 -16.0150 -15.8152 -15.7031
   -15.5829 -15.5462 -15.4869 -15.4662 -15.4346 -15.4145 -15.4119 -15.3977
   -15.3902 -15.3375 -15.3286 -15.2936 -15.2919 -15.2652 -15.2097 -15.1645
   -15.1101 -15.0566 -15.0084 -14.9419 -14.8852 -14.8746 -13.4000 -13.2819
    -9.2824  -7.1388  -3.9856  -3.8338  -3.8161  -3.7811  -3.7190  -3.6266
    -3.4769  -3.3653  -3.2266  -3.0755  -3.0249  -3.0106  -3.0089  -2.9820
    -2.8829  -2.7589  -2.7336  -2.7061  -2.7011  -2.6824  -2.6811  -2.6442
    -2.5989  -2.5882  -2.5528  -2.5399  -2.3880  -2.3174  -2.3021  -2.2616
    -2.2000  -2.1911  -2.1570  -2.1423  -2.1341  -2.0970  -2.0796  -2.0325
    -1.9823  -1.9104  -1.8280  -1.7723  -1.6721  -1.5820  -1.5212  -1.4661
    -1.4330  -1.3333  -1.3161  -1.2893  -1.2173  -1.1902  -1.1222  -1.0725
    -0.9809  -0.9054  -0.8873  -0.8361  -0.7875  -0.6725  -0.6490  -0.6214
    -0.6159  -0.6022  -0.5798  -0.4222  -0.3954  -0.3310  -0.3225  -0.2103
    -0.2064  -0.1762  -0.1580  -0.1000  -0.0709  -0.0002   0.0368   0.0776
     0.0872   0.1107   0.1213   0.1339   0.2258   0.3158   0.3405   0.4118
     0.4485   0.5649   0.6426   0.7599   0.8518   1.0322   1.0758   1.1251
     1.2018   1.2971   1.7118   1.7707   3.2955   3.3418   3.3618   3.3828
     3.4107   3.5419   3.6630   3.7476   3.7725   3.8047

          k = 0.0000 0.0419 0.0000 ( 17933 PWs)   bands (ev):

   -55.8848 -55.8580 -55.8416 -55.8199 -55.8154 -55.7741 -55.7507 -55.6912
   -55.6579 -55.6460 -55.6224 -55.6078 -55.5526 -55.5525 -54.8938 -54.8696
   -32.3471 -32.3045 -32.2098 -32.1911 -32.1761 -32.1509 -32.1476 -32.0914
   -32.0855 -32.0827 -32.0737 -32.0727 -32.0693 -32.0400 -32.0377 -32.0371
   -32.0356 -32.0185 -32.0066 -31.9920 -31.9682 -31.9620 -31.9474 -31.9324
   -31.9296 -31.9172 -31.9036 -31.8996 -31.8970 -31.8917 -31.8753 -31.8699
   -31.8367 -31.8095 -31.8094 -31.7960 -31.7932 -31.7882 -31.7704 -31.7675
   -31.7334 -31.6833 -31.2545 -31.2086 -31.1927 -31.1124 -31.0513 -30.9850
   -19.3369 -16.4797 -16.2173 -16.0771 -15.9593 -15.9079 -15.7751 -15.7291
   -15.6441 -15.5292 -15.5165 -15.4872 -15.4660 -15.4146 -15.4104 -15.3883
   -15.3795 -15.3528 -15.3393 -15.3255 -15.2929 -15.2841 -15.2119 -15.1981
   -15.1607 -15.1125 -15.0673 -15.0064 -14.9515 -14.9405 -13.4032 -13.3210
    -9.2912  -7.1385  -3.8206  -3.7148  -3.6493  -3.6106  -3.5905  -3.5123
    -3.3317  -3.1511  -3.1075  -3.0533  -3.0248  -2.9306  -2.9152  -2.8807
    -2.8553  -2.8247  -2.8039  -2.7864  -2.7708  -2.7618  -2.7193  -2.6743
    -2.6403  -2.6201  -2.6091  -2.5804  -2.5587  -2.5476  -2.4502  -2.3848
    -2.3436  -2.3008  -2.2782  -2.1874  -2.1834  -2.1108  -2.0329  -2.0203
    -1.9596  -1.8386  -1.7445  -1.6517  -1.6301  -1.5472  -1.5100  -1.4212
    -1.2735  -1.2586  -1.1771  -1.1404  -1.1112  -1.0801  -1.0062  -0.9631
    -0.8962  -0.8393  -0.8267  -0.8213  -0.7913  -0.7679  -0.6948  -0.6620
    -0.6410  -0.5287  -0.5230  -0.5136  -0.4595  -0.4375  -0.3760  -0.3344
    -0.3224  -0.2625  -0.2134  -0.1506  -0.1254  -0.0957  -0.0754  -0.0194
    -0.0089   0.0254   0.0522   0.1251   0.1965   0.2128   0.2719   0.3418
     0.4301   0.4396   0.5045   0.5320   0.7331   0.7608   1.0761   1.1243
     1.3141   1.3875   1.6604   1.6826   3.4522   3.4689   3.5418   3.5627
     3.6092   3.6485   3.6736   3.6946   3.7598   3.8174

          k = 0.0000-0.0839 0.0000 ( 17884 PWs)   bands (ev):

   -55.8773 -55.8654 -55.8312 -55.8259 -55.8186 -55.7643 -55.7604 -55.6923
   -55.6562 -55.6355 -55.6331 -55.6055 -55.5548 -55.5538 -54.8822 -54.8812
   -32.2162 -32.1995 -32.1802 -32.1690 -32.1663 -32.1508 -32.1226 -32.1180
   -32.0983 -32.0828 -32.0819 -32.0454 -32.0425 -32.0389 -32.0347 -32.0308
   -32.0269 -32.0057 -31.9982 -31.9969 -31.9902 -31.9785 -31.9556 -31.9440
   -31.9409 -31.9386 -31.9342 -31.9085 -31.9027 -31.8945 -31.8905 -31.8855
   -31.8807 -31.8609 -31.8591 -31.8111 -31.7962 -31.7935 -31.7844 -31.7793
   -31.7309 -31.7046 -31.2010 -31.1998 -31.1220 -31.1211 -31.0823 -31.0814
   -19.3366 -16.1644 -16.1154 -15.9380 -15.9066 -15.8039 -15.7971 -15.7169
   -15.7061 -15.6573 -15.6480 -15.5561 -15.5016 -15.4104 -15.3870 -15.3750
   -15.3233 -15.3120 -15.2882 -15.2849 -15.2802 -15.2491 -15.2448 -15.2128
   -15.2069 -15.1926 -15.1147 -15.0811 -15.0767 -15.0715 -13.3845 -13.3828
    -9.2998  -7.1383  -3.7113  -3.3866  -3.3153  -3.2902  -3.2466  -3.2169
    -3.2045  -3.1918  -3.1650  -3.1561  -3.1215  -3.0540  -3.0043  -2.9888
    -2.9586  -2.9259  -2.8601  -2.8115  -2.8093  -2.7922  -2.7858  -2.7515
    -2.7351  -2.6907  -2.6531  -2.6373  -2.6061  -2.5323  -2.5226  -2.4170
    -2.3513  -2.2906  -2.2201  -2.2037  -2.0228  -1.9540  -1.8843  -1.8166
    -1.7974  -1.7666  -1.7063  -1.6358  -1.6076  -1.5654  -1.5239  -1.3998
    -1.3402  -1.3043  -1.3011  -1.2874  -1.2399  -1.1725  -1.1272  -1.0931
    -1.0775  -0.9893  -0.8271  -0.7505  -0.6944  -0.6162  -0.5590  -0.5278
    -0.5085  -0.4842  -0.4780  -0.4531  -0.3962  -0.3826  -0.3414  -0.3338
    -0.3170  -0.2887  -0.2670  -0.2342  -0.2183  -0.1913  -0.1643  -0.1357
    -0.1091  -0.0858  -0.0684  -0.0341  -0.0017   0.0591   0.1301   0.2739
     0.2983   0.3474   0.3514   0.6300   0.6842   0.8045   0.8642   1.1710
     1.4494   1.4532   1.6012   1.6050   3.5540   3.5806   3.6178   3.6431
     3.6811   3.7092   3.7426   3.8309   3.8575   3.8884

          k = 0.0380 0.0000 0.0000 ( 17913 PWs)   bands (ev):

   -55.8893 -55.8534 -55.8467 -55.8209 -55.8102 -55.7790 -55.7458 -55.6901
   -55.6592 -55.6509 -55.6174 -55.6099 -55.5512 -55.5505 -54.8987 -54.8646
   -32.4045 -32.3592 -32.2665 -32.2434 -32.1809 -32.1613 -32.1606 -32.1307
   -32.1167 -32.1075 -32.0840 -32.0690 -32.0635 -32.0465 -32.0402 -32.0302
   -31.9985 -31.9870 -31.9802 -31.9791 -31.9710 -31.9542 -31.9457 -31.9274
   -31.9127 -31.9044 -31.9009 -31.8881 -31.8776 -31.8745 -31.8718 -31.8464
   -31.8284 -31.8151 -31.7926 -31.7924 -31.7691 -31.7549 -31.7523 -31.7419
   -31.7372 -31.6584 -31.3080 -31.2154 -31.1876 -31.1247 -31.0387 -30.9276
   -19.3368 -16.5371 -16.2450 -16.1154 -16.0560 -15.9223 -15.8268 -15.7532
   -15.6277 -15.5996 -15.5777 -15.5691 -15.5362 -15.5120 -15.4366 -15.4303
   -15.3878 -15.3424 -15.2964 -15.2541 -15.2137 -15.1770 -15.1554 -15.1366
   -15.1216 -15.0817 -15.0055 -14.9689 -14.9353 -14.8731 -13.3966 -13.2816
    -9.2809  -7.1335  -3.8985  -3.6867  -3.6384  -3.5664  -3.5349  -3.5023
    -3.3849  -3.3599  -3.3280  -3.2210  -3.0996  -3.0858  -3.0166  -2.9799
    -2.9712  -2.9564  -2.8224  -2.7248  -2.6681  -2.6093  -2.5794  -2.5538
    -2.5447  -2.4924  -2.4541  -2.4134  -2.4017  -2.2926  -2.2677  -2.2387
    -2.2198  -2.1524  -2.1267  -2.0932  -2.0662  -1.9888  -1.9373  -1.8719
    -1.8610  -1.8157  -1.7775  -1.7275  -1.6827  -1.6584  -1.5734  -1.5486
    -1.4434  -1.3720  -1.3164  -1.3076  -1.2737  -1.2207  -1.2131  -1.1436
    -1.1156  -1.0784  -0.9871  -0.8867  -0.8072  -0.7143  -0.6700  -0.6606
    -0.6275  -0.5968  -0.5308  -0.5063  -0.4140  -0.3885  -0.3177  -0.2865
    -0.2237  -0.2036  -0.1827  -0.1581  -0.1264  -0.0945  -0.0420  -0.0239
     0.0041   0.0184   0.0319   0.1604   0.2121   0.2294   0.2944   0.3100
     0.3794   0.3981   0.4508   0.7423   0.8032   1.0331   1.0724   1.1052
     1.1371   1.2651   1.5958   1.6824   3.3379   3.3969   3.5421   3.5706
     3.5896   3.6472   3.6661   3.7159   3.7542   3.7946

          k = 0.0380 0.0419 0.0000 ( 17878 PWs)   bands (ev):

   -55.8847 -55.8580 -55.8415 -55.8198 -55.8154 -55.7742 -55.7506 -55.6912
   -55.6576 -55.6461 -55.6224 -55.6078 -55.5526 -55.5525 -54.8937 -54.8696
   -32.3473 -32.3053 -32.2147 -32.1933 -32.1760 -32.1509 -32.1475 -32.0915
   -32.0852 -32.0830 -32.0766 -32.0707 -32.0576 -32.0374 -32.0373 -32.0329
   -32.0328 -32.0182 -31.9972 -31.9919 -31.9717 -31.9678 -31.9549 -31.9341
   -31.9311 -31.9046 -31.9018 -31.9012 -31.8961 -31.8839 -31.8752 -31.8700
   -31.8351 -31.8137 -31.8104 -31.8015 -31.7937 -31.7918 -31.7702 -31.7674
   -31.7393 -31.6832 -31.2541 -31.2112 -31.1916 -31.1122 -31.0514 -30.9849
   -19.3366 -16.4088 -16.1309 -16.0120 -15.9544 -15.8236 -15.7814 -15.7328
   -15.6802 -15.5799 -15.5736 -15.5409 -15.5039 -15.4905 -15.4596 -15.4083
   -15.3821 -15.3369 -15.3289 -15.3104 -15.2537 -15.2385 -15.2004 -15.1973
   -15.1864 -15.1350 -15.0804 -15.0177 -14.9985 -14.9494 -13.4009 -13.3213
    -9.2900  -7.1343  -3.7743  -3.6181  -3.4716  -3.4067  -3.3736  -3.3296
    -3.2413  -3.1795  -3.1326  -3.0781  -2.9938  -2.9345  -2.9283  -2.8717
    -2.8451  -2.8345  -2.7949  -2.7573  -2.7261  -2.7116  -2.6757  -2.6470
    -2.6174  -2.6092  -2.5742  -2.5448  -2.5016  -2.4829  -2.4322  -2.3798
    -2.3511  -2.2586  -2.2155  -2.1874  -2.1333  -2.0572  -1.9956  -1.9460
    -1.8792  -1.8504  -1.7930  -1.6745  -1.5969  -1.5589  -1.4945  -1.3945
    -1.3373  -1.3159  -1.2184  -1.2076  -1.1897  -1.1323  -1.1008  -1.0538
    -1.0263  -0.9915  -0.9129  -0.8768  -0.8218  -0.7855  -0.7495  -0.7091
    -0.6862  -0.6434  -0.5992  -0.5646  -0.5260  -0.5092  -0.4780  -0.4373
    -0.4146  -0.3663  -0.3564  -0.3269  -0.2572  -0.1931  -0.1681  -0.1188
    -0.0751  -0.0017   0.0669   0.1285   0.2147   0.2569   0.3129   0.3512
     0.4060   0.4349   0.4973   0.5783   0.6792   0.7290   1.0204   1.1367
     1.3267   1.3920   1.5820   1.6588   3.4489   3.5366   3.5786   3.6050
     3.6644   3.6761   3.7447   3.7740   3.8045   3.8382

          k = 0.0380-0.0839 0.0000 ( 17916 PWs)   bands (ev):

   -55.8773 -55.8654 -55.8311 -55.8259 -55.8186 -55.7644 -55.7604 -55.6923
   -55.6561 -55.6355 -55.6332 -55.6056 -55.5548 -55.5539 -54.8822 -54.8812
   -32.2165 -32.1999 -32.1808 -32.1692 -32.1670 -32.1509 -32.1228 -32.1186
   -32.0997 -32.0923 -32.0907 -32.0448 -32.0361 -32.0342 -32.0224 -32.0211
   -32.0164 -32.0045 -31.9970 -31.9966 -31.9934 -31.9787 -31.9561 -31.9516
   -31.9494 -31.9458 -31.9452 -31.9096 -31.8938 -31.8903 -31.8867 -31.8808
   -31.8730 -31.8592 -31.8494 -31.8134 -31.8051 -31.7965 -31.7903 -31.7792
   -31.7382 -31.7045 -31.2020 -31.2007 -31.1219 -31.1210 -31.0823 -31.0814
   -19.3365 -16.1244 -16.0592 -15.8800 -15.8455 -15.7681 -15.7483 -15.7169
   -15.6994 -15.6290 -15.6054 -15.5557 -15.5369 -15.4276 -15.4208 -15.3908
   -15.3828 -15.3554 -15.3149 -15.3075 -15.2898 -15.2718 -15.2632 -15.2538
   -15.2468 -15.1768 -15.1409 -15.1206 -15.1045 -15.0599 -13.3843 -13.3826
    -9.2990  -7.1351  -3.7102  -3.3660  -3.1866  -3.1366  -3.0914  -3.0596
    -3.0442  -3.0310  -3.0236  -3.0078  -2.9494  -2.9425  -2.9287  -2.9007
    -2.8763  -2.8621  -2.8254  -2.7823  -2.7499  -2.7283  -2.7224  -2.7035
    -2.6725  -2.6672  -2.6483  -2.6275  -2.6019  -2.5368  -2.5076  -2.4682
    -2.4093  -2.3277  -2.0953  -2.0288  -1.9810  -1.9552  -1.8893  -1.8446
    -1.7972  -1.7720  -1.7389  -1.7189  -1.6685  -1.6562  -1.6364  -1.5863
    -1.5445  -1.5037  -1.4442  -1.4138  -1.4089  -1.3562  -1.2139  -1.0780
    -1.0266  -0.9484  -0.9108  -0.8585  -0.8273  -0.8037  -0.7018  -0.6732
    -0.6380  -0.6231  -0.6150  -0.5767  -0.5589  -0.5407  -0.4836  -0.4559
    -0.4403  -0.4242  -0.3987  -0.3660  -0.3253  -0.2369  -0.2326  -0.1634
    -0.0570  -0.0216   0.0509   0.1238   0.1959   0.2044   0.2491   0.2585
     0.3042   0.4133   0.4559   0.5826   0.6327   0.7882   0.8396   1.1772
     1.4646   1.4680   1.5915   1.5967   3.5094   3.5435   3.6421   3.6492
     3.6730   3.6904   3.8203   3.8601   3.8898   3.9116

          k = 0.0380-0.0419 0.0000 ( 17876 PWs)   bands (ev):

   -55.8847 -55.8579 -55.8415 -55.8198 -55.8154 -55.7742 -55.7506 -55.6912
   -55.6576 -55.6461 -55.6224 -55.6078 -55.5526 -55.5525 -54.8937 -54.8696
   -32.3473 -32.3053 -32.2147 -32.1933 -32.1760 -32.1509 -32.1475 -32.0915
   -32.0853 -32.0830 -32.0765 -32.0707 -32.0569 -32.0375 -32.0371 -32.0332
   -32.0329 -32.0184 -31.9968 -31.9917 -31.9734 -31.9678 -31.9541 -31.9346
   -31.9304 -31.9035 -31.9018 -31.9011 -31.8961 -31.8849 -31.8752 -31.8701
   -31.8352 -31.8139 -31.8094 -31.8027 -31.7934 -31.7916 -31.7702 -31.7674
   -31.7393 -31.6832 -31.2541 -31.2112 -31.1916 -31.1122 -31.0514 -30.9849
   -19.3366 -16.4090 -16.1306 -16.0117 -15.9549 -15.8232 -15.7817 -15.7319
   -15.6784 -15.5880 -15.5735 -15.5362 -15.5021 -15.4928 -15.4583 -15.4077
   -15.3838 -15.3342 -15.3297 -15.3110 -15.2547 -15.2395 -15.1990 -15.1971
   -15.1855 -15.1352 -15.0784 -15.0209 -14.9986 -14.9486 -13.4009 -13.3213
    -9.2900  -7.1342  -3.7739  -3.6182  -3.4740  -3.4077  -3.3732  -3.3284
    -3.2384  -3.1827  -3.1276  -3.0746  -2.9940  -2.9349  -2.9254  -2.8740
    -2.8504  -2.8413  -2.7875  -2.7508  -2.7338  -2.7070  -2.6751  -2.6457
    -2.6258  -2.6018  -2.5765  -2.5463  -2.5028  -2.4776  -2.4367  -2.3768
    -2.3500  -2.2500  -2.2181  -2.1948  -2.1368  -2.0568  -1.9965  -1.9534
    -1.8870  -1.8489  -1.7955  -1.6749  -1.5982  -1.5552  -1.4881  -1.3879
    -1.3388  -1.3160  -1.2311  -1.2077  -1.1824  -1.1360  -1.1080  -1.0481
    -1.0153  -0.9844  -0.9166  -0.8718  -0.8211  -0.7871  -0.7582  -0.7032
    -0.6874  -0.6216  -0.5985  -0.5606  -0.5280  -0.5114  -0.4812  -0.4453
    -0.4116  -0.3718  -0.3527  -0.3380  -0.2516  -0.1945  -0.1669  -0.1124
    -0.0732  -0.0049   0.0492   0.1322   0.2104   0.2567   0.3107   0.3491
     0.4085   0.4382   0.4961   0.5788   0.6762   0.7291   1.0199   1.1408
     1.3265   1.3919   1.5818   1.6594   3.4517   3.5363   3.5816   3.6081
     3.6639   3.6858   3.7447   3.7827   3.7950   3.8324

          k =-0.0760-0.0000 0.0000 ( 17886 PWs)   bands (ev):

   -55.8893 -55.8534 -55.8466 -55.8208 -55.8102 -55.7790 -55.7458 -55.6901
   -55.6587 -55.6513 -55.6174 -55.6098 -55.5512 -55.5505 -54.8987 -54.8646
   -32.4047 -32.3602 -32.2708 -32.2457 -32.1808 -32.1612 -32.1604 -32.1342
   -32.1170 -32.1082 -32.0839 -32.0652 -32.0436 -32.0329 -32.0301 -32.0257
   -32.0128 -31.9984 -31.9822 -31.9801 -31.9784 -31.9545 -31.9456 -31.9275
   -31.9043 -31.9014 -31.8882 -31.8814 -31.8743 -31.8717 -31.8702 -31.8509
   -31.8467 -31.8291 -31.7923 -31.7903 -31.7688 -31.7548 -31.7526 -31.7449
   -31.7388 -31.6584 -31.3077 -31.2187 -31.1863 -31.1246 -31.0386 -30.9277
   -19.3366 -16.4260 -16.1916 -15.9998 -15.9931 -15.8841 -15.7932 -15.7908
   -15.7174 -15.6771 -15.6524 -15.6422 -15.5772 -15.5165 -15.5095 -15.4886
   -15.3698 -15.3559 -15.2982 -15.2211 -15.2207 -15.2024 -15.1787 -15.1520
   -15.0944 -15.0518 -15.0324 -14.9343 -14.9173 -14.8738 -13.3934 -13.2813
    -9.2795  -7.1282  -3.8786  -3.6696  -3.5543  -3.4775  -3.3591  -3.2821
    -3.2779  -3.2365  -3.2213  -3.2106  -3.1541  -3.1316  -3.0570  -3.0109
    -2.9659  -2.9231  -2.7449  -2.6636  -2.5776  -2.5570  -2.5001  -2.4685
    -2.4604  -2.4228  -2.3851  -2.3653  -2.3610  -2.2856  -2.2623  -2.1901
    -2.1507  -2.1417  -2.1116  -2.0839  -2.0656  -2.0225  -1.9648  -1.9427
    -1.9002  -1.8648  -1.7918  -1.6254  -1.5945  -1.5642  -1.5363  -1.5179
    -1.4941  -1.4684  -1.4351  -1.3503  -1.3461  -1.2731  -1.2269  -1.1692
    -1.1618  -1.1447  -1.0966  -1.0586  -1.0122  -0.9883  -0.7027  -0.6456
    -0.6031  -0.5881  -0.5710  -0.5364  -0.5191  -0.4457  -0.3795  -0.3671
    -0.3370  -0.3141  -0.2960  -0.2008  -0.1740  -0.1378  -0.0959  -0.0850
    -0.0671  -0.0250  -0.0075   0.1172   0.1313   0.1902   0.2428   0.2704
     0.4445   0.5521   0.5806   0.6783   0.7894   0.8343   1.0500   1.1302
     1.1595   1.2394   1.4576   1.6182   3.3372   3.3578   3.4301   3.5372
     3.5760   3.5827   3.7068   3.7157   3.7527   3.7609

          k =-0.0760 0.0419 0.0000 ( 17914 PWs)   bands (ev):

   -55.8847 -55.8580 -55.8414 -55.8198 -55.8154 -55.7742 -55.7506 -55.6912
   -55.6574 -55.6464 -55.6224 -55.6078 -55.5526 -55.5525 -54.8937 -54.8697
   -32.3477 -32.3064 -32.2196 -32.1957 -32.1760 -32.1510 -32.1476 -32.0917
   -32.0854 -32.0831 -32.0802 -32.0720 -32.0388 -32.0374 -32.0310 -32.0268
   -32.0240 -32.0195 -32.0021 -31.9926 -31.9851 -31.9677 -31.9564 -31.9402
   -31.9305 -31.9051 -31.9026 -31.8973 -31.8764 -31.8752 -31.8710 -31.8687
   -31.8556 -31.8215 -31.8062 -31.8028 -31.7972 -31.7938 -31.7702 -31.7674
   -31.7458 -31.6833 -31.2539 -31.2141 -31.1909 -31.1122 -31.0514 -30.9849
   -19.3365 -16.3096 -16.0762 -15.9091 -15.8938 -15.8055 -15.7462 -15.7244
   -15.7007 -15.6363 -15.6184 -15.6149 -15.5481 -15.5288 -15.4921 -15.4725
   -15.3715 -15.3570 -15.3285 -15.2909 -15.2713 -15.2604 -15.2342 -15.1963
   -15.1873 -15.1368 -15.0914 -15.0155 -14.9972 -14.9521 -13.3987 -13.3216
    -9.2889  -7.1302  -3.7675  -3.6025  -3.3958  -3.2182  -3.1552  -3.1135
    -3.1020  -3.0470  -3.0040  -2.9602  -2.9319  -2.9289  -2.9021  -2.8933
    -2.8526  -2.8335  -2.8238  -2.7502  -2.6996  -2.6677  -2.6148  -2.5943
    -2.5767  -2.5545  -2.5055  -2.4934  -2.4429  -2.4174  -2.4000  -2.3544
    -2.2961  -2.2633  -2.2127  -2.1194  -2.0635  -1.9964  -1.9402  -1.9364
    -1.9024  -1.8878  -1.7899  -1.6690  -1.6224  -1.5431  -1.4855  -1.4472
    -1.4057  -1.3715  -1.3536  -1.3071  -1.2364  -1.2160  -1.1528  -1.1391
    -1.1250  -1.1112  -1.0893  -1.0288  -0.9974  -0.9871  -0.9037  -0.8598
    -0.8405  -0.7756  -0.7210  -0.6934  -0.6319  -0.5981  -0.5746  -0.5063
    -0.5022  -0.4459  -0.4224  -0.4085  -0.3123  -0.2476  -0.2094  -0.1965
    -0.0180   0.0149   0.0492   0.1657   0.2482   0.2882   0.3278   0.4069
     0.5143   0.5366   0.5951   0.6209   0.6701   0.6981   0.8615   1.1436
     1.3421   1.3952   1.5071   1.6434   3.4062   3.4596   3.5281   3.5870
     3.6027   3.6166   3.7231   3.7612   3.8447   3.8733

          k =-0.0760-0.0839 0.0000 ( 17948 PWs)   bands (ev):

   -55.8773 -55.8654 -55.8311 -55.8259 -55.8186 -55.7645 -55.7605 -55.6923
   -55.6560 -55.6355 -55.6333 -55.6056 -55.5549 -55.5540 -54.8822 -54.8812
   -32.2168 -32.2003 -32.1815 -32.1695 -32.1677 -32.1509 -32.1231 -32.1193
   -32.1010 -32.0986 -32.0968 -32.0449 -32.0359 -32.0347 -32.0151 -32.0032
   -31.9981 -31.9974 -31.9958 -31.9945 -31.9916 -31.9780 -31.9729 -31.9653
   -31.9556 -31.9542 -31.9500 -31.9101 -31.8901 -31.8894 -31.8820 -31.8809
   -31.8604 -31.8400 -31.8382 -31.8302 -31.8164 -31.7983 -31.7953 -31.7792
   -31.7469 -31.7045 -31.2030 -31.2017 -31.1219 -31.1210 -31.0823 -31.0814
   -19.3363 -16.0773 -15.9649 -15.8470 -15.7702 -15.7480 -15.7137 -15.6647
   -15.6590 -15.5976 -15.5918 -15.5439 -15.5335 -15.5062 -15.4806 -15.4367
   -15.4153 -15.3949 -15.3738 -15.3383 -15.3174 -15.3069 -15.2687 -15.2569
   -15.2445 -15.2167 -15.2051 -15.1427 -15.0989 -15.0547 -13.3841 -13.3824
    -9.2982  -7.1320  -3.7139  -3.3636  -3.1710  -3.1138  -3.0148  -2.9659
    -2.9554  -2.8888  -2.8311  -2.8186  -2.7840  -2.7678  -2.7602  -2.7229
    -2.7205  -2.7072  -2.6753  -2.6719  -2.6616  -2.6302  -2.5836  -2.5689
    -2.5538  -2.5161  -2.4996  -2.4962  -2.4565  -2.4398  -2.4331  -2.4262
    -2.3861  -2.3747  -2.2084  -2.1498  -2.1194  -2.0411  -2.0224  -1.9897
    -1.9803  -1.9519  -1.9291  -1.8916  -1.7513  -1.7136  -1.7107  -1.6290
    -1.6032  -1.5764  -1.4692  -1.4051  -1.3782  -1.3690  -1.3029  -1.2650
    -1.2303  -1.1261  -1.0940  -1.0444  -0.9882  -0.9746  -0.9311  -0.8507
    -0.8447  -0.8098  -0.7941  -0.7713  -0.6533  -0.6098  -0.5997  -0.5518
    -0.5271  -0.5078  -0.4429  -0.4036  -0.4008  -0.3395  -0.2788  -0.2242
     0.0222   0.1246   0.1393   0.1597   0.2291   0.2777   0.4195   0.4329
     0.4416   0.5020   0.5587   0.6369   0.6621   0.6655   0.7441   1.1779
     1.4857   1.4869   1.5750   1.5845   3.5214   3.5252   3.5909   3.6315
     3.7580   3.7632   3.7833   3.7871   3.9027   3.9421

     the Fermi energy is     3.2641 ev

!    total energy              =   -2933.86691597 Ry
     estimated scf accuracy    <       0.00000006 Ry
     smearing contrib. (-TS)   =      -0.02305678 Ry
     internal energy E=F+TS    =   -2933.84385919 Ry

     The total energy is F=E-TS. E is the sum of the following terms:
     one-electron contribution =  -24504.05426162 Ry
     hartree contribution      =   12338.94602313 Ry
     xc contribution           =    -483.57039013 Ry
     ewald contribution        =    9714.83350331 Ry
     electric field correction =       0.00126611 Ry

     convergence has been achieved in  52 iterations

     Forces acting on atoms (cartesian axes, Ry/au):

     atom    1 type  1   force =    -0.00010935   -0.00195139    0.10546505
     atom    2 type  1   force =    -0.00038463    0.00131934   -0.17932401
     atom    3 type  2   force =     0.00026173   -0.00510240   -0.03367724
     atom    4 type  2   force =     0.00051827   -0.00077908    0.04637364
     atom    5 type  2   force =    -0.01892752   -0.00017105    0.00449463
     atom    6 type  2   force =     0.01982540    0.00140373    0.00400701
     atom    7 type  1   force =    -0.00040986   -0.00012671   -0.00040635
     atom    8 type  1   force =     0.00015448    0.00075233    0.00131283
     atom    9 type  2   force =     0.00012107   -0.00045482   -0.00100819
     atom   10 type  2   force =     0.00008410    0.00006556   -0.00010877
     atom   11 type  2   force =    -0.00054900   -0.00010524    0.00015436
     atom   12 type  2   force =     0.00099059   -0.00002532    0.00020308
     atom   13 type  1   force =    -0.00048358   -0.00076597    0.00048301
     atom   14 type  1   force =    -0.00029148   -0.00003021    0.00074172
     atom   15 type  2   force =     0.00003594   -0.00038849    0.00113008
     atom   16 type  2   force =    -0.00011088   -0.00004325   -0.00009034
     atom   17 type  2   force =    -0.00035431   -0.00039718    0.00013454
     atom   18 type  2   force =     0.00060341   -0.00015909   -0.00003074
     atom   19 type  1   force =    -0.00105769    0.00018601    0.00081155
     atom   20 type  1   force =     0.00073452   -0.00046188   -0.00013064
     atom   21 type  2   force =    -0.00001353   -0.00000725    0.10408308
     atom   22 type  2   force =    -0.00029704   -0.00024651    0.00007616
     atom   23 type  2   force =    -0.06929784    0.00064303   -0.02953003
     atom   24 type  2   force =     0.06901527    0.00107901   -0.02958778
     atom   25 type  1   force =    -0.00015083    0.00132759    0.11502508
     atom   26 type  1   force =    -0.00023865   -0.00149523   -0.17962378
     atom   27 type  2   force =     0.00036267    0.00379473   -0.02632633
     atom   28 type  2   force =     0.00059936   -0.00051619    0.04863895
     atom   29 type  2   force =    -0.01842425    0.00190693    0.00402311
     atom   30 type  2   force =     0.01789324    0.00351794    0.00329719
     atom   31 type  1   force =    -0.00050732    0.00059648    0.00006991
     atom   32 type  1   force =     0.00013531   -0.00151291    0.00085116
     atom   33 type  2   force =    -0.00015478    0.00046433   -0.00160691
     atom   34 type  2   force =     0.00001712   -0.00083483   -0.00161455
     atom   35 type  2   force =     0.00012307    0.00019771   -0.00030872
     atom   36 type  2   force =     0.00031248    0.00017979   -0.00028582
     atom   37 type  1   force =     0.00008588    0.00044399   -0.00062000
     atom   38 type  1   force =    -0.00010630    0.00074433    0.00041441
     atom   39 type  2   force =    -0.00009570    0.00013813   -0.00000214
     atom   40 type  2   force =     0.00040942    0.00042748    0.00024226
     atom   41 type  2   force =    -0.00066767   -0.00059767   -0.00032121
     atom   42 type  2   force =     0.00089595   -0.00057666   -0.00046749
     atom   43 type  1   force =    -0.00071198    0.00011131    0.00051140
     atom   44 type  1   force =     0.00061685   -0.00013759   -0.00074529
     atom   45 type  2   force =    -0.00002823   -0.00001964    0.10407321
     atom   46 type  2   force =    -0.06884943   -0.00085612   -0.02955557
     atom   47 type  2   force =     0.06865781   -0.00047535   -0.02962144
     atom   48 type  3   force =     0.00751944   -0.00327825    0.00210608
     atom   49 type  4   force =    -0.00002256    0.00043262   -0.00131042
     atom   50 type  4   force =    -0.00793825    0.00309825   -0.00324862
     atom   51 type  4   force =     0.00018708   -0.00042588    0.00086255
     atom   52 type  2   force =    -0.00052203    0.00071077   -0.00136220
     atom   53 type  4   force =     0.00088979   -0.00109946    0.00082208
     atom   54 type  4   force =    -0.00034557   -0.00049978    0.00050646

     Total force =     0.375552     Total SCF correction =     0.000582
  @ DRIVER MODE: Message from server: STATUS
  @ DRIVER MODE: Message from server: GETFORCE
  @ DRIVER MODE: Returning v,forces,stress,ensemble 

     Writing output data file ./calc.save/
  @ DRIVER MODE: Message from server: EXIT
  @ DRIVE MODE: Exiting  
 
     init_run     :     59.98s CPU     77.20s WALL (       1 calls)
     electrons    :   2619.20s CPU   2817.36s WALL (       1 calls)
     forces       :      2.48s CPU      2.84s WALL (       1 calls)

     Called by init_run:
     wfcinit      :     51.83s CPU     67.06s WALL (       1 calls)
     potinit      :      6.43s CPU      7.23s WALL (       1 calls)
     hinit0       :      0.99s CPU      1.39s WALL (       1 calls)

     Called by electrons:
     c_bands      :   2304.11s CPU   2480.54s WALL (      52 calls)
     sum_band     :    265.80s CPU    281.93s WALL (      52 calls)
     v_of_rho     :     35.31s CPU     37.93s WALL (      53 calls)
     newd         :     12.21s CPU     14.85s WALL (      53 calls)
     mix_rho      :      6.51s CPU      7.23s WALL (      52 calls)
     vdW_kernel   :      5.55s CPU      6.21s WALL (       1 calls)

     Called by c_bands:
     init_us_2    :      4.60s CPU      4.73s WALL (    1060 calls)
     cegterg      :   2288.87s CPU   2464.29s WALL (     521 calls)

     Called by *egterg:
     cdiaghg      :   1009.02s CPU   1117.33s WALL (    6274 calls)
     h_psi        :    978.74s CPU   1044.41s WALL (    6284 calls)
     s_psi        :     54.18s CPU     54.91s WALL (    6284 calls)
     g_psi        :      1.33s CPU      1.34s WALL (    5753 calls)

     Called by h_psi:
     h_psi:calbec :     74.69s CPU     77.84s WALL (    6284 calls)
     vloc_psi     :    847.71s CPU    909.23s WALL (    6284 calls)
     add_vuspsi   :     54.55s CPU     55.36s WALL (    6284 calls)

     General routines
     calbec       :     99.71s CPU    103.84s WALL (    6844 calls)
     fft          :     19.80s CPU     20.17s WALL (    3339 calls)
     ffts         :      0.24s CPU      0.24s WALL (     105 calls)
     fftw         :   1053.01s CPU   1126.98s WALL (  717522 calls)
     interpolate  :      0.49s CPU      0.51s WALL (      53 calls)
     davcio       :      0.01s CPU      0.36s WALL (      10 calls)
 
     Parallel routines
 
     PWSCF        :  44m47.16s CPU  49m10.20s WALL

 
   This run was terminated on:  23:37:42  20Sep2021            

=------------------------------------------------------------------------------=
   JOB DONE.
=------------------------------------------------------------------------------=
