
     Program PWSCF v.6.7GPU starts on 24Aug2021 at  5:45: 5 

     This program is part of the open-source Quantum ESPRESSO suite
     for quantum simulation of materials; please cite
         "P. Giannozzi et al., J. Phys.:Condens. Matter 21 395502 (2009);
         "P. Giannozzi et al., J. Phys.:Condens. Matter 29 465901 (2017);
         "P. Giannozzi et al., J. Chem. Phys. 152 154105 (2020);
          URL http://www.quantum-espresso.org", 
     in publications or presentations arising from this work. More details at
     http://www.quantum-espresso.org/quote

     Parallel version (MPI), running on     6 processors

     MPI processes distributed on     1 nodes
     R & G space division:  proc/nbgrp/npool/nimage =       6
     Reading input from /storage/home/hcoda1/3/ntian30/research/carbon/CH2_vib/ads_slab/CH2NNHHH_a/out_0032/pw.inp
Warning: card &CELL ignored
Warning: card   CELL_DYNAMICS='IPI', ignored
Warning: card / ignored

     Current dimensions of program PWSCF are:
     Max number of different atomic species (ntypx) = 10
     Max number of k-points (npk) =  40000
     Max angular momentum in pseudopotentials (lmaxx) =  3
     Presently no symmetry can be used with electric field

     Message from routine cell_base_init:
     DEPRECATED: use true lattice parameter, not A to a.u. conversion factor

     **************************************************************************
     Initializing libbeef V0.1.2 with the BEEF-vdW functional.
     Citation: Wellendorff et al., PRB 85, 235149 (2012).
     **************************************************************************


     IMPORTANT: XC functional enforced from input :
     Exchange-correlation= BEEF-VDW
                           (   1   4  43  14   2   0   0)
     Any further DFT definition will be discarded
     Please, verify this is what you really want


     Subspace diagonalization in iterative solution of the eigenvalue problem:
     one sub-group per band group will be used
     scalapack distributed-memory algorithm (size of sub-group:  2*  2 procs)

  @ DRIVER MODE: Connecting to 
 qe_1139763_2632806.sched-torque.pace.gatech.eduqx6yx2gd_scratch
  using UNIX socket
  @ DRIVER MODE: Message from server: STATUS
  @ DRIVER MODE: Message from server: INIT
  @ DRIVER MODE: Receiving replica           0          -1
  @ DRIVER MODE: Receiving encoded integer          25
  @ DRIVER MODE:  SCF:  T  FORCE:  T  STRESS:  F  VC:  F  ENSEMBLE:  F
  @ DRIVER MODE:  SCF:  T  FORCE:  T  STRESS:  F  VC:  F  ENSEMBLE:  F
 
     Parallelization info
     --------------------
     sticks:   dense  smooth     PW     G-vecs:    dense   smooth      PW
     Min         545     219     63                94473    23902    3663
     Max         546     222     64                94484    23905    3665
     Sum        3275    1317    379               566857   143421   21985
 
     Using Slab Decomposition
 


     bravais-lattice index     =            0
     lattice parameter (alat)  =       1.8897  a.u.
     unit-cell volume          =    6658.9804 (a.u.)^3
     number of atoms/cell      =           55
     number of atomic types    =            5
     number of electrons       =       397.00
     number of Kohn-Sham states=          208
     kinetic-energy cutoff     =      29.3995  Ry
     charge density cutoff     =     293.9946  Ry
     scf convergence threshold =      7.3E-08
     mixing beta               =       0.0500
     number of iterations used =            8  plain     mixing
     Exchange-correlation= BEEF-VDW
                           (   1   4  43  14   2   0   0)

     celldm(1)=   1.889726  celldm(2)=   0.000000  celldm(3)=   0.000000
     celldm(4)=   0.000000  celldm(5)=   0.000000  celldm(6)=   0.000000

     crystal axes: (cart. coord. in units of alat)
               a(1) = (   6.579727   0.000000   0.000000 )  
               a(2) = (  -0.000775   5.961596   0.000000 )  
               a(3) = (   0.000000   0.000000  25.155947 )  

     reciprocal axes: (cart. coord. in units 2 pi/alat)
               b(1) = (  0.151982  0.000020  0.000000 )  
               b(2) = (  0.000000  0.167740  0.000000 )  
               b(3) = (  0.000000  0.000000  0.039752 )  


     PseudoPot. # 1 for Ti read from file:
     /storage/coda1/p-amedford6/0/shared/rich_project_chbe-medford/medford-share/data/pseudos_module/espresso/nninc/pbe/van/Ti.UPF
     MD5 check sum: 8e4df49b7f0d34bbd5052bf3f5ea0213
     Pseudo is Ultrasoft, Zval = 12.0
     Generated by new atomic code, or converted to UPF format
     Using radial grid of  851 points,  6 beta functions with: 
                l(1) =   0
                l(2) =   0
                l(3) =   1
                l(4) =   1
                l(5) =   2
                l(6) =   2
     Q(r) pseudized with  8 coefficients,  rinner =    1.000   1.000   1.000
                                                       1.000   1.000

     PseudoPot. # 2 for O  read from file:
     /storage/coda1/p-amedford6/0/shared/rich_project_chbe-medford/medford-share/data/pseudos_module/espresso/nninc/pbe/van/O.UPF
     MD5 check sum: 78c19812648e8988a0fe644b0f25305e
     Pseudo is Ultrasoft, Zval =  6.0
     Generated by new atomic code, or converted to UPF format
     Using radial grid of  737 points,  4 beta functions with: 
                l(1) =   0
                l(2) =   0
                l(3) =   1
                l(4) =   1
     Q(r) pseudized with  8 coefficients,  rinner =    0.800   0.800   0.800


     PseudoPot. # 3 for N  read from file:
     /storage/coda1/p-amedford6/0/shared/rich_project_chbe-medford/medford-share/data/pseudos_module/espresso/nninc/pbe/van/N.UPF
     MD5 check sum: 90d10febe142ad51ac9d5be1deb811c4
     Pseudo is Ultrasoft, Zval =  5.0
     Generated by new atomic code, or converted to UPF format
     Using radial grid of  729 points,  4 beta functions with: 
                l(1) =   0
                l(2) =   0
                l(3) =   1
                l(4) =   1
     Q(r) pseudized with  8 coefficients,  rinner =    0.800   0.800   0.800


     PseudoPot. # 4 for C  read from file:
     /storage/coda1/p-amedford6/0/shared/rich_project_chbe-medford/medford-share/data/pseudos_module/espresso/nninc/pbe/van/C.UPF
     MD5 check sum: 1a69bf6b8db32088f5b2163dbdb77a27
     Pseudo is Ultrasoft, Zval =  4.0
     Generated by new atomic code, or converted to UPF format
     Using radial grid of  721 points,  4 beta functions with: 
                l(1) =   0
                l(2) =   0
                l(3) =   1
                l(4) =   1
     Q(r) pseudized with  8 coefficients,  rinner =    0.800   0.800   0.800


     PseudoPot. # 5 for H  read from file:
     /storage/coda1/p-amedford6/0/shared/rich_project_chbe-medford/medford-share/data/pseudos_module/espresso/nninc/pbe/van/H.UPF
     MD5 check sum: b5ee9d7bfd3a09ee7748110bda690ff7
     Pseudo is Ultrasoft, Zval =  1.0
     Generated by new atomic code, or converted to UPF format
     Using radial grid of  615 points,  1 beta functions with: 
                l(1) =   0
     Q(r) pseudized with  8 coefficients,  rinner =    0.800

     atomic species   valence    mass     pseudopotential
        Ti1           12.00    47.86700     Ti( 1.00)
        O1             6.00    15.99900     O ( 1.00)
        N1             5.00    14.00700     N ( 1.00)
        C1             4.00    12.01100     C ( 1.00)
        H1             1.00     1.00800     H ( 1.00)

     No symmetry found



   Cartesian axes

     site n.     atom                  positions (alat units)
         1           Ti1 tau(   1) = (   0.0004258   2.9801865   6.0000000  )
         2           Ti1 tau(   2) = (   3.2906075   1.4906267   6.0002472  )
         3           O1  tau(   3) = (   0.0006271   0.0005054   7.9858123  )
         4           O1  tau(   4) = (   3.2906025   0.0005020   7.3038282  )
         5           O1  tau(   5) = (   4.5942328   1.4918067   9.2879030  )
         6           O1  tau(   6) = (   1.9868534   1.4903216   9.2879459  )
         7           Ti1 tau(   7) = (   3.2907910   2.8959150   9.1758416  )
         8           Ti1 tau(   8) = (   0.0015273   1.4827037   9.2680791  )
         9           O1  tau(   9) = (   3.2797308   5.9473376  11.3602069  )
        10           O1  tau(  10) = (   0.0116148   5.9584955  10.6183126  )
        11           O1  tau(  11) = (   1.2902197   1.4970218  12.6485984  )
        12           O1  tau(  12) = (   5.2825647   1.4998509  12.6204812  )
        13           Ti1 tau(  13) = (   6.5707130   2.9731531  12.5352273  )
        14           Ti1 tau(  14) = (   3.2824754   1.4851695  12.4964603  )
        15           O1  tau(  15) = (   6.5335774   0.0914421  14.6722524  )
        16           O1  tau(  16) = (   3.3157438   0.0180770  13.9903400  )
        17           O1  tau(  17) = (   4.5084513   1.5196572  16.2619966  )
        18           O1  tau(  18) = (   2.0062152   1.4815140  16.1839734  )
        19           Ti1 tau(  19) = (   3.2259906   2.9465836  15.7211513  )
        20           Ti1 tau(  20) = (   6.5090593   1.4075841  16.1508600  )
        21           O1  tau(  21) = (   3.2904802   0.0005063   4.7018136  )
        22           O1  tau(  22) = (   6.5630310   5.8123487  17.2302531  )
        23           O1  tau(  23) = (   1.3043587   1.4918075   6.0039043  )
        24           O1  tau(  24) = (   5.2767064   1.4903225   6.0039473  )
        25           Ti1 tau(  25) = (   0.0000382   5.9609847   6.0000000  )
        26           Ti1 tau(  26) = (   3.2902200   4.4714249   6.0002472  )
        27           O1  tau(  27) = (   0.0002396   2.9813036   7.9858123  )
        28           O1  tau(  28) = (   3.2902150   2.9813002   7.3038282  )
        29           O1  tau(  29) = (   4.5938453   4.4726049   9.2879030  )
        30           O1  tau(  30) = (   1.9864658   4.4711199   9.2879459  )
        31           Ti1 tau(  31) = (   3.2891106   5.8743827   9.1763621  )
        32           Ti1 tau(  32) = (   0.0006254   4.4649316   9.2693709  )
        33           O1  tau(  33) = (   3.2783824   2.9878764  11.3535400  )
        34           O1  tau(  34) = (   0.0092240   2.9805883  10.6323155  )
        35           O1  tau(  35) = (   1.2857266   4.4729298  12.7006550  )
        36           O1  tau(  36) = (   5.2845514   4.4687958  12.6640455  )
        37           Ti1 tau(  37) = (   6.5734551   0.0101047  12.5124135  )
        38           Ti1 tau(  38) = (   3.2852174   4.4611384  12.5175569  )
        39           O1  tau(  39) = (   6.5279837   2.9480221  14.9030702  )
        40           O1  tau(  40) = (   3.2956390   2.9588503  13.9390168  )
        41           O1  tau(  41) = (   4.4992944   4.4159585  16.2207858  )
        42           O1  tau(  42) = (   2.0104883   4.4624356  16.0673450  )
        43           Ti1 tau(  43) = (   3.2790961   0.0058003  15.7788240  )
        44           Ti1 tau(  44) = (   0.0606790   4.6093333  15.7554573  )
        45           O1  tau(  45) = (   3.2900926   2.9813045   4.7018136  )
        46           O1  tau(  46) = (   1.3039711   4.4726057   6.0039043  )
        47           O1  tau(  47) = (   5.2763189   4.4711207   6.0039473  )
        48           N1  tau(  48) = (   0.0403274   2.7191540  18.0026804  )
        49           C1  tau(  49) = (   0.9398849   2.4944932  18.9664025  )
        50           H1  tau(  50) = (   0.9073005   3.0183022  19.9142263  )
        51           H1  tau(  51) = (   1.7098349   1.7704235  18.7615287  )
        52           N1  tau(  52) = (   5.5765855   3.6054979  18.4816711  )
        53           H1  tau(  53) = (   5.9981759   4.5320851  18.7147717  )
        54           H1  tau(  54) = (   4.9344470   3.8465857  17.6610935  )
        55           H1  tau(  55) = (   5.0674124   3.1947177  19.2767304  )

     number of k points=    10  Fermi-Dirac smearing, width (Ry)=  0.0073
                       cart. coord. in units 2pi/alat
        k(    1) = (   0.0000000   0.0000000   0.0000000), wk =   0.1250000
        k(    2) = (   0.0000000   0.0419351   0.0000000), wk =   0.2500000
        k(    3) = (   0.0000000  -0.0838702   0.0000000), wk =   0.1250000
        k(    4) = (   0.0379955   0.0000049   0.0000000), wk =   0.2500000
        k(    5) = (   0.0379955   0.0419400   0.0000000), wk =   0.2500000
        k(    6) = (   0.0379955  -0.0838652   0.0000000), wk =   0.2500000
        k(    7) = (   0.0379955  -0.0419301   0.0000000), wk =   0.2500000
        k(    8) = (  -0.0759910  -0.0000099   0.0000000), wk =   0.1250000
        k(    9) = (  -0.0759910   0.0419252   0.0000000), wk =   0.2500000
        k(   10) = (  -0.0759910  -0.0838800   0.0000000), wk =   0.1250000

     Dense  grid:   566857 G-vectors     FFT dimensions: (  72,  64, 270)

     Smooth grid:   143421 G-vectors     FFT dimensions: (  45,  40, 180)

     Estimated max dynamical RAM per process >     601.58 MB

     Estimated total dynamical RAM >       3.52 GB
     Cannot read rho : file not found

     Initial potential from superposition of free atoms

     starting charge  380.99914, renormalised to  397.00000

     negative rho (up, down):  1.589E-02 0.000E+00


     %%%%%%%%%%%%%%%%%%%%%%%%%%%%%%%%%%%%%%%%%%%%%%%%%%%%%%%%%%%%%%%%%%%%%%%%
     %                                                                      %
     % You are using vdW-DF, which was implemented by the Thonhauser group. %
     % Please cite the following two papers that made this development      %
     % possible and the two reviews that describe the various versions:     %
     %                                                                      %
     %   T. Thonhauser et al., PRL 115, 136402 (2015).                      %
     %   T. Thonhauser et al., PRB 76, 125112 (2007).                       %
     %   K. Berland et al., Rep. Prog. Phys. 78, 066501 (2015).             %
     %   D.C. Langreth et al., J. Phys.: Condens. Matter 21, 084203 (2009). %
     %                                                                      %
     %                                                                      %
     % If you are calculating the stress with vdW-DF, please also cite:     %
     %                                                                      %
     %   R. Sabatini et al., J. Phys.: Condens. Matter 24, 424209 (2012).   %
     %                                                                      %
     %%%%%%%%%%%%%%%%%%%%%%%%%%%%%%%%%%%%%%%%%%%%%%%%%%%%%%%%%%%%%%%%%%%%%%%%


 
     Adding external electric field

     Computed dipole along edir(3) : 
        Dipole              -10.3122 Ry au,        -26.2111 Debye
        Dipole field         -0.0195 Ry au, 
 
        Potential amp.        1.8040 Ry
        Total length         46.3494 bohr
 
     Starting wfcs are  301 atomic wfcs
  @ DRIVER MODE: Message from server: STATUS
  @ DRIVER MODE: Message from server: POSDATA
  @ DRIVER MODE: Reading and sharing cell 
  @ DRIVER MODE: Reading and sharing positions 
  @ DRIVER MODE: Received positions 

     total cpu time spent up to now is       18.1 secs

     Self-consistent Calculation

     iteration #  1     ecut=    29.40 Ry     beta= 0.05
     Davidson diagonalization with overlap
     c_bands:  3 eigenvalues not converged
     c_bands:  2 eigenvalues not converged
     c_bands:  3 eigenvalues not converged
     c_bands:  2 eigenvalues not converged
     c_bands:  3 eigenvalues not converged
     c_bands:  2 eigenvalues not converged
     c_bands:  3 eigenvalues not converged
     c_bands:  2 eigenvalues not converged
     c_bands:  2 eigenvalues not converged
     c_bands:  3 eigenvalues not converged
     ethr =  1.00E-05,  avg # of iterations = 20.0

     negative rho (up, down):  1.183E-02 0.000E+00
 
     Adding external electric field

     Computed dipole along edir(3) : 
        Dipole               45.9237 Ry au,        116.7265 Debye
        Dipole field          0.0867 Ry au, 
 
        Potential amp.       -8.0337 Ry
        Total length         46.3494 bohr
 

     total cpu time spent up to now is       81.7 secs

     total energy              =   -2480.07490712 Ry
     estimated scf accuracy    <    5159.16429909 Ry

     iteration #  2     ecut=    29.40 Ry     beta= 0.05
     Davidson diagonalization with overlap
     ethr =  1.00E-02,  avg # of iterations = 22.4

     negative rho (up, down):  2.619E-03 0.000E+00
 
     Adding external electric field

     Computed dipole along edir(3) : 
        Dipole               -1.9368 Ry au,         -4.9229 Debye
        Dipole field         -0.0037 Ry au, 
 
        Potential amp.        0.3388 Ry
        Total length         46.3494 bohr
 

     total cpu time spent up to now is      198.8 secs

     total energy              =   -2454.77481795 Ry
     estimated scf accuracy    <   68197.77891475 Ry

     iteration #  3     ecut=    29.40 Ry     beta= 0.05
     Davidson diagonalization with overlap
     ethr =  1.00E-02,  avg # of iterations = 15.8

     negative rho (up, down):  2.689E-03 0.000E+00
 
     Adding external electric field

     Computed dipole along edir(3) : 
        Dipole               -4.3326 Ry au,        -11.0125 Debye
        Dipole field         -0.0082 Ry au, 
 
        Potential amp.        0.7579 Ry
        Total length         46.3494 bohr
 

     total cpu time spent up to now is      273.2 secs

     total energy              =   -2928.58873475 Ry
     estimated scf accuracy    <    4432.32138602 Ry

     iteration #  4     ecut=    29.40 Ry     beta= 0.05
     Davidson diagonalization with overlap
     ethr =  1.00E-02,  avg # of iterations = 14.7

     negative rho (up, down):  2.730E-03 0.000E+00
 
     Adding external electric field

     Computed dipole along edir(3) : 
        Dipole               -5.8711 Ry au,        -14.9227 Debye
        Dipole field         -0.0111 Ry au, 
 
        Potential amp.        1.0271 Ry
        Total length         46.3494 bohr
 

     total cpu time spent up to now is      303.4 secs

     total energy              =   -2929.43846273 Ry
     estimated scf accuracy    <    1642.01755121 Ry

     iteration #  5     ecut=    29.40 Ry     beta= 0.05
     Davidson diagonalization with overlap
     ethr =  1.00E-02,  avg # of iterations =  7.8

     negative rho (up, down):  2.829E-03 0.000E+00
 
     Adding external electric field

     Computed dipole along edir(3) : 
        Dipole               -7.3189 Ry au,        -18.6029 Debye
        Dipole field         -0.0138 Ry au, 
 
        Potential amp.        1.2803 Ry
        Total length         46.3494 bohr
 

     total cpu time spent up to now is      324.4 secs

     total energy              =   -2922.60293739 Ry
     estimated scf accuracy    <     861.06124042 Ry

     iteration #  6     ecut=    29.40 Ry     beta= 0.05
     Davidson diagonalization with overlap
     ethr =  1.00E-02,  avg # of iterations = 10.4

     negative rho (up, down):  2.552E-03 0.000E+00
 
     Adding external electric field

     Computed dipole along edir(3) : 
        Dipole               -6.1361 Ry au,        -15.5964 Debye
        Dipole field         -0.0116 Ry au, 
 
        Potential amp.        1.0734 Ry
        Total length         46.3494 bohr
 

     total cpu time spent up to now is      355.6 secs

     total energy              =   -2945.26505816 Ry
     estimated scf accuracy    <      32.02240054 Ry

     iteration #  7     ecut=    29.40 Ry     beta= 0.05
     Davidson diagonalization with overlap
     ethr =  8.07E-03,  avg # of iterations =  1.1

     negative rho (up, down):  2.590E-03 0.000E+00
 
     Adding external electric field

     Computed dipole along edir(3) : 
        Dipole               -5.7769 Ry au,        -14.6834 Debye
        Dipole field         -0.0109 Ry au, 
 
        Potential amp.        1.0106 Ry
        Total length         46.3494 bohr
 

     total cpu time spent up to now is      371.7 secs

     total energy              =   -2945.07614398 Ry
     estimated scf accuracy    <      18.65242421 Ry

     iteration #  8     ecut=    29.40 Ry     beta= 0.05
     Davidson diagonalization with overlap
     ethr =  4.70E-03,  avg # of iterations =  1.0

     negative rho (up, down):  2.690E-03 0.000E+00
 
     Adding external electric field

     Computed dipole along edir(3) : 
        Dipole               -5.6092 Ry au,        -14.2571 Debye
        Dipole field         -0.0106 Ry au, 
 
        Potential amp.        0.9812 Ry
        Total length         46.3494 bohr
 

     total cpu time spent up to now is      387.8 secs

     total energy              =   -2944.94365926 Ry
     estimated scf accuracy    <      15.61946898 Ry

     iteration #  9     ecut=    29.40 Ry     beta= 0.05
     Davidson diagonalization with overlap
     ethr =  3.93E-03,  avg # of iterations =  1.0

     negative rho (up, down):  6.644E-02 0.000E+00
 
     Adding external electric field

     Computed dipole along edir(3) : 
        Dipole                0.1058 Ry au,          0.2690 Debye
        Dipole field          0.0002 Ry au, 
 
        Potential amp.       -0.0185 Ry
        Total length         46.3494 bohr
 

     total cpu time spent up to now is      403.8 secs

     total energy              =   -2940.45022917 Ry
     estimated scf accuracy    <      14.92559749 Ry

     iteration # 10     ecut=    29.40 Ry     beta= 0.05
     Davidson diagonalization with overlap
     ethr =  3.76E-03,  avg # of iterations = 15.8

     negative rho (up, down):  1.696E-01 0.000E+00
 
     Adding external electric field

     Computed dipole along edir(3) : 
        Dipole                3.1243 Ry au,          7.9412 Debye
        Dipole field          0.0059 Ry au, 
 
        Potential amp.       -0.5465 Ry
        Total length         46.3494 bohr
 

     total cpu time spent up to now is      438.1 secs

     total energy              =   -2994.39416545 Ry
     estimated scf accuracy    <    2033.55853898 Ry

     iteration # 11     ecut=    29.40 Ry     beta= 0.05
     Davidson diagonalization with overlap
     ethr =  3.76E-03,  avg # of iterations = 12.4

     negative rho (up, down):  1.382E-01 0.000E+00
 
     Adding external electric field

     Computed dipole along edir(3) : 
        Dipole                1.7796 Ry au,          4.5233 Debye
        Dipole field          0.0034 Ry au, 
 
        Potential amp.       -0.3113 Ry
        Total length         46.3494 bohr
 

     total cpu time spent up to now is      460.9 secs

     total energy              =   -2976.32382919 Ry
     estimated scf accuracy    <    3384.14557127 Ry

     iteration # 12     ecut=    29.40 Ry     beta= 0.05
     Davidson diagonalization with overlap
     ethr =  3.76E-03,  avg # of iterations =  3.3

     negative rho (up, down):  1.449E-01 0.000E+00
 
     Adding external electric field

     Computed dipole along edir(3) : 
        Dipole                1.9562 Ry au,          4.9723 Debye
        Dipole field          0.0037 Ry au, 
 
        Potential amp.       -0.3422 Ry
        Total length         46.3494 bohr
 

     total cpu time spent up to now is      478.6 secs

     total energy              =   -2979.18638229 Ry
     estimated scf accuracy    <    2707.41914704 Ry

     iteration # 13     ecut=    29.40 Ry     beta= 0.05
     Davidson diagonalization with overlap
     ethr =  3.76E-03,  avg # of iterations =  1.0

     negative rho (up, down):  1.342E-01 0.000E+00
 
     Adding external electric field

     Computed dipole along edir(3) : 
        Dipole                2.3693 Ry au,          6.0222 Debye
        Dipole field          0.0045 Ry au, 
 
        Potential amp.       -0.4145 Ry
        Total length         46.3494 bohr
 

     total cpu time spent up to now is      494.6 secs

     total energy              =   -2985.16689584 Ry
     estimated scf accuracy    <    2735.33812931 Ry

     iteration # 14     ecut=    29.40 Ry     beta= 0.05
     Davidson diagonalization with overlap
     ethr =  3.76E-03,  avg # of iterations =  1.2

     negative rho (up, down):  1.194E-01 0.000E+00
 
     Adding external electric field

     Computed dipole along edir(3) : 
        Dipole                2.1404 Ry au,          5.4404 Debye
        Dipole field          0.0040 Ry au, 
 
        Potential amp.       -0.3744 Ry
        Total length         46.3494 bohr
 

     total cpu time spent up to now is      510.8 secs

     total energy              =   -2983.77147470 Ry
     estimated scf accuracy    <    2850.92694494 Ry

     iteration # 15     ecut=    29.40 Ry     beta= 0.05
     Davidson diagonalization with overlap
     ethr =  3.76E-03,  avg # of iterations =  1.0

     negative rho (up, down):  9.591E-02 0.000E+00
 
     Adding external electric field

     Computed dipole along edir(3) : 
        Dipole               -0.7603 Ry au,         -1.9324 Debye
        Dipole field         -0.0014 Ry au, 
 
        Potential amp.        0.1330 Ry
        Total length         46.3494 bohr
 

     total cpu time spent up to now is      526.9 secs

     total energy              =   -2946.79617323 Ry
     estimated scf accuracy    <    2795.08103164 Ry

     iteration # 16     ecut=    29.40 Ry     beta= 0.05
     Davidson diagonalization with overlap
     ethr =  3.76E-03,  avg # of iterations = 10.4

     negative rho (up, down):  9.026E-02 0.000E+00
 
     Adding external electric field

     Computed dipole along edir(3) : 
        Dipole               -0.9964 Ry au,         -2.5327 Debye
        Dipole field         -0.0019 Ry au, 
 
        Potential amp.        0.1743 Ry
        Total length         46.3494 bohr
 

     total cpu time spent up to now is      554.2 secs

     total energy              =   -2949.54444791 Ry
     estimated scf accuracy    <    1553.59576292 Ry

     iteration # 17     ecut=    29.40 Ry     beta= 0.05
     Davidson diagonalization with overlap
     ethr =  3.76E-03,  avg # of iterations =  2.5

     negative rho (up, down):  6.848E-03 0.000E+00
 
     Adding external electric field

     Computed dipole along edir(3) : 
        Dipole               -4.8031 Ry au,        -12.2082 Debye
        Dipole field         -0.0091 Ry au, 
 
        Potential amp.        0.8402 Ry
        Total length         46.3494 bohr
 

     total cpu time spent up to now is      571.3 secs

     total energy              =   -2913.69208329 Ry
     estimated scf accuracy    <    1405.93188516 Ry

     iteration # 18     ecut=    29.40 Ry     beta= 0.05
     Davidson diagonalization with overlap
     ethr =  3.76E-03,  avg # of iterations = 13.8

     negative rho (up, down):  5.515E-03 0.000E+00
 
     Adding external electric field

     Computed dipole along edir(3) : 
        Dipole               -3.4189 Ry au,         -8.6901 Debye
        Dipole field         -0.0065 Ry au, 
 
        Potential amp.        0.5981 Ry
        Total length         46.3494 bohr
 

     total cpu time spent up to now is      616.4 secs

     total energy              =   -2941.39927396 Ry
     estimated scf accuracy    <     168.85880817 Ry

     iteration # 19     ecut=    29.40 Ry     beta= 0.05
     Davidson diagonalization with overlap
     ethr =  3.76E-03,  avg # of iterations =  1.3

     negative rho (up, down):  7.755E-03 0.000E+00
 
     Adding external electric field

     Computed dipole along edir(3) : 
        Dipole               -2.7676 Ry au,         -7.0344 Debye
        Dipole field         -0.0052 Ry au, 
 
        Potential amp.        0.4841 Ry
        Total length         46.3494 bohr
 

     total cpu time spent up to now is      632.7 secs

     total energy              =   -2942.25225019 Ry
     estimated scf accuracy    <      15.50661004 Ry

     iteration # 20     ecut=    29.40 Ry     beta= 0.05
     Davidson diagonalization with overlap
     ethr =  3.76E-03,  avg # of iterations =  1.0

     negative rho (up, down):  2.018E-02 0.000E+00
 
     Adding external electric field

     Computed dipole along edir(3) : 
        Dipole               -0.4498 Ry au,         -1.1432 Debye
        Dipole field         -0.0008 Ry au, 
 
        Potential amp.        0.0787 Ry
        Total length         46.3494 bohr
 

     total cpu time spent up to now is      648.7 secs

     total energy              =   -2941.32276350 Ry
     estimated scf accuracy    <      14.24783779 Ry

     iteration # 21     ecut=    29.40 Ry     beta= 0.05
     Davidson diagonalization with overlap
     ethr =  3.59E-03,  avg # of iterations =  1.7

     negative rho (up, down):  2.022E-02 0.000E+00
 
     Adding external electric field

     Computed dipole along edir(3) : 
        Dipole               -0.2688 Ry au,         -0.6832 Debye
        Dipole field         -0.0005 Ry au, 
 
        Potential amp.        0.0470 Ry
        Total length         46.3494 bohr
 

     total cpu time spent up to now is      665.6 secs

     total energy              =   -2941.55749778 Ry
     estimated scf accuracy    <      10.92376858 Ry

     iteration # 22     ecut=    29.40 Ry     beta= 0.05
     Davidson diagonalization with overlap
     ethr =  2.75E-03,  avg # of iterations =  1.0

     negative rho (up, down):  1.945E-02 0.000E+00
 
     Adding external electric field

     Computed dipole along edir(3) : 
        Dipole               -0.0636 Ry au,         -0.1617 Debye
        Dipole field         -0.0001 Ry au, 
 
        Potential amp.        0.0111 Ry
        Total length         46.3494 bohr
 

     total cpu time spent up to now is      681.5 secs

     total energy              =   -2941.49882592 Ry
     estimated scf accuracy    <      10.53275707 Ry

     iteration # 23     ecut=    29.40 Ry     beta= 0.05
     Davidson diagonalization with overlap
     ethr =  2.65E-03,  avg # of iterations =  2.0

     negative rho (up, down):  1.447E-02 0.000E+00
 
     Adding external electric field

     Computed dipole along edir(3) : 
        Dipole               -0.1728 Ry au,         -0.4392 Debye
        Dipole field         -0.0003 Ry au, 
 
        Potential amp.        0.0302 Ry
        Total length         46.3494 bohr
 

     total cpu time spent up to now is      698.1 secs

     total energy              =   -2941.38278151 Ry
     estimated scf accuracy    <       9.10409313 Ry

     iteration # 24     ecut=    29.40 Ry     beta= 0.05
     Davidson diagonalization with overlap
     ethr =  2.29E-03,  avg # of iterations =  5.5

     negative rho (up, down):  1.371E-02 0.000E+00
 
     Adding external electric field

     Computed dipole along edir(3) : 
        Dipole               -0.4404 Ry au,         -1.1195 Debye
        Dipole field         -0.0008 Ry au, 
 
        Potential amp.        0.0770 Ry
        Total length         46.3494 bohr
 

     total cpu time spent up to now is      716.2 secs

     total energy              =   -2941.54595096 Ry
     estimated scf accuracy    <       5.70283432 Ry

     iteration # 25     ecut=    29.40 Ry     beta= 0.05
     Davidson diagonalization with overlap
     ethr =  1.44E-03,  avg # of iterations =  1.5

     negative rho (up, down):  2.147E-02 0.000E+00
 
     Adding external electric field

     Computed dipole along edir(3) : 
        Dipole                0.1472 Ry au,          0.3741 Debye
        Dipole field          0.0003 Ry au, 
 
        Potential amp.       -0.0257 Ry
        Total length         46.3494 bohr
 

     total cpu time spent up to now is      732.7 secs

     total energy              =   -2941.65465660 Ry
     estimated scf accuracy    <       5.83123451 Ry

     iteration # 26     ecut=    29.40 Ry     beta= 0.05
     Davidson diagonalization with overlap
     ethr =  1.44E-03,  avg # of iterations =  1.5

     negative rho (up, down):  1.376E-02 0.000E+00
 
     Adding external electric field

     Computed dipole along edir(3) : 
        Dipole                1.0487 Ry au,          2.6657 Debye
        Dipole field          0.0020 Ry au, 
 
        Potential amp.       -0.1835 Ry
        Total length         46.3494 bohr
 

     total cpu time spent up to now is      749.3 secs

     total energy              =   -2941.40380468 Ry
     estimated scf accuracy    <       9.96353587 Ry

     iteration # 27     ecut=    29.40 Ry     beta= 0.05
     Davidson diagonalization with overlap
     c_bands:  2 eigenvalues not converged
     c_bands:  1 eigenvalues not converged
     c_bands:  1 eigenvalues not converged
     ethr =  1.44E-03,  avg # of iterations = 16.9

     negative rho (up, down):  6.701E-03 0.000E+00
 
     Adding external electric field

     Computed dipole along edir(3) : 
        Dipole                0.1452 Ry au,          0.3691 Debye
        Dipole field          0.0003 Ry au, 
 
        Potential amp.       -0.0254 Ry
        Total length         46.3494 bohr
 

     total cpu time spent up to now is      773.3 secs

     total energy              =   -2941.41426990 Ry
     estimated scf accuracy    <       6.93852304 Ry

     iteration # 28     ecut=    29.40 Ry     beta= 0.05
     Davidson diagonalization with overlap
     ethr =  1.44E-03,  avg # of iterations =  3.5

     negative rho (up, down):  1.167E-02 0.000E+00
 
     Adding external electric field

     Computed dipole along edir(3) : 
        Dipole                0.7251 Ry au,          1.8430 Debye
        Dipole field          0.0014 Ry au, 
 
        Potential amp.       -0.1268 Ry
        Total length         46.3494 bohr
 

     total cpu time spent up to now is      791.0 secs

     total energy              =   -2941.49433035 Ry
     estimated scf accuracy    <       3.05015520 Ry

     iteration # 29     ecut=    29.40 Ry     beta= 0.05
     Davidson diagonalization with overlap
     c_bands:  1 eigenvalues not converged
     c_bands:  4 eigenvalues not converged
     c_bands:  4 eigenvalues not converged
     c_bands:  1 eigenvalues not converged
     c_bands:  1 eigenvalues not converged
     c_bands:  2 eigenvalues not converged
     c_bands:  1 eigenvalues not converged
     ethr =  7.68E-04,  avg # of iterations = 19.6

     negative rho (up, down):  1.334E-02 0.000E+00
 
     Adding external electric field

     Computed dipole along edir(3) : 
        Dipole               -0.7638 Ry au,         -1.9415 Debye
        Dipole field         -0.0014 Ry au, 
 
        Potential amp.        0.1336 Ry
        Total length         46.3494 bohr
 

     total cpu time spent up to now is      817.5 secs

     total energy              =   -2940.99673137 Ry
     estimated scf accuracy    <      13.22646379 Ry

     iteration # 30     ecut=    29.40 Ry     beta= 0.05
     Davidson diagonalization with overlap
     c_bands:  4 eigenvalues not converged
     c_bands:  1 eigenvalues not converged
     c_bands:  1 eigenvalues not converged
     c_bands:  1 eigenvalues not converged
     c_bands:  3 eigenvalues not converged
     c_bands:  4 eigenvalues not converged
     c_bands:  1 eigenvalues not converged
     c_bands:  1 eigenvalues not converged
     ethr =  7.68E-04,  avg # of iterations = 18.7

     negative rho (up, down):  1.348E-02 0.000E+00
 
     Adding external electric field

     Computed dipole along edir(3) : 
        Dipole               -0.9601 Ry au,         -2.4404 Debye
        Dipole field         -0.0018 Ry au, 
 
        Potential amp.        0.1680 Ry
        Total length         46.3494 bohr
 

     total cpu time spent up to now is      842.6 secs

     total energy              =   -2941.69113376 Ry
     estimated scf accuracy    <       2.13544771 Ry

     iteration # 31     ecut=    29.40 Ry     beta= 0.05
     Davidson diagonalization with overlap
     ethr =  5.38E-04,  avg # of iterations =  2.6

     negative rho (up, down):  8.070E-03 0.000E+00
 
     Adding external electric field

     Computed dipole along edir(3) : 
        Dipole               -0.8709 Ry au,         -2.2135 Debye
        Dipole field         -0.0016 Ry au, 
 
        Potential amp.        0.1523 Ry
        Total length         46.3494 bohr
 

     total cpu time spent up to now is      859.8 secs

     total energy              =   -2941.47005905 Ry
     estimated scf accuracy    <       7.29594918 Ry

     iteration # 32     ecut=    29.40 Ry     beta= 0.05
     Davidson diagonalization with overlap
     c_bands:  2 eigenvalues not converged
     c_bands:  1 eigenvalues not converged
     c_bands:  3 eigenvalues not converged
     c_bands:  2 eigenvalues not converged
     c_bands:  1 eigenvalues not converged
     ethr =  5.38E-04,  avg # of iterations = 16.9

     negative rho (up, down):  8.810E-03 0.000E+00
 
     Adding external electric field

     Computed dipole along edir(3) : 
        Dipole               -0.0372 Ry au,         -0.0947 Debye
        Dipole field         -0.0001 Ry au, 
 
        Potential amp.        0.0065 Ry
        Total length         46.3494 bohr
 

     total cpu time spent up to now is      884.1 secs

     total energy              =   -2941.43008664 Ry
     estimated scf accuracy    <       2.46455865 Ry

     iteration # 33     ecut=    29.40 Ry     beta= 0.05
     Davidson diagonalization with overlap
     ethr =  5.38E-04,  avg # of iterations =  9.7

     negative rho (up, down):  9.063E-03 0.000E+00
 
     Adding external electric field

     Computed dipole along edir(3) : 
        Dipole                0.3473 Ry au,          0.8827 Debye
        Dipole field          0.0007 Ry au, 
 
        Potential amp.       -0.0608 Ry
        Total length         46.3494 bohr
 

     total cpu time spent up to now is      904.3 secs

     total energy              =   -2941.52510743 Ry
     estimated scf accuracy    <       0.73305271 Ry

     iteration # 34     ecut=    29.40 Ry     beta= 0.05
     Davidson diagonalization with overlap
     c_bands:  4 eigenvalues not converged
     c_bands:  2 eigenvalues not converged
     c_bands:  1 eigenvalues not converged
     c_bands:  5 eigenvalues not converged
     ethr =  1.85E-04,  avg # of iterations = 18.3

     negative rho (up, down):  8.604E-03 0.000E+00
 
     Adding external electric field

     Computed dipole along edir(3) : 
        Dipole                0.7963 Ry au,          2.0241 Debye
        Dipole field          0.0015 Ry au, 
 
        Potential amp.       -0.1393 Ry
        Total length         46.3494 bohr
 

     total cpu time spent up to now is      929.8 secs

     total energy              =   -2941.51637432 Ry
     estimated scf accuracy    <       1.30317423 Ry

     iteration # 35     ecut=    29.40 Ry     beta= 0.05
     Davidson diagonalization with overlap
     ethr =  1.85E-04,  avg # of iterations =  6.0

     negative rho (up, down):  9.156E-03 0.000E+00
 
     Adding external electric field

     Computed dipole along edir(3) : 
        Dipole                1.0947 Ry au,          2.7824 Debye
        Dipole field          0.0021 Ry au, 
 
        Potential amp.       -0.1915 Ry
        Total length         46.3494 bohr
 

     total cpu time spent up to now is      948.3 secs

     total energy              =   -2941.53598025 Ry
     estimated scf accuracy    <       0.88589818 Ry

     iteration # 36     ecut=    29.40 Ry     beta= 0.05
     Davidson diagonalization with overlap
     ethr =  1.85E-04,  avg # of iterations =  1.3

     negative rho (up, down):  8.509E-03 0.000E+00
 
     Adding external electric field

     Computed dipole along edir(3) : 
        Dipole                1.4270 Ry au,          3.6270 Debye
        Dipole field          0.0027 Ry au, 
 
        Potential amp.       -0.2496 Ry
        Total length         46.3494 bohr
 

     total cpu time spent up to now is      964.6 secs

     total energy              =   -2941.54705769 Ry
     estimated scf accuracy    <       1.35655345 Ry

     iteration # 37     ecut=    29.40 Ry     beta= 0.05
     Davidson diagonalization with overlap
     c_bands:  1 eigenvalues not converged
     c_bands:  1 eigenvalues not converged
     c_bands:  2 eigenvalues not converged
     c_bands:  2 eigenvalues not converged
     c_bands:  1 eigenvalues not converged
     ethr =  1.85E-04,  avg # of iterations = 13.6

     negative rho (up, down):  9.050E-03 0.000E+00
 
     Adding external electric field

     Computed dipole along edir(3) : 
        Dipole                1.2765 Ry au,          3.2445 Debye
        Dipole field          0.0024 Ry au, 
 
        Potential amp.       -0.2233 Ry
        Total length         46.3494 bohr
 

     total cpu time spent up to now is      986.8 secs

     total energy              =   -2941.52557393 Ry
     estimated scf accuracy    <       4.47983994 Ry

     iteration # 38     ecut=    29.40 Ry     beta= 0.05
     Davidson diagonalization with overlap
     ethr =  1.85E-04,  avg # of iterations =  1.0

     negative rho (up, down):  9.129E-03 0.000E+00
 
     Adding external electric field

     Computed dipole along edir(3) : 
        Dipole                1.2740 Ry au,          3.2382 Debye
        Dipole field          0.0024 Ry au, 
 
        Potential amp.       -0.2229 Ry
        Total length         46.3494 bohr
 

     total cpu time spent up to now is     1002.8 secs

     total energy              =   -2941.54027236 Ry
     estimated scf accuracy    <       1.43071497 Ry

     iteration # 39     ecut=    29.40 Ry     beta= 0.05
     Davidson diagonalization with overlap
     ethr =  1.85E-04,  avg # of iterations =  1.0

     negative rho (up, down):  9.276E-03 0.000E+00
 
     Adding external electric field

     Computed dipole along edir(3) : 
        Dipole                1.4178 Ry au,          3.6037 Debye
        Dipole field          0.0027 Ry au, 
 
        Potential amp.       -0.2480 Ry
        Total length         46.3494 bohr
 

     total cpu time spent up to now is     1018.8 secs

     total energy              =   -2941.50842450 Ry
     estimated scf accuracy    <       1.46251468 Ry

     iteration # 40     ecut=    29.40 Ry     beta= 0.05
     Davidson diagonalization with overlap
     c_bands:  1 eigenvalues not converged
     ethr =  1.85E-04,  avg # of iterations =  7.5

     negative rho (up, down):  9.284E-03 0.000E+00
 
     Adding external electric field

     Computed dipole along edir(3) : 
        Dipole                1.0853 Ry au,          2.7585 Debye
        Dipole field          0.0020 Ry au, 
 
        Potential amp.       -0.1899 Ry
        Total length         46.3494 bohr
 

     total cpu time spent up to now is     1037.9 secs

     total energy              =   -2941.45339974 Ry
     estimated scf accuracy    <       1.23571707 Ry

     iteration # 41     ecut=    29.40 Ry     beta= 0.05
     Davidson diagonalization with overlap
     c_bands:  2 eigenvalues not converged
     ethr =  1.85E-04,  avg # of iterations = 12.9

     negative rho (up, down):  8.923E-03 0.000E+00
 
     Adding external electric field

     Computed dipole along edir(3) : 
        Dipole                1.2352 Ry au,          3.1395 Debye
        Dipole field          0.0023 Ry au, 
 
        Potential amp.       -0.2161 Ry
        Total length         46.3494 bohr
 

     total cpu time spent up to now is     1060.5 secs

     total energy              =   -2941.46977992 Ry
     estimated scf accuracy    <       0.64324420 Ry

     iteration # 42     ecut=    29.40 Ry     beta= 0.05
     Davidson diagonalization with overlap
     c_bands:  1 eigenvalues not converged
     ethr =  1.62E-04,  avg # of iterations =  3.7

     negative rho (up, down):  9.127E-03 0.000E+00
 
     Adding external electric field

     Computed dipole along edir(3) : 
        Dipole                1.2833 Ry au,          3.2618 Debye
        Dipole field          0.0024 Ry au, 
 
        Potential amp.       -0.2245 Ry
        Total length         46.3494 bohr
 

     total cpu time spent up to now is     1077.8 secs

     total energy              =   -2941.49559407 Ry
     estimated scf accuracy    <       0.33363461 Ry

     iteration # 43     ecut=    29.40 Ry     beta= 0.05
     Davidson diagonalization with overlap
     ethr =  8.40E-05,  avg # of iterations =  4.0

     negative rho (up, down):  9.061E-03 0.000E+00
 
     Adding external electric field

     Computed dipole along edir(3) : 
        Dipole                0.9441 Ry au,          2.3997 Debye
        Dipole field          0.0018 Ry au, 
 
        Potential amp.       -0.1652 Ry
        Total length         46.3494 bohr
 

     total cpu time spent up to now is     1095.6 secs

     total energy              =   -2941.48246064 Ry
     estimated scf accuracy    <       0.31357364 Ry

     iteration # 44     ecut=    29.40 Ry     beta= 0.05
     Davidson diagonalization with overlap
     c_bands:  1 eigenvalues not converged
     ethr =  7.90E-05,  avg # of iterations =  4.5

     negative rho (up, down):  9.332E-03 0.000E+00
 
     Adding external electric field

     Computed dipole along edir(3) : 
        Dipole                1.0090 Ry au,          2.5646 Debye
        Dipole field          0.0019 Ry au, 
 
        Potential amp.       -0.1765 Ry
        Total length         46.3494 bohr
 

     total cpu time spent up to now is     1113.5 secs

     total energy              =   -2941.48428497 Ry
     estimated scf accuracy    <       0.12351032 Ry

     iteration # 45     ecut=    29.40 Ry     beta= 0.05
     Davidson diagonalization with overlap
     c_bands:  4 eigenvalues not converged
     c_bands:  5 eigenvalues not converged
     c_bands:  2 eigenvalues not converged
     c_bands:  3 eigenvalues not converged
     ethr =  3.11E-05,  avg # of iterations = 15.7

     negative rho (up, down):  9.402E-03 0.000E+00
 
     Adding external electric field

     Computed dipole along edir(3) : 
        Dipole                1.0131 Ry au,          2.5751 Debye
        Dipole field          0.0019 Ry au, 
 
        Potential amp.       -0.1772 Ry
        Total length         46.3494 bohr
 

     total cpu time spent up to now is     1136.9 secs

     total energy              =   -2941.48134832 Ry
     estimated scf accuracy    <       0.05362637 Ry

     iteration # 46     ecut=    29.40 Ry     beta= 0.05
     Davidson diagonalization with overlap
     c_bands:  2 eigenvalues not converged
     c_bands:  3 eigenvalues not converged
     c_bands:  3 eigenvalues not converged
     c_bands:  1 eigenvalues not converged
     c_bands:  3 eigenvalues not converged
     c_bands:  2 eigenvalues not converged
     ethr =  1.35E-05,  avg # of iterations = 19.7

     negative rho (up, down):  9.229E-03 0.000E+00
 
     Adding external electric field

     Computed dipole along edir(3) : 
        Dipole                1.1775 Ry au,          2.9930 Debye
        Dipole field          0.0022 Ry au, 
 
        Potential amp.       -0.2060 Ry
        Total length         46.3494 bohr
 

     total cpu time spent up to now is     1170.0 secs

     total energy              =   -2941.48090774 Ry
     estimated scf accuracy    <       0.36130674 Ry

     iteration # 47     ecut=    29.40 Ry     beta= 0.05
     Davidson diagonalization with overlap
     c_bands:  2 eigenvalues not converged
     c_bands:  2 eigenvalues not converged
     c_bands:  1 eigenvalues not converged
     c_bands:  3 eigenvalues not converged
     c_bands:  1 eigenvalues not converged
     ethr =  1.35E-05,  avg # of iterations = 17.5

     negative rho (up, down):  9.528E-03 0.000E+00
 
     Adding external electric field

     Computed dipole along edir(3) : 
        Dipole                1.2264 Ry au,          3.1173 Debye
        Dipole field          0.0023 Ry au, 
 
        Potential amp.       -0.2145 Ry
        Total length         46.3494 bohr
 

     total cpu time spent up to now is     1195.6 secs

     total energy              =   -2941.48564107 Ry
     estimated scf accuracy    <       0.05049835 Ry

     iteration # 48     ecut=    29.40 Ry     beta= 0.05
     Davidson diagonalization with overlap
     c_bands:  1 eigenvalues not converged
     c_bands:  1 eigenvalues not converged
     c_bands:  1 eigenvalues not converged
     ethr =  1.27E-05,  avg # of iterations = 11.8

     negative rho (up, down):  1.049E-02 0.000E+00
 
     Adding external electric field

     Computed dipole along edir(3) : 
        Dipole                1.2440 Ry au,          3.1620 Debye
        Dipole field          0.0023 Ry au, 
 
        Potential amp.       -0.2176 Ry
        Total length         46.3494 bohr
 

     total cpu time spent up to now is     1217.3 secs

     total energy              =   -2941.48797647 Ry
     estimated scf accuracy    <       0.01462093 Ry

     iteration # 49     ecut=    29.40 Ry     beta= 0.05
     Davidson diagonalization with overlap
     c_bands:  1 eigenvalues not converged
     c_bands:  2 eigenvalues not converged
     ethr =  3.68E-06,  avg # of iterations = 15.7

     negative rho (up, down):  1.030E-02 0.000E+00
 
     Adding external electric field

     Computed dipole along edir(3) : 
        Dipole                1.2578 Ry au,          3.1971 Debye
        Dipole field          0.0024 Ry au, 
 
        Potential amp.       -0.2200 Ry
        Total length         46.3494 bohr
 

     total cpu time spent up to now is     1243.3 secs

     total energy              =   -2941.48927270 Ry
     estimated scf accuracy    <       0.04170511 Ry

     iteration # 50     ecut=    29.40 Ry     beta= 0.05
     Davidson diagonalization with overlap
     c_bands:  3 eigenvalues not converged
     ethr =  3.68E-06,  avg # of iterations =  5.5

     negative rho (up, down):  1.032E-02 0.000E+00
 
     Adding external electric field

     Computed dipole along edir(3) : 
        Dipole                1.2529 Ry au,          3.1846 Debye
        Dipole field          0.0024 Ry au, 
 
        Potential amp.       -0.2192 Ry
        Total length         46.3494 bohr
 

     total cpu time spent up to now is     1261.2 secs

     total energy              =   -2941.48954759 Ry
     estimated scf accuracy    <       0.00527868 Ry

     iteration # 51     ecut=    29.40 Ry     beta= 0.05
     Davidson diagonalization with overlap
     c_bands:  3 eigenvalues not converged
     ethr =  1.33E-06,  avg # of iterations = 12.9

     negative rho (up, down):  1.132E-02 0.000E+00
 
     Adding external electric field

     Computed dipole along edir(3) : 
        Dipole                1.3126 Ry au,          3.3363 Debye
        Dipole field          0.0025 Ry au, 
 
        Potential amp.       -0.2296 Ry
        Total length         46.3494 bohr
 

     total cpu time spent up to now is     1283.4 secs

     total energy              =   -2941.48999177 Ry
     estimated scf accuracy    <       0.00463249 Ry

     iteration # 52     ecut=    29.40 Ry     beta= 0.05
     Davidson diagonalization with overlap
     c_bands:  2 eigenvalues not converged
     c_bands:  1 eigenvalues not converged
     c_bands:  2 eigenvalues not converged
     c_bands:  1 eigenvalues not converged
     c_bands:  2 eigenvalues not converged
     ethr =  1.17E-06,  avg # of iterations = 16.1

     negative rho (up, down):  1.201E-02 0.000E+00
 
     Adding external electric field

     Computed dipole along edir(3) : 
        Dipole                1.3324 Ry au,          3.3867 Debye
        Dipole field          0.0025 Ry au, 
 
        Potential amp.       -0.2331 Ry
        Total length         46.3494 bohr
 

     total cpu time spent up to now is     1309.5 secs

     total energy              =   -2941.49031723 Ry
     estimated scf accuracy    <       0.00492543 Ry

     iteration # 53     ecut=    29.40 Ry     beta= 0.05
     Davidson diagonalization with overlap
     c_bands:  1 eigenvalues not converged
     c_bands:  1 eigenvalues not converged
     c_bands:  2 eigenvalues not converged
     ethr =  1.17E-06,  avg # of iterations = 12.8

     negative rho (up, down):  1.260E-02 0.000E+00
 
     Adding external electric field

     Computed dipole along edir(3) : 
        Dipole                1.3499 Ry au,          3.4310 Debye
        Dipole field          0.0025 Ry au, 
 
        Potential amp.       -0.2361 Ry
        Total length         46.3494 bohr
 

     total cpu time spent up to now is     1330.7 secs

     total energy              =   -2941.49046942 Ry
     estimated scf accuracy    <       0.00107587 Ry

     iteration # 54     ecut=    29.40 Ry     beta= 0.05
     Davidson diagonalization with overlap
     c_bands:  1 eigenvalues not converged
     c_bands:  1 eigenvalues not converged
     c_bands:  1 eigenvalues not converged
     c_bands:  1 eigenvalues not converged
     ethr =  2.71E-07,  avg # of iterations = 17.5

     negative rho (up, down):  1.265E-02 0.000E+00
 
     Adding external electric field

     Computed dipole along edir(3) : 
        Dipole                1.3471 Ry au,          3.4239 Debye
        Dipole field          0.0025 Ry au, 
 
        Potential amp.       -0.2356 Ry
        Total length         46.3494 bohr
 

     total cpu time spent up to now is     1360.6 secs

     total energy              =   -2941.49058866 Ry
     estimated scf accuracy    <       0.00087485 Ry

     iteration # 55     ecut=    29.40 Ry     beta= 0.05
     Davidson diagonalization with overlap
     c_bands:  1 eigenvalues not converged
     ethr =  2.20E-07,  avg # of iterations = 13.8

     negative rho (up, down):  1.333E-02 0.000E+00
 
     Adding external electric field

     Computed dipole along edir(3) : 
        Dipole                1.3613 Ry au,          3.4600 Debye
        Dipole field          0.0026 Ry au, 
 
        Potential amp.       -0.2381 Ry
        Total length         46.3494 bohr
 

     total cpu time spent up to now is     1384.5 secs

     total energy              =   -2941.49072753 Ry
     estimated scf accuracy    <       0.00048658 Ry

     iteration # 56     ecut=    29.40 Ry     beta= 0.05
     Davidson diagonalization with overlap
     ethr =  1.23E-07,  avg # of iterations = 11.1

     negative rho (up, down):  1.352E-02 0.000E+00
 
     Adding external electric field

     Computed dipole along edir(3) : 
        Dipole                1.3656 Ry au,          3.4711 Debye
        Dipole field          0.0026 Ry au, 
 
        Potential amp.       -0.2389 Ry
        Total length         46.3494 bohr
 

     total cpu time spent up to now is     1405.6 secs

     total energy              =   -2941.49077157 Ry
     estimated scf accuracy    <       0.00017224 Ry

     iteration # 57     ecut=    29.40 Ry     beta= 0.05
     Davidson diagonalization with overlap
     c_bands:  1 eigenvalues not converged
     c_bands:  3 eigenvalues not converged
     c_bands:  1 eigenvalues not converged
     ethr =  4.34E-08,  avg # of iterations = 14.1

     negative rho (up, down):  1.349E-02 0.000E+00
 
     Adding external electric field

     Computed dipole along edir(3) : 
        Dipole                1.3633 Ry au,          3.4652 Debye
        Dipole field          0.0026 Ry au, 
 
        Potential amp.       -0.2385 Ry
        Total length         46.3494 bohr
 

     total cpu time spent up to now is     1430.6 secs

     total energy              =   -2941.49078677 Ry
     estimated scf accuracy    <       0.00011916 Ry

     iteration # 58     ecut=    29.40 Ry     beta= 0.05
     Davidson diagonalization with overlap
     ethr =  3.00E-08,  avg # of iterations =  6.8

     negative rho (up, down):  1.334E-02 0.000E+00
 
     Adding external electric field

     Computed dipole along edir(3) : 
        Dipole                1.3577 Ry au,          3.4510 Debye
        Dipole field          0.0026 Ry au, 
 
        Potential amp.       -0.2375 Ry
        Total length         46.3494 bohr
 

     total cpu time spent up to now is     1449.6 secs

     total energy              =   -2941.49078861 Ry
     estimated scf accuracy    <       0.00006985 Ry

     iteration # 59     ecut=    29.40 Ry     beta= 0.05
     Davidson diagonalization with overlap
     c_bands:  1 eigenvalues not converged
     ethr =  1.76E-08,  avg # of iterations = 13.2

     negative rho (up, down):  1.345E-02 0.000E+00
 
     Adding external electric field

     Computed dipole along edir(3) : 
        Dipole                1.3599 Ry au,          3.4565 Debye
        Dipole field          0.0026 Ry au, 
 
        Potential amp.       -0.2379 Ry
        Total length         46.3494 bohr
 

     total cpu time spent up to now is     1476.0 secs

     total energy              =   -2941.49080119 Ry
     estimated scf accuracy    <       0.00005494 Ry

     iteration # 60     ecut=    29.40 Ry     beta= 0.05
     Davidson diagonalization with overlap
     c_bands:  1 eigenvalues not converged
     ethr =  1.38E-08,  avg # of iterations = 14.9

     negative rho (up, down):  1.339E-02 0.000E+00
 
     Adding external electric field

     Computed dipole along edir(3) : 
        Dipole                1.3587 Ry au,          3.4536 Debye
        Dipole field          0.0026 Ry au, 
 
        Potential amp.       -0.2377 Ry
        Total length         46.3494 bohr
 

     total cpu time spent up to now is     1504.5 secs

     total energy              =   -2941.49081437 Ry
     estimated scf accuracy    <       0.00004326 Ry

     iteration # 61     ecut=    29.40 Ry     beta= 0.05
     Davidson diagonalization with overlap
     ethr =  1.09E-08,  avg # of iterations =  1.0

     negative rho (up, down):  1.339E-02 0.000E+00
 
     Adding external electric field

     Computed dipole along edir(3) : 
        Dipole                1.3586 Ry au,          3.4533 Debye
        Dipole field          0.0026 Ry au, 
 
        Potential amp.       -0.2377 Ry
        Total length         46.3494 bohr
 

     total cpu time spent up to now is     1520.5 secs

     total energy              =   -2941.49081574 Ry
     estimated scf accuracy    <       0.00003549 Ry

     iteration # 62     ecut=    29.40 Ry     beta= 0.05
     Davidson diagonalization with overlap
     c_bands:  1 eigenvalues not converged
     ethr =  8.94E-09,  avg # of iterations = 14.0

     negative rho (up, down):  1.340E-02 0.000E+00
 
     Adding external electric field

     Computed dipole along edir(3) : 
        Dipole                1.3600 Ry au,          3.4567 Debye
        Dipole field          0.0026 Ry au, 
 
        Potential amp.       -0.2379 Ry
        Total length         46.3494 bohr
 

     total cpu time spent up to now is     1548.3 secs

     total energy              =   -2941.49082533 Ry
     estimated scf accuracy    <       0.00002864 Ry

     iteration # 63     ecut=    29.40 Ry     beta= 0.05
     Davidson diagonalization with overlap
     ethr =  7.21E-09,  avg # of iterations =  9.3

     negative rho (up, down):  1.345E-02 0.000E+00
 
     Adding external electric field

     Computed dipole along edir(3) : 
        Dipole                1.3610 Ry au,          3.4592 Debye
        Dipole field          0.0026 Ry au, 
 
        Potential amp.       -0.2381 Ry
        Total length         46.3494 bohr
 

     total cpu time spent up to now is     1568.9 secs

     total energy              =   -2941.49083317 Ry
     estimated scf accuracy    <       0.00000929 Ry

     iteration # 64     ecut=    29.40 Ry     beta= 0.05
     Davidson diagonalization with overlap
     c_bands:  1 eigenvalues not converged
     c_bands:  1 eigenvalues not converged
     ethr =  2.34E-09,  avg # of iterations = 14.5

     negative rho (up, down):  1.348E-02 0.000E+00
 
     Adding external electric field

     Computed dipole along edir(3) : 
        Dipole                1.3622 Ry au,          3.4623 Debye
        Dipole field          0.0026 Ry au, 
 
        Potential amp.       -0.2383 Ry
        Total length         46.3494 bohr
 

     total cpu time spent up to now is     1599.1 secs

     total energy              =   -2941.49083913 Ry
     estimated scf accuracy    <       0.00001542 Ry

     iteration # 65     ecut=    29.40 Ry     beta= 0.05
     Davidson diagonalization with overlap
     ethr =  2.34E-09,  avg # of iterations =  3.7

     negative rho (up, down):  1.350E-02 0.000E+00
 
     Adding external electric field

     Computed dipole along edir(3) : 
        Dipole                1.3635 Ry au,          3.4656 Debye
        Dipole field          0.0026 Ry au, 
 
        Potential amp.       -0.2385 Ry
        Total length         46.3494 bohr
 

     total cpu time spent up to now is     1616.9 secs

     total energy              =   -2941.49084207 Ry
     estimated scf accuracy    <       0.00000932 Ry

     iteration # 66     ecut=    29.40 Ry     beta= 0.05
     Davidson diagonalization with overlap
     ethr =  2.34E-09,  avg # of iterations = 10.6

     negative rho (up, down):  1.348E-02 0.000E+00
 
     Adding external electric field

     Computed dipole along edir(3) : 
        Dipole                1.3639 Ry au,          3.4666 Debye
        Dipole field          0.0026 Ry au, 
 
        Potential amp.       -0.2386 Ry
        Total length         46.3494 bohr
 

     total cpu time spent up to now is     1640.0 secs

     total energy              =   -2941.49084646 Ry
     estimated scf accuracy    <       0.00000221 Ry

     iteration # 67     ecut=    29.40 Ry     beta= 0.05
     Davidson diagonalization with overlap
     ethr =  5.57E-10,  avg # of iterations = 13.4

     negative rho (up, down):  1.346E-02 0.000E+00
 
     Adding external electric field

     Computed dipole along edir(3) : 
        Dipole                1.3639 Ry au,          3.4666 Debye
        Dipole field          0.0026 Ry au, 
 
        Potential amp.       -0.2386 Ry
        Total length         46.3494 bohr
 

     total cpu time spent up to now is     1669.6 secs

     total energy              =   -2941.49084957 Ry
     estimated scf accuracy    <       0.00000274 Ry

     iteration # 68     ecut=    29.40 Ry     beta= 0.05
     Davidson diagonalization with overlap
     ethr =  5.57E-10,  avg # of iterations =  9.4

     negative rho (up, down):  1.344E-02 0.000E+00
 
     Adding external electric field

     Computed dipole along edir(3) : 
        Dipole                1.3638 Ry au,          3.4663 Debye
        Dipole field          0.0026 Ry au, 
 
        Potential amp.       -0.2386 Ry
        Total length         46.3494 bohr
 

     total cpu time spent up to now is     1689.8 secs

     total energy              =   -2941.49085236 Ry
     estimated scf accuracy    <       0.00000103 Ry

     iteration # 69     ecut=    29.40 Ry     beta= 0.05
     Davidson diagonalization with overlap
     c_bands:  1 eigenvalues not converged
     c_bands:  1 eigenvalues not converged
     ethr =  2.58E-10,  avg # of iterations = 14.6

     negative rho (up, down):  1.344E-02 0.000E+00
 
     Adding external electric field

     Computed dipole along edir(3) : 
        Dipole                1.3639 Ry au,          3.4666 Debye
        Dipole field          0.0026 Ry au, 
 
        Potential amp.       -0.2386 Ry
        Total length         46.3494 bohr
 

     total cpu time spent up to now is     1720.4 secs

     total energy              =   -2941.49085510 Ry
     estimated scf accuracy    <       0.00000093 Ry

     iteration # 70     ecut=    29.40 Ry     beta= 0.05
     Davidson diagonalization with overlap
     ethr =  2.34E-10,  avg # of iterations =  2.0

     negative rho (up, down):  1.343E-02 0.000E+00
 
     Adding external electric field

     Computed dipole along edir(3) : 
        Dipole                1.3636 Ry au,          3.4659 Debye
        Dipole field          0.0026 Ry au, 
 
        Potential amp.       -0.2385 Ry
        Total length         46.3494 bohr
 

     total cpu time spent up to now is     1737.6 secs

     total energy              =   -2941.49085727 Ry
     estimated scf accuracy    <       0.00000052 Ry

     iteration # 71     ecut=    29.40 Ry     beta= 0.05
     Davidson diagonalization with overlap
     c_bands:  1 eigenvalues not converged
     c_bands:  1 eigenvalues not converged
     c_bands:  1 eigenvalues not converged
     c_bands:  2 eigenvalues not converged
     c_bands:  1 eigenvalues not converged
     ethr =  1.32E-10,  avg # of iterations = 18.6

     negative rho (up, down):  1.343E-02 0.000E+00
 
     Adding external electric field

     Computed dipole along edir(3) : 
        Dipole                1.3637 Ry au,          3.4662 Debye
        Dipole field          0.0026 Ry au, 
 
        Potential amp.       -0.2386 Ry
        Total length         46.3494 bohr
 

     total cpu time spent up to now is     1773.7 secs

     total energy              =   -2941.49085938 Ry
     estimated scf accuracy    <       0.00000130 Ry

     iteration # 72     ecut=    29.40 Ry     beta= 0.05
     Davidson diagonalization with overlap
     ethr =  1.32E-10,  avg # of iterations = 12.2

     negative rho (up, down):  1.342E-02 0.000E+00
 
     Adding external electric field

     Computed dipole along edir(3) : 
        Dipole                1.3635 Ry au,          3.4657 Debye
        Dipole field          0.0026 Ry au, 
 
        Potential amp.       -0.2385 Ry
        Total length         46.3494 bohr
 

     total cpu time spent up to now is     1797.3 secs

     total energy              =   -2941.49086125 Ry
     estimated scf accuracy    <       0.00000027 Ry

     iteration # 73     ecut=    29.40 Ry     beta= 0.05
     Davidson diagonalization with overlap
     ethr =  6.89E-11,  avg # of iterations =  8.5

     negative rho (up, down):  1.342E-02 0.000E+00
 
     Adding external electric field

     Computed dipole along edir(3) : 
        Dipole                1.3635 Ry au,          3.4656 Debye
        Dipole field          0.0026 Ry au, 
 
        Potential amp.       -0.2385 Ry
        Total length         46.3494 bohr
 

     total cpu time spent up to now is     1820.1 secs

     total energy              =   -2941.49086291 Ry
     estimated scf accuracy    <       0.00000010 Ry

     iteration # 74     ecut=    29.40 Ry     beta= 0.05
     Davidson diagonalization with overlap
     c_bands:  1 eigenvalues not converged
     c_bands:  1 eigenvalues not converged
     c_bands:  1 eigenvalues not converged
     c_bands:  3 eigenvalues not converged
     c_bands:  1 eigenvalues not converged
     c_bands:  1 eigenvalues not converged
     ethr =  2.59E-11,  avg # of iterations = 17.2

     negative rho (up, down):  1.342E-02 0.000E+00
 
     Adding external electric field

     Computed dipole along edir(3) : 
        Dipole                1.3634 Ry au,          3.4655 Debye
        Dipole field          0.0026 Ry au, 
 
        Potential amp.       -0.2385 Ry
        Total length         46.3494 bohr
 

     total cpu time spent up to now is     1852.9 secs

     total energy              =   -2941.49086441 Ry
     estimated scf accuracy    <       0.00000024 Ry

     iteration # 75     ecut=    29.40 Ry     beta= 0.05
     Davidson diagonalization with overlap
     ethr =  2.59E-11,  avg # of iterations = 12.9

     negative rho (up, down):  1.345E-02 0.000E+00
 
     Adding external electric field

     Computed dipole along edir(3) : 
        Dipole                1.3627 Ry au,          3.4637 Debye
        Dipole field          0.0026 Ry au, 
 
        Potential amp.       -0.2384 Ry
        Total length         46.3494 bohr
 

     total cpu time spent up to now is     1880.4 secs

     End of self-consistent calculation

          k = 0.0000 0.0000 0.0000 ( 18029 PWs)   bands (ev):

   -55.2842 -55.2452 -55.2452 -55.2111 -55.1596 -55.1577 -55.1211 -55.0944
   -55.0772 -55.0759 -55.0597 -55.0427 -54.9569 -54.7908 -54.2634 -54.2293
   -31.8564 -31.7360 -31.6461 -31.6110 -31.5842 -31.5817 -31.5791 -31.5348
   -31.5321 -31.4920 -31.4903 -31.4897 -31.4574 -31.4546 -31.4406 -31.4191
   -31.4037 -31.3989 -31.3945 -31.3933 -31.3575 -31.3521 -31.3385 -31.3250
   -31.3021 -31.2970 -31.2905 -31.2866 -31.2742 -31.2710 -31.2612 -31.2511
   -31.2444 -31.2394 -31.2094 -31.2049 -31.1981 -31.1857 -31.1482 -31.1055
   -31.0617 -30.9324 -30.6722 -30.5794 -30.5573 -30.4887 -30.4020 -30.2910
   -19.2188 -16.1258 -15.8636 -15.7357 -15.5441 -15.4781 -15.3825 -15.2446
   -15.1932 -15.1312 -15.0829 -15.0425 -15.0294 -14.9638 -14.9067 -14.8183
   -14.8166 -14.7987 -14.7896 -14.7779 -14.7744 -14.7121 -14.7095 -14.6822
   -14.6677 -14.6574 -14.5166 -14.4327 -14.3713 -14.2657 -14.0260 -12.7661
   -12.6489  -9.1376  -7.7876  -7.0665  -5.9929  -3.8226  -3.4635  -3.2907
    -3.2440  -3.2037  -3.1790  -3.0103  -2.9286  -2.6613  -2.5932  -2.5536
    -2.5061  -2.4948  -2.4693  -2.2971  -2.2664  -2.2270  -2.1905  -2.1665
    -2.1268  -2.0991  -2.0831  -2.0538  -2.0407  -2.0386  -1.8560  -1.7854
    -1.7625  -1.7008  -1.6849  -1.6688  -1.6113  -1.5824  -1.5694  -1.5670
    -1.5439  -1.5270  -1.5040  -1.4614  -1.3745  -1.2829  -1.2384  -1.2164
    -1.1032  -1.0392  -0.9155  -0.8730  -0.8589  -0.8316  -0.7599  -0.6934
    -0.6659  -0.6301  -0.4900  -0.4851  -0.4008  -0.3907  -0.3180  -0.3011
    -0.2614  -0.2160  -0.1039  -0.0707  -0.0492   0.0029   0.0660   0.0880
     0.1697   0.2240   0.2806   0.2946   0.3742   0.4140   0.4519   0.4734
     0.5605   0.6022   0.6617   0.6681   0.7052   0.7084   0.7338   0.8201
     0.8334   0.8531   0.8939   1.0634   1.2638   1.3158   1.3363   1.6691
     1.6884   1.7592   1.9445   2.3339   2.3815   3.8170   3.8825   3.9530
     3.9675   3.9777   4.0495   4.0950   4.2844   4.3135   4.3165   4.3381

          k = 0.0000 0.0419 0.0000 ( 17933 PWs)   bands (ev):

   -55.2794 -55.2499 -55.2402 -55.2160 -55.1578 -55.1531 -55.1256 -55.0893
   -55.0789 -55.0710 -55.0646 -55.0474 -54.9560 -54.7915 -54.2583 -54.2342
   -31.7991 -31.6820 -31.5967 -31.5917 -31.5438 -31.5377 -31.5325 -31.5300
   -31.5297 -31.5141 -31.4839 -31.4808 -31.4752 -31.4558 -31.4289 -31.4267
   -31.4142 -31.3955 -31.3848 -31.3825 -31.3803 -31.3565 -31.3326 -31.3209
   -31.3180 -31.3162 -31.3060 -31.3005 -31.2975 -31.2853 -31.2666 -31.2637
   -31.2523 -31.2484 -31.2417 -31.2401 -31.2367 -31.2151 -31.1516 -31.1043
   -31.0607 -30.9668 -30.6180 -30.5760 -30.5603 -30.4761 -30.4145 -30.3482
   -19.2172 -15.9946 -15.7516 -15.6273 -15.4725 -15.3716 -15.3550 -15.2600
   -15.1842 -15.1650 -15.1344 -15.0669 -15.0502 -14.9795 -14.9269 -14.8566
   -14.8453 -14.8175 -14.7835 -14.7711 -14.7598 -14.7341 -14.7170 -14.7145
   -14.6643 -14.6398 -14.5725 -14.4883 -14.4307 -14.3002 -14.1039 -12.7698
   -12.6882  -9.1362  -7.7883  -7.0642  -5.9940  -3.8300  -3.2728  -3.1246
    -3.0926  -3.0462  -3.0016  -2.8620  -2.7112  -2.6330  -2.5189  -2.5097
    -2.4269  -2.4232  -2.3964  -2.3434  -2.3073  -2.2874  -2.2757  -2.2551
    -2.2182  -2.1988  -2.1423  -2.0741  -2.0653  -2.0386  -2.0083  -1.9981
    -1.8745  -1.8655  -1.8282  -1.8134  -1.7524  -1.7065  -1.6506  -1.5744
    -1.5650  -1.4389  -1.4192  -1.3585  -1.2825  -1.2116  -1.1817  -1.0494
    -1.0375  -0.9659  -0.9133  -0.8346  -0.7161  -0.6735  -0.6018  -0.5823
    -0.5482  -0.5253  -0.4664  -0.4516  -0.3971  -0.3269  -0.2784  -0.2518
    -0.2208  -0.2095  -0.1803  -0.1100  -0.1002  -0.0788   0.0081   0.0883
     0.1312   0.1549   0.2099   0.2163   0.3205   0.3458   0.3687   0.4292
     0.4719   0.4792   0.5301   0.5476   0.5823   0.6879   0.7043   0.7650
     0.7920   0.8392   0.9341   1.0174   1.0318   1.0923   1.2048   1.3691
     1.5598   1.9436   2.0215   2.2887   2.2920   3.8528   3.9900   4.0466
     4.0594   4.1131   4.1973   4.1994   4.2299   4.2621   4.3168   4.3510

          k = 0.0000-0.0839 0.0000 ( 17884 PWs)   bands (ev):

   -55.2721 -55.2571 -55.2282 -55.2279 -55.1559 -55.1458 -55.1329 -55.0808
   -55.0783 -55.0755 -55.0596 -55.0587 -54.9552 -54.7922 -54.2463 -54.2462
   -31.6654 -31.6524 -31.5784 -31.5496 -31.5494 -31.5470 -31.5202 -31.5200
   -31.4842 -31.4745 -31.4681 -31.4561 -31.4520 -31.4479 -31.4176 -31.4092
   -31.4016 -31.3960 -31.3948 -31.3786 -31.3739 -31.3567 -31.3564 -31.3505
   -31.3504 -31.3472 -31.3456 -31.3444 -31.3218 -31.3115 -31.3095 -31.3086
   -31.2977 -31.2437 -31.2425 -31.2411 -31.2388 -31.2364 -31.1652 -31.0921
   -31.0593 -31.0101 -30.5679 -30.5679 -30.4849 -30.4848 -30.4453 -30.4453
   -19.2157 -15.6804 -15.6651 -15.5062 -15.4551 -15.3628 -15.3340 -15.3023
   -15.2027 -15.1760 -15.1355 -15.0759 -15.0580 -15.0317 -15.0093 -14.8813
   -14.8786 -14.8492 -14.8422 -14.8123 -14.7296 -14.6913 -14.6815 -14.6807
   -14.6245 -14.6222 -14.5746 -14.5727 -14.4783 -14.4401 -14.1814 -12.7509
   -12.7508  -9.1349  -7.7890  -7.0621  -5.9950  -3.8364  -2.8666  -2.8057
    -2.7857  -2.7413  -2.7358  -2.7129  -2.6960  -2.6667  -2.5816  -2.5614
    -2.5592  -2.4648  -2.4489  -2.4347  -2.4188  -2.4020  -2.3146  -2.2818
    -2.2640  -2.2379  -2.1928  -2.1580  -2.1347  -2.1119  -2.0936  -2.0254
    -1.9880  -1.9276  -1.8987  -1.8674  -1.7742  -1.7145  -1.6612  -1.5161
    -1.4238  -1.3465  -1.2980  -1.2494  -1.1934  -1.1052  -1.0575  -1.0390
    -1.0164  -0.8642  -0.7966  -0.7822  -0.7527  -0.7221  -0.6871  -0.6722
    -0.6481  -0.6319  -0.5703  -0.5391  -0.5178  -0.3926  -0.3327  -0.2198
    -0.1988  -0.1272  -0.0996  -0.0141   0.0128   0.0666   0.0945   0.1070
     0.1259   0.1573   0.1868   0.2419   0.2463   0.2804   0.3259   0.3545
     0.3752   0.3844   0.4543   0.4995   0.5055   0.5089   0.5340   0.5614
     0.6408   0.8449   0.9278   0.9343   0.9348   1.0578   1.1546   1.2904
     1.3093   2.0861   2.0868   2.2245   2.2246   3.7313   4.0091   4.0937
     4.1153   4.1493   4.2835   4.2956   4.3195   4.3925   4.4157   4.4178

          k = 0.0380 0.0000 0.0000 ( 17913 PWs)   bands (ev):

   -55.2841 -55.2451 -55.2451 -55.2110 -55.1595 -55.1577 -55.1210 -55.0939
   -55.0771 -55.0761 -55.0595 -55.0426 -54.9568 -54.7907 -54.2633 -54.2292
   -31.8565 -31.7369 -31.6516 -31.6115 -31.5883 -31.5834 -31.5794 -31.5346
   -31.5319 -31.4902 -31.4896 -31.4747 -31.4578 -31.4545 -31.4402 -31.4125
   -31.4034 -31.3948 -31.3841 -31.3755 -31.3572 -31.3561 -31.3520 -31.3247
   -31.3022 -31.2967 -31.2899 -31.2794 -31.2743 -31.2717 -31.2685 -31.2610
   -31.2454 -31.2452 -31.2077 -31.2048 -31.1977 -31.1866 -31.1488 -31.1053
   -31.0625 -30.9323 -30.6717 -30.5829 -30.5552 -30.4885 -30.4018 -30.2908
   -19.2184 -16.0537 -15.7795 -15.6793 -15.5550 -15.3889 -15.3716 -15.2883
   -15.2148 -15.1937 -15.0867 -15.0551 -15.0294 -14.9766 -14.9653 -14.9579
   -14.9568 -14.8944 -14.8657 -14.7376 -14.6881 -14.6804 -14.6645 -14.6282
   -14.5910 -14.5268 -14.5085 -14.5035 -14.4592 -14.2831 -14.0259 -12.7628
   -12.6486  -9.1321  -7.7908  -7.0553  -5.9975  -3.8517  -3.3726  -3.1382
    -3.0557  -3.0244  -2.9192  -2.9088  -2.8847  -2.8078  -2.6599  -2.6360
    -2.6008  -2.5628  -2.4447  -2.3597  -2.3294  -2.2660  -2.2102  -2.0846
    -2.0747  -2.0414  -2.0051  -1.9731  -1.9341  -1.8939  -1.8441  -1.8185
    -1.7298  -1.7035  -1.6332  -1.6272  -1.6099  -1.5812  -1.5620  -1.5297
    -1.5084  -1.4275  -1.3956  -1.3410  -1.3033  -1.2834  -1.2395  -1.1651
    -1.0884  -1.0750  -0.9253  -0.9068  -0.8716  -0.7743  -0.7528  -0.7129
    -0.6992  -0.6633  -0.6218  -0.6054  -0.4956  -0.3985  -0.3445  -0.2997
    -0.2711  -0.2065  -0.1730  -0.1507  -0.1172   0.0213   0.0421   0.0658
     0.1223   0.1954   0.2268   0.2536   0.3329   0.3504   0.3792   0.4248
     0.4610   0.4829   0.5015   0.5421   0.5827   0.6704   0.6942   0.7352
     0.7854   0.8018   0.8630   0.9420   1.0614   1.1672   1.3846   1.5499
     1.6746   1.7710   1.9134   2.2215   2.2987   3.8349   3.9102   3.9796
     4.0917   4.1156   4.1439   4.2108   4.2533   4.2842   4.3065   4.3223

          k = 0.0380 0.0419 0.0000 ( 17878 PWs)   bands (ev):

   -55.2793 -55.2498 -55.2401 -55.2160 -55.1577 -55.1531 -55.1256 -55.0889
   -55.0789 -55.0712 -55.0646 -55.0475 -54.9560 -54.7915 -54.2582 -54.2342
   -31.7992 -31.6828 -31.5982 -31.5967 -31.5447 -31.5381 -31.5356 -31.5322
   -31.5297 -31.5144 -31.4842 -31.4755 -31.4666 -31.4558 -31.4271 -31.4190
   -31.4143 -31.3952 -31.3813 -31.3740 -31.3637 -31.3566 -31.3488 -31.3204
   -31.3158 -31.3157 -31.3006 -31.3000 -31.2938 -31.2841 -31.2773 -31.2656
   -31.2542 -31.2538 -31.2478 -31.2405 -31.2387 -31.2151 -31.1521 -31.1041
   -31.0618 -30.9667 -30.6176 -30.5787 -30.5592 -30.4759 -30.4146 -30.3480
   -19.2169 -15.9278 -15.6699 -15.5788 -15.4747 -15.3597 -15.2795 -15.2610
   -15.2089 -15.1970 -15.1360 -15.0697 -15.0413 -14.9874 -14.9749 -14.9612
   -14.9322 -14.9069 -14.8160 -14.7867 -14.7299 -14.7121 -14.6872 -14.6432
   -14.6183 -14.6035 -14.5687 -14.5514 -14.5130 -14.3059 -14.1066 -12.7675
   -12.6885  -9.1308  -7.7928  -7.0582  -5.9982  -3.8349  -3.1984  -2.9751
    -2.8885  -2.8724  -2.7627  -2.7172  -2.7039  -2.6488  -2.5555  -2.5151
    -2.4591  -2.4104  -2.3614  -2.3363  -2.3164  -2.2711  -2.2221  -2.1963
    -2.1660  -2.1141  -2.0968  -2.0710  -2.0345  -1.9809  -1.9705  -1.9520
    -1.8746  -1.8502  -1.8346  -1.7929  -1.7330  -1.6692  -1.6348  -1.5779
    -1.5206  -1.4471  -1.3652  -1.3375  -1.2866  -1.2296  -1.1022  -1.0676
    -1.0051  -0.9828  -0.8789  -0.8236  -0.7692  -0.7361  -0.6830  -0.6614
    -0.6397  -0.5615  -0.5451  -0.5012  -0.4658  -0.4216  -0.3793  -0.3277
    -0.2745  -0.2409  -0.2035  -0.1752  -0.1445  -0.0659  -0.0317   0.0111
     0.0411   0.0610   0.0902   0.1043   0.1572   0.1891   0.2755   0.3091
     0.3545   0.3862   0.4465   0.5004   0.5355   0.6389   0.6925   0.7482
     0.8283   0.8713   0.8929   0.9738   1.0305   1.1381   1.1563   1.3175
     1.5145   1.9545   2.0250   2.2109   2.2737   3.7843   3.9941   4.0329
     4.0520   4.1553   4.2063   4.2392   4.2532   4.3364   4.3838   4.3983

          k = 0.0380-0.0839 0.0000 ( 17916 PWs)   bands (ev):

   -55.2721 -55.2571 -55.2282 -55.2279 -55.1559 -55.1458 -55.1329 -55.0808
   -55.0782 -55.0754 -55.0598 -55.0589 -54.9553 -54.7923 -54.2463 -54.2462
   -31.6656 -31.6526 -31.5786 -31.5504 -31.5502 -31.5472 -31.5202 -31.5201
   -31.4849 -31.4841 -31.4753 -31.4725 -31.4268 -31.4238 -31.4196 -31.4092
   -31.4078 -31.4032 -31.3964 -31.3810 -31.3694 -31.3576 -31.3546 -31.3489
   -31.3487 -31.3479 -31.3312 -31.3255 -31.3239 -31.3176 -31.3114 -31.3085
   -31.2921 -31.2557 -31.2546 -31.2442 -31.2399 -31.2386 -31.1653 -31.0923
   -31.0609 -31.0100 -30.5689 -30.5689 -30.4848 -30.4847 -30.4453 -30.4453
   -19.2154 -15.6349 -15.6187 -15.4542 -15.4018 -15.3554 -15.3226 -15.2667
   -15.1889 -15.1714 -15.1406 -15.0862 -15.0548 -15.0101 -14.9739 -14.9172
   -14.9022 -14.8997 -14.8438 -14.8184 -14.7664 -14.7390 -14.7108 -14.7080
   -14.6444 -14.6415 -14.6247 -14.6236 -14.4702 -14.4331 -14.1862 -12.7507
   -12.7506  -9.1296  -7.7933  -7.0564  -5.9992  -3.8411  -2.8543  -2.7656
    -2.6978  -2.5780  -2.5600  -2.5482  -2.5179  -2.4995  -2.4675  -2.4487
    -2.3805  -2.3744  -2.3637  -2.3605  -2.3344  -2.3225  -2.2669  -2.2422
    -2.1953  -2.1815  -2.1635  -2.1557  -2.1389  -2.0797  -2.0396  -1.9904
    -1.9770  -1.9621  -1.8879  -1.8539  -1.8308  -1.6127  -1.5212  -1.4845
    -1.4138  -1.3387  -1.2946  -1.2535  -1.2164  -1.2024  -1.1676  -1.1350
    -1.1200  -1.0294  -1.0036  -0.9583  -0.9550  -0.8617  -0.8265  -0.7259
    -0.6850  -0.6635  -0.6277  -0.5894  -0.5126  -0.4643  -0.3750  -0.3297
    -0.2934  -0.2467  -0.1987  -0.1246  -0.1004  -0.0895  -0.0756  -0.0633
    -0.0115   0.0816   0.0889   0.1223   0.1551   0.1945   0.2068   0.2284
     0.2539   0.4097   0.4440   0.4733   0.5067   0.6381   0.6656   0.7897
     0.7921   0.8364   0.8735   0.9595   0.9712   1.0455   1.0960   1.2830
     1.2992   2.0995   2.1002   2.2147   2.2154   3.7097   3.9686   4.0818
     4.1118   4.1424   4.2429   4.2716   4.3037   4.4047   4.4224   4.4709

          k = 0.0380-0.0419 0.0000 ( 17876 PWs)   bands (ev):

   -55.2793 -55.2498 -55.2401 -55.2160 -55.1577 -55.1531 -55.1256 -55.0889
   -55.0789 -55.0712 -55.0645 -55.0475 -54.9560 -54.7914 -54.2582 -54.2342
   -31.7992 -31.6828 -31.5982 -31.5967 -31.5446 -31.5381 -31.5356 -31.5322
   -31.5297 -31.5143 -31.4842 -31.4757 -31.4663 -31.4558 -31.4272 -31.4190
   -31.4143 -31.3952 -31.3813 -31.3747 -31.3636 -31.3568 -31.3489 -31.3204
   -31.3158 -31.3158 -31.3006 -31.2999 -31.2937 -31.2790 -31.2775 -31.2655
   -31.2582 -31.2540 -31.2478 -31.2403 -31.2387 -31.2151 -31.1517 -31.1046
   -31.0620 -30.9667 -30.6176 -30.5787 -30.5592 -30.4759 -30.4146 -30.3480
   -19.2168 -15.9291 -15.6757 -15.5832 -15.4715 -15.3585 -15.2775 -15.2565
   -15.2072 -15.1956 -15.1420 -15.0692 -15.0377 -14.9872 -14.9741 -14.9599
   -14.9323 -14.8925 -14.8160 -14.7868 -14.7300 -14.7121 -14.6878 -14.6430
   -14.6290 -14.6028 -14.5687 -14.5518 -14.5134 -14.3147 -14.1045 -12.7675
   -12.6885  -9.1308  -7.7911  -7.0531  -5.9985  -3.8577  -3.1985  -2.9761
    -2.8887  -2.8699  -2.7619  -2.7170  -2.7104  -2.6505  -2.5587  -2.5082
    -2.4498  -2.4169  -2.3559  -2.3357  -2.3264  -2.2608  -2.2133  -2.1973
    -2.1608  -2.1222  -2.0969  -2.0790  -2.0347  -2.0015  -1.9717  -1.9512
    -1.8938  -1.8473  -1.7985  -1.7787  -1.7110  -1.6821  -1.6373  -1.5603
    -1.4913  -1.4254  -1.3737  -1.3239  -1.2829  -1.2698  -1.0927  -1.0684
    -1.0061  -0.9816  -0.8800  -0.8262  -0.7729  -0.7585  -0.6878  -0.6643
    -0.6397  -0.5935  -0.5267  -0.4997  -0.4596  -0.4399  -0.3555  -0.3482
    -0.2743  -0.2324  -0.2109  -0.1667  -0.1593  -0.0878  -0.0395  -0.0083
     0.0355   0.0490   0.0972   0.1068   0.1593   0.2030   0.2725   0.2994
     0.3532   0.3932   0.4499   0.5040   0.5351   0.6531   0.6974   0.7591
     0.8275   0.8641   0.8929   0.9904   1.0540   1.1377   1.1467   1.3178
     1.5145   1.9545   2.0250   2.2107   2.2743   3.8503   3.9985   4.0402
     4.0614   4.1591   4.2136   4.2282   4.2561   4.3207   4.3837   4.4015

          k =-0.0760-0.0000 0.0000 ( 17886 PWs)   bands (ev):

   -55.2840 -55.2451 -55.2451 -55.2110 -55.1594 -55.1577 -55.1210 -55.0936
   -55.0771 -55.0764 -55.0595 -55.0426 -54.9568 -54.7907 -54.2632 -54.2292
   -31.8567 -31.7378 -31.6568 -31.6121 -31.5923 -31.5849 -31.5797 -31.5344
   -31.5319 -31.4902 -31.4895 -31.4585 -31.4546 -31.4493 -31.4401 -31.4070
   -31.4029 -31.3916 -31.3820 -31.3739 -31.3571 -31.3520 -31.3368 -31.3255
   -31.3104 -31.3027 -31.2965 -31.2897 -31.2742 -31.2723 -31.2636 -31.2611
   -31.2557 -31.2473 -31.2061 -31.2047 -31.1976 -31.1879 -31.1495 -31.1053
   -31.0635 -30.9323 -30.6713 -30.5863 -30.5539 -30.4884 -30.4017 -30.2908
   -19.2179 -15.9544 -15.7094 -15.6250 -15.5132 -15.3975 -15.3543 -15.2726
   -15.2442 -15.1702 -15.1330 -15.0933 -15.0473 -15.0409 -15.0291 -15.0047
   -14.9923 -14.9314 -14.8938 -14.7318 -14.6837 -14.6833 -14.6720 -14.6470
   -14.5962 -14.5445 -14.5292 -14.4361 -14.4213 -14.3000 -14.0259 -12.7597
   -12.6483  -9.1267  -7.7940  -7.0442  -6.0021  -3.8783  -3.3456  -3.1021
    -2.9310  -2.8960  -2.7671  -2.7621  -2.7599  -2.7445  -2.6557  -2.6352
    -2.5789  -2.5326  -2.5168  -2.3666  -2.2638  -2.1633  -2.1222  -2.0564
    -1.9625  -1.9262  -1.9116  -1.9080  -1.8536  -1.8439  -1.7759  -1.7617
    -1.7265  -1.6738  -1.6602  -1.6422  -1.6049  -1.5841  -1.5807  -1.5654
    -1.5500  -1.4927  -1.4577  -1.4279  -1.3412  -1.2512  -1.1277  -1.0820
    -0.9735  -0.9720  -0.9168  -0.9007  -0.8953  -0.8522  -0.8099  -0.7834
    -0.7378  -0.6930  -0.6207  -0.6119  -0.6006  -0.5459  -0.5065  -0.4769
    -0.2909  -0.2698  -0.2419  -0.1988  -0.1633  -0.0496  -0.0001   0.0260
     0.0857   0.1033   0.1185   0.2301   0.2643   0.2981   0.3044   0.3437
     0.3815   0.4253   0.4322   0.4727   0.5197   0.5741   0.5935   0.6964
     0.7022   0.8379   0.8611   1.0161   1.0445   1.2179   1.2736   1.4066
     1.6796   1.7924   1.8886   2.0916   2.2437   3.8304   3.8695   3.9203
     3.9645   4.0956   4.1579   4.1948   4.2543   4.3061   4.3337   4.3541

          k =-0.0760 0.0419 0.0000 ( 17914 PWs)   bands (ev):

   -55.2793 -55.2498 -55.2401 -55.2160 -55.1577 -55.1531 -55.1256 -55.0886
   -55.0789 -55.0715 -55.0645 -55.0476 -54.9560 -54.7915 -54.2582 -54.2342
   -31.7995 -31.6838 -31.6043 -31.5971 -31.5459 -31.5402 -31.5381 -31.5335
   -31.5297 -31.5145 -31.4844 -31.4754 -31.4560 -31.4487 -31.4277 -31.4146
   -31.4096 -31.3951 -31.3790 -31.3690 -31.3655 -31.3564 -31.3251 -31.3227
   -31.3158 -31.3150 -31.3138 -31.3030 -31.3004 -31.2769 -31.2760 -31.2657
   -31.2629 -31.2603 -31.2535 -31.2423 -31.2404 -31.2152 -31.1523 -31.1045
   -31.0632 -30.9668 -30.6174 -30.5816 -30.5585 -30.4759 -30.4146 -30.3481
   -19.2165 -15.8379 -15.6046 -15.5347 -15.4390 -15.3615 -15.2865 -15.2415
   -15.2204 -15.1732 -15.0815 -15.0675 -15.0600 -15.0208 -15.0062 -14.9959
   -14.9875 -14.9676 -14.9021 -14.7970 -14.7373 -14.7117 -14.7029 -14.6558
   -14.6411 -14.5948 -14.5719 -14.5279 -14.5245 -14.3205 -14.1070 -12.7653
   -12.6888  -9.1255  -7.7958  -7.0474  -6.0028  -3.8617  -3.1800  -2.9438
    -2.7116  -2.6788  -2.6151  -2.5771  -2.5583  -2.5383  -2.4811  -2.4315
    -2.4256  -2.4051  -2.3179  -2.3157  -2.2784  -2.2317  -2.2237  -2.1604
    -2.0983  -2.0789  -2.0170  -2.0118  -1.9749  -1.9210  -1.8826  -1.8612
    -1.8446  -1.8285  -1.7982  -1.7564  -1.7436  -1.6625  -1.6060  -1.5090
    -1.4597  -1.4481  -1.4349  -1.3472  -1.2814  -1.2419  -1.0625  -1.0550
    -1.0204  -0.9556  -0.9036  -0.8825  -0.8641  -0.8388  -0.7693  -0.7121
    -0.6842  -0.6589  -0.6178  -0.5955  -0.5271  -0.5175  -0.5051  -0.4940
    -0.4718  -0.4023  -0.3819  -0.3314  -0.2868  -0.2130  -0.1736  -0.0816
    -0.0768  -0.0481  -0.0037   0.0329   0.0808   0.1654   0.1710   0.2759
     0.3025   0.3638   0.4770   0.4817   0.5387   0.5709   0.6969   0.7474
     0.8614   0.9444   0.9925   1.0036   1.1043   1.1589   1.2157   1.2420
     1.3862   1.9697   2.0273   2.1332   2.2630   3.7840   3.9873   4.0316
     4.0403   4.0641   4.1451   4.2137   4.2203   4.2915   4.3379   4.4353

          k =-0.0760-0.0839 0.0000 ( 17948 PWs)   bands (ev):

   -55.2721 -55.2571 -55.2282 -55.2279 -55.1559 -55.1459 -55.1329 -55.0808
   -55.0780 -55.0752 -55.0600 -55.0591 -54.9553 -54.7923 -54.2463 -54.2462
   -31.6659 -31.6529 -31.5788 -31.5512 -31.5510 -31.5474 -31.5203 -31.5201
   -31.4927 -31.4844 -31.4797 -31.4760 -31.4215 -31.4126 -31.4125 -31.4091
   -31.4071 -31.4028 -31.3963 -31.3811 -31.3690 -31.3584 -31.3540 -31.3476
   -31.3473 -31.3452 -31.3439 -31.3281 -31.3115 -31.3086 -31.2921 -31.2894
   -31.2847 -31.2830 -31.2827 -31.2520 -31.2404 -31.2387 -31.1655 -31.0924
   -31.0626 -31.0100 -30.5699 -30.5699 -30.4848 -30.4847 -30.4454 -30.4453
   -19.2151 -15.5909 -15.5144 -15.4586 -15.3682 -15.2907 -15.2708 -15.2607
   -15.2273 -15.1607 -15.1373 -15.0721 -15.0372 -14.9917 -14.9889 -14.9736
   -14.8890 -14.8698 -14.8547 -14.8504 -14.7895 -14.7880 -14.7611 -14.7387
   -14.7320 -14.7283 -14.6286 -14.6276 -14.4629 -14.4280 -14.1907 -12.7505
   -12.7504  -9.1244  -7.7976  -7.0507  -6.0034  -3.8456  -2.8522  -2.7656
    -2.6761  -2.5197  -2.4823  -2.4724  -2.4173  -2.3264  -2.3004  -2.2873
    -2.2669  -2.2597  -2.1867  -2.1815  -2.1376  -2.1161  -2.1051  -2.0993
    -2.0654  -2.0520  -2.0381  -2.0018  -1.9934  -1.9771  -1.9427  -1.9233
    -1.8988  -1.8709  -1.8568  -1.8277  -1.7041  -1.6751  -1.6309  -1.5678
    -1.5439  -1.4770  -1.4718  -1.3675  -1.3576  -1.3464  -1.3055  -1.2915
    -1.2710  -1.1085  -1.0642  -1.0286  -1.0172  -1.0112  -0.8554  -0.8389
    -0.7707  -0.7548  -0.7400  -0.6636  -0.6223  -0.6051  -0.5259  -0.4864
    -0.4565  -0.4356  -0.2933  -0.2805  -0.2551  -0.2409  -0.2342  -0.1416
    -0.1212  -0.0853  -0.0511  -0.0131   0.0033   0.0626   0.2162   0.2423
     0.2790   0.4229   0.4387   0.5240   0.5714   0.6986   0.7631   0.7655
     0.8467   0.9167   1.0186   1.0311   1.0504   1.1364   1.1826   1.1875
     1.1887   2.1172   2.1180   2.2014   2.2017   3.6932   3.9565   4.0788
     4.0852   4.1274   4.2502   4.3338   4.3573   4.3953   4.3973   4.4715

     the Fermi energy is     3.8719 ev

!    total energy              =   -2941.49087795 Ry
     estimated scf accuracy    <       0.00000005 Ry
     smearing contrib. (-TS)   =      -0.04231476 Ry
     internal energy E=F+TS    =   -2941.44856319 Ry

     The total energy is F=E-TS. E is the sum of the following terms:
     one-electron contribution =  -23921.97075545 Ry
     hartree contribution      =   12054.16141112 Ry
     xc contribution           =    -486.85671788 Ry
     ewald contribution        =    9413.21399467 Ry
     electric field correction =       0.00350434 Ry

     convergence has been achieved in  75 iterations

     Forces acting on atoms (cartesian axes, Ry/au):

     atom    1 type  1   force =     0.00016711   -0.00016659    0.09403227
     atom    2 type  1   force =    -0.00005370   -0.00042998   -0.17754013
     atom    3 type  2   force =     0.00006569   -0.00004377   -0.02098887
     atom    4 type  2   force =     0.00001693   -0.00180313    0.05733258
     atom    5 type  2   force =    -0.01085165   -0.00090876    0.00783124
     atom    6 type  2   force =     0.01206261   -0.00033890    0.00622651
     atom    7 type  1   force =    -0.00065513    0.00290262   -0.01528246
     atom    8 type  1   force =     0.00059384    0.00235754    0.00235774
     atom    9 type  2   force =    -0.00010421    0.00013182    0.00091773
     atom   10 type  2   force =    -0.00165421   -0.00049181   -0.00380120
     atom   11 type  2   force =    -0.00005109   -0.00023942    0.00020331
     atom   12 type  2   force =    -0.00018836   -0.00039994    0.00027293
     atom   13 type  1   force =     0.00042674    0.00108907    0.00061286
     atom   14 type  1   force =     0.00020219   -0.00062011    0.00037074
     atom   15 type  2   force =    -0.00018477    0.00036501    0.00049512
     atom   16 type  2   force =    -0.00016623   -0.00024575   -0.00119187
     atom   17 type  2   force =     0.00009838   -0.00025811    0.00014519
     atom   18 type  2   force =    -0.00079836   -0.00033986    0.00007956
     atom   19 type  1   force =    -0.00053390    0.00110716   -0.00044791
     atom   20 type  1   force =    -0.00035292    0.00139538   -0.00111972
     atom   21 type  2   force =     0.00010834   -0.00004042    0.10375403
     atom   22 type  2   force =     0.00020041    0.00005664    0.00074283
     atom   23 type  2   force =    -0.07064241   -0.00017928   -0.02706275
     atom   24 type  2   force =     0.07058677    0.00029638   -0.02710049
     atom   25 type  1   force =     0.00015146   -0.00024658    0.09335503
     atom   26 type  1   force =    -0.00000874   -0.00037340   -0.17775475
     atom   27 type  2   force =     0.00010995   -0.00040247   -0.02001160
     atom   28 type  2   force =     0.00003405   -0.00146725    0.05681503
     atom   29 type  2   force =    -0.01075398   -0.00066183    0.00674696
     atom   30 type  2   force =     0.01186961   -0.00016857    0.00510367
     atom   31 type  1   force =    -0.00063109    0.00410245   -0.01558639
     atom   32 type  1   force =     0.00067415   -0.00281234    0.00213853
     atom   33 type  2   force =     0.00015648   -0.00021870   -0.00059333
     atom   34 type  2   force =    -0.00109253    0.00271983   -0.00201522
     atom   35 type  2   force =     0.00008983    0.00020272    0.00009068
     atom   36 type  2   force =    -0.00033132    0.00034057   -0.00007768
     atom   37 type  1   force =     0.00046662   -0.00008580    0.00031505
     atom   38 type  1   force =     0.00009519    0.00089631    0.00015549
     atom   39 type  2   force =    -0.00003297   -0.00098426    0.00040178
     atom   40 type  2   force =    -0.00023634   -0.00043252    0.00062085
     atom   41 type  2   force =    -0.00031215   -0.00008568   -0.00024533
     atom   42 type  2   force =     0.00013103    0.00000798    0.00023926
     atom   43 type  1   force =     0.00002430   -0.00148774    0.00092718
     atom   44 type  1   force =    -0.00011215   -0.00091434   -0.00145525
     atom   45 type  2   force =     0.00009632   -0.00008203    0.10373619
     atom   46 type  2   force =    -0.07065646   -0.00009526   -0.02706985
     atom   47 type  2   force =     0.07060809    0.00028672   -0.02710788
     atom   48 type  3   force =    -0.00090695   -0.00151669   -0.00032469
     atom   49 type  4   force =     0.00018228   -0.00067843    0.00109281
     atom   50 type  5   force =     0.00079330    0.00007350   -0.00097001
     atom   51 type  5   force =    -0.00016723    0.00061289   -0.00014910
     atom   52 type  3   force =     0.00368882    0.00432316    0.00135953
     atom   53 type  5   force =    -0.00392694   -0.00521982   -0.00179494
     atom   54 type  5   force =     0.00082676    0.00050041    0.00135901
     atom   55 type  5   force =     0.00087853    0.00067138   -0.00014028

     Total force =     0.365801     Total SCF correction =     0.000467
  @ DRIVER MODE: Message from server: STATUS
  @ DRIVER MODE: Message from server: GETFORCE
  @ DRIVER MODE: Returning v,forces,stress,ensemble 

     Writing output data file ./calc.save/
  @ DRIVER MODE: Message from server: EXIT
  @ DRIVE MODE: Exiting  
 
     init_run     :     17.46s CPU     17.85s WALL (       1 calls)
     electrons    :   1823.93s CPU   1862.35s WALL (       1 calls)
     forces       :      3.55s CPU      3.72s WALL (       1 calls)

     Called by init_run:
     wfcinit      :      7.69s CPU      7.82s WALL (       1 calls)
     potinit      :      8.82s CPU      8.92s WALL (       1 calls)
     hinit0       :      0.48s CPU      0.50s WALL (       1 calls)

     Called by electrons:
     c_bands      :   1536.63s CPU   1555.86s WALL (      75 calls)
     sum_band     :    196.71s CPU    205.74s WALL (      75 calls)
     v_of_rho     :     68.17s CPU     70.74s WALL (      76 calls)
     newd         :     27.60s CPU     34.99s WALL (      76 calls)
     mix_rho      :      2.50s CPU      2.66s WALL (      75 calls)
     vdW_kernel   :      7.56s CPU      7.58s WALL (       1 calls)

     Called by c_bands:
     init_us_2    :      8.83s CPU      8.89s WALL (    1520 calls)
     cegterg      :   1506.56s CPU   1525.20s WALL (     760 calls)

     Called by *egterg:
     cdiaghg      :    203.86s CPU    204.79s WALL (    7898 calls)
     h_psi        :    865.80s CPU    877.86s WALL (    7908 calls)
     s_psi        :    110.30s CPU    110.66s WALL (    7908 calls)
     g_psi        :      2.94s CPU      2.96s WALL (    7138 calls)

     Called by h_psi:
     h_psi:calbec :    103.76s CPU    104.96s WALL (    7908 calls)
     vloc_psi     :    647.91s CPU    653.35s WALL (    7908 calls)
     add_vuspsi   :    110.72s CPU    112.97s WALL (    7908 calls)

     General routines
     calbec       :    137.62s CPU    138.92s WALL (    8698 calls)
     fft          :     36.24s CPU     36.41s WALL (    4788 calls)
     ffts         :      0.23s CPU      0.23s WALL (     151 calls)
     fftw         :    719.35s CPU    725.31s WALL ( 1010502 calls)
     interpolate  :      0.69s CPU      0.69s WALL (      76 calls)
     davcio       :      0.00s CPU      0.22s WALL (      10 calls)
 
     Parallel routines
 
     PWSCF        :  30m45.17s CPU  31m24.63s WALL

 
   This run was terminated on:   6:16:30  24Aug2021            

=------------------------------------------------------------------------------=
   JOB DONE.
=------------------------------------------------------------------------------=
