
     Program PWSCF v.6.7GPU starts on 10Sep2021 at 12:25:17 

     This program is part of the open-source Quantum ESPRESSO suite
     for quantum simulation of materials; please cite
         "P. Giannozzi et al., J. Phys.:Condens. Matter 21 395502 (2009);
         "P. Giannozzi et al., J. Phys.:Condens. Matter 29 465901 (2017);
         "P. Giannozzi et al., J. Chem. Phys. 152 154105 (2020);
          URL http://www.quantum-espresso.org", 
     in publications or presentations arising from this work. More details at
     http://www.quantum-espresso.org/quote

     Parallel version (MPI), running on    10 processors

     MPI processes distributed on     1 nodes
     R & G space division:  proc/nbgrp/npool/nimage =      10
     Reading input from /storage/home/hcoda1/3/ntian30/research/carbon/CxH_vib/CH_calc/ads_slab/CHNHNH_a/out_0006/pw.inp
Warning: card &CELL ignored
Warning: card   CELL_DYNAMICS='IPI', ignored
Warning: card / ignored

     Current dimensions of program PWSCF are:
     Max number of different atomic species (ntypx) = 10
     Max number of k-points (npk) =  40000
     Max angular momentum in pseudopotentials (lmaxx) =  3
     Presently no symmetry can be used with electric field

     Message from routine cell_base_init:
     DEPRECATED: use true lattice parameter, not A to a.u. conversion factor

     **************************************************************************
     Initializing libbeef V0.1.2 with the BEEF-vdW functional.
     Citation: Wellendorff et al., PRB 85, 235149 (2012).
     **************************************************************************


     IMPORTANT: XC functional enforced from input :
     Exchange-correlation= BEEF-VDW
                           (   1   4  43  14   2   0   0)
     Any further DFT definition will be discarded
     Please, verify this is what you really want


     Subspace diagonalization in iterative solution of the eigenvalue problem:
     one sub-group per band group will be used
     scalapack distributed-memory algorithm (size of sub-group:  3*  3 procs)

  @ DRIVER MODE: Connecting to 
 qe_1139763_2787518.sched-torque.pace.gatech.eduugglqknm_scratch
  using UNIX socket
  @ DRIVER MODE: Message from server: STATUS
  @ DRIVER MODE: Message from server: INIT
  @ DRIVER MODE: Receiving replica           0          -1
  @ DRIVER MODE: Receiving encoded integer          25
  @ DRIVER MODE:  SCF:  T  FORCE:  T  STRESS:  F  VC:  F  ENSEMBLE:  F
  @ DRIVER MODE:  SCF:  T  FORCE:  T  STRESS:  F  VC:  F  ENSEMBLE:  F
 
     Parallelization info
     --------------------
     sticks:   dense  smooth     PW     G-vecs:    dense   smooth      PW
     Min         327     131     37                56683    14340    2191
     Max         328     133     38                56694    14346    2206
     Sum        3275    1317    379               566857   143421   21985
 
     Using Slab Decomposition
 


     bravais-lattice index     =            0
     lattice parameter (alat)  =       1.8897  a.u.
     unit-cell volume          =    6658.9804 (a.u.)^3
     number of atoms/cell      =           53
     number of atomic types    =            5
     number of electrons       =       395.00
     number of Kohn-Sham states=          207
     kinetic-energy cutoff     =      29.3995  Ry
     charge density cutoff     =     293.9946  Ry
     scf convergence threshold =      7.3E-08
     mixing beta               =       0.0500
     number of iterations used =            8  plain     mixing
     Exchange-correlation= BEEF-VDW
                           (   1   4  43  14   2   0   0)

     celldm(1)=   1.889726  celldm(2)=   0.000000  celldm(3)=   0.000000
     celldm(4)=   0.000000  celldm(5)=   0.000000  celldm(6)=   0.000000

     crystal axes: (cart. coord. in units of alat)
               a(1) = (   6.579727   0.000000   0.000000 )  
               a(2) = (  -0.000775   5.961596   0.000000 )  
               a(3) = (   0.000000   0.000000  25.155947 )  

     reciprocal axes: (cart. coord. in units 2 pi/alat)
               b(1) = (  0.151982  0.000020  0.000000 )  
               b(2) = (  0.000000  0.167740  0.000000 )  
               b(3) = (  0.000000  0.000000  0.039752 )  


     PseudoPot. # 1 for Ti read from file:
     /storage/coda1/p-amedford6/0/shared/rich_project_chbe-medford/medford-share/data/pseudos_module/espresso/nninc/pbe/van/Ti.UPF
     MD5 check sum: 8e4df49b7f0d34bbd5052bf3f5ea0213
     Pseudo is Ultrasoft, Zval = 12.0
     Generated by new atomic code, or converted to UPF format
     Using radial grid of  851 points,  6 beta functions with: 
                l(1) =   0
                l(2) =   0
                l(3) =   1
                l(4) =   1
                l(5) =   2
                l(6) =   2
     Q(r) pseudized with  8 coefficients,  rinner =    1.000   1.000   1.000
                                                       1.000   1.000

     PseudoPot. # 2 for O  read from file:
     /storage/coda1/p-amedford6/0/shared/rich_project_chbe-medford/medford-share/data/pseudos_module/espresso/nninc/pbe/van/O.UPF
     MD5 check sum: 78c19812648e8988a0fe644b0f25305e
     Pseudo is Ultrasoft, Zval =  6.0
     Generated by new atomic code, or converted to UPF format
     Using radial grid of  737 points,  4 beta functions with: 
                l(1) =   0
                l(2) =   0
                l(3) =   1
                l(4) =   1
     Q(r) pseudized with  8 coefficients,  rinner =    0.800   0.800   0.800


     PseudoPot. # 3 for N  read from file:
     /storage/coda1/p-amedford6/0/shared/rich_project_chbe-medford/medford-share/data/pseudos_module/espresso/nninc/pbe/van/N.UPF
     MD5 check sum: 90d10febe142ad51ac9d5be1deb811c4
     Pseudo is Ultrasoft, Zval =  5.0
     Generated by new atomic code, or converted to UPF format
     Using radial grid of  729 points,  4 beta functions with: 
                l(1) =   0
                l(2) =   0
                l(3) =   1
                l(4) =   1
     Q(r) pseudized with  8 coefficients,  rinner =    0.800   0.800   0.800


     PseudoPot. # 4 for C  read from file:
     /storage/coda1/p-amedford6/0/shared/rich_project_chbe-medford/medford-share/data/pseudos_module/espresso/nninc/pbe/van/C.UPF
     MD5 check sum: 1a69bf6b8db32088f5b2163dbdb77a27
     Pseudo is Ultrasoft, Zval =  4.0
     Generated by new atomic code, or converted to UPF format
     Using radial grid of  721 points,  4 beta functions with: 
                l(1) =   0
                l(2) =   0
                l(3) =   1
                l(4) =   1
     Q(r) pseudized with  8 coefficients,  rinner =    0.800   0.800   0.800


     PseudoPot. # 5 for H  read from file:
     /storage/coda1/p-amedford6/0/shared/rich_project_chbe-medford/medford-share/data/pseudos_module/espresso/nninc/pbe/van/H.UPF
     MD5 check sum: b5ee9d7bfd3a09ee7748110bda690ff7
     Pseudo is Ultrasoft, Zval =  1.0
     Generated by new atomic code, or converted to UPF format
     Using radial grid of  615 points,  1 beta functions with: 
                l(1) =   0
     Q(r) pseudized with  8 coefficients,  rinner =    0.800

     atomic species   valence    mass     pseudopotential
        Ti1           12.00    47.86700     Ti( 1.00)
        O1             6.00    15.99900     O ( 1.00)
        N1             5.00    14.00700     N ( 1.00)
        C1             4.00    12.01100     C ( 1.00)
        H1             1.00     1.00800     H ( 1.00)

     No symmetry found



   Cartesian axes

     site n.     atom                  positions (alat units)
         1           Ti1 tau(   1) = (   0.0004258   2.9801865   6.0000000  )
         2           Ti1 tau(   2) = (   3.2906075   1.4906267   6.0002472  )
         3           O1  tau(   3) = (   0.0006271   0.0005054   7.9858123  )
         4           O1  tau(   4) = (   3.2906025   0.0005020   7.3038282  )
         5           O1  tau(   5) = (   4.5942328   1.4918067   9.2879030  )
         6           O1  tau(   6) = (   1.9868534   1.4903216   9.2879459  )
         7           Ti1 tau(   7) = (   3.2907910   2.8959150   9.1758416  )
         8           Ti1 tau(   8) = (   0.0015273   1.4827037   9.2680791  )
         9           O1  tau(   9) = (   3.2974950   5.9468587  11.3331085  )
        10           O1  tau(  10) = (   0.0116148   5.9584955  10.6183126  )
        11           O1  tau(  11) = (   1.3019594   1.4757037  12.6170356  )
        12           O1  tau(  12) = (   5.2841045   1.4688878  12.6073194  )
        13           Ti1 tau(  13) = (   0.0658538   3.0089988  12.6217963  )
        14           Ti1 tau(  14) = (   3.3903573   1.4765488  12.4775701  )
        15           O1  tau(  15) = (   6.5762050   0.0002902  14.6414759  )
        16           O1  tau(  16) = (   3.3078303   5.9588356  13.9306596  )
        17           O1  tau(  17) = (   4.5399328   1.5113171  16.0740780  )
        18           O1  tau(  18) = (   2.0525891   1.5105181  16.0861438  )
        19           Ti1 tau(  19) = (   3.3041007   2.9930787  15.6963055  )
        20           Ti1 tau(  20) = (   0.0280933   1.5113244  15.8467906  )
        21           O1  tau(  21) = (   3.2904802   0.0005063   4.7018136  )
        22           O1  tau(  22) = (   0.0368235   0.0128086  17.1990618  )
        23           O1  tau(  23) = (   1.3043587   1.4918075   6.0039043  )
        24           O1  tau(  24) = (   5.2767064   1.4903225   6.0039473  )
        25           Ti1 tau(  25) = (   0.0000382   5.9609847   6.0000000  )
        26           Ti1 tau(  26) = (   3.2902200   4.4714249   6.0002472  )
        27           O1  tau(  27) = (   0.0002396   2.9813036   7.9858123  )
        28           O1  tau(  28) = (   3.2902150   2.9813002   7.3038282  )
        29           O1  tau(  29) = (   4.5938453   4.4726049   9.2879030  )
        30           O1  tau(  30) = (   1.9864658   4.4711199   9.2879459  )
        31           Ti1 tau(  31) = (   3.2891106   5.8743827   9.1763621  )
        32           Ti1 tau(  32) = (   0.0006254   4.4649316   9.2693709  )
        33           O1  tau(  33) = (   3.3000731   2.9737533  11.3293525  )
        34           O1  tau(  34) = (   0.0092240   2.9805883  10.6323155  )
        35           O1  tau(  35) = (   1.3001503   4.4664650  12.6348062  )
        36           O1  tau(  36) = (   5.2875254   4.4541756  12.6228532  )
        37           Ti1 tau(  37) = (   0.0765437   0.0243871  12.5594496  )
        38           Ti1 tau(  38) = (   3.3883988   4.4566399  12.4818539  )
        39           O1  tau(  39) = (   0.0169469   2.9261715  14.6451004  )
        40           O1  tau(  40) = (   3.3035743   2.9719493  13.9037931  )
        41           O1  tau(  41) = (   4.5445893   4.4635849  16.0933648  )
        42           O1  tau(  42) = (   2.0554864   4.4706235  16.0676963  )
        43           Ti1 tau(  43) = (   3.3300396   0.0018144  15.7250798  )
        44           Ti1 tau(  44) = (   0.0441581   4.6348571  16.0952712  )
        45           O1  tau(  45) = (   3.2900926   2.9813045   4.7018136  )
        46           O1  tau(  46) = (   1.3039711   4.4726057   6.0039043  )
        47           O1  tau(  47) = (   5.2763189   4.4711207   6.0039473  )
        48           N1  tau(  48) = (   1.0252718   2.8101955  18.5430041  )
        49           N1  tau(  49) = (   6.5702222   2.9467621  17.4444712  )
        50           C1  tau(  50) = (   1.2122298   3.5280882  19.5702009  )
        51           H1  tau(  51) = (   0.5037382   4.3646449  19.6222421  )
        52           H1  tau(  52) = (   1.5845460   1.9874866  18.3412699  )
        53           H1  tau(  53) = (   5.6894004   2.9582294  17.9538253  )

     number of k points=    10  Fermi-Dirac smearing, width (Ry)=  0.0073
                       cart. coord. in units 2pi/alat
        k(    1) = (   0.0000000   0.0000000   0.0000000), wk =   0.1250000
        k(    2) = (   0.0000000   0.0419351   0.0000000), wk =   0.2500000
        k(    3) = (   0.0000000  -0.0838702   0.0000000), wk =   0.1250000
        k(    4) = (   0.0379955   0.0000049   0.0000000), wk =   0.2500000
        k(    5) = (   0.0379955   0.0419400   0.0000000), wk =   0.2500000
        k(    6) = (   0.0379955  -0.0838652   0.0000000), wk =   0.2500000
        k(    7) = (   0.0379955  -0.0419301   0.0000000), wk =   0.2500000
        k(    8) = (  -0.0759910  -0.0000099   0.0000000), wk =   0.1250000
        k(    9) = (  -0.0759910   0.0419252   0.0000000), wk =   0.2500000
        k(   10) = (  -0.0759910  -0.0838800   0.0000000), wk =   0.1250000

     Dense  grid:   566857 G-vectors     FFT dimensions: (  72,  64, 270)

     Smooth grid:   143421 G-vectors     FFT dimensions: (  45,  40, 180)

     Estimated max dynamical RAM per process >     363.40 MB

     Estimated total dynamical RAM >       3.55 GB
     Cannot read rho : file not found

     Initial potential from superposition of free atoms

     starting charge  378.99916, renormalised to  395.00000

     negative rho (up, down):  1.643E-02 0.000E+00


     %%%%%%%%%%%%%%%%%%%%%%%%%%%%%%%%%%%%%%%%%%%%%%%%%%%%%%%%%%%%%%%%%%%%%%%%
     %                                                                      %
     % You are using vdW-DF, which was implemented by the Thonhauser group. %
     % Please cite the following two papers that made this development      %
     % possible and the two reviews that describe the various versions:     %
     %                                                                      %
     %   T. Thonhauser et al., PRL 115, 136402 (2015).                      %
     %   T. Thonhauser et al., PRB 76, 125112 (2007).                       %
     %   K. Berland et al., Rep. Prog. Phys. 78, 066501 (2015).             %
     %   D.C. Langreth et al., J. Phys.: Condens. Matter 21, 084203 (2009). %
     %                                                                      %
     %                                                                      %
     % If you are calculating the stress with vdW-DF, please also cite:     %
     %                                                                      %
     %   R. Sabatini et al., J. Phys.: Condens. Matter 24, 424209 (2012).   %
     %                                                                      %
     %%%%%%%%%%%%%%%%%%%%%%%%%%%%%%%%%%%%%%%%%%%%%%%%%%%%%%%%%%%%%%%%%%%%%%%%


 
     Adding external electric field

     Computed dipole along edir(3) : 
        Dipole               -8.5057 Ry au,        -21.6194 Debye
        Dipole field         -0.0161 Ry au, 
 
        Potential amp.        1.4879 Ry
        Total length         46.3494 bohr
 
     Starting wfcs are  299 atomic wfcs
  @ DRIVER MODE: Message from server: STATUS
  @ DRIVER MODE: Message from server: POSDATA
  @ DRIVER MODE: Reading and sharing cell 
  @ DRIVER MODE: Reading and sharing positions 
  @ DRIVER MODE: Received positions 

     total cpu time spent up to now is       11.5 secs

     Self-consistent Calculation

     iteration #  1     ecut=    29.40 Ry     beta= 0.05
     Davidson diagonalization with overlap
     c_bands:  1 eigenvalues not converged
     c_bands:  1 eigenvalues not converged
     c_bands:  2 eigenvalues not converged
     c_bands:  3 eigenvalues not converged
     c_bands:  3 eigenvalues not converged
     c_bands:  1 eigenvalues not converged
     c_bands:  1 eigenvalues not converged
     ethr =  1.00E-05,  avg # of iterations = 19.2

     negative rho (up, down):  1.456E-02 0.000E+00
 
     Adding external electric field

     Computed dipole along edir(3) : 
        Dipole               37.7879 Ry au,         96.0472 Debye
        Dipole field          0.0713 Ry au, 
 
        Potential amp.       -6.6104 Ry
        Total length         46.3494 bohr
 

     total cpu time spent up to now is       50.6 secs

     total energy              =   -2621.18102155 Ry
     estimated scf accuracy    <    3530.45492141 Ry

     iteration #  2     ecut=    29.40 Ry     beta= 0.05
     Davidson diagonalization with overlap
     c_bands:  4 eigenvalues not converged
     c_bands:  5 eigenvalues not converged
     ethr =  1.00E-02,  avg # of iterations = 21.5

     negative rho (up, down):  5.161E-03 0.000E+00
 
     Adding external electric field

     Computed dipole along edir(3) : 
        Dipole               -3.0084 Ry au,         -7.6465 Debye
        Dipole field         -0.0057 Ry au, 
 
        Potential amp.        0.5263 Ry
        Total length         46.3494 bohr
 

     total cpu time spent up to now is      118.1 secs

     total energy              =   -2455.41856615 Ry
     estimated scf accuracy    <   63835.77225527 Ry

     iteration #  3     ecut=    29.40 Ry     beta= 0.05
     Davidson diagonalization with overlap
     ethr =  1.00E-02,  avg # of iterations = 14.7

     negative rho (up, down):  5.216E-03 0.000E+00
 
     Adding external electric field

     Computed dipole along edir(3) : 
        Dipole               -4.7447 Ry au,        -12.0597 Debye
        Dipole field         -0.0090 Ry au, 
 
        Potential amp.        0.8300 Ry
        Total length         46.3494 bohr
 

     total cpu time spent up to now is      162.5 secs

     total energy              =   -2917.21914847 Ry
     estimated scf accuracy    <    3713.87883299 Ry

     iteration #  4     ecut=    29.40 Ry     beta= 0.05
     Davidson diagonalization with overlap
     c_bands:  1 eigenvalues not converged
     c_bands:  1 eigenvalues not converged
     c_bands:  4 eigenvalues not converged
     c_bands:  1 eigenvalues not converged
     c_bands:  3 eigenvalues not converged
     c_bands:  3 eigenvalues not converged
     ethr =  1.00E-02,  avg # of iterations = 20.3

     negative rho (up, down):  5.228E-03 0.000E+00
 
     Adding external electric field

     Computed dipole along edir(3) : 
        Dipole               -5.1621 Ry au,        -13.1208 Debye
        Dipole field         -0.0097 Ry au, 
 
        Potential amp.        0.9030 Ry
        Total length         46.3494 bohr
 

     total cpu time spent up to now is      186.4 secs

     total energy              =   -2938.67181589 Ry
     estimated scf accuracy    <     204.43274151 Ry

     iteration #  5     ecut=    29.40 Ry     beta= 0.05
     Davidson diagonalization with overlap
     ethr =  1.00E-02,  avg # of iterations =  1.9

     negative rho (up, down):  5.213E-03 0.000E+00
 
     Adding external electric field

     Computed dipole along edir(3) : 
        Dipole               -5.3511 Ry au,        -13.6010 Debye
        Dipole field         -0.0101 Ry au, 
 
        Potential amp.        0.9361 Ry
        Total length         46.3494 bohr
 

     total cpu time spent up to now is      197.1 secs

     total energy              =   -2938.01528719 Ry
     estimated scf accuracy    <     157.14203799 Ry

     iteration #  6     ecut=    29.40 Ry     beta= 0.05
     Davidson diagonalization with overlap
     ethr =  1.00E-02,  avg # of iterations =  1.4

     negative rho (up, down):  5.461E-03 0.000E+00
 
     Adding external electric field

     Computed dipole along edir(3) : 
        Dipole               -6.8568 Ry au,        -17.4283 Debye
        Dipole field         -0.0129 Ry au, 
 
        Potential amp.        1.1995 Ry
        Total length         46.3494 bohr
 

     total cpu time spent up to now is      207.1 secs

     total energy              =   -2928.33096236 Ry
     estimated scf accuracy    <     156.08018306 Ry

     iteration #  7     ecut=    29.40 Ry     beta= 0.05
     Davidson diagonalization with overlap
     ethr =  1.00E-02,  avg # of iterations =  8.7

     negative rho (up, down):  4.311E-03 0.000E+00
 
     Adding external electric field

     Computed dipole along edir(3) : 
        Dipole               -5.9215 Ry au,        -15.0511 Debye
        Dipole field         -0.0112 Ry au, 
 
        Potential amp.        1.0359 Ry
        Total length         46.3494 bohr
 

     total cpu time spent up to now is      224.1 secs

     total energy              =   -2939.74117762 Ry
     estimated scf accuracy    <     218.39059863 Ry

     iteration #  8     ecut=    29.40 Ry     beta= 0.05
     Davidson diagonalization with overlap
     ethr =  1.00E-02,  avg # of iterations =  1.9

     negative rho (up, down):  4.441E-03 0.000E+00
 
     Adding external electric field

     Computed dipole along edir(3) : 
        Dipole               -5.6907 Ry au,        -14.4644 Debye
        Dipole field         -0.0107 Ry au, 
 
        Potential amp.        0.9955 Ry
        Total length         46.3494 bohr
 

     total cpu time spent up to now is      234.7 secs

     total energy              =   -2941.39943745 Ry
     estimated scf accuracy    <      27.70114374 Ry

     iteration #  9     ecut=    29.40 Ry     beta= 0.05
     Davidson diagonalization with overlap
     ethr =  7.01E-03,  avg # of iterations =  1.0

     negative rho (up, down):  5.467E-03 0.000E+00
 
     Adding external electric field

     Computed dipole along edir(3) : 
        Dipole               -5.2284 Ry au,        -13.2893 Debye
        Dipole field         -0.0099 Ry au, 
 
        Potential amp.        0.9146 Ry
        Total length         46.3494 bohr
 

     total cpu time spent up to now is      244.6 secs

     total energy              =   -2940.85014105 Ry
     estimated scf accuracy    <      25.86029120 Ry

     iteration # 10     ecut=    29.40 Ry     beta= 0.05
     Davidson diagonalization with overlap
     ethr =  6.55E-03,  avg # of iterations =  1.0

     negative rho (up, down):  9.279E-02 0.000E+00
 
     Adding external electric field

     Computed dipole along edir(3) : 
        Dipole               -0.7282 Ry au,         -1.8508 Debye
        Dipole field         -0.0014 Ry au, 
 
        Potential amp.        0.1274 Ry
        Total length         46.3494 bohr
 

     total cpu time spent up to now is      254.5 secs

     total energy              =   -2935.90086266 Ry
     estimated scf accuracy    <      22.41148087 Ry

     iteration # 11     ecut=    29.40 Ry     beta= 0.05
     Davidson diagonalization with overlap
     ethr =  5.67E-03,  avg # of iterations = 17.6

     negative rho (up, down):  5.854E-02 0.000E+00
 
     Adding external electric field

     Computed dipole along edir(3) : 
        Dipole               -2.2191 Ry au,         -5.6405 Debye
        Dipole field         -0.0042 Ry au, 
 
        Potential amp.        0.3882 Ry
        Total length         46.3494 bohr
 

     total cpu time spent up to now is      275.6 secs

     total energy              =   -2933.88475915 Ry
     estimated scf accuracy    <    1124.83199219 Ry

     iteration # 12     ecut=    29.40 Ry     beta= 0.05
     Davidson diagonalization with overlap
     ethr =  5.67E-03,  avg # of iterations =  4.1

     negative rho (up, down):  4.296E-02 0.000E+00
 
     Adding external electric field

     Computed dipole along edir(3) : 
        Dipole               -2.8737 Ry au,         -7.3041 Debye
        Dipole field         -0.0054 Ry au, 
 
        Potential amp.        0.5027 Ry
        Total length         46.3494 bohr
 

     total cpu time spent up to now is      286.9 secs

     total energy              =   -2933.49719770 Ry
     estimated scf accuracy    <     393.27675005 Ry

     iteration # 13     ecut=    29.40 Ry     beta= 0.05
     Davidson diagonalization with overlap
     ethr =  5.67E-03,  avg # of iterations =  2.7

     negative rho (up, down):  3.414E-02 0.000E+00
 
     Adding external electric field

     Computed dipole along edir(3) : 
        Dipole               -2.6934 Ry au,         -6.8459 Debye
        Dipole field         -0.0051 Ry au, 
 
        Potential amp.        0.4712 Ry
        Total length         46.3494 bohr
 

     total cpu time spent up to now is      297.5 secs

     total energy              =   -2934.35700870 Ry
     estimated scf accuracy    <     320.95885479 Ry

     iteration # 14     ecut=    29.40 Ry     beta= 0.05
     Davidson diagonalization with overlap
     ethr =  5.67E-03,  avg # of iterations =  5.5

     negative rho (up, down):  1.588E-02 0.000E+00
 
     Adding external electric field

     Computed dipole along edir(3) : 
        Dipole               -3.0101 Ry au,         -7.6510 Debye
        Dipole field         -0.0057 Ry au, 
 
        Potential amp.        0.5266 Ry
        Total length         46.3494 bohr
 

     total cpu time spent up to now is      309.9 secs

     total energy              =   -2933.74954206 Ry
     estimated scf accuracy    <     201.06252612 Ry

     iteration # 15     ecut=    29.40 Ry     beta= 0.05
     Davidson diagonalization with overlap
     ethr =  5.67E-03,  avg # of iterations = 11.2

     negative rho (up, down):  7.748E-03 0.000E+00
 
     Adding external electric field

     Computed dipole along edir(3) : 
        Dipole               -3.6097 Ry au,         -9.1749 Debye
        Dipole field         -0.0068 Ry au, 
 
        Potential amp.        0.6315 Ry
        Total length         46.3494 bohr
 

     total cpu time spent up to now is      325.6 secs

     total energy              =   -2938.50729121 Ry
     estimated scf accuracy    <       2.09039469 Ry

     iteration # 16     ecut=    29.40 Ry     beta= 0.05
     Davidson diagonalization with overlap
     c_bands:  1 eigenvalues not converged
     c_bands:  1 eigenvalues not converged
     c_bands:  1 eigenvalues not converged
     c_bands:  1 eigenvalues not converged
     ethr =  5.29E-04,  avg # of iterations = 17.5

     negative rho (up, down):  8.277E-03 0.000E+00
 
     Adding external electric field

     Computed dipole along edir(3) : 
        Dipole               -3.5814 Ry au,         -9.1030 Debye
        Dipole field         -0.0068 Ry au, 
 
        Potential amp.        0.6265 Ry
        Total length         46.3494 bohr
 

     total cpu time spent up to now is      346.4 secs

     total energy              =   -2939.78293484 Ry
     estimated scf accuracy    <       4.59108637 Ry

     iteration # 17     ecut=    29.40 Ry     beta= 0.05
     Davidson diagonalization with overlap
     ethr =  5.29E-04,  avg # of iterations =  1.6

     negative rho (up, down):  3.626E-02 0.000E+00
 
     Adding external electric field

     Computed dipole along edir(3) : 
        Dipole               -3.1522 Ry au,         -8.0122 Debye
        Dipole field         -0.0059 Ry au, 
 
        Potential amp.        0.5514 Ry
        Total length         46.3494 bohr
 

     total cpu time spent up to now is      356.9 secs

     total energy              =   -2938.92680310 Ry
     estimated scf accuracy    <       4.50762546 Ry

     iteration # 18     ecut=    29.40 Ry     beta= 0.05
     Davidson diagonalization with overlap
     ethr =  5.29E-04,  avg # of iterations =  8.6

     negative rho (up, down):  2.882E-02 0.000E+00
 
     Adding external electric field

     Computed dipole along edir(3) : 
        Dipole               -3.3667 Ry au,         -8.5572 Debye
        Dipole field         -0.0064 Ry au, 
 
        Potential amp.        0.5889 Ry
        Total length         46.3494 bohr
 

     total cpu time spent up to now is      372.6 secs

     total energy              =   -2940.16453855 Ry
     estimated scf accuracy    <     116.22790704 Ry

     iteration # 19     ecut=    29.40 Ry     beta= 0.05
     Davidson diagonalization with overlap
     c_bands:  1 eigenvalues not converged
     ethr =  5.29E-04,  avg # of iterations =  6.7

     negative rho (up, down):  3.182E-02 0.000E+00
 
     Adding external electric field

     Computed dipole along edir(3) : 
        Dipole               -3.3460 Ry au,         -8.5047 Debye
        Dipole field         -0.0063 Ry au, 
 
        Potential amp.        0.5853 Ry
        Total length         46.3494 bohr
 

     total cpu time spent up to now is      384.5 secs

     total energy              =   -2940.26737770 Ry
     estimated scf accuracy    <     239.87397817 Ry

     iteration # 20     ecut=    29.40 Ry     beta= 0.05
     Davidson diagonalization with overlap
     ethr =  5.29E-04,  avg # of iterations =  1.5

     negative rho (up, down):  2.579E-02 0.000E+00
 
     Adding external electric field

     Computed dipole along edir(3) : 
        Dipole               -3.1429 Ry au,         -7.9885 Debye
        Dipole field         -0.0059 Ry au, 
 
        Potential amp.        0.5498 Ry
        Total length         46.3494 bohr
 

     total cpu time spent up to now is      394.6 secs

     total energy              =   -2939.88453046 Ry
     estimated scf accuracy    <     221.75006677 Ry

     iteration # 21     ecut=    29.40 Ry     beta= 0.05
     Davidson diagonalization with overlap
     ethr =  5.29E-04,  avg # of iterations =  1.0

     negative rho (up, down):  3.364E-02 0.000E+00
 
     Adding external electric field

     Computed dipole along edir(3) : 
        Dipole               -3.1087 Ry au,         -7.9017 Debye
        Dipole field         -0.0059 Ry au, 
 
        Potential amp.        0.5438 Ry
        Total length         46.3494 bohr
 

     total cpu time spent up to now is      404.4 secs

     total energy              =   -2939.51320916 Ry
     estimated scf accuracy    <     139.97326604 Ry

     iteration # 22     ecut=    29.40 Ry     beta= 0.05
     Davidson diagonalization with overlap
     ethr =  5.29E-04,  avg # of iterations =  3.1

     negative rho (up, down):  3.573E-02 0.000E+00
 
     Adding external electric field

     Computed dipole along edir(3) : 
        Dipole               -3.0958 Ry au,         -7.8688 Debye
        Dipole field         -0.0058 Ry au, 
 
        Potential amp.        0.5416 Ry
        Total length         46.3494 bohr
 

     total cpu time spent up to now is      415.0 secs

     total energy              =   -2939.29361457 Ry
     estimated scf accuracy    <      65.16969651 Ry

     iteration # 23     ecut=    29.40 Ry     beta= 0.05
     Davidson diagonalization with overlap
     ethr =  5.29E-04,  avg # of iterations =  1.8

     negative rho (up, down):  3.154E-02 0.000E+00
 
     Adding external electric field

     Computed dipole along edir(3) : 
        Dipole               -2.6564 Ry au,         -6.7518 Debye
        Dipole field         -0.0050 Ry au, 
 
        Potential amp.        0.4647 Ry
        Total length         46.3494 bohr
 

     total cpu time spent up to now is      425.2 secs

     total energy              =   -2938.98567812 Ry
     estimated scf accuracy    <      26.34765652 Ry

     iteration # 24     ecut=    29.40 Ry     beta= 0.05
     Davidson diagonalization with overlap
     ethr =  5.29E-04,  avg # of iterations =  5.0

     negative rho (up, down):  4.839E-02 0.000E+00
 
     Adding external electric field

     Computed dipole along edir(3) : 
        Dipole               -2.1120 Ry au,         -5.3682 Debye
        Dipole field         -0.0040 Ry au, 
 
        Potential amp.        0.3695 Ry
        Total length         46.3494 bohr
 

     total cpu time spent up to now is      436.5 secs

     total energy              =   -2939.04539475 Ry
     estimated scf accuracy    <       4.90782447 Ry

     iteration # 25     ecut=    29.40 Ry     beta= 0.05
     Davidson diagonalization with overlap
     c_bands:  2 eigenvalues not converged
     c_bands:  1 eigenvalues not converged
     ethr =  5.29E-04,  avg # of iterations = 13.4

     negative rho (up, down):  2.865E-02 0.000E+00
 
     Adding external electric field

     Computed dipole along edir(3) : 
        Dipole               -2.4332 Ry au,         -6.1847 Debye
        Dipole field         -0.0046 Ry au, 
 
        Potential amp.        0.4257 Ry
        Total length         46.3494 bohr
 

     total cpu time spent up to now is      451.3 secs

     total energy              =   -2939.06003201 Ry
     estimated scf accuracy    <       1.83982515 Ry

     iteration # 26     ecut=    29.40 Ry     beta= 0.05
     Davidson diagonalization with overlap
     ethr =  4.66E-04,  avg # of iterations =  3.9

     negative rho (up, down):  1.311E-02 0.000E+00
 
     Adding external electric field

     Computed dipole along edir(3) : 
        Dipole               -2.1627 Ry au,         -5.4971 Debye
        Dipole field         -0.0041 Ry au, 
 
        Potential amp.        0.3783 Ry
        Total length         46.3494 bohr
 

     total cpu time spent up to now is      462.5 secs

     total energy              =   -2939.06210962 Ry
     estimated scf accuracy    <       2.08075146 Ry

     iteration # 27     ecut=    29.40 Ry     beta= 0.05
     Davidson diagonalization with overlap
     ethr =  4.66E-04,  avg # of iterations =  5.1

     negative rho (up, down):  1.603E-02 0.000E+00
 
     Adding external electric field

     Computed dipole along edir(3) : 
        Dipole               -1.9505 Ry au,         -4.9577 Debye
        Dipole field         -0.0037 Ry au, 
 
        Potential amp.        0.3412 Ry
        Total length         46.3494 bohr
 

     total cpu time spent up to now is      474.2 secs

     total energy              =   -2939.07683029 Ry
     estimated scf accuracy    <      12.74474494 Ry

     iteration # 28     ecut=    29.40 Ry     beta= 0.05
     Davidson diagonalization with overlap
     ethr =  4.66E-04,  avg # of iterations =  1.8

     negative rho (up, down):  2.158E-02 0.000E+00
 
     Adding external electric field

     Computed dipole along edir(3) : 
        Dipole               -1.8802 Ry au,         -4.7791 Debye
        Dipole field         -0.0035 Ry au, 
 
        Potential amp.        0.3289 Ry
        Total length         46.3494 bohr
 

     total cpu time spent up to now is      484.6 secs

     total energy              =   -2939.11003637 Ry
     estimated scf accuracy    <       3.32597637 Ry

     iteration # 29     ecut=    29.40 Ry     beta= 0.05
     Davidson diagonalization with overlap
     ethr =  4.66E-04,  avg # of iterations =  1.2

     negative rho (up, down):  2.460E-02 0.000E+00
 
     Adding external electric field

     Computed dipole along edir(3) : 
        Dipole               -1.8539 Ry au,         -4.7122 Debye
        Dipole field         -0.0035 Ry au, 
 
        Potential amp.        0.3243 Ry
        Total length         46.3494 bohr
 

     total cpu time spent up to now is      494.8 secs

     total energy              =   -2939.12546695 Ry
     estimated scf accuracy    <      11.68906773 Ry

     iteration # 30     ecut=    29.40 Ry     beta= 0.05
     Davidson diagonalization with overlap
     ethr =  4.66E-04,  avg # of iterations =  1.1

     negative rho (up, down):  2.013E-02 0.000E+00
 
     Adding external electric field

     Computed dipole along edir(3) : 
        Dipole               -1.8141 Ry au,         -4.6110 Debye
        Dipole field         -0.0034 Ry au, 
 
        Potential amp.        0.3174 Ry
        Total length         46.3494 bohr
 

     total cpu time spent up to now is      504.7 secs

     total energy              =   -2939.30453176 Ry
     estimated scf accuracy    <      10.76840946 Ry

     iteration # 31     ecut=    29.40 Ry     beta= 0.05
     Davidson diagonalization with overlap
     ethr =  4.66E-04,  avg # of iterations =  1.2

     negative rho (up, down):  1.727E-02 0.000E+00
 
     Adding external electric field

     Computed dipole along edir(3) : 
        Dipole               -1.3812 Ry au,         -3.5108 Debye
        Dipole field         -0.0026 Ry au, 
 
        Potential amp.        0.2416 Ry
        Total length         46.3494 bohr
 

     total cpu time spent up to now is      514.8 secs

     total energy              =   -2939.25854174 Ry
     estimated scf accuracy    <      13.08821680 Ry

     iteration # 32     ecut=    29.40 Ry     beta= 0.05
     Davidson diagonalization with overlap
     ethr =  4.66E-04,  avg # of iterations =  2.3

     negative rho (up, down):  1.646E-02 0.000E+00
 
     Adding external electric field

     Computed dipole along edir(3) : 
        Dipole               -0.1216 Ry au,         -0.3092 Debye
        Dipole field         -0.0002 Ry au, 
 
        Potential amp.        0.0213 Ry
        Total length         46.3494 bohr
 

     total cpu time spent up to now is      525.7 secs

     total energy              =   -2938.91086060 Ry
     estimated scf accuracy    <      13.04275463 Ry

     iteration # 33     ecut=    29.40 Ry     beta= 0.05
     Davidson diagonalization with overlap
     c_bands:  5 eigenvalues not converged
     c_bands:  4 eigenvalues not converged
     c_bands:  5 eigenvalues not converged
     c_bands:  4 eigenvalues not converged
     c_bands:  4 eigenvalues not converged
     c_bands:  4 eigenvalues not converged
     ethr =  4.66E-04,  avg # of iterations = 23.8

     negative rho (up, down):  1.686E-02 0.000E+00
 
     Adding external electric field

     Computed dipole along edir(3) : 
        Dipole               -0.0046 Ry au,         -0.0116 Debye
        Dipole field         -0.0000 Ry au, 
 
        Potential amp.        0.0008 Ry
        Total length         46.3494 bohr
 

     total cpu time spent up to now is      549.2 secs

     total energy              =   -2939.45609976 Ry
     estimated scf accuracy    <      27.63046789 Ry

     iteration # 34     ecut=    29.40 Ry     beta= 0.05
     Davidson diagonalization with overlap
     ethr =  4.66E-04,  avg # of iterations =  5.6

     negative rho (up, down):  1.749E-02 0.000E+00
 
     Adding external electric field

     Computed dipole along edir(3) : 
        Dipole               -0.1494 Ry au,         -0.3798 Debye
        Dipole field         -0.0003 Ry au, 
 
        Potential amp.        0.0261 Ry
        Total length         46.3494 bohr
 

     total cpu time spent up to now is      560.7 secs

     total energy              =   -2939.24283661 Ry
     estimated scf accuracy    <      62.81499746 Ry

     iteration # 35     ecut=    29.40 Ry     beta= 0.05
     Davidson diagonalization with overlap
     ethr =  4.66E-04,  avg # of iterations =  3.6

     negative rho (up, down):  1.900E-02 0.000E+00
 
     Adding external electric field

     Computed dipole along edir(3) : 
        Dipole               -1.4817 Ry au,         -3.7660 Debye
        Dipole field         -0.0028 Ry au, 
 
        Potential amp.        0.2592 Ry
        Total length         46.3494 bohr
 

     total cpu time spent up to now is      572.0 secs

     total energy              =   -2938.05797137 Ry
     estimated scf accuracy    <      50.45329154 Ry

     iteration # 36     ecut=    29.40 Ry     beta= 0.05
     Davidson diagonalization with overlap
     c_bands:  3 eigenvalues not converged
     c_bands:  1 eigenvalues not converged
     c_bands:  3 eigenvalues not converged
     ethr =  4.66E-04,  avg # of iterations = 16.8

     negative rho (up, down):  1.850E-02 0.000E+00
 
     Adding external electric field

     Computed dipole along edir(3) : 
        Dipole               -1.4867 Ry au,         -3.7789 Debye
        Dipole field         -0.0028 Ry au, 
 
        Potential amp.        0.2601 Ry
        Total length         46.3494 bohr
 

     total cpu time spent up to now is      589.7 secs

     total energy              =   -2939.05355497 Ry
     estimated scf accuracy    <       0.31191518 Ry

     iteration # 37     ecut=    29.40 Ry     beta= 0.05
     Davidson diagonalization with overlap
     c_bands:  2 eigenvalues not converged
     c_bands:  2 eigenvalues not converged
     c_bands:  1 eigenvalues not converged
     c_bands:  5 eigenvalues not converged
     c_bands:  4 eigenvalues not converged
     c_bands:  5 eigenvalues not converged
     c_bands:  1 eigenvalues not converged
     c_bands:  3 eigenvalues not converged
     ethr =  7.90E-05,  avg # of iterations = 20.8

     negative rho (up, down):  1.330E-02 0.000E+00
 
     Adding external electric field

     Computed dipole along edir(3) : 
        Dipole               -1.3801 Ry au,         -3.5079 Debye
        Dipole field         -0.0026 Ry au, 
 
        Potential amp.        0.2414 Ry
        Total length         46.3494 bohr
 

     total cpu time spent up to now is      609.4 secs

     total energy              =   -2939.05439256 Ry
     estimated scf accuracy    <       7.76038973 Ry

     iteration # 38     ecut=    29.40 Ry     beta= 0.05
     Davidson diagonalization with overlap
     ethr =  7.90E-05,  avg # of iterations =  5.1

     negative rho (up, down):  8.251E-03 0.000E+00
 
     Adding external electric field

     Computed dipole along edir(3) : 
        Dipole               -1.0595 Ry au,         -2.6929 Debye
        Dipole field         -0.0020 Ry au, 
 
        Potential amp.        0.1853 Ry
        Total length         46.3494 bohr
 

     total cpu time spent up to now is      621.0 secs

     total energy              =   -2939.05355211 Ry
     estimated scf accuracy    <       2.27906843 Ry

     iteration # 39     ecut=    29.40 Ry     beta= 0.05
     Davidson diagonalization with overlap
     ethr =  7.90E-05,  avg # of iterations = 13.5

     negative rho (up, down):  8.729E-03 0.000E+00
 
     Adding external electric field

     Computed dipole along edir(3) : 
        Dipole               -0.9764 Ry au,         -2.4819 Debye
        Dipole field         -0.0018 Ry au, 
 
        Potential amp.        0.1708 Ry
        Total length         46.3494 bohr
 

     total cpu time spent up to now is      636.9 secs

     total energy              =   -2939.09132429 Ry
     estimated scf accuracy    <       0.68913136 Ry

     iteration # 40     ecut=    29.40 Ry     beta= 0.05
     Davidson diagonalization with overlap
     ethr =  7.90E-05,  avg # of iterations =  1.2

     negative rho (up, down):  1.023E-02 0.000E+00
 
     Adding external electric field

     Computed dipole along edir(3) : 
        Dipole               -0.9187 Ry au,         -2.3352 Debye
        Dipole field         -0.0017 Ry au, 
 
        Potential amp.        0.1607 Ry
        Total length         46.3494 bohr
 

     total cpu time spent up to now is      646.9 secs

     total energy              =   -2939.07605011 Ry
     estimated scf accuracy    <       0.60841967 Ry

     iteration # 41     ecut=    29.40 Ry     beta= 0.05
     Davidson diagonalization with overlap
     ethr =  7.90E-05,  avg # of iterations =  2.0

     negative rho (up, down):  9.213E-03 0.000E+00
 
     Adding external electric field

     Computed dipole along edir(3) : 
        Dipole               -0.8609 Ry au,         -2.1882 Debye
        Dipole field         -0.0016 Ry au, 
 
        Potential amp.        0.1506 Ry
        Total length         46.3494 bohr
 

     total cpu time spent up to now is      657.6 secs

     total energy              =   -2939.09957082 Ry
     estimated scf accuracy    <       0.45913357 Ry

     iteration # 42     ecut=    29.40 Ry     beta= 0.05
     Davidson diagonalization with overlap
     ethr =  7.90E-05,  avg # of iterations =  3.5

     negative rho (up, down):  1.031E-02 0.000E+00
 
     Adding external electric field

     Computed dipole along edir(3) : 
        Dipole               -0.7070 Ry au,         -1.7970 Debye
        Dipole field         -0.0013 Ry au, 
 
        Potential amp.        0.1237 Ry
        Total length         46.3494 bohr
 

     total cpu time spent up to now is      668.6 secs

     total energy              =   -2939.07494559 Ry
     estimated scf accuracy    <       0.64076151 Ry

     iteration # 43     ecut=    29.40 Ry     beta= 0.05
     Davidson diagonalization with overlap
     ethr =  7.90E-05,  avg # of iterations =  2.7

     negative rho (up, down):  8.791E-03 0.000E+00
 
     Adding external electric field

     Computed dipole along edir(3) : 
        Dipole               -0.0883 Ry au,         -0.2244 Debye
        Dipole field         -0.0002 Ry au, 
 
        Potential amp.        0.0154 Ry
        Total length         46.3494 bohr
 

     total cpu time spent up to now is      679.3 secs

     total energy              =   -2939.04018709 Ry
     estimated scf accuracy    <       0.40377755 Ry

     iteration # 44     ecut=    29.40 Ry     beta= 0.05
     Davidson diagonalization with overlap
     c_bands:  2 eigenvalues not converged
     c_bands:  1 eigenvalues not converged
     c_bands:  2 eigenvalues not converged
     c_bands:  1 eigenvalues not converged
     ethr =  7.90E-05,  avg # of iterations = 17.4

     negative rho (up, down):  9.130E-03 0.000E+00
 
     Adding external electric field

     Computed dipole along edir(3) : 
        Dipole                0.2749 Ry au,          0.6988 Debye
        Dipole field          0.0005 Ry au, 
 
        Potential amp.       -0.0481 Ry
        Total length         46.3494 bohr
 

     total cpu time spent up to now is      696.0 secs

     total energy              =   -2939.04160800 Ry
     estimated scf accuracy    <       0.10781232 Ry

     iteration # 45     ecut=    29.40 Ry     beta= 0.05
     Davidson diagonalization with overlap
     c_bands:  1 eigenvalues not converged
     c_bands:  2 eigenvalues not converged
     c_bands:  3 eigenvalues not converged
     c_bands:  2 eigenvalues not converged
     c_bands:  4 eigenvalues not converged
     c_bands:  4 eigenvalues not converged
     c_bands:  5 eigenvalues not converged
     c_bands:  1 eigenvalues not converged
     c_bands:  1 eigenvalues not converged
     ethr =  2.73E-05,  avg # of iterations = 20.0

     negative rho (up, down):  1.021E-02 0.000E+00
 
     Adding external electric field

     Computed dipole along edir(3) : 
        Dipole                0.1537 Ry au,          0.3907 Debye
        Dipole field          0.0003 Ry au, 
 
        Potential amp.       -0.0269 Ry
        Total length         46.3494 bohr
 

     total cpu time spent up to now is      717.5 secs

     total energy              =   -2939.04948847 Ry
     estimated scf accuracy    <       0.56935923 Ry

     iteration # 46     ecut=    29.40 Ry     beta= 0.05
     Davidson diagonalization with overlap
     c_bands:  2 eigenvalues not converged
     ethr =  2.73E-05,  avg # of iterations =  8.2

     negative rho (up, down):  1.007E-02 0.000E+00
 
     Adding external electric field

     Computed dipole along edir(3) : 
        Dipole                0.1634 Ry au,          0.4152 Debye
        Dipole field          0.0003 Ry au, 
 
        Potential amp.       -0.0286 Ry
        Total length         46.3494 bohr
 

     total cpu time spent up to now is      729.8 secs

     total energy              =   -2939.05568849 Ry
     estimated scf accuracy    <       0.26293607 Ry

     iteration # 47     ecut=    29.40 Ry     beta= 0.05
     Davidson diagonalization with overlap
     ethr =  2.73E-05,  avg # of iterations =  2.3

     negative rho (up, down):  1.351E-02 0.000E+00
 
     Adding external electric field

     Computed dipole along edir(3) : 
        Dipole               -0.1177 Ry au,         -0.2991 Debye
        Dipole field         -0.0002 Ry au, 
 
        Potential amp.        0.0206 Ry
        Total length         46.3494 bohr
 

     total cpu time spent up to now is      740.2 secs

     total energy              =   -2939.02565545 Ry
     estimated scf accuracy    <       0.29056349 Ry

     iteration # 48     ecut=    29.40 Ry     beta= 0.05
     Davidson diagonalization with overlap
     c_bands:  2 eigenvalues not converged
     c_bands:  4 eigenvalues not converged
     c_bands:  4 eigenvalues not converged
     c_bands:  2 eigenvalues not converged
     c_bands:  1 eigenvalues not converged
     c_bands:  2 eigenvalues not converged
     c_bands:  3 eigenvalues not converged
     c_bands:  3 eigenvalues not converged
     c_bands:  2 eigenvalues not converged
     ethr =  2.73E-05,  avg # of iterations = 23.3

     negative rho (up, down):  1.142E-02 0.000E+00
 
     Adding external electric field

     Computed dipole along edir(3) : 
        Dipole               -0.0166 Ry au,         -0.0423 Debye
        Dipole field         -0.0000 Ry au, 
 
        Potential amp.        0.0029 Ry
        Total length         46.3494 bohr
 

     total cpu time spent up to now is      763.5 secs

     total energy              =   -2939.04387761 Ry
     estimated scf accuracy    <       0.21760370 Ry

     iteration # 49     ecut=    29.40 Ry     beta= 0.05
     Davidson diagonalization with overlap
     c_bands:  1 eigenvalues not converged
     c_bands:  2 eigenvalues not converged
     ethr =  2.73E-05,  avg # of iterations = 13.3

     negative rho (up, down):  1.149E-02 0.000E+00
 
     Adding external electric field

     Computed dipole along edir(3) : 
        Dipole                0.0392 Ry au,          0.0997 Debye
        Dipole field          0.0001 Ry au, 
 
        Potential amp.       -0.0069 Ry
        Total length         46.3494 bohr
 

     total cpu time spent up to now is      777.4 secs

     total energy              =   -2939.04673793 Ry
     estimated scf accuracy    <       0.07288826 Ry

     iteration # 50     ecut=    29.40 Ry     beta= 0.05
     Davidson diagonalization with overlap
     c_bands:  1 eigenvalues not converged
     c_bands:  1 eigenvalues not converged
     ethr =  1.85E-05,  avg # of iterations = 13.7

     negative rho (up, down):  1.163E-02 0.000E+00
 
     Adding external electric field

     Computed dipole along edir(3) : 
        Dipole                0.0498 Ry au,          0.1265 Debye
        Dipole field          0.0001 Ry au, 
 
        Potential amp.       -0.0087 Ry
        Total length         46.3494 bohr
 

     total cpu time spent up to now is      792.3 secs

     total energy              =   -2939.04810209 Ry
     estimated scf accuracy    <       0.03973289 Ry

     iteration # 51     ecut=    29.40 Ry     beta= 0.05
     Davidson diagonalization with overlap
     c_bands:  1 eigenvalues not converged
     c_bands:  3 eigenvalues not converged
     ethr =  1.01E-05,  avg # of iterations = 10.2

     negative rho (up, down):  1.188E-02 0.000E+00
 
     Adding external electric field

     Computed dipole along edir(3) : 
        Dipole                0.0621 Ry au,          0.1580 Debye
        Dipole field          0.0001 Ry au, 
 
        Potential amp.       -0.0109 Ry
        Total length         46.3494 bohr
 

     total cpu time spent up to now is      805.4 secs

     total energy              =   -2939.04825265 Ry
     estimated scf accuracy    <       0.02948394 Ry

     iteration # 52     ecut=    29.40 Ry     beta= 0.05
     Davidson diagonalization with overlap
     c_bands:  1 eigenvalues not converged
     ethr =  7.46E-06,  avg # of iterations =  5.9

     negative rho (up, down):  1.194E-02 0.000E+00
 
     Adding external electric field

     Computed dipole along edir(3) : 
        Dipole                0.0297 Ry au,          0.0756 Debye
        Dipole field          0.0001 Ry au, 
 
        Potential amp.       -0.0052 Ry
        Total length         46.3494 bohr
 

     total cpu time spent up to now is      817.1 secs

     total energy              =   -2939.04638015 Ry
     estimated scf accuracy    <       0.02047532 Ry

     iteration # 53     ecut=    29.40 Ry     beta= 0.05
     Davidson diagonalization with overlap
     c_bands:  2 eigenvalues not converged
     c_bands:  3 eigenvalues not converged
     c_bands:  3 eigenvalues not converged
     c_bands:  2 eigenvalues not converged
     c_bands:  1 eigenvalues not converged
     c_bands:  1 eigenvalues not converged
     ethr =  5.18E-06,  avg # of iterations = 17.7

     negative rho (up, down):  1.258E-02 0.000E+00
 
     Adding external electric field

     Computed dipole along edir(3) : 
        Dipole               -0.0049 Ry au,         -0.0126 Debye
        Dipole field         -0.0000 Ry au, 
 
        Potential amp.        0.0009 Ry
        Total length         46.3494 bohr
 

     total cpu time spent up to now is      834.1 secs

     total energy              =   -2939.04699820 Ry
     estimated scf accuracy    <       0.00658511 Ry

     iteration # 54     ecut=    29.40 Ry     beta= 0.05
     Davidson diagonalization with overlap
     c_bands:  1 eigenvalues not converged
     c_bands:  2 eigenvalues not converged
     c_bands:  1 eigenvalues not converged
     c_bands:  3 eigenvalues not converged
     c_bands:  2 eigenvalues not converged
     ethr =  1.67E-06,  avg # of iterations = 17.7

     negative rho (up, down):  1.240E-02 0.000E+00
 
     Adding external electric field

     Computed dipole along edir(3) : 
        Dipole                0.0120 Ry au,          0.0306 Debye
        Dipole field          0.0000 Ry au, 
 
        Potential amp.       -0.0021 Ry
        Total length         46.3494 bohr
 

     total cpu time spent up to now is      853.9 secs

     total energy              =   -2939.04736238 Ry
     estimated scf accuracy    <       0.00856669 Ry

     iteration # 55     ecut=    29.40 Ry     beta= 0.05
     Davidson diagonalization with overlap
     c_bands:  2 eigenvalues not converged
     ethr =  1.67E-06,  avg # of iterations =  8.5

     negative rho (up, down):  1.225E-02 0.000E+00
 
     Adding external electric field

     Computed dipole along edir(3) : 
        Dipole               -0.0194 Ry au,         -0.0494 Debye
        Dipole field         -0.0000 Ry au, 
 
        Potential amp.        0.0034 Ry
        Total length         46.3494 bohr
 

     total cpu time spent up to now is      867.1 secs

     total energy              =   -2939.04718223 Ry
     estimated scf accuracy    <       0.00702697 Ry

     iteration # 56     ecut=    29.40 Ry     beta= 0.05
     Davidson diagonalization with overlap
     c_bands:  1 eigenvalues not converged
     ethr =  1.67E-06,  avg # of iterations = 13.6

     negative rho (up, down):  1.242E-02 0.000E+00
 
     Adding external electric field

     Computed dipole along edir(3) : 
        Dipole               -0.0140 Ry au,         -0.0356 Debye
        Dipole field         -0.0000 Ry au, 
 
        Potential amp.        0.0025 Ry
        Total length         46.3494 bohr
 

     total cpu time spent up to now is      881.4 secs

     total energy              =   -2939.04744919 Ry
     estimated scf accuracy    <       0.00482855 Ry

     iteration # 57     ecut=    29.40 Ry     beta= 0.05
     Davidson diagonalization with overlap
     ethr =  1.22E-06,  avg # of iterations =  2.9

     negative rho (up, down):  1.301E-02 0.000E+00
 
     Adding external electric field

     Computed dipole along edir(3) : 
        Dipole               -0.0060 Ry au,         -0.0152 Debye
        Dipole field         -0.0000 Ry au, 
 
        Potential amp.        0.0010 Ry
        Total length         46.3494 bohr
 

     total cpu time spent up to now is      892.3 secs

     total energy              =   -2939.04753309 Ry
     estimated scf accuracy    <       0.00144344 Ry

     iteration # 58     ecut=    29.40 Ry     beta= 0.05
     Davidson diagonalization with overlap
     ethr =  3.65E-07,  avg # of iterations = 13.6

     negative rho (up, down):  1.304E-02 0.000E+00
 
     Adding external electric field

     Computed dipole along edir(3) : 
        Dipole               -0.0035 Ry au,         -0.0089 Debye
        Dipole field         -0.0000 Ry au, 
 
        Potential amp.        0.0006 Ry
        Total length         46.3494 bohr
 

     total cpu time spent up to now is      910.9 secs

     total energy              =   -2939.04775139 Ry
     estimated scf accuracy    <       0.00511681 Ry

     iteration # 59     ecut=    29.40 Ry     beta= 0.05
     Davidson diagonalization with overlap
     c_bands:  1 eigenvalues not converged
     ethr =  3.65E-07,  avg # of iterations =  8.0

     negative rho (up, down):  1.375E-02 0.000E+00
 
     Adding external electric field

     Computed dipole along edir(3) : 
        Dipole               -0.0090 Ry au,         -0.0229 Debye
        Dipole field         -0.0000 Ry au, 
 
        Potential amp.        0.0016 Ry
        Total length         46.3494 bohr
 

     total cpu time spent up to now is      923.2 secs

     total energy              =   -2939.04760450 Ry
     estimated scf accuracy    <       0.00260255 Ry

     iteration # 60     ecut=    29.40 Ry     beta= 0.05
     Davidson diagonalization with overlap
     c_bands:  1 eigenvalues not converged
     ethr =  3.65E-07,  avg # of iterations = 12.9

     negative rho (up, down):  1.387E-02 0.000E+00
 
     Adding external electric field

     Computed dipole along edir(3) : 
        Dipole                0.0030 Ry au,          0.0076 Debye
        Dipole field          0.0000 Ry au, 
 
        Potential amp.       -0.0005 Ry
        Total length         46.3494 bohr
 

     total cpu time spent up to now is      939.1 secs

     total energy              =   -2939.04777913 Ry
     estimated scf accuracy    <       0.00055790 Ry

     iteration # 61     ecut=    29.40 Ry     beta= 0.05
     Davidson diagonalization with overlap
     ethr =  1.41E-07,  avg # of iterations =  7.9

     negative rho (up, down):  1.416E-02 0.000E+00
 
     Adding external electric field

     Computed dipole along edir(3) : 
        Dipole                0.0151 Ry au,          0.0384 Debye
        Dipole field          0.0000 Ry au, 
 
        Potential amp.       -0.0026 Ry
        Total length         46.3494 bohr
 

     total cpu time spent up to now is      951.7 secs

     total energy              =   -2939.04782530 Ry
     estimated scf accuracy    <       0.00027366 Ry

     iteration # 62     ecut=    29.40 Ry     beta= 0.05
     Davidson diagonalization with overlap
     ethr =  6.93E-08,  avg # of iterations = 10.1

     negative rho (up, down):  1.486E-02 0.000E+00
 
     Adding external electric field

     Computed dipole along edir(3) : 
        Dipole                0.0419 Ry au,          0.1064 Debye
        Dipole field          0.0001 Ry au, 
 
        Potential amp.       -0.0073 Ry
        Total length         46.3494 bohr
 

     total cpu time spent up to now is      965.7 secs

     total energy              =   -2939.04787701 Ry
     estimated scf accuracy    <       0.00018362 Ry

     iteration # 63     ecut=    29.40 Ry     beta= 0.05
     Davidson diagonalization with overlap
     ethr =  4.65E-08,  avg # of iterations =  9.3

     negative rho (up, down):  1.503E-02 0.000E+00
 
     Adding external electric field

     Computed dipole along edir(3) : 
        Dipole                0.0390 Ry au,          0.0992 Debye
        Dipole field          0.0001 Ry au, 
 
        Potential amp.       -0.0068 Ry
        Total length         46.3494 bohr
 

     total cpu time spent up to now is      981.4 secs

     total energy              =   -2939.04789664 Ry
     estimated scf accuracy    <       0.00015160 Ry

     iteration # 64     ecut=    29.40 Ry     beta= 0.05
     Davidson diagonalization with overlap
     ethr =  3.84E-08,  avg # of iterations =  6.2

     negative rho (up, down):  1.555E-02 0.000E+00
 
     Adding external electric field

     Computed dipole along edir(3) : 
        Dipole                0.0389 Ry au,          0.0989 Debye
        Dipole field          0.0001 Ry au, 
 
        Potential amp.       -0.0068 Ry
        Total length         46.3494 bohr
 

     total cpu time spent up to now is      993.1 secs

     total energy              =   -2939.04790541 Ry
     estimated scf accuracy    <       0.00008052 Ry

     iteration # 65     ecut=    29.40 Ry     beta= 0.05
     Davidson diagonalization with overlap
     ethr =  2.04E-08,  avg # of iterations = 11.1

     negative rho (up, down):  1.556E-02 0.000E+00
 
     Adding external electric field

     Computed dipole along edir(3) : 
        Dipole                0.0466 Ry au,          0.1185 Debye
        Dipole field          0.0001 Ry au, 
 
        Potential amp.       -0.0082 Ry
        Total length         46.3494 bohr
 

     total cpu time spent up to now is     1011.5 secs

     total energy              =   -2939.04792139 Ry
     estimated scf accuracy    <       0.00009655 Ry

     iteration # 66     ecut=    29.40 Ry     beta= 0.05
     Davidson diagonalization with overlap
     ethr =  2.04E-08,  avg # of iterations =  6.2

     negative rho (up, down):  1.554E-02 0.000E+00
 
     Adding external electric field

     Computed dipole along edir(3) : 
        Dipole                0.0469 Ry au,          0.1192 Debye
        Dipole field          0.0001 Ry au, 
 
        Potential amp.       -0.0082 Ry
        Total length         46.3494 bohr
 

     total cpu time spent up to now is     1023.7 secs

     total energy              =   -2939.04792959 Ry
     estimated scf accuracy    <       0.00002002 Ry

     iteration # 67     ecut=    29.40 Ry     beta= 0.05
     Davidson diagonalization with overlap
     c_bands:  1 eigenvalues not converged
     ethr =  5.07E-09,  avg # of iterations = 10.7

     negative rho (up, down):  1.560E-02 0.000E+00
 
     Adding external electric field

     Computed dipole along edir(3) : 
        Dipole                0.0488 Ry au,          0.1241 Debye
        Dipole field          0.0001 Ry au, 
 
        Potential amp.       -0.0085 Ry
        Total length         46.3494 bohr
 

     total cpu time spent up to now is     1038.8 secs

     total energy              =   -2939.04793700 Ry
     estimated scf accuracy    <       0.00001175 Ry

     iteration # 68     ecut=    29.40 Ry     beta= 0.05
     Davidson diagonalization with overlap
     c_bands:  1 eigenvalues not converged
     ethr =  2.97E-09,  avg # of iterations =  8.8

     negative rho (up, down):  1.572E-02 0.000E+00
 
     Adding external electric field

     Computed dipole along edir(3) : 
        Dipole                0.0510 Ry au,          0.1297 Debye
        Dipole field          0.0001 Ry au, 
 
        Potential amp.       -0.0089 Ry
        Total length         46.3494 bohr
 

     total cpu time spent up to now is     1052.0 secs

     total energy              =   -2939.04794370 Ry
     estimated scf accuracy    <       0.00000493 Ry

     iteration # 69     ecut=    29.40 Ry     beta= 0.05
     Davidson diagonalization with overlap
     c_bands:  1 eigenvalues not converged
     ethr =  1.25E-09,  avg # of iterations = 10.9

     negative rho (up, down):  1.573E-02 0.000E+00
 
     Adding external electric field

     Computed dipole along edir(3) : 
        Dipole                0.0511 Ry au,          0.1300 Debye
        Dipole field          0.0001 Ry au, 
 
        Potential amp.       -0.0089 Ry
        Total length         46.3494 bohr
 

     total cpu time spent up to now is     1069.5 secs

     total energy              =   -2939.04794731 Ry
     estimated scf accuracy    <       0.00000379 Ry

     iteration # 70     ecut=    29.40 Ry     beta= 0.05
     Davidson diagonalization with overlap
     ethr =  9.59E-10,  avg # of iterations =  1.3

     negative rho (up, down):  1.573E-02 0.000E+00
 
     Adding external electric field

     Computed dipole along edir(3) : 
        Dipole                0.0514 Ry au,          0.1307 Debye
        Dipole field          0.0001 Ry au, 
 
        Potential amp.       -0.0090 Ry
        Total length         46.3494 bohr
 

     total cpu time spent up to now is     1079.6 secs

     total energy              =   -2939.04794931 Ry
     estimated scf accuracy    <       0.00000327 Ry

     iteration # 71     ecut=    29.40 Ry     beta= 0.05
     Davidson diagonalization with overlap
     ethr =  8.28E-10,  avg # of iterations = 12.0

     negative rho (up, down):  1.574E-02 0.000E+00
 
     Adding external electric field

     Computed dipole along edir(3) : 
        Dipole                0.0512 Ry au,          0.1302 Debye
        Dipole field          0.0001 Ry au, 
 
        Potential amp.       -0.0090 Ry
        Total length         46.3494 bohr
 

     total cpu time spent up to now is     1095.2 secs

     total energy              =   -2939.04795189 Ry
     estimated scf accuracy    <       0.00000232 Ry

     iteration # 72     ecut=    29.40 Ry     beta= 0.05
     Davidson diagonalization with overlap
     ethr =  5.86E-10,  avg # of iterations = 11.2

     negative rho (up, down):  1.573E-02 0.000E+00
 
     Adding external electric field

     Computed dipole along edir(3) : 
        Dipole                0.0511 Ry au,          0.1300 Debye
        Dipole field          0.0001 Ry au, 
 
        Potential amp.       -0.0089 Ry
        Total length         46.3494 bohr
 

     total cpu time spent up to now is     1112.5 secs

     total energy              =   -2939.04795408 Ry
     estimated scf accuracy    <       0.00000194 Ry

     iteration # 73     ecut=    29.40 Ry     beta= 0.05
     Davidson diagonalization with overlap
     ethr =  4.91E-10,  avg # of iterations =  2.8

     negative rho (up, down):  1.571E-02 0.000E+00
 
     Adding external electric field

     Computed dipole along edir(3) : 
        Dipole                0.0510 Ry au,          0.1296 Debye
        Dipole field          0.0001 Ry au, 
 
        Potential amp.       -0.0089 Ry
        Total length         46.3494 bohr
 

     total cpu time spent up to now is     1123.4 secs

     total energy              =   -2939.04795569 Ry
     estimated scf accuracy    <       0.00000124 Ry

     iteration # 74     ecut=    29.40 Ry     beta= 0.05
     Davidson diagonalization with overlap
     ethr =  3.14E-10,  avg # of iterations =  7.4

     negative rho (up, down):  1.571E-02 0.000E+00
 
     Adding external electric field

     Computed dipole along edir(3) : 
        Dipole                0.0510 Ry au,          0.1298 Debye
        Dipole field          0.0001 Ry au, 
 
        Potential amp.       -0.0089 Ry
        Total length         46.3494 bohr
 

     total cpu time spent up to now is     1136.1 secs

     total energy              =   -2939.04795731 Ry
     estimated scf accuracy    <       0.00000053 Ry

     iteration # 75     ecut=    29.40 Ry     beta= 0.05
     Davidson diagonalization with overlap
     ethr =  1.34E-10,  avg # of iterations =  9.8

     negative rho (up, down):  1.571E-02 0.000E+00
 
     Adding external electric field

     Computed dipole along edir(3) : 
        Dipole                0.0507 Ry au,          0.1288 Debye
        Dipole field          0.0001 Ry au, 
 
        Potential amp.       -0.0089 Ry
        Total length         46.3494 bohr
 

     total cpu time spent up to now is     1149.8 secs

     total energy              =   -2939.04795878 Ry
     estimated scf accuracy    <       0.00000033 Ry

     iteration # 76     ecut=    29.40 Ry     beta= 0.05
     Davidson diagonalization with overlap
     ethr =  8.45E-11,  avg # of iterations =  7.1

     negative rho (up, down):  1.569E-02 0.000E+00
 
     Adding external electric field

     Computed dipole along edir(3) : 
        Dipole                0.0494 Ry au,          0.1255 Debye
        Dipole field          0.0001 Ry au, 
 
        Potential amp.       -0.0086 Ry
        Total length         46.3494 bohr
 

     total cpu time spent up to now is     1161.9 secs

     total energy              =   -2939.04796016 Ry
     estimated scf accuracy    <       0.00000019 Ry

     iteration # 77     ecut=    29.40 Ry     beta= 0.05
     Davidson diagonalization with overlap
     ethr =  4.90E-11,  avg # of iterations = 10.5

     negative rho (up, down):  1.569E-02 0.000E+00
 
     Adding external electric field

     Computed dipole along edir(3) : 
        Dipole                0.0494 Ry au,          0.1256 Debye
        Dipole field          0.0001 Ry au, 
 
        Potential amp.       -0.0086 Ry
        Total length         46.3494 bohr
 

     total cpu time spent up to now is     1180.3 secs

     total energy              =   -2939.04796141 Ry
     estimated scf accuracy    <       0.00000015 Ry

     iteration # 78     ecut=    29.40 Ry     beta= 0.05
     Davidson diagonalization with overlap
     ethr =  3.83E-11,  avg # of iterations =  1.0

     negative rho (up, down):  1.569E-02 0.000E+00
 
     Adding external electric field

     Computed dipole along edir(3) : 
        Dipole                0.0493 Ry au,          0.1253 Debye
        Dipole field          0.0001 Ry au, 
 
        Potential amp.       -0.0086 Ry
        Total length         46.3494 bohr
 

     total cpu time spent up to now is     1190.1 secs

     total energy              =   -2939.04796245 Ry
     estimated scf accuracy    <       0.00000015 Ry

     iteration # 79     ecut=    29.40 Ry     beta= 0.05
     Davidson diagonalization with overlap
     ethr =  3.76E-11,  avg # of iterations =  2.1

     negative rho (up, down):  1.570E-02 0.000E+00
 
     Adding external electric field

     Computed dipole along edir(3) : 
        Dipole                0.0496 Ry au,          0.1260 Debye
        Dipole field          0.0001 Ry au, 
 
        Potential amp.       -0.0087 Ry
        Total length         46.3494 bohr
 

     total cpu time spent up to now is     1200.7 secs

     total energy              =   -2939.04796338 Ry
     estimated scf accuracy    <       0.00000017 Ry

     iteration # 80     ecut=    29.40 Ry     beta= 0.05
     Davidson diagonalization with overlap
     ethr =  3.76E-11,  avg # of iterations =  2.3

     negative rho (up, down):  1.571E-02 0.000E+00
 
     Adding external electric field

     Computed dipole along edir(3) : 
        Dipole                0.0497 Ry au,          0.1262 Debye
        Dipole field          0.0001 Ry au, 
 
        Potential amp.       -0.0087 Ry
        Total length         46.3494 bohr
 

     total cpu time spent up to now is     1211.5 secs

     total energy              =   -2939.04796421 Ry
     estimated scf accuracy    <       0.00000012 Ry

     iteration # 81     ecut=    29.40 Ry     beta= 0.05
     Davidson diagonalization with overlap
     ethr =  2.97E-11,  avg # of iterations =  1.8

     negative rho (up, down):  1.572E-02 0.000E+00
 
     Adding external electric field

     Computed dipole along edir(3) : 
        Dipole                0.0499 Ry au,          0.1269 Debye
        Dipole field          0.0001 Ry au, 
 
        Potential amp.       -0.0087 Ry
        Total length         46.3494 bohr
 

     total cpu time spent up to now is     1222.1 secs

     total energy              =   -2939.04796495 Ry
     estimated scf accuracy    <       0.00000010 Ry

     iteration # 82     ecut=    29.40 Ry     beta= 0.05
     Davidson diagonalization with overlap
     ethr =  2.54E-11,  avg # of iterations =  8.4

     negative rho (up, down):  1.572E-02 0.000E+00
 
     Adding external electric field

     Computed dipole along edir(3) : 
        Dipole                0.0486 Ry au,          0.1236 Debye
        Dipole field          0.0001 Ry au, 
 
        Potential amp.       -0.0085 Ry
        Total length         46.3494 bohr
 

     total cpu time spent up to now is     1235.1 secs

     End of self-consistent calculation

          k = 0.0000 0.0000 0.0000 ( 18029 PWs)   bands (ev):

   -56.2362 -56.2304 -56.2022 -56.1944 -56.1443 -56.0730 -56.0727 -56.0447
   -56.0372 -56.0107 -56.0093 -55.9757 -55.7791 -55.5134 -55.2136 -55.1795
   -32.7868 -32.7183 -32.5858 -32.5741 -32.5543 -32.5433 -32.5294 -32.5000
   -32.4788 -32.4769 -32.4514 -32.4392 -32.4116 -32.3883 -32.3830 -32.3715
   -32.3712 -32.3402 -32.3257 -32.2932 -32.2858 -32.2831 -32.2585 -32.2401
   -32.2331 -32.2322 -32.2317 -32.2189 -32.2121 -32.1949 -32.1887 -32.1858
   -32.1841 -32.1751 -32.1623 -32.1516 -32.1215 -32.0317 -31.9682 -31.7924
   -31.7752 -31.7143 -31.6206 -31.5324 -31.5099 -31.4374 -31.3509 -31.2397
   -17.2986 -16.9852 -16.7130 -16.5037 -16.3922 -16.3599 -16.2602 -16.0774
   -15.9537 -15.9231 -15.8235 -15.7958 -15.7724 -15.7605 -15.7396 -15.7279
   -15.6804 -15.6783 -15.6652 -15.6500 -15.5973 -15.5722 -15.5416 -15.4330
   -15.4265 -15.3938 -15.3685 -15.2925 -15.2856 -14.8223 -13.7160 -13.5996
   -12.7782  -8.6681  -5.2898  -4.3605  -4.2124  -4.1877  -4.1416  -4.0895
    -3.8707  -3.8080  -3.7459  -3.6049  -3.4654  -3.4237  -3.4109  -3.3947
    -3.3652  -3.1391  -3.1129  -3.0502  -3.0263  -3.0207  -3.0098  -3.0002
    -2.9784  -2.9620  -2.8881  -2.7851  -2.7103  -2.6626  -2.6152  -2.6067
    -2.5482  -2.5038  -2.4971  -2.4797  -2.4754  -2.4673  -2.4291  -2.4203
    -2.2840  -2.2234  -2.0892  -2.0540  -2.0332  -1.8846  -1.8437  -1.7472
    -1.6825  -1.6650  -1.6553  -1.6269  -1.5416  -1.5213  -1.3990  -1.3766
    -1.3374  -1.2711  -1.2518  -1.2309  -1.1279  -1.1123  -1.0073  -1.0004
    -0.9927  -0.9762  -0.9210  -0.7338  -0.7129  -0.6770  -0.6579  -0.6267
    -0.5490  -0.5182  -0.4271  -0.4142  -0.3559  -0.3403  -0.3117  -0.2622
    -0.2555  -0.2436  -0.2397  -0.2239  -0.0483   0.0132   0.0707   0.1211
     0.1355   0.2935   0.3445   0.4209   0.5071   0.7340   0.8085   0.8464
     0.8973   1.0006   1.3799   1.4254   2.4291   2.9044   2.9846   3.0343
     3.0449   3.1402   3.1453   3.3527   3.3743   3.3812   3.4451

          k = 0.0000 0.0419 0.0000 ( 17933 PWs)   bands (ev):

   -56.2312 -56.2251 -56.2071 -56.1996 -56.1421 -56.0751 -56.0678 -56.0420
   -56.0396 -56.0156 -56.0043 -55.9806 -55.7785 -55.5138 -55.2085 -55.1844
   -32.7295 -32.6644 -32.5424 -32.5324 -32.5247 -32.5197 -32.5165 -32.4834
   -32.4599 -32.4573 -32.4462 -32.4395 -32.4171 -32.4119 -32.3968 -32.3920
   -32.3745 -32.3602 -32.3123 -32.3072 -32.2803 -32.2736 -32.2700 -32.2514
   -32.2464 -32.2454 -32.2392 -32.2356 -32.2276 -32.2191 -32.2156 -32.2026
   -32.1819 -32.1804 -32.1773 -32.1647 -32.1619 -32.0310 -31.9653 -31.8123
   -31.7809 -31.7289 -31.5664 -31.5289 -31.5130 -31.4248 -31.3634 -31.2968
   -17.2910 -16.8513 -16.5940 -16.3990 -16.2847 -16.2610 -16.2243 -16.1134
   -16.0198 -15.9914 -15.8462 -15.8368 -15.7770 -15.7559 -15.7379 -15.7139
   -15.7055 -15.6973 -15.6927 -15.6321 -15.6216 -15.5792 -15.5126 -15.4815
   -15.4486 -15.4415 -15.4270 -15.3483 -15.3017 -14.8986 -13.7201 -13.6391
   -12.7835  -8.6699  -5.2924  -4.1684  -4.0710  -4.0248  -3.9653  -3.9324
    -3.7389  -3.6638  -3.5861  -3.5427  -3.4728  -3.4108  -3.3215  -3.2895
    -3.2722  -3.2140  -3.1999  -3.1859  -3.1218  -3.1024  -3.0780  -3.0315
    -2.9871  -2.9728  -2.9277  -2.9083  -2.8865  -2.8678  -2.7401  -2.7306
    -2.7008  -2.6549  -2.6113  -2.5270  -2.4913  -2.4720  -2.3740  -2.3199
    -2.2006  -2.1721  -2.0111  -1.9523  -1.9155  -1.8827  -1.8594  -1.7509
    -1.6103  -1.5934  -1.5384  -1.4760  -1.4515  -1.3893  -1.3004  -1.2777
    -1.2395  -1.1882  -1.1681  -1.1381  -1.1235  -1.1148  -1.0545  -1.0285
    -0.9851  -0.9271  -0.8730  -0.8244  -0.7663  -0.7498  -0.7326  -0.7069
    -0.6990  -0.5385  -0.5104  -0.4737  -0.4527  -0.4187  -0.4032  -0.3935
    -0.3447  -0.2649  -0.2101  -0.1988  -0.1270  -0.0671  -0.0132   0.0381
     0.0968   0.1067   0.1497   0.2824   0.4266   0.4362   0.7595   0.7729
     0.9977   1.0813   1.3338   1.3374   2.4094   3.0950   3.1207   3.1538
     3.1966   3.2539   3.2989   3.3653   3.3873   3.4118   3.4494

          k = 0.0000-0.0839 0.0000 ( 17884 PWs)   bands (ev):

   -56.2195 -56.2187 -56.2132 -56.2114 -56.1398 -56.0773 -56.0593 -56.0504
   -56.0287 -56.0264 -55.9927 -55.9921 -55.7780 -55.5142 -55.1965 -55.1964
   -32.5913 -32.5884 -32.5324 -32.5318 -32.5223 -32.5151 -32.5143 -32.4954
   -32.4376 -32.4348 -32.4164 -32.4145 -32.4015 -32.3891 -32.3817 -32.3645
   -32.3453 -32.3452 -32.3412 -32.3404 -32.3392 -32.3143 -32.3116 -32.2850
   -32.2799 -32.2795 -32.2636 -32.2537 -32.2503 -32.2410 -32.2252 -32.2249
   -32.1985 -32.1962 -32.1721 -32.1719 -32.1236 -32.0302 -31.9633 -31.8492
   -31.7824 -31.7393 -31.5208 -31.5207 -31.4335 -31.4333 -31.3941 -31.3941
   -17.2842 -16.5125 -16.5054 -16.3151 -16.3120 -16.1668 -16.1556 -16.0519
   -16.0427 -16.0270 -15.9965 -15.9598 -15.9581 -15.8000 -15.7943 -15.6402
   -15.6143 -15.6125 -15.6107 -15.6053 -15.5789 -15.5757 -15.5690 -15.5673
   -15.5164 -15.4903 -15.4797 -15.4450 -15.2856 -15.0035 -13.7018 -13.7017
   -12.7889  -8.6719  -5.2956  -3.8870  -3.7254  -3.7002  -3.6316  -3.6251
    -3.6144  -3.6058  -3.5835  -3.5269  -3.5267  -3.4752  -3.3881  -3.3612
    -3.3502  -3.3473  -3.3154  -3.2920  -3.2264  -3.1867  -3.1813  -3.0849
    -3.0461  -3.0265  -2.9943  -2.9660  -2.9115  -2.8627  -2.8324  -2.8078
    -2.7102  -2.6766  -2.6122  -2.6037  -2.5605  -2.2993  -2.2386  -2.1379
    -2.1031  -2.0617  -1.9426  -1.9351  -1.8936  -1.8265  -1.7173  -1.6733
    -1.6642  -1.6452  -1.6124  -1.5947  -1.5723  -1.4580  -1.4127  -1.4026
    -1.3530  -1.3297  -1.1301  -1.0852  -0.9788  -0.9667  -0.9008  -0.8804
    -0.8559  -0.8514  -0.8239  -0.8015  -0.7716  -0.7160  -0.6876  -0.6746
    -0.6700  -0.6356  -0.5992  -0.5882  -0.5325  -0.5107  -0.4852  -0.4442
    -0.4340  -0.4009  -0.3674  -0.3377  -0.3058  -0.2478  -0.1549   0.0041
     0.0060   0.0117   0.0404   0.3407   0.3870   0.4572   0.5015   0.7538
     1.1408   1.1412   1.2708   1.2716   2.3898   3.1847   3.2168   3.2260
     3.2638   3.3351   3.3420   3.4318   3.4498   3.4921   3.5003

          k = 0.0380 0.0000 0.0000 ( 17913 PWs)   bands (ev):

   -56.2361 -56.2303 -56.2021 -56.1943 -56.1442 -56.0729 -56.0726 -56.0444
   -56.0371 -56.0106 -56.0094 -55.9756 -55.7790 -55.5133 -55.2135 -55.1794
   -32.7869 -32.7192 -32.5871 -32.5805 -32.5541 -32.5435 -32.5292 -32.5046
   -32.4788 -32.4766 -32.4414 -32.4335 -32.4115 -32.3854 -32.3755 -32.3711
   -32.3668 -32.3399 -32.3054 -32.3007 -32.2931 -32.2836 -32.2608 -32.2399
   -32.2314 -32.2306 -32.2252 -32.2189 -32.2119 -32.2051 -32.1945 -32.1884
   -32.1848 -32.1749 -32.1625 -32.1505 -32.1218 -32.0338 -31.9681 -31.7926
   -31.7753 -31.7141 -31.6201 -31.5357 -31.5079 -31.4372 -31.3507 -31.2395
   -17.2939 -16.9168 -16.6289 -16.4277 -16.3746 -16.2901 -16.2597 -16.1210
   -15.9513 -15.9391 -15.9275 -15.9202 -15.8860 -15.8541 -15.8170 -15.7845
   -15.7454 -15.6062 -15.5990 -15.5655 -15.5010 -15.4866 -15.4808 -15.4456
   -15.4295 -15.4248 -15.4144 -15.3774 -15.2728 -14.8201 -13.7127 -13.5993
   -12.7775  -8.6704  -5.2992  -4.2853  -4.0694  -3.9539  -3.9154  -3.8630
    -3.7921  -3.7775  -3.7069  -3.6996  -3.6062  -3.4775  -3.4626  -3.3538
    -3.3143  -3.2575  -3.2327  -3.1081  -3.0492  -3.0017  -2.9658  -2.9502
    -2.8674  -2.8410  -2.8127  -2.7540  -2.7313  -2.6841  -2.6255  -2.5750
    -2.5719  -2.5082  -2.4512  -2.4461  -2.4130  -2.2818  -2.2507  -2.2023
    -2.1791  -2.1513  -2.1136  -2.0633  -2.0150  -1.9354  -1.8406  -1.8293
    -1.7917  -1.6883  -1.6702  -1.6476  -1.5992  -1.5243  -1.5187  -1.5008
    -1.4241  -1.3805  -1.2933  -1.2582  -1.1358  -1.0992  -1.0779  -1.0465
    -1.0109  -0.9685  -0.9113  -0.8036  -0.7443  -0.6982  -0.6638  -0.6105
    -0.5852  -0.5307  -0.5011  -0.4800  -0.4507  -0.4178  -0.3971  -0.3876
    -0.3615  -0.3393  -0.3246  -0.1628  -0.0995  -0.0653  -0.0536   0.0538
     0.1330   0.1627   0.1939   0.3890   0.4549   0.7365   0.7611   0.8204
     0.8403   0.9701   1.2683   1.3426   2.4150   2.9410   2.9594   3.2417
     3.2684   3.2810   3.2948   3.3262   3.3531   3.3604   3.4186

          k = 0.0380 0.0419 0.0000 ( 17878 PWs)   bands (ev):

   -56.2311 -56.2250 -56.2071 -56.1996 -56.1420 -56.0750 -56.0678 -56.0420
   -56.0394 -56.0155 -56.0044 -55.9806 -55.7785 -55.5138 -55.2084 -55.1844
   -32.7296 -32.6652 -32.5422 -32.5337 -32.5275 -32.5245 -32.5167 -32.4833
   -32.4602 -32.4576 -32.4508 -32.4274 -32.4171 -32.4120 -32.3969 -32.3809
   -32.3720 -32.3567 -32.3068 -32.2955 -32.2936 -32.2735 -32.2696 -32.2517
   -32.2440 -32.2416 -32.2353 -32.2350 -32.2274 -32.2191 -32.2156 -32.2048
   -32.2004 -32.1814 -32.1729 -32.1695 -32.1612 -32.0330 -31.9652 -31.8121
   -31.7816 -31.7288 -31.5661 -31.5315 -31.5120 -31.4246 -31.3635 -31.2967
   -17.2884 -16.7888 -16.5162 -16.3278 -16.2691 -16.2254 -16.1869 -16.1134
   -16.0548 -15.9927 -15.8916 -15.8818 -15.8504 -15.8410 -15.8219 -15.7315
   -15.7107 -15.6799 -15.6537 -15.6217 -15.5620 -15.5518 -15.5220 -15.4873
   -15.4838 -15.4688 -15.4394 -15.4058 -15.2907 -14.8966 -13.7178 -13.6394
   -12.7832  -8.6709  -5.2969  -4.1088  -3.9713  -3.7969  -3.7562  -3.6901
    -3.6247  -3.6139  -3.5710  -3.5431  -3.5269  -3.3976  -3.3302  -3.2735
    -3.2391  -3.2194  -3.1322  -3.1217  -3.0903  -3.0462  -3.0240  -2.9946
    -2.9688  -2.9481  -2.9401  -2.8883  -2.8611  -2.8498  -2.7801  -2.7243
    -2.6951  -2.6176  -2.5617  -2.5145  -2.4411  -2.3815  -2.3037  -2.2405
    -2.2171  -2.1722  -2.0140  -1.9757  -1.9356  -1.8775  -1.7755  -1.7118
    -1.6815  -1.6494  -1.5812  -1.5646  -1.5192  -1.4906  -1.4490  -1.3738
    -1.3445  -1.3228  -1.2517  -1.2200  -1.1694  -1.1304  -1.1137  -1.0453
    -1.0289  -0.9579  -0.9406  -0.9177  -0.8790  -0.8649  -0.8302  -0.8030
    -0.7279  -0.6862  -0.6478  -0.5723  -0.5601  -0.5390  -0.4692  -0.4469
    -0.3630  -0.3160  -0.2838  -0.1548  -0.1154  -0.0610  -0.0031   0.0653
     0.0967   0.1561   0.1814   0.2097   0.3478   0.4130   0.7057   0.7778
     1.0085   1.0857   1.2562   1.3182   2.4014   3.0848   3.1508   3.1845
     3.2756   3.3040   3.3457   3.4054   3.4405   3.4644   3.4914

          k = 0.0380-0.0839 0.0000 ( 17916 PWs)   bands (ev):

   -56.2195 -56.2187 -56.2132 -56.2115 -56.1398 -56.0773 -56.0593 -56.0505
   -56.0287 -56.0264 -55.9928 -55.9922 -55.7780 -55.5143 -55.1965 -55.1964
   -32.5916 -32.5887 -32.5331 -32.5325 -32.5224 -32.5151 -32.5143 -32.4955
   -32.4378 -32.4356 -32.4255 -32.4229 -32.4022 -32.3719 -32.3668 -32.3659
   -32.3458 -32.3431 -32.3401 -32.3400 -32.3392 -32.3248 -32.3224 -32.2827
   -32.2711 -32.2607 -32.2570 -32.2565 -32.2508 -32.2410 -32.2252 -32.2249
   -32.1985 -32.1963 -32.1840 -32.1837 -32.1234 -32.0322 -31.9633 -31.8490
   -31.7834 -31.7393 -31.5217 -31.5217 -31.4334 -31.4332 -31.3941 -31.3941
   -17.2830 -16.4765 -16.4607 -16.2645 -16.2607 -16.1336 -16.1243 -16.0354
   -16.0108 -15.9949 -15.9912 -15.9346 -15.9271 -15.8146 -15.8080 -15.7093
   -15.6898 -15.6636 -15.6529 -15.6459 -15.6433 -15.6029 -15.5910 -15.5655
   -15.5391 -15.5315 -15.4954 -15.4202 -15.2797 -14.9997 -13.7016 -13.7015
   -12.7890  -8.6727  -5.2917  -3.8683  -3.7245  -3.6894  -3.5510  -3.4858
    -3.4680  -3.4195  -3.4089  -3.3747  -3.3386  -3.3167  -3.3038  -3.2812
    -3.2431  -3.2348  -3.2122  -3.1830  -3.1676  -3.0813  -3.0717  -3.0641
    -3.0405  -3.0112  -2.9565  -2.9465  -2.9240  -2.8794  -2.8605  -2.8265
    -2.7696  -2.7080  -2.6176  -2.3605  -2.3453  -2.3180  -2.2101  -2.1476
    -2.1269  -2.0915  -2.0698  -2.0230  -2.0140  -1.9670  -1.9296  -1.8857
    -1.8664  -1.8313  -1.7170  -1.6882  -1.6569  -1.5013  -1.4383  -1.3809
    -1.3690  -1.2854  -1.2523  -1.1985  -1.1541  -1.1097  -1.0421  -1.0193
    -0.9964  -0.9827  -0.9708  -0.9314  -0.9203  -0.8698  -0.8397  -0.8173
    -0.7888  -0.7807  -0.7677  -0.6686  -0.6459  -0.5898  -0.5010  -0.4073
    -0.3606  -0.3347  -0.2222  -0.1553  -0.1441  -0.1091  -0.0908  -0.0641
    -0.0149   0.1097   0.1387   0.2882   0.3095   0.4364   0.5003   0.7865
     1.1540   1.1546   1.2599   1.2607   2.3888   3.1590   3.1743   3.2533
     3.2749   3.3177   3.3262   3.4765   3.4991   3.5258   3.5294

          k = 0.0380-0.0419 0.0000 ( 17876 PWs)   bands (ev):

   -56.2311 -56.2250 -56.2071 -56.1996 -56.1420 -56.0750 -56.0678 -56.0420
   -56.0394 -56.0155 -56.0044 -55.9806 -55.7785 -55.5138 -55.2084 -55.1844
   -32.7296 -32.6652 -32.5422 -32.5337 -32.5275 -32.5245 -32.5167 -32.4833
   -32.4602 -32.4576 -32.4508 -32.4279 -32.4166 -32.4119 -32.3969 -32.3811
   -32.3720 -32.3567 -32.3068 -32.2954 -32.2933 -32.2735 -32.2696 -32.2517
   -32.2447 -32.2411 -32.2353 -32.2350 -32.2273 -32.2191 -32.2156 -32.2046
   -32.2008 -32.1814 -32.1728 -32.1695 -32.1611 -32.0328 -31.9652 -31.8123
   -31.7814 -31.7288 -31.5661 -31.5315 -31.5120 -31.4246 -31.3635 -31.2967
   -17.2881 -16.7887 -16.5162 -16.3292 -16.2686 -16.2252 -16.1868 -16.1149
   -16.0544 -15.9933 -15.8921 -15.8799 -15.8516 -15.8410 -15.8225 -15.7315
   -15.7087 -15.6809 -15.6519 -15.6214 -15.5613 -15.5475 -15.5276 -15.4868
   -15.4835 -15.4687 -15.4399 -15.4060 -15.2910 -14.8968 -13.7178 -13.6394
   -12.7833  -8.6720  -5.2932  -4.1095  -3.9603  -3.7916  -3.7556  -3.6895
    -3.6272  -3.6051  -3.5790  -3.5492  -3.5232  -3.3974  -3.3313  -3.2703
    -3.2389  -3.2173  -3.1340  -3.1236  -3.1051  -3.0537  -3.0224  -3.0025
    -2.9660  -2.9487  -2.9402  -2.8874  -2.8636  -2.8468  -2.7790  -2.7212
    -2.6959  -2.5978  -2.5551  -2.5167  -2.4392  -2.3754  -2.2996  -2.2400
    -2.2120  -2.1869  -2.0115  -1.9766  -1.9553  -1.8800  -1.7921  -1.6972
    -1.6777  -1.6600  -1.5890  -1.5634  -1.5113  -1.4879  -1.4609  -1.3766
    -1.3524  -1.3153  -1.2544  -1.2112  -1.1668  -1.1506  -1.1233  -1.0498
    -1.0227  -0.9751  -0.9445  -0.9212  -0.8968  -0.8548  -0.8304  -0.7770
    -0.7260  -0.6966  -0.6513  -0.5807  -0.5380  -0.5321  -0.4895  -0.4460
    -0.3611  -0.2998  -0.2579  -0.1662  -0.1066  -0.0441  -0.0155   0.0632
     0.1096   0.1532   0.1925   0.2097   0.3512   0.4136   0.7072   0.7754
     1.0086   1.0858   1.2561   1.3188   2.4027   3.0818   3.1481   3.1804
     3.2756   3.3051   3.3290   3.4055   3.4412   3.4657   3.4953

          k =-0.0760-0.0000 0.0000 ( 17886 PWs)   bands (ev):

   -56.2361 -56.2302 -56.2021 -56.1943 -56.1442 -56.0729 -56.0726 -56.0442
   -56.0371 -56.0106 -56.0095 -55.9756 -55.7789 -55.5133 -55.2134 -55.1794
   -32.7871 -32.7201 -32.5885 -32.5865 -32.5539 -32.5436 -32.5290 -32.5091
   -32.4789 -32.4766 -32.4403 -32.4139 -32.4115 -32.3825 -32.3712 -32.3688
   -32.3625 -32.3399 -32.3219 -32.2934 -32.2834 -32.2630 -32.2592 -32.2524
   -32.2390 -32.2313 -32.2288 -32.2191 -32.2189 -32.2117 -32.1944 -32.1884
   -32.1840 -32.1748 -32.1634 -32.1497 -32.1225 -32.0363 -31.9680 -31.7929
   -31.7756 -31.7140 -31.6197 -31.5390 -31.5066 -31.4371 -31.3506 -31.2396
   -17.2897 -16.8294 -16.5378 -16.3659 -16.3242 -16.2618 -16.2235 -16.0911
   -16.0196 -16.0106 -15.9479 -15.9428 -15.9367 -15.9214 -15.9143 -15.8569
   -15.7962 -15.6013 -15.5774 -15.5732 -15.5491 -15.5152 -15.4834 -15.4366
   -15.4152 -15.4016 -15.3913 -15.3263 -15.2695 -14.8183 -13.7097 -13.5989
   -12.7768  -8.6727  -5.3066  -4.2654  -4.0026  -3.8435  -3.8331  -3.7762
    -3.6360  -3.6256  -3.6083  -3.5224  -3.4967  -3.4834  -3.4669  -3.4575
    -3.3103  -3.2661  -3.1138  -3.0395  -3.0346  -2.9753  -2.9033  -2.8768
    -2.8065  -2.7923  -2.7372  -2.7180  -2.6532  -2.6234  -2.5693  -2.5423
    -2.5256  -2.4971  -2.4680  -2.4654  -2.4202  -2.3929  -2.3682  -2.3308
    -2.2486  -2.0584  -2.0466  -2.0086  -1.8854  -1.8791  -1.8508  -1.8330
    -1.8193  -1.8060  -1.7220  -1.7001  -1.6381  -1.5915  -1.5516  -1.5153
    -1.5069  -1.4563  -1.4198  -1.3921  -1.3269  -1.2707  -1.0981  -1.0542
    -0.9897  -0.9487  -0.9154  -0.8878  -0.8650  -0.7785  -0.7457  -0.7089
    -0.6729  -0.6482  -0.5651  -0.5265  -0.5016  -0.4566  -0.4281  -0.4255
    -0.3934  -0.3331  -0.2770  -0.2261  -0.1938  -0.1162   0.0015   0.0232
     0.0797   0.2405   0.2461   0.3601   0.4565   0.4975   0.7485   0.8302
     0.8416   0.9457   1.1388   1.2869   2.4045   2.9419   2.9475   3.0712
     3.1803   3.2355   3.3166   3.3516   3.3917   3.4239   3.4358

          k =-0.0760 0.0419 0.0000 ( 17914 PWs)   bands (ev):

   -56.2311 -56.2250 -56.2071 -56.1996 -56.1421 -56.0750 -56.0678 -56.0420
   -56.0393 -56.0155 -56.0046 -55.9806 -55.7785 -55.5138 -55.2084 -55.1844
   -32.7299 -32.6662 -32.5423 -32.5352 -32.5349 -32.5245 -32.5170 -32.4833
   -32.4612 -32.4577 -32.4549 -32.4176 -32.4131 -32.4113 -32.3972 -32.3710
   -32.3699 -32.3534 -32.3104 -32.3067 -32.2735 -32.2694 -32.2609 -32.2524
   -32.2448 -32.2436 -32.2412 -32.2346 -32.2269 -32.2225 -32.2177 -32.2154
   -32.2008 -32.1812 -32.1764 -32.1730 -32.1604 -32.0351 -31.9653 -31.8123
   -31.7823 -31.7288 -31.5658 -31.5343 -31.5113 -31.4246 -31.3635 -31.2968
   -17.2857 -16.7105 -16.4248 -16.2781 -16.2234 -16.2181 -16.1326 -16.1155
   -15.9940 -15.9872 -15.9724 -15.9132 -15.8972 -15.8871 -15.8693 -15.8159
   -15.7961 -15.6614 -15.6550 -15.6283 -15.6204 -15.5679 -15.5211 -15.5026
   -15.4954 -15.4564 -15.4174 -15.3968 -15.2874 -14.8952 -13.7157 -13.6397
   -12.7830  -8.6731  -5.2967  -4.0955  -3.9205  -3.7179  -3.5895  -3.5766
    -3.5407  -3.4389  -3.3773  -3.3541  -3.3264  -3.3125  -3.2821  -3.2451
    -3.2329  -3.1933  -3.1822  -3.1051  -3.0497  -3.0264  -3.0152  -2.9605
    -2.9503  -2.9286  -2.8995  -2.8375  -2.8157  -2.7354  -2.7183  -2.7129
    -2.6907  -2.6064  -2.4837  -2.4608  -2.3665  -2.3463  -2.3265  -2.2512
    -2.2345  -2.1871  -2.0221  -1.9634  -1.8881  -1.8485  -1.7981  -1.7827
    -1.7553  -1.7249  -1.6724  -1.6418  -1.5641  -1.5478  -1.5283  -1.4871
    -1.4598  -1.4523  -1.4357  -1.4004  -1.3298  -1.2869  -1.2804  -1.2276
    -1.2005  -1.1102  -1.0474  -0.9973  -0.9911  -0.9507  -0.9323  -0.8680
    -0.8397  -0.7959  -0.7646  -0.6430  -0.5773  -0.5545  -0.5351  -0.4052
    -0.3541  -0.2741  -0.2124  -0.1731  -0.0396  -0.0098   0.0625   0.1158
     0.1441   0.2052   0.2151   0.2842   0.3348   0.3543   0.5532   0.7857
     1.0235   1.0891   1.1797   1.3075   2.3958   3.0663   3.1281   3.1477
     3.2186   3.2340   3.2622   3.3893   3.4139   3.4726   3.5240

          k =-0.0760-0.0839 0.0000 ( 17948 PWs)   bands (ev):

   -56.2195 -56.2187 -56.2132 -56.2115 -56.1398 -56.0773 -56.0594 -56.0505
   -56.0286 -56.0263 -55.9929 -55.9923 -55.7780 -55.5143 -55.1965 -55.1964
   -32.5919 -32.5890 -32.5339 -32.5333 -32.5225 -32.5152 -32.5143 -32.4957
   -32.4382 -32.4364 -32.4312 -32.4282 -32.4026 -32.3673 -32.3571 -32.3528
   -32.3456 -32.3411 -32.3397 -32.3389 -32.3381 -32.3320 -32.3298 -32.2808
   -32.2800 -32.2694 -32.2512 -32.2409 -32.2273 -32.2269 -32.2245 -32.2241
   -32.2078 -32.2070 -32.1986 -32.1962 -32.1231 -32.0341 -31.9633 -31.8490
   -31.7843 -31.7393 -31.5227 -31.5226 -31.4334 -31.4332 -31.3942 -31.3941
   -17.2818 -16.4359 -16.4043 -16.1783 -16.1679 -16.1532 -16.1501 -16.0117
   -15.9447 -15.9416 -15.9351 -15.9026 -15.8744 -15.8364 -15.7921 -15.7706
   -15.7700 -15.7582 -15.7515 -15.6987 -15.6935 -15.6718 -15.6649 -15.5620
   -15.5521 -15.5486 -15.4931 -15.4056 -15.2756 -14.9963 -13.7014 -13.7013
   -12.7891  -8.6736  -5.2875  -3.8617  -3.7268  -3.6897  -3.5379  -3.4074
    -3.4038  -3.3929  -3.3199  -3.1519  -3.1377  -3.1148  -3.0909  -3.0639
    -3.0637  -3.0486  -3.0434  -3.0247  -3.0002  -2.9650  -2.9258  -2.9220
    -2.9013  -2.8914  -2.8653  -2.8515  -2.8209  -2.8090  -2.7938  -2.7755
    -2.7563  -2.7408  -2.5873  -2.4682  -2.4349  -2.3730  -2.3647  -2.3441
    -2.3095  -2.2997  -2.2865  -2.2244  -2.1224  -1.9878  -1.9402  -1.9348
    -1.9023  -1.8213  -1.8096  -1.6636  -1.6497  -1.6215  -1.5839  -1.5313
    -1.5132  -1.4620  -1.4010  -1.3867  -1.3548  -1.3264  -1.2492  -1.1996
    -1.1970  -1.1816  -1.1186  -1.0327  -1.0222  -1.0061  -0.9977  -0.9491
    -0.8709  -0.8569  -0.8262  -0.7405  -0.7231  -0.6272  -0.5422  -0.3528
    -0.2565  -0.2095  -0.1637  -0.1301  -0.0267   0.0183   0.0345   0.0709
     0.0838   0.1313   0.1916   0.2960   0.3027   0.3646   0.4739   0.8117
     1.1722   1.1730   1.2452   1.2453   2.3865   3.1651   3.1734   3.2286
     3.2508   3.4012   3.4069   3.4313   3.4326   3.5539   3.5745

     the Fermi energy is     2.8990 ev

!    total energy              =   -2939.04797197 Ry
     estimated scf accuracy    <       0.00000006 Ry
     smearing contrib. (-TS)   =      -0.02285451 Ry
     internal energy E=F+TS    =   -2939.02511745 Ry

     The total energy is F=E-TS. E is the sum of the following terms:
     one-electron contribution =  -24312.49989703 Ry
     hartree contribution      =   12240.13533073 Ry
     xc contribution           =    -485.13018341 Ry
     ewald contribution        =    9618.46962779 Ry
     electric field correction =       0.00000446 Ry

     convergence has been achieved in  82 iterations

     Forces acting on atoms (cartesian axes, Ry/au):

     atom    1 type  1   force =     0.00025883   -0.00023361    0.09665608
     atom    2 type  1   force =    -0.00016937   -0.00052454   -0.17532661
     atom    3 type  2   force =    -0.00000491   -0.00008056   -0.02502836
     atom    4 type  2   force =     0.00005852   -0.00154567    0.05299680
     atom    5 type  2   force =    -0.01218587   -0.00104149    0.00344032
     atom    6 type  2   force =     0.01406067   -0.00028545    0.00272873
     atom    7 type  1   force =    -0.00094740    0.00047717   -0.01193099
     atom    8 type  1   force =     0.00043564    0.00876093    0.02926250
     atom    9 type  2   force =     0.00051096    0.00030438   -0.00018422
     atom   10 type  2   force =    -0.00090538   -0.00020458   -0.01714661
     atom   11 type  2   force =     0.00037827    0.00017331    0.00032648
     atom   12 type  2   force =    -0.00109187    0.00082192    0.00046121
     atom   13 type  1   force =     0.00146211    0.00082282    0.00013328
     atom   14 type  1   force =    -0.00122184    0.00034921   -0.00021153
     atom   15 type  2   force =    -0.00069623    0.00068237    0.00027522
     atom   16 type  2   force =     0.00031130   -0.00036050   -0.00021913
     atom   17 type  2   force =     0.00039913    0.00012409   -0.00020417
     atom   18 type  2   force =    -0.00054542    0.00014803   -0.00002059
     atom   19 type  1   force =     0.00001662   -0.00051344   -0.00008458
     atom   20 type  1   force =     0.00008534    0.00046228    0.00107918
     atom   21 type  2   force =     0.00007839   -0.00006200    0.10320474
     atom   22 type  2   force =     0.00001881    0.00160351    0.00050959
     atom   23 type  2   force =    -0.07147931   -0.00015720   -0.02776246
     atom   24 type  2   force =     0.07142289    0.00026497   -0.02776526
     atom   25 type  1   force =     0.00007244   -0.00021669    0.09648755
     atom   26 type  1   force =    -0.00012963   -0.00034001   -0.17549929
     atom   27 type  2   force =     0.00006497   -0.00023760   -0.02405795
     atom   28 type  2   force =     0.00011652   -0.00128196    0.05277065
     atom   29 type  2   force =    -0.01229761    0.00002647    0.00300572
     atom   30 type  2   force =     0.01406101    0.00040166    0.00237606
     atom   31 type  1   force =    -0.00094179    0.00315063   -0.01287338
     atom   32 type  1   force =     0.00028434   -0.01001602    0.02994756
     atom   33 type  2   force =     0.00025385   -0.00013559    0.00045662
     atom   34 type  2   force =    -0.00003462   -0.00000296   -0.02442475
     atom   35 type  2   force =    -0.00032649    0.00021882   -0.00030394
     atom   36 type  2   force =    -0.00117577    0.00053550   -0.00009905
     atom   37 type  1   force =     0.00123533   -0.00091053    0.00062151
     atom   38 type  1   force =    -0.00090270   -0.00057323    0.00002519
     atom   39 type  2   force =    -0.00016887   -0.00055192    0.00044045
     atom   40 type  2   force =     0.00008023    0.00054156    0.00009995
     atom   41 type  2   force =    -0.00136482   -0.00001050   -0.00031761
     atom   42 type  2   force =     0.00181257   -0.00026702   -0.00014659
     atom   43 type  1   force =    -0.00040343    0.00028038   -0.00049220
     atom   44 type  1   force =    -0.00009835   -0.00056471    0.00057073
     atom   45 type  2   force =     0.00005378   -0.00008606    0.10319849
     atom   46 type  2   force =    -0.07150545   -0.00016006   -0.02774571
     atom   47 type  2   force =     0.07147685    0.00034011   -0.02778353
     atom   48 type  3   force =     0.00003660   -0.01060479   -0.01559592
     atom   49 type  3   force =    -0.00102581    0.00007026    0.00011922
     atom   50 type  4   force =     0.00136125    0.00938522    0.01207290
     atom   51 type  5   force =     0.00063131    0.00096170    0.00027900
     atom   52 type  5   force =    -0.00048877    0.00076437    0.00116563
     atom   53 type  5   force =    -0.00092679   -0.00070295    0.00051305

     Total force =     0.369201     Total SCF correction =     0.000654
  @ DRIVER MODE: Message from server: STATUS
  @ DRIVER MODE: Message from server: GETFORCE
  @ DRIVER MODE: Returning v,forces,stress,ensemble 

     Writing output data file ./calc.save/
  @ DRIVER MODE: Message from server: EXIT
  @ DRIVE MODE: Exiting  
 
     init_run     :     10.83s CPU     11.12s WALL (       1 calls)
     electrons    :   1204.07s CPU   1223.61s WALL (       1 calls)
     forces       :      2.40s CPU      2.49s WALL (       1 calls)

     Called by init_run:
     wfcinit      :      4.77s CPU      4.86s WALL (       1 calls)
     potinit      :      5.39s CPU      5.47s WALL (       1 calls)
     hinit0       :      0.32s CPU      0.34s WALL (       1 calls)

     Called by electrons:
     c_bands      :   1008.10s CPU   1016.17s WALL (      82 calls)
     sum_band     :    132.20s CPU    136.69s WALL (      82 calls)
     v_of_rho     :     46.97s CPU     49.50s WALL (      83 calls)
     newd         :     19.37s CPU     23.63s WALL (      83 calls)
     mix_rho      :      1.77s CPU      1.89s WALL (      82 calls)
     vdW_kernel   :      4.57s CPU      4.59s WALL (       1 calls)

     Called by c_bands:
     init_us_2    :      8.16s CPU      8.21s WALL (    1660 calls)
     cegterg      :    985.51s CPU    993.15s WALL (     838 calls)

     Called by *egterg:
     cdiaghg      :    157.26s CPU    158.22s WALL (    7600 calls)
     h_psi        :    535.88s CPU    541.10s WALL (    7610 calls)
     s_psi        :     71.01s CPU     71.28s WALL (    7610 calls)
     g_psi        :      1.87s CPU      1.88s WALL (    6762 calls)

     Called by h_psi:
     h_psi:calbec :     68.22s CPU     68.61s WALL (    7610 calls)
     vloc_psi     :    392.35s CPU    396.46s WALL (    7610 calls)
     add_vuspsi   :     71.57s CPU     72.03s WALL (    7610 calls)

     General routines
     calbec       :     91.60s CPU     92.09s WALL (    8470 calls)
     fft          :     24.47s CPU     24.69s WALL (    5229 calls)
     ffts         :      0.16s CPU      0.16s WALL (     165 calls)
     fftw         :    444.76s CPU    449.38s WALL ( 1050548 calls)
     interpolate  :      0.52s CPU      0.53s WALL (      83 calls)
     davcio       :      0.00s CPU      0.70s WALL (      10 calls)
 
     Parallel routines
 
     PWSCF        :  20m17.64s CPU  20m39.34s WALL

 
   This run was terminated on:  12:45:57  10Sep2021            

=------------------------------------------------------------------------------=
   JOB DONE.
=------------------------------------------------------------------------------=
