
     Program PWSCF v.6.7GPU starts on 18Aug2021 at 11:21:44 

     This program is part of the open-source Quantum ESPRESSO suite
     for quantum simulation of materials; please cite
         "P. Giannozzi et al., J. Phys.:Condens. Matter 21 395502 (2009);
         "P. Giannozzi et al., J. Phys.:Condens. Matter 29 465901 (2017);
         "P. Giannozzi et al., J. Chem. Phys. 152 154105 (2020);
          URL http://www.quantum-espresso.org", 
     in publications or presentations arising from this work. More details at
     http://www.quantum-espresso.org/quote

     Parallel version (MPI), running on     6 processors

     MPI processes distributed on     1 nodes
     R & G space division:  proc/nbgrp/npool/nimage =       6
     Reading input from /storage/home/hcoda1/3/ntian30/research/carbon/CH3_vib_side_on/reference/H2O/out_0017/pw.inp
Warning: card &CELL ignored
Warning: card   CELL_DYNAMICS='IPI', ignored
Warning: card / ignored

     Current dimensions of program PWSCF are:
     Max number of different atomic species (ntypx) = 10
     Max number of k-points (npk) =  40000
     Max angular momentum in pseudopotentials (lmaxx) =  3
     Presently no symmetry can be used with electric field

     Message from routine cell_base_init:
     DEPRECATED: use true lattice parameter, not A to a.u. conversion factor

     **************************************************************************
     Initializing libbeef V0.1.2 with the BEEF-vdW functional.
     Citation: Wellendorff et al., PRB 85, 235149 (2012).
     **************************************************************************


     IMPORTANT: XC functional enforced from input :
     Exchange-correlation= BEEF-VDW
                           (   1   4  43  14   2   0   0)
     Any further DFT definition will be discarded
     Please, verify this is what you really want


     Subspace diagonalization in iterative solution of the eigenvalue problem:
     one sub-group per band group will be used
     scalapack distributed-memory algorithm (size of sub-group:  2*  2 procs)

  @ DRIVER MODE: Connecting to 
 qe_1139763_2594176.sched-torque.pace.gatech.edurweyhwvz_scratch
  using UNIX socket
  @ DRIVER MODE: Message from server: STATUS
  @ DRIVER MODE: Message from server: INIT
  @ DRIVER MODE: Receiving replica           0          -1
  @ DRIVER MODE: Receiving encoded integer          25
  @ DRIVER MODE:  SCF:  T  FORCE:  T  STRESS:  F  VC:  F  ENSEMBLE:  F
  @ DRIVER MODE:  SCF:  T  FORCE:  T  STRESS:  F  VC:  F  ENSEMBLE:  F
 
     Parallelization info
     --------------------
     sticks:   dense  smooth     PW     G-vecs:    dense   smooth      PW
     Min        1499     599    161               104261    26372    3723
     Max        1500     600    162               104264    26373    3726
     Sum        8997    3595    969               625573   158237   22343
 
     Using Slab Decomposition
 


     bravais-lattice index     =            0
     lattice parameter (alat)  =       1.8897  a.u.
     unit-cell volume          =    7350.0184 (a.u.)^3
     number of atoms/cell      =            3
     number of atomic types    =            2
     number of electrons       =         8.00
     number of Kohn-Sham states=           14
     kinetic-energy cutoff     =      29.3995  Ry
     charge density cutoff     =     293.9946  Ry
     scf convergence threshold =      7.3E-08
     mixing beta               =       0.0500
     number of iterations used =            8  plain     mixing
     Exchange-correlation= BEEF-VDW
                           (   1   4  43  14   2   0   0)

     celldm(1)=   1.889726  celldm(2)=   0.000000  celldm(3)=   0.000000
     celldm(4)=   0.000000  celldm(5)=   0.000000  celldm(6)=   0.000000

     crystal axes: (cart. coord. in units of alat)
               a(1) = (  10.000000   0.000000   0.000000 )  
               a(2) = (   0.000000  10.763239   0.000000 )  
               a(3) = (   0.000000   0.000000  10.119262 )  

     reciprocal axes: (cart. coord. in units 2 pi/alat)
               b(1) = (  0.100000  0.000000  0.000000 )  
               b(2) = (  0.000000  0.092909  0.000000 )  
               b(3) = (  0.000000  0.000000  0.098821 )  


     PseudoPot. # 1 for O  read from file:
     /storage/coda1/p-amedford6/0/shared/rich_project_chbe-medford/medford-share/data/pseudos_module/espresso/nninc/pbe/van/O.UPF
     MD5 check sum: 78c19812648e8988a0fe644b0f25305e
     Pseudo is Ultrasoft, Zval =  6.0
     Generated by new atomic code, or converted to UPF format
     Using radial grid of  737 points,  4 beta functions with: 
                l(1) =   0
                l(2) =   0
                l(3) =   1
                l(4) =   1
     Q(r) pseudized with  8 coefficients,  rinner =    0.800   0.800   0.800


     PseudoPot. # 2 for H  read from file:
     /storage/coda1/p-amedford6/0/shared/rich_project_chbe-medford/medford-share/data/pseudos_module/espresso/nninc/pbe/van/H.UPF
     MD5 check sum: b5ee9d7bfd3a09ee7748110bda690ff7
     Pseudo is Ultrasoft, Zval =  1.0
     Generated by new atomic code, or converted to UPF format
     Using radial grid of  615 points,  1 beta functions with: 
                l(1) =   0
     Q(r) pseudized with  8 coefficients,  rinner =    0.800

     atomic species   valence    mass     pseudopotential
        O1             6.00    15.99900     O ( 1.00)
        H1             1.00     1.00800     H ( 1.00)

     No symmetry found



   Cartesian axes

     site n.     atom                  positions (alat units)
         1           O1  tau(   1) = (   4.9999358   5.3815299   5.3534389  )
         2           H1  tau(   2) = (   5.0000319   6.1470098   4.7636143  )
         3           H1  tau(   3) = (   5.0000322   4.6163188   4.7536854  )

     number of k points=    10  Fermi-Dirac smearing, width (Ry)=  0.0073
                       cart. coord. in units 2pi/alat
        k(    1) = (   0.0000000   0.0000000   0.0000000), wk =   0.1250000
        k(    2) = (   0.0000000   0.0232272   0.0000000), wk =   0.2500000
        k(    3) = (   0.0000000  -0.0464544   0.0000000), wk =   0.1250000
        k(    4) = (   0.0250000   0.0000000   0.0000000), wk =   0.2500000
        k(    5) = (   0.0250000   0.0232272   0.0000000), wk =   0.2500000
        k(    6) = (   0.0250000  -0.0464544   0.0000000), wk =   0.2500000
        k(    7) = (   0.0250000  -0.0232272   0.0000000), wk =   0.2500000
        k(    8) = (  -0.0500000   0.0000000   0.0000000), wk =   0.1250000
        k(    9) = (  -0.0500000   0.0232272   0.0000000), wk =   0.2500000
        k(   10) = (  -0.0500000  -0.0464544   0.0000000), wk =   0.1250000

     Dense  grid:   625573 G-vectors     FFT dimensions: ( 108, 120, 108)

     Smooth grid:   158237 G-vectors     FFT dimensions: (  72,  72,  72)

     Estimated max dynamical RAM per process >     146.57 MB

     Estimated total dynamical RAM >     879.40 MB
     Cannot read rho : file not found

     Initial potential from superposition of free atoms

     starting charge    7.99998, renormalised to    8.00000

     negative rho (up, down):  4.434E-03 0.000E+00


     %%%%%%%%%%%%%%%%%%%%%%%%%%%%%%%%%%%%%%%%%%%%%%%%%%%%%%%%%%%%%%%%%%%%%%%%
     %                                                                      %
     % You are using vdW-DF, which was implemented by the Thonhauser group. %
     % Please cite the following two papers that made this development      %
     % possible and the two reviews that describe the various versions:     %
     %                                                                      %
     %   T. Thonhauser et al., PRL 115, 136402 (2015).                      %
     %   T. Thonhauser et al., PRB 76, 125112 (2007).                       %
     %   K. Berland et al., Rep. Prog. Phys. 78, 066501 (2015).             %
     %   D.C. Langreth et al., J. Phys.: Condens. Matter 21, 084203 (2009). %
     %                                                                      %
     %                                                                      %
     % If you are calculating the stress with vdW-DF, please also cite:     %
     %                                                                      %
     %   R. Sabatini et al., J. Phys.: Condens. Matter 24, 424209 (2012).   %
     %                                                                      %
     %%%%%%%%%%%%%%%%%%%%%%%%%%%%%%%%%%%%%%%%%%%%%%%%%%%%%%%%%%%%%%%%%%%%%%%%


 
     Adding external electric field

     Computed dipole along edir(3) : 
        Dipole               -0.0001 Ry au,         -0.0001 Debye
        Dipole field         -0.0000 Ry au, 
 
        Potential amp.        0.0000 Ry
        Total length         18.6446 bohr
 
     Starting wfcs are    6 atomic +    8 random wfcs
  @ DRIVER MODE: Message from server: STATUS
  @ DRIVER MODE: Message from server: POSDATA
  @ DRIVER MODE: Reading and sharing cell 
  @ DRIVER MODE: Reading and sharing positions 
  @ DRIVER MODE: Received positions 

     total cpu time spent up to now is       10.0 secs

     Self-consistent Calculation

     iteration #  1     ecut=    29.40 Ry     beta= 0.05
     Davidson diagonalization with overlap
     c_bands:  1 eigenvalues not converged
     c_bands:  1 eigenvalues not converged
     c_bands:  2 eigenvalues not converged
     c_bands:  2 eigenvalues not converged
     ethr =  1.00E-05,  avg # of iterations = 37.8

     negative rho (up, down):  4.074E-03 0.000E+00
 
     Adding external electric field

     Computed dipole along edir(3) : 
        Dipole               -0.0571 Ry au,         -0.1451 Debye
        Dipole field         -0.0001 Ry au, 
 
        Potential amp.        0.0036 Ry
        Total length         18.6446 bohr
 

     total cpu time spent up to now is       18.9 secs

     total energy              =     -34.92336339 Ry
     estimated scf accuracy    <       0.53860070 Ry

     iteration #  2     ecut=    29.40 Ry     beta= 0.05
     Davidson diagonalization with overlap
     ethr =  6.73E-03,  avg # of iterations =  1.0

     negative rho (up, down):  6.590E-03 0.000E+00
 
     Adding external electric field

     Computed dipole along edir(3) : 
        Dipole               -0.4676 Ry au,         -1.1884 Debye
        Dipole field         -0.0008 Ry au, 
 
        Potential amp.        0.0298 Ry
        Total length         18.6446 bohr
 

     total cpu time spent up to now is       21.0 secs

     total energy              =     -34.71224681 Ry
     estimated scf accuracy    <       0.41877861 Ry

     iteration #  3     ecut=    29.40 Ry     beta= 0.05
     Davidson diagonalization with overlap
     ethr =  5.23E-03,  avg # of iterations =  2.0

     negative rho (up, down):  5.790E-03 0.000E+00
 
     Adding external electric field

     Computed dipole along edir(3) : 
        Dipole               -0.4213 Ry au,         -1.0709 Debye
        Dipole field         -0.0007 Ry au, 
 
        Potential amp.        0.0269 Ry
        Total length         18.6446 bohr
 

     total cpu time spent up to now is       23.2 secs

     total energy              =     -34.79982946 Ry
     estimated scf accuracy    <       0.02529727 Ry

     iteration #  4     ecut=    29.40 Ry     beta= 0.05
     Davidson diagonalization with overlap
     ethr =  3.16E-04,  avg # of iterations =  1.1

     negative rho (up, down):  1.416E-02 0.000E+00
 
     Adding external electric field

     Computed dipole along edir(3) : 
        Dipole               -0.6891 Ry au,         -1.7515 Debye
        Dipole field         -0.0012 Ry au, 
 
        Potential amp.        0.0439 Ry
        Total length         18.6446 bohr
 

     total cpu time spent up to now is       25.2 secs

     total energy              =     -34.79879836 Ry
     estimated scf accuracy    <       0.02728265 Ry

     iteration #  5     ecut=    29.40 Ry     beta= 0.05
     Davidson diagonalization with overlap
     ethr =  3.16E-04,  avg # of iterations =  2.0

     negative rho (up, down):  1.320E-02 0.000E+00
 
     Adding external electric field

     Computed dipole along edir(3) : 
        Dipole               -0.7249 Ry au,         -1.8424 Debye
        Dipole field         -0.0012 Ry au, 
 
        Potential amp.        0.0462 Ry
        Total length         18.6446 bohr
 

     total cpu time spent up to now is       27.1 secs

     total energy              =     -34.79099963 Ry
     estimated scf accuracy    <       0.01815387 Ry

     iteration #  6     ecut=    29.40 Ry     beta= 0.05
     Davidson diagonalization with overlap
     ethr =  2.27E-04,  avg # of iterations =  2.0

     negative rho (up, down):  1.264E-02 0.000E+00
 
     Adding external electric field

     Computed dipole along edir(3) : 
        Dipole               -0.7313 Ry au,         -1.8587 Debye
        Dipole field         -0.0013 Ry au, 
 
        Potential amp.        0.0466 Ry
        Total length         18.6446 bohr
 

     total cpu time spent up to now is       29.1 secs

     total energy              =     -34.79523817 Ry
     estimated scf accuracy    <       0.00018202 Ry

     iteration #  7     ecut=    29.40 Ry     beta= 0.05
     Davidson diagonalization with overlap
     c_bands:  1 eigenvalues not converged
     c_bands:  1 eigenvalues not converged
     c_bands:  2 eigenvalues not converged
     ethr =  2.28E-06,  avg # of iterations = 14.4

     negative rho (up, down):  1.194E-02 0.000E+00
 
     Adding external electric field

     Computed dipole along edir(3) : 
        Dipole               -0.7320 Ry au,         -1.8605 Debye
        Dipole field         -0.0013 Ry au, 
 
        Potential amp.        0.0467 Ry
        Total length         18.6446 bohr
 

     total cpu time spent up to now is       32.9 secs

     total energy              =     -34.79554643 Ry
     estimated scf accuracy    <       0.00079766 Ry

     iteration #  8     ecut=    29.40 Ry     beta= 0.05
     Davidson diagonalization with overlap
     ethr =  2.28E-06,  avg # of iterations =  2.0

     negative rho (up, down):  1.135E-02 0.000E+00
 
     Adding external electric field

     Computed dipole along edir(3) : 
        Dipole               -0.7103 Ry au,         -1.8053 Debye
        Dipole field         -0.0012 Ry au, 
 
        Potential amp.        0.0453 Ry
        Total length         18.6446 bohr
 

     total cpu time spent up to now is       34.8 secs

     total energy              =     -34.79531539 Ry
     estimated scf accuracy    <       0.00160042 Ry

     iteration #  9     ecut=    29.40 Ry     beta= 0.05
     Davidson diagonalization with overlap
     ethr =  2.28E-06,  avg # of iterations =  2.0

     negative rho (up, down):  1.071E-02 0.000E+00
 
     Adding external electric field

     Computed dipole along edir(3) : 
        Dipole               -0.7077 Ry au,         -1.7987 Debye
        Dipole field         -0.0012 Ry au, 
 
        Potential amp.        0.0451 Ry
        Total length         18.6446 bohr
 

     total cpu time spent up to now is       36.8 secs

     total energy              =     -34.79513856 Ry
     estimated scf accuracy    <       0.00107632 Ry

     iteration # 10     ecut=    29.40 Ry     beta= 0.05
     Davidson diagonalization with overlap
     ethr =  2.28E-06,  avg # of iterations =  2.0

     negative rho (up, down):  1.019E-02 0.000E+00
 
     Adding external electric field

     Computed dipole along edir(3) : 
        Dipole               -0.7099 Ry au,         -1.8043 Debye
        Dipole field         -0.0012 Ry au, 
 
        Potential amp.        0.0453 Ry
        Total length         18.6446 bohr
 

     total cpu time spent up to now is       38.8 secs

     total energy              =     -34.79515046 Ry
     estimated scf accuracy    <       0.00047984 Ry

     iteration # 11     ecut=    29.40 Ry     beta= 0.05
     Davidson diagonalization with overlap
     ethr =  2.28E-06,  avg # of iterations =  1.0

     negative rho (up, down):  9.691E-03 0.000E+00
 
     Adding external electric field

     Computed dipole along edir(3) : 
        Dipole               -0.7098 Ry au,         -1.8041 Debye
        Dipole field         -0.0012 Ry au, 
 
        Potential amp.        0.0453 Ry
        Total length         18.6446 bohr
 

     total cpu time spent up to now is       40.7 secs

     total energy              =     -34.79512651 Ry
     estimated scf accuracy    <       0.00045535 Ry

     iteration # 12     ecut=    29.40 Ry     beta= 0.05
     Davidson diagonalization with overlap
     ethr =  2.28E-06,  avg # of iterations =  1.0

     negative rho (up, down):  9.215E-03 0.000E+00
 
     Adding external electric field

     Computed dipole along edir(3) : 
        Dipole               -0.7098 Ry au,         -1.8041 Debye
        Dipole field         -0.0012 Ry au, 
 
        Potential amp.        0.0453 Ry
        Total length         18.6446 bohr
 

     total cpu time spent up to now is       42.5 secs

     total energy              =     -34.79512109 Ry
     estimated scf accuracy    <       0.00038576 Ry

     iteration # 13     ecut=    29.40 Ry     beta= 0.05
     Davidson diagonalization with overlap
     ethr =  2.28E-06,  avg # of iterations =  1.0

     negative rho (up, down):  8.801E-03 0.000E+00
 
     Adding external electric field

     Computed dipole along edir(3) : 
        Dipole               -0.7070 Ry au,         -1.7970 Debye
        Dipole field         -0.0012 Ry au, 
 
        Potential amp.        0.0451 Ry
        Total length         18.6446 bohr
 

     total cpu time spent up to now is       44.4 secs

     total energy              =     -34.79503062 Ry
     estimated scf accuracy    <       0.00038836 Ry

     iteration # 14     ecut=    29.40 Ry     beta= 0.05
     Davidson diagonalization with overlap
     ethr =  2.28E-06,  avg # of iterations =  1.2

     negative rho (up, down):  8.404E-03 0.000E+00
 
     Adding external electric field

     Computed dipole along edir(3) : 
        Dipole               -0.7061 Ry au,         -1.7947 Debye
        Dipole field         -0.0012 Ry au, 
 
        Potential amp.        0.0450 Ry
        Total length         18.6446 bohr
 

     total cpu time spent up to now is       46.3 secs

     total energy              =     -34.79501268 Ry
     estimated scf accuracy    <       0.00013808 Ry

     iteration # 15     ecut=    29.40 Ry     beta= 0.05
     Davidson diagonalization with overlap
     ethr =  1.73E-06,  avg # of iterations =  1.3

     negative rho (up, down):  8.051E-03 0.000E+00
 
     Adding external electric field

     Computed dipole along edir(3) : 
        Dipole               -0.7039 Ry au,         -1.7890 Debye
        Dipole field         -0.0012 Ry au, 
 
        Potential amp.        0.0449 Ry
        Total length         18.6446 bohr
 

     total cpu time spent up to now is       48.2 secs

     total energy              =     -34.79494803 Ry
     estimated scf accuracy    <       0.00009468 Ry

     iteration # 16     ecut=    29.40 Ry     beta= 0.05
     Davidson diagonalization with overlap
     ethr =  1.18E-06,  avg # of iterations =  2.0

     negative rho (up, down):  7.705E-03 0.000E+00
 
     Adding external electric field

     Computed dipole along edir(3) : 
        Dipole               -0.7039 Ry au,         -1.7892 Debye
        Dipole field         -0.0012 Ry au, 
 
        Potential amp.        0.0449 Ry
        Total length         18.6446 bohr
 

     total cpu time spent up to now is       50.2 secs

     total energy              =     -34.79495244 Ry
     estimated scf accuracy    <       0.00000149 Ry

     iteration # 17     ecut=    29.40 Ry     beta= 0.05
     Davidson diagonalization with overlap
     ethr =  1.87E-08,  avg # of iterations =  3.5

     negative rho (up, down):  7.398E-03 0.000E+00
 
     Adding external electric field

     Computed dipole along edir(3) : 
        Dipole               -0.7049 Ry au,         -1.7917 Debye
        Dipole field         -0.0012 Ry au, 
 
        Potential amp.        0.0449 Ry
        Total length         18.6446 bohr
 

     total cpu time spent up to now is       52.2 secs

     total energy              =     -34.79493838 Ry
     estimated scf accuracy    <       0.00000485 Ry

     iteration # 18     ecut=    29.40 Ry     beta= 0.05
     Davidson diagonalization with overlap
     ethr =  1.87E-08,  avg # of iterations =  3.0

     negative rho (up, down):  7.112E-03 0.000E+00
 
     Adding external electric field

     Computed dipole along edir(3) : 
        Dipole               -0.7045 Ry au,         -1.7906 Debye
        Dipole field         -0.0012 Ry au, 
 
        Potential amp.        0.0449 Ry
        Total length         18.6446 bohr
 

     total cpu time spent up to now is       54.3 secs

     total energy              =     -34.79492931 Ry
     estimated scf accuracy    <       0.00000243 Ry

     iteration # 19     ecut=    29.40 Ry     beta= 0.05
     Davidson diagonalization with overlap
     ethr =  1.87E-08,  avg # of iterations =  2.0

     negative rho (up, down):  6.840E-03 0.000E+00
 
     Adding external electric field

     Computed dipole along edir(3) : 
        Dipole               -0.7040 Ry au,         -1.7894 Debye
        Dipole field         -0.0012 Ry au, 
 
        Potential amp.        0.0449 Ry
        Total length         18.6446 bohr
 

     total cpu time spent up to now is       56.2 secs

     total energy              =     -34.79492166 Ry
     estimated scf accuracy    <       0.00000093 Ry

     iteration # 20     ecut=    29.40 Ry     beta= 0.05
     Davidson diagonalization with overlap
     ethr =  1.16E-08,  avg # of iterations =  2.0

     negative rho (up, down):  6.602E-03 0.000E+00
 
     Adding external electric field

     Computed dipole along edir(3) : 
        Dipole               -0.7037 Ry au,         -1.7886 Debye
        Dipole field         -0.0012 Ry au, 
 
        Potential amp.        0.0449 Ry
        Total length         18.6446 bohr
 

     total cpu time spent up to now is       58.2 secs

     total energy              =     -34.79491615 Ry
     estimated scf accuracy    <       0.00000273 Ry

     iteration # 21     ecut=    29.40 Ry     beta= 0.05
     Davidson diagonalization with overlap
     ethr =  1.16E-08,  avg # of iterations =  2.0

     negative rho (up, down):  6.379E-03 0.000E+00
 
     Adding external electric field

     Computed dipole along edir(3) : 
        Dipole               -0.7033 Ry au,         -1.7877 Debye
        Dipole field         -0.0012 Ry au, 
 
        Potential amp.        0.0448 Ry
        Total length         18.6446 bohr
 

     total cpu time spent up to now is       60.1 secs

     total energy              =     -34.79491208 Ry
     estimated scf accuracy    <       0.00000654 Ry

     iteration # 22     ecut=    29.40 Ry     beta= 0.05
     Davidson diagonalization with overlap
     ethr =  1.16E-08,  avg # of iterations =  2.0

     negative rho (up, down):  6.182E-03 0.000E+00
 
     Adding external electric field

     Computed dipole along edir(3) : 
        Dipole               -0.7034 Ry au,         -1.7879 Debye
        Dipole field         -0.0012 Ry au, 
 
        Potential amp.        0.0448 Ry
        Total length         18.6446 bohr
 

     total cpu time spent up to now is       62.1 secs

     total energy              =     -34.79490737 Ry
     estimated scf accuracy    <       0.00001011 Ry

     iteration # 23     ecut=    29.40 Ry     beta= 0.05
     Davidson diagonalization with overlap
     ethr =  1.16E-08,  avg # of iterations =  1.0

     negative rho (up, down):  6.024E-03 0.000E+00
 
     Adding external electric field

     Computed dipole along edir(3) : 
        Dipole               -0.7023 Ry au,         -1.7851 Debye
        Dipole field         -0.0012 Ry au, 
 
        Potential amp.        0.0448 Ry
        Total length         18.6446 bohr
 

     total cpu time spent up to now is       63.9 secs

     total energy              =     -34.79491260 Ry
     estimated scf accuracy    <       0.00000853 Ry

     iteration # 24     ecut=    29.40 Ry     beta= 0.05
     Davidson diagonalization with overlap
     ethr =  1.16E-08,  avg # of iterations =  4.0

     negative rho (up, down):  5.873E-03 0.000E+00
 
     Adding external electric field

     Computed dipole along edir(3) : 
        Dipole               -0.7019 Ry au,         -1.7841 Debye
        Dipole field         -0.0012 Ry au, 
 
        Potential amp.        0.0447 Ry
        Total length         18.6446 bohr
 

     total cpu time spent up to now is       66.0 secs

     total energy              =     -34.79491555 Ry
     estimated scf accuracy    <       0.00004781 Ry

     iteration # 25     ecut=    29.40 Ry     beta= 0.05
     Davidson diagonalization with overlap
     ethr =  1.16E-08,  avg # of iterations =  1.1

     negative rho (up, down):  5.726E-03 0.000E+00
 
     Adding external electric field

     Computed dipole along edir(3) : 
        Dipole               -0.7036 Ry au,         -1.7884 Debye
        Dipole field         -0.0012 Ry au, 
 
        Potential amp.        0.0449 Ry
        Total length         18.6446 bohr
 

     total cpu time spent up to now is       67.9 secs

     total energy              =     -34.79490102 Ry
     estimated scf accuracy    <       0.00005511 Ry

     iteration # 26     ecut=    29.40 Ry     beta= 0.05
     Davidson diagonalization with overlap
     ethr =  1.16E-08,  avg # of iterations =  3.1

     negative rho (up, down):  5.587E-03 0.000E+00
 
     Adding external electric field

     Computed dipole along edir(3) : 
        Dipole               -0.7042 Ry au,         -1.7898 Debye
        Dipole field         -0.0012 Ry au, 
 
        Potential amp.        0.0449 Ry
        Total length         18.6446 bohr
 

     total cpu time spent up to now is       69.9 secs

     total energy              =     -34.79489824 Ry
     estimated scf accuracy    <       0.00001869 Ry

     iteration # 27     ecut=    29.40 Ry     beta= 0.05
     Davidson diagonalization with overlap
     ethr =  1.16E-08,  avg # of iterations =  2.0

     negative rho (up, down):  5.479E-03 0.000E+00
 
     Adding external electric field

     Computed dipole along edir(3) : 
        Dipole               -0.7060 Ry au,         -1.7945 Debye
        Dipole field         -0.0012 Ry au, 
 
        Potential amp.        0.0450 Ry
        Total length         18.6446 bohr
 

     total cpu time spent up to now is       71.9 secs

     total energy              =     -34.79489278 Ry
     estimated scf accuracy    <       0.00001246 Ry

     iteration # 28     ecut=    29.40 Ry     beta= 0.05
     Davidson diagonalization with overlap
     ethr =  1.16E-08,  avg # of iterations =  3.0

     negative rho (up, down):  5.396E-03 0.000E+00
 
     Adding external electric field

     Computed dipole along edir(3) : 
        Dipole               -0.7056 Ry au,         -1.7934 Debye
        Dipole field         -0.0012 Ry au, 
 
        Potential amp.        0.0450 Ry
        Total length         18.6446 bohr
 

     total cpu time spent up to now is       73.9 secs

     total energy              =     -34.79489289 Ry
     estimated scf accuracy    <       0.00000060 Ry

     iteration # 29     ecut=    29.40 Ry     beta= 0.05
     Davidson diagonalization with overlap
     ethr =  7.48E-09,  avg # of iterations =  1.0

     negative rho (up, down):  5.318E-03 0.000E+00
 
     Adding external electric field

     Computed dipole along edir(3) : 
        Dipole               -0.7059 Ry au,         -1.7941 Debye
        Dipole field         -0.0012 Ry au, 
 
        Potential amp.        0.0450 Ry
        Total length         18.6446 bohr
 

     total cpu time spent up to now is       75.8 secs

     total energy              =     -34.79489014 Ry
     estimated scf accuracy    <       0.00000024 Ry

     iteration # 30     ecut=    29.40 Ry     beta= 0.05
     Davidson diagonalization with overlap
     ethr =  2.95E-09,  avg # of iterations =  2.0

     negative rho (up, down):  5.728E-03 0.000E+00
 
     Adding external electric field

     Computed dipole along edir(3) : 
        Dipole               -0.7059 Ry au,         -1.7943 Debye
        Dipole field         -0.0012 Ry au, 
 
        Potential amp.        0.0450 Ry
        Total length         18.6446 bohr
 

     total cpu time spent up to now is       77.7 secs

     End of self-consistent calculation

          k = 0.0000 0.0000 0.0000 ( 19779 PWs)   bands (ev):

   -25.6282 -13.3820  -9.5320  -7.4748  -1.4717  -0.0226   0.1567   0.6330
     0.6761   0.7340   0.9449   1.4725   1.7244   1.9451

          k = 0.0000 0.0232 0.0000 ( 19809 PWs)   bands (ev):

   -25.6282 -13.3821  -9.5321  -7.4748  -1.4444  -0.2736   0.2955   0.7367
     0.7411   0.8709   1.0238   1.3132   1.4317   1.4452

          k = 0.0000-0.0465 0.0000 ( 19792 PWs)   bands (ev):

   -25.6282 -13.3820  -9.5320  -7.4748  -1.4136  -0.4257   0.4142   0.7503
     0.8528   0.8772   1.1387   1.1835   1.2095   1.3103

          k = 0.0250 0.0000 0.0000 ( 19791 PWs)   bands (ev):

   -25.6281 -13.3821  -9.5320  -7.4748  -1.4451  -0.1069   0.1982   0.3960
     0.7232   0.9221   1.2659   1.2798   1.4674   1.5714

          k = 0.0250 0.0232 0.0000 ( 19793 PWs)   bands (ev):

   -25.6281 -13.3821  -9.5320  -7.4748  -1.4199  -0.2172   0.0857   0.6713
     0.7246   0.8211   1.1552   1.4397   1.5005   1.6164

          k = 0.0250-0.0465 0.0000 ( 19794 PWs)   bands (ev):

   -25.6281 -13.3821  -9.5320  -7.4748  -1.3916  -0.3516   0.1888   0.4574
     0.8693   0.9833   1.0448   1.2256   1.6755   1.7071

          k = 0.0250-0.0232 0.0000 ( 19793 PWs)   bands (ev):

   -25.6281 -13.3821  -9.5320  -7.4748  -1.4199  -0.2172   0.0857   0.6713
     0.7246   0.8211   1.1552   1.4398   1.5005   1.6174

          k =-0.0500 0.0000 0.0000 ( 19852 PWs)   bands (ev):

   -25.6282 -13.3822  -9.5321  -7.4749  -1.4158  -0.2179   0.2490   0.3956
     0.8524   1.0160   1.0885   1.1182   1.2638   1.3648

          k =-0.0500 0.0232 0.0000 ( 19824 PWs)   bands (ev):

   -25.6282 -13.3821  -9.5321  -7.4748  -1.3930  -0.1409  -0.0722   0.5135
     0.7304   0.9356   1.2400   1.3207   1.4034   1.6583

          k =-0.0500-0.0465 0.0000 ( 19740 PWs)   bands (ev):

   -25.6281 -13.3819  -9.5319  -7.4747  -1.3679  -0.2289   0.0337   0.1813
     0.9626   1.0925   1.0976   1.4019   1.5077   1.5829

     the Fermi energy is    -4.4482 ev

!    total energy              =     -34.79487095 Ry
     estimated scf accuracy    <          9.0E-09 Ry
     smearing contrib. (-TS)   =      -0.00000000 Ry
     internal energy E=F+TS    =     -34.79487095 Ry

     The total energy is F=E-TS. E is the sum of the following terms:
     one-electron contribution =     -64.07207205 Ry
     hartree contribution      =      33.59179411 Ry
     xc contribution           =      -8.80947394 Ry
     ewald contribution        =       4.49402889 Ry
     electric field correction =       0.00085204 Ry

     convergence has been achieved in  30 iterations

     Forces acting on atoms (cartesian axes, Ry/au):

     atom    1 type  1   force =    -0.00000365   -0.00926776   -0.00768843
     atom    2 type  2   force =     0.00000245    0.00162468    0.00023070
     atom    3 type  2   force =     0.00000120    0.00764308    0.00745774

     Total force =     0.016178     Total SCF correction =     0.000179
  @ DRIVER MODE: Message from server: STATUS
  @ DRIVER MODE: Message from server: GETFORCE
  @ DRIVER MODE: Returning v,forces,stress,ensemble 

     Writing output data file ./calc.save/
  @ DRIVER MODE: Message from server: EXIT
  @ DRIVE MODE: Exiting  
 
     init_run     :      9.78s CPU      9.94s WALL (       1 calls)
     electrons    :     64.80s CPU     67.69s WALL (       1 calls)
     forces       :      0.32s CPU      0.35s WALL (       1 calls)

     Called by init_run:
     wfcinit      :      0.28s CPU      0.29s WALL (       1 calls)
     potinit      :      9.09s CPU      9.20s WALL (       1 calls)
     hinit0       :      0.16s CPU      0.16s WALL (       1 calls)

     Called by electrons:
     c_bands      :     26.11s CPU     26.44s WALL (      30 calls)
     sum_band     :      6.48s CPU      6.97s WALL (      30 calls)
     v_of_rho     :     37.51s CPU     39.19s WALL (      31 calls)
     newd         :      1.96s CPU      2.43s WALL (      31 calls)
     mix_rho      :      1.22s CPU      1.23s WALL (      30 calls)
     vdW_kernel   :      7.79s CPU      7.82s WALL (       1 calls)

     Called by c_bands:
     init_us_2    :      0.27s CPU      0.29s WALL (     620 calls)
     cegterg      :     25.75s CPU     25.99s WALL (     310 calls)

     Called by *egterg:
     cdiaghg      :      1.01s CPU      1.02s WALL (    1355 calls)
     h_psi        :     22.03s CPU     22.23s WALL (    1375 calls)
     s_psi        :      0.12s CPU      0.12s WALL (    1375 calls)
     g_psi        :      0.11s CPU      0.11s WALL (    1055 calls)

     Called by h_psi:
     h_psi:calbec :      0.36s CPU      0.36s WALL (    1375 calls)
     vloc_psi     :     21.38s CPU     21.57s WALL (    1375 calls)
     add_vuspsi   :      0.15s CPU      0.16s WALL (    1375 calls)

     General routines
     calbec       :      0.45s CPU      0.46s WALL (    1715 calls)
     fft          :     18.10s CPU     18.27s WALL (    1953 calls)
     ffts         :      0.10s CPU      0.10s WALL (      61 calls)
     fftw         :     22.71s CPU     22.91s WALL (   30534 calls)
     interpolate  :      0.36s CPU      0.36s WALL (      31 calls)
     davcio       :      0.00s CPU      0.01s WALL (      10 calls)
 
     Parallel routines
 
     PWSCF        :   1m14.99s CPU   1m18.22s WALL

 
   This run was terminated on:  11:23: 2  18Aug2021            

=------------------------------------------------------------------------------=
   JOB DONE.
=------------------------------------------------------------------------------=
