
     Program PWSCF v.6.7GPU starts on 15Sep2021 at 22:25:41 

     This program is part of the open-source Quantum ESPRESSO suite
     for quantum simulation of materials; please cite
         "P. Giannozzi et al., J. Phys.:Condens. Matter 21 395502 (2009);
         "P. Giannozzi et al., J. Phys.:Condens. Matter 29 465901 (2017);
         "P. Giannozzi et al., J. Chem. Phys. 152 154105 (2020);
          URL http://www.quantum-espresso.org", 
     in publications or presentations arising from this work. More details at
     http://www.quantum-espresso.org/quote

     Parallel version (MPI), running on    10 processors

     MPI processes distributed on     1 nodes
     R & G space division:  proc/nbgrp/npool/nimage =      10
     Reading input from /storage/home/hcoda1/3/ntian30/research/carbon/CxH_vib/H2O_calc/ads_slab/CHH2O_a/out_0029/pw.inp
Warning: card &CELL ignored
Warning: card   CELL_DYNAMICS='IPI', ignored
Warning: card / ignored

     Current dimensions of program PWSCF are:
     Max number of different atomic species (ntypx) = 10
     Max number of k-points (npk) =  40000
     Max angular momentum in pseudopotentials (lmaxx) =  3
     Presently no symmetry can be used with electric field

     Message from routine cell_base_init:
     DEPRECATED: use true lattice parameter, not A to a.u. conversion factor

     **************************************************************************
     Initializing libbeef V0.1.2 with the BEEF-vdW functional.
     Citation: Wellendorff et al., PRB 85, 235149 (2012).
     **************************************************************************


     IMPORTANT: XC functional enforced from input :
     Exchange-correlation= BEEF-VDW
                           (   1   4  43  14   2   0   0)
     Any further DFT definition will be discarded
     Please, verify this is what you really want


     Subspace diagonalization in iterative solution of the eigenvalue problem:
     one sub-group per band group will be used
     scalapack distributed-memory algorithm (size of sub-group:  3*  3 procs)

  @ DRIVER MODE: Connecting to 
 qe_1139763_2852624.sched-torque.pace.gatech.edubbmh7ls6_scratch
  using UNIX socket
  @ DRIVER MODE: Message from server: STATUS
  @ DRIVER MODE: Message from server: INIT
  @ DRIVER MODE: Receiving replica           0          -1
  @ DRIVER MODE: Receiving encoded integer          25
  @ DRIVER MODE:  SCF:  T  FORCE:  T  STRESS:  F  VC:  F  ENSEMBLE:  F
  @ DRIVER MODE:  SCF:  T  FORCE:  T  STRESS:  F  VC:  F  ENSEMBLE:  F
 
     Parallelization info
     --------------------
     sticks:   dense  smooth     PW     G-vecs:    dense   smooth      PW
     Min         327     131     37                56683    14340    2191
     Max         328     133     38                56694    14346    2206
     Sum        3275    1317    379               566857   143421   21985
 
     Using Slab Decomposition
 


     bravais-lattice index     =            0
     lattice parameter (alat)  =       1.8897  a.u.
     unit-cell volume          =    6658.9804 (a.u.)^3
     number of atoms/cell      =           52
     number of atomic types    =            4
     number of electrons       =       391.00
     number of Kohn-Sham states=          205
     kinetic-energy cutoff     =      29.3995  Ry
     charge density cutoff     =     293.9946  Ry
     scf convergence threshold =      7.3E-08
     mixing beta               =       0.0500
     number of iterations used =            8  plain     mixing
     Exchange-correlation= BEEF-VDW
                           (   1   4  43  14   2   0   0)

     celldm(1)=   1.889726  celldm(2)=   0.000000  celldm(3)=   0.000000
     celldm(4)=   0.000000  celldm(5)=   0.000000  celldm(6)=   0.000000

     crystal axes: (cart. coord. in units of alat)
               a(1) = (   6.579727   0.000000   0.000000 )  
               a(2) = (  -0.000775   5.961596   0.000000 )  
               a(3) = (   0.000000   0.000000  25.155947 )  

     reciprocal axes: (cart. coord. in units 2 pi/alat)
               b(1) = (  0.151982  0.000020  0.000000 )  
               b(2) = (  0.000000  0.167740  0.000000 )  
               b(3) = (  0.000000  0.000000  0.039752 )  


     PseudoPot. # 1 for Ti read from file:
     /storage/coda1/p-amedford6/0/shared/rich_project_chbe-medford/medford-share/data/pseudos_module/espresso/nninc/pbe/van/Ti.UPF
     MD5 check sum: 8e4df49b7f0d34bbd5052bf3f5ea0213
     Pseudo is Ultrasoft, Zval = 12.0
     Generated by new atomic code, or converted to UPF format
     Using radial grid of  851 points,  6 beta functions with: 
                l(1) =   0
                l(2) =   0
                l(3) =   1
                l(4) =   1
                l(5) =   2
                l(6) =   2
     Q(r) pseudized with  8 coefficients,  rinner =    1.000   1.000   1.000
                                                       1.000   1.000

     PseudoPot. # 2 for O  read from file:
     /storage/coda1/p-amedford6/0/shared/rich_project_chbe-medford/medford-share/data/pseudos_module/espresso/nninc/pbe/van/O.UPF
     MD5 check sum: 78c19812648e8988a0fe644b0f25305e
     Pseudo is Ultrasoft, Zval =  6.0
     Generated by new atomic code, or converted to UPF format
     Using radial grid of  737 points,  4 beta functions with: 
                l(1) =   0
                l(2) =   0
                l(3) =   1
                l(4) =   1
     Q(r) pseudized with  8 coefficients,  rinner =    0.800   0.800   0.800


     PseudoPot. # 3 for C  read from file:
     /storage/coda1/p-amedford6/0/shared/rich_project_chbe-medford/medford-share/data/pseudos_module/espresso/nninc/pbe/van/C.UPF
     MD5 check sum: 1a69bf6b8db32088f5b2163dbdb77a27
     Pseudo is Ultrasoft, Zval =  4.0
     Generated by new atomic code, or converted to UPF format
     Using radial grid of  721 points,  4 beta functions with: 
                l(1) =   0
                l(2) =   0
                l(3) =   1
                l(4) =   1
     Q(r) pseudized with  8 coefficients,  rinner =    0.800   0.800   0.800


     PseudoPot. # 4 for H  read from file:
     /storage/coda1/p-amedford6/0/shared/rich_project_chbe-medford/medford-share/data/pseudos_module/espresso/nninc/pbe/van/H.UPF
     MD5 check sum: b5ee9d7bfd3a09ee7748110bda690ff7
     Pseudo is Ultrasoft, Zval =  1.0
     Generated by new atomic code, or converted to UPF format
     Using radial grid of  615 points,  1 beta functions with: 
                l(1) =   0
     Q(r) pseudized with  8 coefficients,  rinner =    0.800

     atomic species   valence    mass     pseudopotential
        Ti1           12.00    47.86700     Ti( 1.00)
        O1             6.00    15.99900     O ( 1.00)
        C1             4.00    12.01100     C ( 1.00)
        H1             1.00     1.00800     H ( 1.00)

     No symmetry found



   Cartesian axes

     site n.     atom                  positions (alat units)
         1           Ti1 tau(   1) = (   0.0004258   2.9801865   6.0000000  )
         2           Ti1 tau(   2) = (   3.2906075   1.4906267   6.0002472  )
         3           O1  tau(   3) = (   0.0006271   0.0005054   7.9858123  )
         4           O1  tau(   4) = (   3.2906025   0.0005020   7.3038282  )
         5           O1  tau(   5) = (   4.5942328   1.4918067   9.2879030  )
         6           O1  tau(   6) = (   1.9868534   1.4903216   9.2879459  )
         7           Ti1 tau(   7) = (   3.2871774   2.8648350   9.1721854  )
         8           Ti1 tau(   8) = (  -0.0000353   1.4301884   9.3769680  )
         9           O1  tau(   9) = (   3.2813214   0.0053726  11.3480220  )
        10           O1  tau(  10) = (  -0.0004909   5.9494466  10.5591019  )
        11           O1  tau(  11) = (   1.2709337   1.5062281  12.6398922  )
        12           O1  tau(  12) = (   5.2659652   1.5004022  12.6256763  )
        13           Ti1 tau(  13) = (   0.0747037   2.9811850  12.8215060  )
        14           Ti1 tau(  14) = (   3.3904977   1.4744036  12.5039750  )
        15           O1  tau(  15) = (   6.5763451   5.9564350  14.6046450  )
        16           O1  tau(  16) = (   3.2806839   0.0238217  13.9603601  )
        17           O1  tau(  17) = (   4.5226094   1.5694261  16.0518702  )
        18           O1  tau(  18) = (   2.0202940   1.5641231  16.0352509  )
        19           Ti1 tau(  19) = (   3.2640091   3.0260151  15.6942499  )
        20           Ti1 tau(  20) = (   6.5358820   1.5903963  16.1090211  )
        21           O1  tau(  21) = (   3.2904802   0.0005063   4.7018136  )
        22           O1  tau(  22) = (   6.5569505   0.0478586  17.2430089  )
        23           O1  tau(  23) = (   1.3043587   1.4918075   6.0039043  )
        24           O1  tau(  24) = (   5.2767064   1.4903225   6.0039473  )
        25           Ti1 tau(  25) = (   0.0000382   5.9609847   6.0000000  )
        26           Ti1 tau(  26) = (   3.2902200   4.4714249   6.0002472  )
        27           O1  tau(  27) = (   0.0002396   2.9813036   7.9858123  )
        28           O1  tau(  28) = (   3.2902150   2.9813002   7.3038282  )
        29           O1  tau(  29) = (   4.5938453   4.4726049   9.2879030  )
        30           O1  tau(  30) = (   1.9864658   4.4711199   9.2879459  )
        31           Ti1 tau(  31) = (   3.2859829   5.8469316   9.1661464  )
        32           Ti1 tau(  32) = (  -0.0001559   4.4089299   9.3799519  )
        33           O1  tau(  33) = (   3.2865236   2.9807090  11.3458169  )
        34           O1  tau(  34) = (   6.5781283   2.9667683  10.5610256  )
        35           O1  tau(  35) = (   1.2712900   4.4620179  12.6345536  )
        36           O1  tau(  36) = (   5.2651022   4.4720110  12.6184623  )
        37           Ti1 tau(  37) = (   0.0601624   5.9591143  12.7910897  )
        38           Ti1 tau(  38) = (   3.3902089   4.4660181  12.4873354  )
        39           O1  tau(  39) = (   6.5660314   2.9936061  14.6787526  )
        40           O1  tau(  40) = (   3.2777068   3.0094971  13.9036223  )
        41           O1  tau(  41) = (   4.5190982   4.4944638  16.0861991  )
        42           O1  tau(  42) = (   2.0255100   4.4980322  16.0740450  )
        43           Ti1 tau(  43) = (   3.2415938   0.0554625  15.8014791  )
        44           Ti1 tau(  44) = (   6.5310484   4.6110724  16.1360643  )
        45           O1  tau(  45) = (   3.2900926   2.9813045   4.7018136  )
        46           O1  tau(  46) = (   1.3039711   4.4726057   6.0039043  )
        47           O1  tau(  47) = (   5.2763189   4.4711207   6.0039473  )
        48           C1  tau(  48) = (   0.0160176   3.0093394  17.4896075  )
        49           H1  tau(  49) = (   0.0793418   3.1169436  18.5737113  )
        50           O1  tau(  50) = (   3.2580281   0.1500328  18.1801156  )
        51           H1  tau(  51) = (   4.0450954   5.6463884  18.5036456  )
        52           H1  tau(  52) = (   2.4770123   5.6427573  18.5075526  )

     number of k points=    10  Fermi-Dirac smearing, width (Ry)=  0.0073
                       cart. coord. in units 2pi/alat
        k(    1) = (   0.0000000   0.0000000   0.0000000), wk =   0.1250000
        k(    2) = (   0.0000000   0.0419351   0.0000000), wk =   0.2500000
        k(    3) = (   0.0000000  -0.0838702   0.0000000), wk =   0.1250000
        k(    4) = (   0.0379955   0.0000049   0.0000000), wk =   0.2500000
        k(    5) = (   0.0379955   0.0419400   0.0000000), wk =   0.2500000
        k(    6) = (   0.0379955  -0.0838652   0.0000000), wk =   0.2500000
        k(    7) = (   0.0379955  -0.0419301   0.0000000), wk =   0.2500000
        k(    8) = (  -0.0759910  -0.0000099   0.0000000), wk =   0.1250000
        k(    9) = (  -0.0759910   0.0419252   0.0000000), wk =   0.2500000
        k(   10) = (  -0.0759910  -0.0838800   0.0000000), wk =   0.1250000

     Dense  grid:   566857 G-vectors     FFT dimensions: (  72,  64, 270)

     Smooth grid:   143421 G-vectors     FFT dimensions: (  45,  40, 180)

     Estimated max dynamical RAM per process >     362.08 MB

     Estimated total dynamical RAM >       3.54 GB
     Cannot read rho : file not found

     Initial potential from superposition of free atoms

     starting charge  374.99918, renormalised to  391.00000

     negative rho (up, down):  1.887E-02 0.000E+00


     %%%%%%%%%%%%%%%%%%%%%%%%%%%%%%%%%%%%%%%%%%%%%%%%%%%%%%%%%%%%%%%%%%%%%%%%
     %                                                                      %
     % You are using vdW-DF, which was implemented by the Thonhauser group. %
     % Please cite the following two papers that made this development      %
     % possible and the two reviews that describe the various versions:     %
     %                                                                      %
     %   T. Thonhauser et al., PRL 115, 136402 (2015).                      %
     %   T. Thonhauser et al., PRB 76, 125112 (2007).                       %
     %   K. Berland et al., Rep. Prog. Phys. 78, 066501 (2015).             %
     %   D.C. Langreth et al., J. Phys.: Condens. Matter 21, 084203 (2009). %
     %                                                                      %
     %                                                                      %
     % If you are calculating the stress with vdW-DF, please also cite:     %
     %                                                                      %
     %   R. Sabatini et al., J. Phys.: Condens. Matter 24, 424209 (2012).   %
     %                                                                      %
     %%%%%%%%%%%%%%%%%%%%%%%%%%%%%%%%%%%%%%%%%%%%%%%%%%%%%%%%%%%%%%%%%%%%%%%%


 
     Adding external electric field

     Computed dipole along edir(3) : 
        Dipole               -4.6199 Ry au,        -11.7425 Debye
        Dipole field         -0.0087 Ry au, 
 
        Potential amp.        0.8082 Ry
        Total length         46.3494 bohr
 
     Starting wfcs are  295 atomic wfcs
  @ DRIVER MODE: Message from server: STATUS
  @ DRIVER MODE: Message from server: POSDATA
  @ DRIVER MODE: Reading and sharing cell 
  @ DRIVER MODE: Reading and sharing positions 
  @ DRIVER MODE: Received positions 

     total cpu time spent up to now is       11.0 secs

     Self-consistent Calculation

     iteration #  1     ecut=    29.40 Ry     beta= 0.05
     Davidson diagonalization with overlap
     c_bands:  4 eigenvalues not converged
     c_bands:  1 eigenvalues not converged
     c_bands:  1 eigenvalues not converged
     c_bands:  1 eigenvalues not converged
     c_bands:  2 eigenvalues not converged
     c_bands:  1 eigenvalues not converged
     c_bands:  3 eigenvalues not converged
     c_bands:  1 eigenvalues not converged
     ethr =  1.00E-05,  avg # of iterations = 19.4

     negative rho (up, down):  1.834E-02 0.000E+00
 
     Adding external electric field

     Computed dipole along edir(3) : 
        Dipole               14.7950 Ry au,         37.6052 Debye
        Dipole field          0.0279 Ry au, 
 
        Potential amp.       -2.5882 Ry
        Total length         46.3494 bohr
 

     total cpu time spent up to now is       47.6 secs

     total energy              =   -2877.73124213 Ry
     estimated scf accuracy    <     610.07376927 Ry

     iteration #  2     ecut=    29.40 Ry     beta= 0.05
     Davidson diagonalization with overlap
     ethr =  1.00E-02,  avg # of iterations = 14.8

     negative rho (up, down):  8.689E-03 0.000E+00
 
     Adding external electric field

     Computed dipole along edir(3) : 
        Dipole               -1.9269 Ry au,         -4.8978 Debye
        Dipole field         -0.0036 Ry au, 
 
        Potential amp.        0.3371 Ry
        Total length         46.3494 bohr
 

     total cpu time spent up to now is       78.4 secs

     total energy              =   -2817.01464066 Ry
     estimated scf accuracy    <   13942.29354799 Ry

     iteration #  3     ecut=    29.40 Ry     beta= 0.05
     Davidson diagonalization with overlap
     c_bands:  3 eigenvalues not converged
     c_bands:  3 eigenvalues not converged
     ethr =  1.00E-02,  avg # of iterations = 18.7

     negative rho (up, down):  8.654E-03 0.000E+00
 
     Adding external electric field

     Computed dipole along edir(3) : 
        Dipole               -2.2971 Ry au,         -5.8387 Debye
        Dipole field         -0.0043 Ry au, 
 
        Potential amp.        0.4018 Ry
        Total length         46.3494 bohr
 

     total cpu time spent up to now is      109.8 secs

     total energy              =   -2932.37099377 Ry
     estimated scf accuracy    <      21.93157606 Ry

     iteration #  4     ecut=    29.40 Ry     beta= 0.05
     Davidson diagonalization with overlap
     ethr =  5.61E-03,  avg # of iterations =  6.0

     negative rho (up, down):  8.632E-03 0.000E+00
 
     Adding external electric field

     Computed dipole along edir(3) : 
        Dipole               -2.4344 Ry au,         -6.1877 Debye
        Dipole field         -0.0046 Ry au, 
 
        Potential amp.        0.4259 Ry
        Total length         46.3494 bohr
 

     total cpu time spent up to now is      121.2 secs

     total energy              =   -2932.34759305 Ry
     estimated scf accuracy    <      13.78945616 Ry

     iteration #  5     ecut=    29.40 Ry     beta= 0.05
     Davidson diagonalization with overlap
     ethr =  3.53E-03,  avg # of iterations =  2.0

     negative rho (up, down):  8.756E-03 0.000E+00
 
     Adding external electric field

     Computed dipole along edir(3) : 
        Dipole               -2.6861 Ry au,         -6.8274 Debye
        Dipole field         -0.0051 Ry au, 
 
        Potential amp.        0.4699 Ry
        Total length         46.3494 bohr
 

     total cpu time spent up to now is      131.1 secs

     total energy              =   -2930.64912903 Ry
     estimated scf accuracy    <      10.14728241 Ry

     iteration #  6     ecut=    29.40 Ry     beta= 0.05
     Davidson diagonalization with overlap
     ethr =  2.60E-03,  avg # of iterations =  7.1

     negative rho (up, down):  8.857E-03 0.000E+00
 
     Adding external electric field

     Computed dipole along edir(3) : 
        Dipole               -2.2061 Ry au,         -5.6072 Debye
        Dipole field         -0.0042 Ry au, 
 
        Potential amp.        0.3859 Ry
        Total length         46.3494 bohr
 

     total cpu time spent up to now is      143.1 secs

     total energy              =   -2930.41938912 Ry
     estimated scf accuracy    <       4.69886543 Ry

     iteration #  7     ecut=    29.40 Ry     beta= 0.05
     Davidson diagonalization with overlap
     c_bands:  1 eigenvalues not converged
     ethr =  1.20E-03,  avg # of iterations = 16.1

     negative rho (up, down):  8.694E-03 0.000E+00
 
     Adding external electric field

     Computed dipole along edir(3) : 
        Dipole               -2.0680 Ry au,         -5.2563 Debye
        Dipole field         -0.0039 Ry au, 
 
        Potential amp.        0.3618 Ry
        Total length         46.3494 bohr
 

     total cpu time spent up to now is      162.6 secs

     total energy              =   -2931.23428515 Ry
     estimated scf accuracy    <      25.13050886 Ry

     iteration #  8     ecut=    29.40 Ry     beta= 0.05
     Davidson diagonalization with overlap
     ethr =  1.20E-03,  avg # of iterations =  1.4

     negative rho (up, down):  8.583E-03 0.000E+00
 
     Adding external electric field

     Computed dipole along edir(3) : 
        Dipole               -1.7867 Ry au,         -4.5414 Debye
        Dipole field         -0.0034 Ry au, 
 
        Potential amp.        0.3126 Ry
        Total length         46.3494 bohr
 

     total cpu time spent up to now is      172.4 secs

     total energy              =   -2931.19312003 Ry
     estimated scf accuracy    <       7.07252040 Ry

     iteration #  9     ecut=    29.40 Ry     beta= 0.05
     Davidson diagonalization with overlap
     ethr =  1.20E-03,  avg # of iterations =  1.2

     negative rho (up, down):  8.594E-03 0.000E+00
 
     Adding external electric field

     Computed dipole along edir(3) : 
        Dipole               -1.4342 Ry au,         -3.6453 Debye
        Dipole field         -0.0027 Ry au, 
 
        Potential amp.        0.2509 Ry
        Total length         46.3494 bohr
 

     total cpu time spent up to now is      182.1 secs

     total energy              =   -2931.23397016 Ry
     estimated scf accuracy    <       0.86862046 Ry

     iteration # 10     ecut=    29.40 Ry     beta= 0.05
     Davidson diagonalization with overlap
     ethr =  2.22E-04,  avg # of iterations =  6.8

     negative rho (up, down):  9.478E-03 0.000E+00
 
     Adding external electric field

     Computed dipole along edir(3) : 
        Dipole               -0.0210 Ry au,         -0.0534 Debye
        Dipole field         -0.0000 Ry au, 
 
        Potential amp.        0.0037 Ry
        Total length         46.3494 bohr
 

     total cpu time spent up to now is      193.7 secs

     total energy              =   -2931.10904641 Ry
     estimated scf accuracy    <       0.54073576 Ry

     iteration # 11     ecut=    29.40 Ry     beta= 0.05
     Davidson diagonalization with overlap
     c_bands:  1 eigenvalues not converged
     c_bands:  2 eigenvalues not converged
     c_bands:  1 eigenvalues not converged
     ethr =  1.38E-04,  avg # of iterations = 16.8

     negative rho (up, down):  9.567E-03 0.000E+00
 
     Adding external electric field

     Computed dipole along edir(3) : 
        Dipole                0.1963 Ry au,          0.4989 Debye
        Dipole field          0.0004 Ry au, 
 
        Potential amp.       -0.0343 Ry
        Total length         46.3494 bohr
 

     total cpu time spent up to now is      214.3 secs

     total energy              =   -2931.24347252 Ry
     estimated scf accuracy    <       0.45543043 Ry

     iteration # 12     ecut=    29.40 Ry     beta= 0.05
     Davidson diagonalization with overlap
     ethr =  1.16E-04,  avg # of iterations =  2.8

     negative rho (up, down):  9.435E-03 0.000E+00
 
     Adding external electric field

     Computed dipole along edir(3) : 
        Dipole               -0.0311 Ry au,         -0.0791 Debye
        Dipole field         -0.0001 Ry au, 
 
        Potential amp.        0.0054 Ry
        Total length         46.3494 bohr
 

     total cpu time spent up to now is      224.5 secs

     total energy              =   -2931.18269456 Ry
     estimated scf accuracy    <       0.49171400 Ry

     iteration # 13     ecut=    29.40 Ry     beta= 0.05
     Davidson diagonalization with overlap
     ethr =  1.16E-04,  avg # of iterations =  8.8

     negative rho (up, down):  1.018E-02 0.000E+00
 
     Adding external electric field

     Computed dipole along edir(3) : 
        Dipole                0.2621 Ry au,          0.6661 Debye
        Dipole field          0.0005 Ry au, 
 
        Potential amp.       -0.0458 Ry
        Total length         46.3494 bohr
 

     total cpu time spent up to now is      236.9 secs

     total energy              =   -2931.18857700 Ry
     estimated scf accuracy    <       0.30156444 Ry

     iteration # 14     ecut=    29.40 Ry     beta= 0.05
     Davidson diagonalization with overlap
     c_bands:  2 eigenvalues not converged
     ethr =  7.71E-05,  avg # of iterations = 13.8

     negative rho (up, down):  1.037E-02 0.000E+00
 
     Adding external electric field

     Computed dipole along edir(3) : 
        Dipole                0.4459 Ry au,          1.1335 Debye
        Dipole field          0.0008 Ry au, 
 
        Potential amp.       -0.0780 Ry
        Total length         46.3494 bohr
 

     total cpu time spent up to now is      252.1 secs

     total energy              =   -2931.20093258 Ry
     estimated scf accuracy    <       0.24058974 Ry

     iteration # 15     ecut=    29.40 Ry     beta= 0.05
     Davidson diagonalization with overlap
     ethr =  6.15E-05,  avg # of iterations =  1.4

     negative rho (up, down):  1.083E-02 0.000E+00
 
     Adding external electric field

     Computed dipole along edir(3) : 
        Dipole                0.5200 Ry au,          1.3216 Debye
        Dipole field          0.0010 Ry au, 
 
        Potential amp.       -0.0910 Ry
        Total length         46.3494 bohr
 

     total cpu time spent up to now is      262.0 secs

     total energy              =   -2931.20445718 Ry
     estimated scf accuracy    <       0.04406280 Ry

     iteration # 16     ecut=    29.40 Ry     beta= 0.05
     Davidson diagonalization with overlap
     c_bands:  2 eigenvalues not converged
     c_bands:  2 eigenvalues not converged
     c_bands:  3 eigenvalues not converged
     c_bands:  1 eigenvalues not converged
     c_bands:  3 eigenvalues not converged
     c_bands:  2 eigenvalues not converged
     c_bands:  2 eigenvalues not converged
     c_bands:  3 eigenvalues not converged
     c_bands:  2 eigenvalues not converged
     ethr =  1.13E-05,  avg # of iterations = 19.1

     negative rho (up, down):  1.146E-02 0.000E+00
 
     Adding external electric field

     Computed dipole along edir(3) : 
        Dipole                0.6147 Ry au,          1.5623 Debye
        Dipole field          0.0012 Ry au, 
 
        Potential amp.       -0.1075 Ry
        Total length         46.3494 bohr
 

     total cpu time spent up to now is      280.9 secs

     total energy              =   -2931.21081416 Ry
     estimated scf accuracy    <       0.01813032 Ry

     iteration # 17     ecut=    29.40 Ry     beta= 0.05
     Davidson diagonalization with overlap
     c_bands:  2 eigenvalues not converged
     c_bands:  1 eigenvalues not converged
     c_bands:  3 eigenvalues not converged
     c_bands:  1 eigenvalues not converged
     c_bands:  1 eigenvalues not converged
     ethr =  4.64E-06,  avg # of iterations = 16.5

     negative rho (up, down):  1.186E-02 0.000E+00
 
     Adding external electric field

     Computed dipole along edir(3) : 
        Dipole                0.6333 Ry au,          1.6098 Debye
        Dipole field          0.0012 Ry au, 
 
        Potential amp.       -0.1108 Ry
        Total length         46.3494 bohr
 

     total cpu time spent up to now is      295.3 secs

     total energy              =   -2931.21141932 Ry
     estimated scf accuracy    <       0.01335950 Ry

     iteration # 18     ecut=    29.40 Ry     beta= 0.05
     Davidson diagonalization with overlap
     c_bands:  1 eigenvalues not converged
     c_bands:  1 eigenvalues not converged
     c_bands:  3 eigenvalues not converged
     ethr =  3.42E-06,  avg # of iterations = 14.3

     negative rho (up, down):  1.438E-02 0.000E+00
 
     Adding external electric field

     Computed dipole along edir(3) : 
        Dipole                0.6799 Ry au,          1.7281 Debye
        Dipole field          0.0013 Ry au, 
 
        Potential amp.       -0.1189 Ry
        Total length         46.3494 bohr
 

     total cpu time spent up to now is      312.9 secs

     total energy              =   -2931.21032386 Ry
     estimated scf accuracy    <       0.01530433 Ry

     iteration # 19     ecut=    29.40 Ry     beta= 0.05
     Davidson diagonalization with overlap
     c_bands:  2 eigenvalues not converged
     c_bands:  2 eigenvalues not converged
     c_bands:  2 eigenvalues not converged
     c_bands:  2 eigenvalues not converged
     c_bands:  3 eigenvalues not converged
     c_bands:  1 eigenvalues not converged
     c_bands:  2 eigenvalues not converged
     c_bands:  3 eigenvalues not converged
     c_bands:  1 eigenvalues not converged
     ethr =  3.42E-06,  avg # of iterations = 19.4

     negative rho (up, down):  1.409E-02 0.000E+00
 
     Adding external electric field

     Computed dipole along edir(3) : 
        Dipole                0.6762 Ry au,          1.7186 Debye
        Dipole field          0.0013 Ry au, 
 
        Potential amp.       -0.1183 Ry
        Total length         46.3494 bohr
 

     total cpu time spent up to now is      336.5 secs

     total energy              =   -2931.21500450 Ry
     estimated scf accuracy    <       0.03516259 Ry

     iteration # 20     ecut=    29.40 Ry     beta= 0.05
     Davidson diagonalization with overlap
     c_bands:  1 eigenvalues not converged
     c_bands:  2 eigenvalues not converged
     c_bands:  1 eigenvalues not converged
     c_bands:  1 eigenvalues not converged
     ethr =  3.42E-06,  avg # of iterations = 15.0

     negative rho (up, down):  1.397E-02 0.000E+00
 
     Adding external electric field

     Computed dipole along edir(3) : 
        Dipole                0.6739 Ry au,          1.7128 Debye
        Dipole field          0.0013 Ry au, 
 
        Potential amp.       -0.1179 Ry
        Total length         46.3494 bohr
 

     total cpu time spent up to now is      350.0 secs

     total energy              =   -2931.21465525 Ry
     estimated scf accuracy    <       0.02274933 Ry

     iteration # 21     ecut=    29.40 Ry     beta= 0.05
     Davidson diagonalization with overlap
     c_bands:  1 eigenvalues not converged
     c_bands:  1 eigenvalues not converged
     ethr =  3.42E-06,  avg # of iterations =  8.2

     negative rho (up, down):  1.429E-02 0.000E+00
 
     Adding external electric field

     Computed dipole along edir(3) : 
        Dipole                0.6919 Ry au,          1.7588 Debye
        Dipole field          0.0013 Ry au, 
 
        Potential amp.       -0.1210 Ry
        Total length         46.3494 bohr
 

     total cpu time spent up to now is      361.9 secs

     total energy              =   -2931.21437323 Ry
     estimated scf accuracy    <       0.01688549 Ry

     iteration # 22     ecut=    29.40 Ry     beta= 0.05
     Davidson diagonalization with overlap
     ethr =  3.42E-06,  avg # of iterations =  8.3

     negative rho (up, down):  1.650E-02 0.000E+00
 
     Adding external electric field

     Computed dipole along edir(3) : 
        Dipole                0.7637 Ry au,          1.9412 Debye
        Dipole field          0.0014 Ry au, 
 
        Potential amp.       -0.1336 Ry
        Total length         46.3494 bohr
 

     total cpu time spent up to now is      373.8 secs

     total energy              =   -2931.21212440 Ry
     estimated scf accuracy    <       0.01173438 Ry

     iteration # 23     ecut=    29.40 Ry     beta= 0.05
     Davidson diagonalization with overlap
     c_bands:  1 eigenvalues not converged
     c_bands:  2 eigenvalues not converged
     c_bands:  1 eigenvalues not converged
     c_bands:  1 eigenvalues not converged
     c_bands:  1 eigenvalues not converged
     c_bands:  1 eigenvalues not converged
     ethr =  3.00E-06,  avg # of iterations = 17.4

     negative rho (up, down):  1.680E-02 0.000E+00
 
     Adding external electric field

     Computed dipole along edir(3) : 
        Dipole                0.7532 Ry au,          1.9146 Debye
        Dipole field          0.0014 Ry au, 
 
        Potential amp.       -0.1318 Ry
        Total length         46.3494 bohr
 

     total cpu time spent up to now is      393.8 secs

     total energy              =   -2931.21477201 Ry
     estimated scf accuracy    <       0.00402276 Ry

     iteration # 24     ecut=    29.40 Ry     beta= 0.05
     Davidson diagonalization with overlap
     c_bands:  1 eigenvalues not converged
     c_bands:  1 eigenvalues not converged
     c_bands:  1 eigenvalues not converged
     ethr =  1.03E-06,  avg # of iterations = 10.7

     negative rho (up, down):  1.651E-02 0.000E+00
 
     Adding external electric field

     Computed dipole along edir(3) : 
        Dipole                0.7337 Ry au,          1.8649 Debye
        Dipole field          0.0014 Ry au, 
 
        Potential amp.       -0.1284 Ry
        Total length         46.3494 bohr
 

     total cpu time spent up to now is      406.1 secs

     total energy              =   -2931.21450994 Ry
     estimated scf accuracy    <       0.00268499 Ry

     iteration # 25     ecut=    29.40 Ry     beta= 0.05
     Davidson diagonalization with overlap
     ethr =  6.87E-07,  avg # of iterations =  9.2

     negative rho (up, down):  1.644E-02 0.000E+00
 
     Adding external electric field

     Computed dipole along edir(3) : 
        Dipole                0.7402 Ry au,          1.8814 Debye
        Dipole field          0.0014 Ry au, 
 
        Potential amp.       -0.1295 Ry
        Total length         46.3494 bohr
 

     total cpu time spent up to now is      420.8 secs

     total energy              =   -2931.21500063 Ry
     estimated scf accuracy    <       0.00050984 Ry

     iteration # 26     ecut=    29.40 Ry     beta= 0.05
     Davidson diagonalization with overlap
     ethr =  1.30E-07,  avg # of iterations =  5.0

     negative rho (up, down):  1.692E-02 0.000E+00
 
     Adding external electric field

     Computed dipole along edir(3) : 
        Dipole                0.7588 Ry au,          1.9287 Debye
        Dipole field          0.0014 Ry au, 
 
        Potential amp.       -0.1327 Ry
        Total length         46.3494 bohr
 

     total cpu time spent up to now is      432.2 secs

     total energy              =   -2931.21514199 Ry
     estimated scf accuracy    <       0.00037077 Ry

     iteration # 27     ecut=    29.40 Ry     beta= 0.05
     Davidson diagonalization with overlap
     ethr =  9.48E-08,  avg # of iterations =  5.7

     negative rho (up, down):  1.815E-02 0.000E+00
 
     Adding external electric field

     Computed dipole along edir(3) : 
        Dipole                0.7755 Ry au,          1.9711 Debye
        Dipole field          0.0015 Ry au, 
 
        Potential amp.       -0.1357 Ry
        Total length         46.3494 bohr
 

     total cpu time spent up to now is      444.5 secs

     total energy              =   -2931.21532255 Ry
     estimated scf accuracy    <       0.00021714 Ry

     iteration # 28     ecut=    29.40 Ry     beta= 0.05
     Davidson diagonalization with overlap
     ethr =  5.55E-08,  avg # of iterations =  5.4

     negative rho (up, down):  1.810E-02 0.000E+00
 
     Adding external electric field

     Computed dipole along edir(3) : 
        Dipole                0.7765 Ry au,          1.9736 Debye
        Dipole field          0.0015 Ry au, 
 
        Potential amp.       -0.1358 Ry
        Total length         46.3494 bohr
 

     total cpu time spent up to now is      460.3 secs

     total energy              =   -2931.21544260 Ry
     estimated scf accuracy    <       0.00043058 Ry

     iteration # 29     ecut=    29.40 Ry     beta= 0.05
     Davidson diagonalization with overlap
     ethr =  5.55E-08,  avg # of iterations =  1.5

     negative rho (up, down):  1.805E-02 0.000E+00
 
     Adding external electric field

     Computed dipole along edir(3) : 
        Dipole                0.7778 Ry au,          1.9771 Debye
        Dipole field          0.0015 Ry au, 
 
        Potential amp.       -0.1361 Ry
        Total length         46.3494 bohr
 

     total cpu time spent up to now is      470.2 secs

     total energy              =   -2931.21546180 Ry
     estimated scf accuracy    <       0.00027754 Ry

     iteration # 30     ecut=    29.40 Ry     beta= 0.05
     Davidson diagonalization with overlap
     ethr =  5.55E-08,  avg # of iterations =  6.4

     negative rho (up, down):  1.852E-02 0.000E+00
 
     Adding external electric field

     Computed dipole along edir(3) : 
        Dipole                0.7829 Ry au,          1.9898 Debye
        Dipole field          0.0015 Ry au, 
 
        Potential amp.       -0.1369 Ry
        Total length         46.3494 bohr
 

     total cpu time spent up to now is      485.2 secs

     total energy              =   -2931.21556525 Ry
     estimated scf accuracy    <       0.00012927 Ry

     iteration # 31     ecut=    29.40 Ry     beta= 0.05
     Davidson diagonalization with overlap
     ethr =  3.31E-08,  avg # of iterations =  5.6

     negative rho (up, down):  1.849E-02 0.000E+00
 
     Adding external electric field

     Computed dipole along edir(3) : 
        Dipole                0.7825 Ry au,          1.9890 Debye
        Dipole field          0.0015 Ry au, 
 
        Potential amp.       -0.1369 Ry
        Total length         46.3494 bohr
 

     total cpu time spent up to now is      498.9 secs

     total energy              =   -2931.21565682 Ry
     estimated scf accuracy    <       0.00006134 Ry

     iteration # 32     ecut=    29.40 Ry     beta= 0.05
     Davidson diagonalization with overlap
     ethr =  1.57E-08,  avg # of iterations =  2.6

     negative rho (up, down):  1.852E-02 0.000E+00
 
     Adding external electric field

     Computed dipole along edir(3) : 
        Dipole                0.7843 Ry au,          1.9934 Debye
        Dipole field          0.0015 Ry au, 
 
        Potential amp.       -0.1372 Ry
        Total length         46.3494 bohr
 

     total cpu time spent up to now is      509.5 secs

     total energy              =   -2931.21570933 Ry
     estimated scf accuracy    <       0.00004010 Ry

     iteration # 33     ecut=    29.40 Ry     beta= 0.05
     Davidson diagonalization with overlap
     ethr =  1.03E-08,  avg # of iterations =  6.0

     negative rho (up, down):  1.849E-02 0.000E+00
 
     Adding external electric field

     Computed dipole along edir(3) : 
        Dipole                0.7850 Ry au,          1.9954 Debye
        Dipole field          0.0015 Ry au, 
 
        Potential amp.       -0.1373 Ry
        Total length         46.3494 bohr
 

     total cpu time spent up to now is      523.9 secs

     total energy              =   -2931.21577505 Ry
     estimated scf accuracy    <       0.00002085 Ry

     iteration # 34     ecut=    29.40 Ry     beta= 0.05
     Davidson diagonalization with overlap
     ethr =  5.33E-09,  avg # of iterations =  5.0

     negative rho (up, down):  1.849E-02 0.000E+00
 
     Adding external electric field

     Computed dipole along edir(3) : 
        Dipole                0.7839 Ry au,          1.9924 Debye
        Dipole field          0.0015 Ry au, 
 
        Potential amp.       -0.1371 Ry
        Total length         46.3494 bohr
 

     total cpu time spent up to now is      535.3 secs

     total energy              =   -2931.21582417 Ry
     estimated scf accuracy    <       0.00001041 Ry

     iteration # 35     ecut=    29.40 Ry     beta= 0.05
     Davidson diagonalization with overlap
     ethr =  2.66E-09,  avg # of iterations =  8.0

     negative rho (up, down):  1.848E-02 0.000E+00
 
     Adding external electric field

     Computed dipole along edir(3) : 
        Dipole                0.7846 Ry au,          1.9941 Debye
        Dipole field          0.0015 Ry au, 
 
        Potential amp.       -0.1372 Ry
        Total length         46.3494 bohr
 

     total cpu time spent up to now is      552.7 secs

     total energy              =   -2931.21587261 Ry
     estimated scf accuracy    <       0.00001578 Ry

     iteration # 36     ecut=    29.40 Ry     beta= 0.05
     Davidson diagonalization with overlap
     ethr =  2.66E-09,  avg # of iterations =  5.4

     negative rho (up, down):  1.848E-02 0.000E+00
 
     Adding external electric field

     Computed dipole along edir(3) : 
        Dipole                0.7843 Ry au,          1.9934 Debye
        Dipole field          0.0015 Ry au, 
 
        Potential amp.       -0.1372 Ry
        Total length         46.3494 bohr
 

     total cpu time spent up to now is      564.6 secs

     total energy              =   -2931.21591402 Ry
     estimated scf accuracy    <       0.00000498 Ry

     iteration # 37     ecut=    29.40 Ry     beta= 0.05
     Davidson diagonalization with overlap
     ethr =  1.27E-09,  avg # of iterations =  7.4

     negative rho (up, down):  1.844E-02 0.000E+00
 
     Adding external electric field

     Computed dipole along edir(3) : 
        Dipole                0.7836 Ry au,          1.9918 Debye
        Dipole field          0.0015 Ry au, 
 
        Potential amp.       -0.1371 Ry
        Total length         46.3494 bohr
 

     total cpu time spent up to now is      582.5 secs

     total energy              =   -2931.21595381 Ry
     estimated scf accuracy    <       0.00001230 Ry

     iteration # 38     ecut=    29.40 Ry     beta= 0.05
     Davidson diagonalization with overlap
     ethr =  1.27E-09,  avg # of iterations =  2.0

     negative rho (up, down):  1.841E-02 0.000E+00
 
     Adding external electric field

     Computed dipole along edir(3) : 
        Dipole                0.7822 Ry au,          1.9882 Debye
        Dipole field          0.0015 Ry au, 
 
        Potential amp.       -0.1368 Ry
        Total length         46.3494 bohr
 

     total cpu time spent up to now is      592.9 secs

     total energy              =   -2931.21598632 Ry
     estimated scf accuracy    <       0.00000706 Ry

     iteration # 39     ecut=    29.40 Ry     beta= 0.05
     Davidson diagonalization with overlap
     ethr =  1.27E-09,  avg # of iterations =  7.0

     negative rho (up, down):  1.838E-02 0.000E+00
 
     Adding external electric field

     Computed dipole along edir(3) : 
        Dipole                0.7828 Ry au,          1.9898 Debye
        Dipole field          0.0015 Ry au, 
 
        Potential amp.       -0.1369 Ry
        Total length         46.3494 bohr
 

     total cpu time spent up to now is      609.4 secs

     total energy              =   -2931.21601847 Ry
     estimated scf accuracy    <       0.00000233 Ry

     iteration # 40     ecut=    29.40 Ry     beta= 0.05
     Davidson diagonalization with overlap
     ethr =  5.95E-10,  avg # of iterations =  5.7

     negative rho (up, down):  1.835E-02 0.000E+00
 
     Adding external electric field

     Computed dipole along edir(3) : 
        Dipole                0.7827 Ry au,          1.9893 Debye
        Dipole field          0.0015 Ry au, 
 
        Potential amp.       -0.1369 Ry
        Total length         46.3494 bohr
 

     total cpu time spent up to now is      623.1 secs

     total energy              =   -2931.21604690 Ry
     estimated scf accuracy    <       0.00000045 Ry

     iteration # 41     ecut=    29.40 Ry     beta= 0.05
     Davidson diagonalization with overlap
     ethr =  1.16E-10,  avg # of iterations =  5.1

     negative rho (up, down):  1.833E-02 0.000E+00
 
     Adding external electric field

     Computed dipole along edir(3) : 
        Dipole                0.7822 Ry au,          1.9881 Debye
        Dipole field          0.0015 Ry au, 
 
        Potential amp.       -0.1368 Ry
        Total length         46.3494 bohr
 

     total cpu time spent up to now is      638.5 secs

     total energy              =   -2931.21607192 Ry
     estimated scf accuracy    <       0.00000122 Ry

     iteration # 42     ecut=    29.40 Ry     beta= 0.05
     Davidson diagonalization with overlap
     ethr =  1.16E-10,  avg # of iterations =  7.3

     negative rho (up, down):  1.831E-02 0.000E+00
 
     Adding external electric field

     Computed dipole along edir(3) : 
        Dipole                0.7823 Ry au,          1.9883 Debye
        Dipole field          0.0015 Ry au, 
 
        Potential amp.       -0.1368 Ry
        Total length         46.3494 bohr
 

     total cpu time spent up to now is      655.7 secs

     total energy              =   -2931.21609498 Ry
     estimated scf accuracy    <       0.00000017 Ry

     iteration # 43     ecut=    29.40 Ry     beta= 0.05
     Davidson diagonalization with overlap
     ethr =  4.36E-11,  avg # of iterations =  1.9

     negative rho (up, down):  1.830E-02 0.000E+00
 
     Adding external electric field

     Computed dipole along edir(3) : 
        Dipole                0.7826 Ry au,          1.9891 Debye
        Dipole field          0.0015 Ry au, 
 
        Potential amp.       -0.1369 Ry
        Total length         46.3494 bohr
 

     total cpu time spent up to now is      666.0 secs

     total energy              =   -2931.21611574 Ry
     estimated scf accuracy    <       0.00000012 Ry

     iteration # 44     ecut=    29.40 Ry     beta= 0.05
     Davidson diagonalization with overlap
     ethr =  3.04E-11,  avg # of iterations =  7.9

     negative rho (up, down):  1.829E-02 0.000E+00
 
     Adding external electric field

     Computed dipole along edir(3) : 
        Dipole                0.7825 Ry au,          1.9890 Debye
        Dipole field          0.0015 Ry au, 
 
        Potential amp.       -0.1369 Ry
        Total length         46.3494 bohr
 

     total cpu time spent up to now is      684.0 secs

     total energy              =   -2931.21613427 Ry
     estimated scf accuracy    <       0.00000025 Ry

     iteration # 45     ecut=    29.40 Ry     beta= 0.05
     Davidson diagonalization with overlap
     ethr =  3.04E-11,  avg # of iterations =  1.1

     negative rho (up, down):  1.828E-02 0.000E+00
 
     Adding external electric field

     Computed dipole along edir(3) : 
        Dipole                0.7825 Ry au,          1.9889 Debye
        Dipole field          0.0015 Ry au, 
 
        Potential amp.       -0.1369 Ry
        Total length         46.3494 bohr
 

     total cpu time spent up to now is      693.7 secs

     total energy              =   -2931.21615097 Ry
     estimated scf accuracy    <       0.00000024 Ry

     iteration # 46     ecut=    29.40 Ry     beta= 0.05
     Davidson diagonalization with overlap
     ethr =  3.04E-11,  avg # of iterations =  1.8

     negative rho (up, down):  1.829E-02 0.000E+00
 
     Adding external electric field

     Computed dipole along edir(3) : 
        Dipole                0.7825 Ry au,          1.9889 Debye
        Dipole field          0.0015 Ry au, 
 
        Potential amp.       -0.1369 Ry
        Total length         46.3494 bohr
 

     total cpu time spent up to now is      704.1 secs

     total energy              =   -2931.21616620 Ry
     estimated scf accuracy    <       0.00000021 Ry

     iteration # 47     ecut=    29.40 Ry     beta= 0.05
     Davidson diagonalization with overlap
     ethr =  3.04E-11,  avg # of iterations =  6.9

     negative rho (up, down):  1.827E-02 0.000E+00
 
     Adding external electric field

     Computed dipole along edir(3) : 
        Dipole                0.7828 Ry au,          1.9896 Debye
        Dipole field          0.0015 Ry au, 
 
        Potential amp.       -0.1369 Ry
        Total length         46.3494 bohr
 

     total cpu time spent up to now is      720.9 secs

     End of self-consistent calculation

          k = 0.0000 0.0000 0.0000 ( 18029 PWs)   bands (ev):

   -56.2800 -56.2463 -55.9097 -55.8904 -55.8711 -55.7107 -55.6594 -55.6524
   -55.6183 -55.5729 -55.5694 -55.5375 -55.0522 -55.0289 -55.0182 -54.9694
   -32.7068 -32.5281 -32.5000 -32.4710 -32.4457 -32.3799 -32.3337 -32.3027
   -32.2103 -32.1427 -32.1355 -32.1331 -32.1204 -32.1157 -32.0917 -32.0782
   -32.0746 -32.0666 -32.0313 -31.9270 -31.9059 -31.8957 -31.8896 -31.8842
   -31.8780 -31.8652 -31.8232 -31.8098 -31.7986 -31.7893 -31.7680 -31.7519
   -31.7479 -31.7367 -31.7307 -31.6767 -31.5647 -31.4516 -31.3794 -31.3556
   -31.2981 -31.2699 -31.2650 -31.2612 -31.1849 -31.1702 -31.0731 -31.0387
   -19.2512 -16.5809 -16.4306 -16.1923 -16.0568 -15.9624 -15.7869 -15.6442
   -15.6169 -15.5234 -15.5194 -15.4345 -15.4251 -15.3828 -15.3764 -15.3726
   -15.3557 -15.3260 -15.2866 -15.2773 -15.2701 -15.2388 -15.1775 -15.0850
   -15.0580 -15.0112 -14.9072 -14.8953 -14.8626 -14.6842 -13.5459 -13.4326
    -7.5499  -7.0901  -4.0244  -3.9405  -3.8229  -3.7817  -3.6922  -3.5789
    -3.3542  -3.3490  -3.0756  -3.0393  -2.9848  -2.9574  -2.9437  -2.8770
    -2.8030  -2.7599  -2.7217  -2.7025  -2.6839  -2.6607  -2.6558  -2.5901
    -2.5486  -2.4923  -2.4812  -2.4623  -2.3763  -2.3069  -2.2515  -2.2226
    -2.2158  -2.1761  -2.0986  -2.0810  -2.0678  -2.0153  -1.9007  -1.8186
    -1.7482  -1.7164  -1.6482  -1.6146  -1.5352  -1.4369  -1.3881  -1.3104
    -1.2922  -1.2875  -1.2251  -1.2075  -1.1312  -1.0412  -0.9820  -0.9296
    -0.8404  -0.8184  -0.7906  -0.7429  -0.7259  -0.6882  -0.6594  -0.6234
    -0.5695  -0.5580  -0.4738  -0.3259  -0.3089  -0.2838  -0.2678  -0.2262
    -0.1917  -0.1311  -0.1086  -0.0601  -0.0398   0.0038   0.0163   0.0551
     0.0839   0.1431   0.2597   0.2801   0.2986   0.3740   0.4879   0.5344
     0.5870   0.6893   0.7016   0.9030   0.9268   0.9754   1.1903   1.2314
     1.5605   1.6332   1.8880   2.6338   2.9920   3.1755   3.4648   3.4801
     3.5130   3.5857   3.7131   3.7471   3.8142

          k = 0.0000 0.0419 0.0000 ( 17933 PWs)   bands (ev):

   -56.2750 -56.2511 -55.9049 -55.8895 -55.8757 -55.7115 -55.6576 -55.6474
   -55.6232 -55.5712 -55.5676 -55.5425 -55.0472 -55.0263 -55.0231 -54.9719
   -32.6535 -32.5239 -32.5036 -32.4577 -32.3931 -32.3895 -32.3889 -32.2537
   -32.1972 -32.1378 -32.1233 -32.1139 -32.1094 -32.0898 -32.0846 -32.0774
   -32.0710 -32.0645 -32.0221 -31.9365 -31.9119 -31.9108 -31.8914 -31.8852
   -31.8741 -31.8682 -31.8311 -31.8243 -31.8180 -31.7996 -31.7939 -31.7891
   -31.7485 -31.7447 -31.7429 -31.7340 -31.5209 -31.3980 -31.3758 -31.3589
   -31.2959 -31.2815 -31.2635 -31.2575 -31.1972 -31.1796 -31.1300 -31.0588
   -19.2509 -16.4469 -16.3091 -16.0813 -15.9496 -15.8704 -15.7552 -15.7104
   -15.6611 -15.5849 -15.5405 -15.4715 -15.4270 -15.3962 -15.3756 -15.3508
   -15.3361 -15.3153 -15.2981 -15.2841 -15.2719 -15.2278 -15.2184 -15.1125
   -15.0800 -15.0635 -14.9622 -14.9616 -14.9192 -14.7498 -13.5514 -13.4727
    -7.5533  -7.0903  -3.8405  -3.7749  -3.6760  -3.6192  -3.5667  -3.4855
    -3.1813  -3.1380  -3.0512  -3.0274  -2.9317  -2.9182  -2.9066  -2.8500
    -2.8271  -2.8017  -2.7755  -2.7261  -2.7102  -2.6720  -2.6576  -2.6390
    -2.6179  -2.5951  -2.5493  -2.5389  -2.4325  -2.4283  -2.4152  -2.4011
    -2.3071  -2.2771  -2.2164  -2.1638  -2.0515  -1.9800  -1.8944  -1.8404
    -1.6817  -1.6464  -1.6217  -1.5634  -1.5233  -1.3666  -1.2680  -1.2491
    -1.1718  -1.1274  -1.0536  -1.0410  -1.0109  -0.9691  -0.9363  -0.9128
    -0.8584  -0.8283  -0.8063  -0.7561  -0.7292  -0.6971  -0.6892  -0.6567
    -0.6155  -0.5214  -0.4958  -0.4562  -0.4363  -0.4096  -0.3516  -0.2941
    -0.2153  -0.1736  -0.1536  -0.1078  -0.0490  -0.0204   0.0027   0.0231
     0.0359   0.0882   0.1470   0.2145   0.2827   0.3344   0.3987   0.4143
     0.5125   0.5276   0.5667   0.6259   0.8274   1.0924   1.1810   1.2654
     1.4962   1.5473   1.9617   2.5198   3.2596   3.2926   3.4701   3.4827
     3.5619   3.7171   3.7344   3.7447   3.8019

          k = 0.0000-0.0839 0.0000 ( 17884 PWs)   bands (ev):

   -56.2646 -56.2614 -55.8976 -55.8887 -55.8829 -55.7123 -55.6558 -55.6368
   -55.6338 -55.5729 -55.5573 -55.5527 -55.0351 -55.0351 -55.0235 -54.9747
   -32.5244 -32.5217 -32.5153 -32.5117 -32.4267 -32.4241 -32.2604 -32.2410
   -32.1782 -32.1698 -32.1543 -32.1078 -32.1052 -32.0978 -32.0858 -32.0614
   -32.0173 -31.9834 -31.9582 -31.9565 -31.9163 -31.9061 -31.8912 -31.8867
   -31.8833 -31.8744 -31.8739 -31.8729 -31.8665 -31.8615 -31.8107 -31.8023
   -31.7726 -31.7675 -31.7460 -31.7424 -31.4541 -31.3671 -31.3671 -31.3268
   -31.2932 -31.2660 -31.2657 -31.2657 -31.2275 -31.2273 -31.1853 -31.0781
   -19.2507 -16.1404 -16.0818 -16.0186 -15.9841 -15.8343 -15.8169 -15.7175
   -15.6679 -15.6226 -15.5937 -15.5241 -15.4646 -15.4416 -15.4414 -15.3896
   -15.3624 -15.2594 -15.2303 -15.2000 -15.1908 -15.1900 -15.1849 -15.1380
   -15.1173 -15.0973 -15.0920 -15.0427 -15.0411 -14.8346 -13.5354 -13.5353
    -7.5565  -7.0905  -3.6538  -3.3788  -3.3769  -3.3551  -3.2536  -3.2483
    -3.2113  -3.1838  -3.1808  -3.1708  -3.0778  -2.9622  -2.9460  -2.9421
    -2.9165  -2.9123  -2.8846  -2.8084  -2.7945  -2.6887  -2.6793  -2.6533
    -2.6358  -2.5715  -2.5525  -2.5246  -2.4852  -2.4521  -2.3805  -2.2841
    -2.2752  -2.2341  -2.1932  -1.9490  -1.9126  -1.8686  -1.8506  -1.8412
    -1.7071  -1.6620  -1.6239  -1.5098  -1.4670  -1.4550  -1.4042  -1.3983
    -1.3700  -1.3299  -1.2581  -1.2050  -1.1183  -1.0583  -1.0501  -0.9270
    -0.8700  -0.7242  -0.6235  -0.5884  -0.5687  -0.5263  -0.4962  -0.4651
    -0.4486  -0.4250  -0.4196  -0.3992  -0.3847  -0.3767  -0.3546  -0.2801
    -0.2679  -0.2629  -0.2252  -0.1959  -0.1893  -0.1628  -0.1581  -0.0916
    -0.0558  -0.0386   0.0004   0.0234   0.1365   0.2034   0.2726   0.3078
     0.3244   0.4005   0.6547   0.7778   0.8444   0.8483   1.3196   1.3226
     1.4523   1.4539   2.0669   2.3921   3.4782   3.4797   3.5693   3.5882
     3.6294   3.6308   3.6905   3.6996   3.7367

          k = 0.0380 0.0000 0.0000 ( 17913 PWs)   bands (ev):

   -56.2798 -56.2462 -55.9096 -55.8903 -55.8710 -55.7106 -55.6593 -55.6522
   -55.6182 -55.5729 -55.5693 -55.5374 -55.0521 -55.0288 -55.0181 -54.9693
   -32.7075 -32.5279 -32.4999 -32.4688 -32.4457 -32.3796 -32.3334 -32.3035
   -32.2101 -32.1500 -32.1455 -32.1326 -32.1166 -32.1088 -32.0918 -32.0786
   -32.0743 -32.0514 -32.0310 -31.9124 -31.9050 -31.8974 -31.8951 -31.8840
   -31.8784 -31.8651 -31.8231 -31.8069 -31.7985 -31.7896 -31.7718 -31.7601
   -31.7480 -31.7364 -31.7306 -31.6767 -31.5642 -31.4512 -31.3820 -31.3537
   -31.3002 -31.2696 -31.2646 -31.2602 -31.1848 -31.1699 -31.0728 -31.0385
   -19.2509 -16.5068 -16.3289 -16.1021 -15.9993 -15.9514 -15.8022 -15.7948
   -15.6898 -15.5538 -15.5302 -15.5267 -15.4689 -15.4542 -15.4395 -15.3683
   -15.3517 -15.3264 -15.2903 -15.2757 -15.2297 -15.1204 -15.1114 -15.0899
   -15.0643 -15.0171 -14.9787 -14.8966 -14.8571 -14.6828 -13.5429 -13.4323
    -7.5469  -7.0841  -3.8874  -3.7336  -3.6393  -3.5687  -3.5357  -3.4499
    -3.3453  -3.3339  -3.2911  -3.2076  -3.0490  -3.0245  -2.9821  -2.9391
    -2.8476  -2.7741  -2.7325  -2.7056  -2.6538  -2.6051  -2.5416  -2.5189
    -2.4840  -2.4578  -2.4233  -2.3841  -2.3767  -2.3208  -2.1838  -2.1646
    -2.1358  -2.0797  -2.0620  -1.9771  -1.9115  -1.8599  -1.8280  -1.7883
    -1.7309  -1.7192  -1.6989  -1.6126  -1.5552  -1.5096  -1.4407  -1.3831
    -1.3548  -1.3263  -1.2558  -1.2166  -1.1735  -1.1684  -1.1179  -1.0901
    -0.9966  -0.9235  -0.8257  -0.8128  -0.6945  -0.6639  -0.6253  -0.6171
    -0.5850  -0.5278  -0.4876  -0.4068  -0.3387  -0.3200  -0.2898  -0.2762
    -0.1980  -0.1767  -0.1428  -0.1095  -0.0846  -0.0591  -0.0282  -0.0060
     0.0375   0.1676   0.2142   0.2718   0.2841   0.3184   0.4112   0.4311
     0.4410   0.5218   0.7197   0.8180   0.9350   0.9873   1.1004   1.1625
     1.4431   1.5325   1.8963   2.5077   3.1760   3.1959   3.5065   3.5827
     3.6535   3.6911   3.6987   3.7082   3.7533

          k = 0.0380 0.0419 0.0000 ( 17878 PWs)   bands (ev):

   -56.2749 -56.2510 -55.9048 -55.8895 -55.8757 -55.7114 -55.6576 -55.6473
   -55.6232 -55.5712 -55.5676 -55.5424 -55.0471 -55.0262 -55.0231 -54.9719
   -32.6542 -32.5237 -32.5037 -32.4559 -32.3928 -32.3895 -32.3890 -32.2545
   -32.1970 -32.1376 -32.1235 -32.1125 -32.1107 -32.1015 -32.0921 -32.0783
   -32.0648 -32.0438 -32.0227 -31.9366 -31.9099 -31.8990 -31.8914 -31.8906
   -31.8749 -31.8683 -31.8266 -31.8243 -31.8182 -31.8007 -31.7938 -31.7889
   -31.7586 -31.7478 -31.7429 -31.7336 -31.5205 -31.3977 -31.3778 -31.3579
   -31.2974 -31.2814 -31.2633 -31.2573 -31.1973 -31.1794 -31.1298 -31.0588
   -19.2507 -16.3796 -16.2137 -15.9973 -15.9007 -15.8486 -15.7944 -15.7466
   -15.6985 -15.6175 -15.5368 -15.5018 -15.4774 -15.4276 -15.4135 -15.3798
   -15.3627 -15.3357 -15.3165 -15.3053 -15.2940 -15.1683 -15.1432 -15.1208
   -15.1040 -15.0662 -15.0245 -14.9643 -14.9132 -14.7490 -13.5493 -13.4730
    -7.5514  -7.0851  -3.7448  -3.5815  -3.5504  -3.3994  -3.3760  -3.2949
    -3.1702  -3.1431  -3.1268  -3.0359  -2.9999  -2.8822  -2.8643  -2.8358
    -2.8027  -2.7568  -2.7338  -2.7182  -2.6973  -2.6905  -2.6607  -2.6102
    -2.5841  -2.5723  -2.5254  -2.4698  -2.4327  -2.4005  -2.3708  -2.3413
    -2.2422  -2.2078  -2.1371  -2.1218  -2.0035  -1.9824  -1.9059  -1.7852
    -1.7157  -1.6822  -1.6257  -1.5223  -1.4346  -1.3559  -1.3277  -1.3093
    -1.2280  -1.1973  -1.1467  -1.1262  -1.1180  -1.0663  -1.0249  -0.9971
    -0.9772  -0.8936  -0.8595  -0.8165  -0.8082  -0.7664  -0.7362  -0.7247
    -0.6745  -0.6367  -0.6139  -0.5634  -0.5042  -0.4844  -0.4696  -0.3887
    -0.3266  -0.2934  -0.2402  -0.2069  -0.1636  -0.1317  -0.0478   0.0104
     0.0664   0.1272   0.2187   0.2833   0.3185   0.3679   0.3878   0.4340
     0.4782   0.5019   0.5808   0.5963   0.8106   1.0433   1.1959   1.2723
     1.4186   1.5102   1.9767   2.4977   3.2804   3.4380   3.5110   3.5639
     3.6148   3.6876   3.7213   3.7880   3.8026

          k = 0.0380-0.0839 0.0000 ( 17916 PWs)   bands (ev):

   -56.2646 -56.2615 -55.8977 -55.8887 -55.8829 -55.7123 -55.6558 -55.6367
   -55.6337 -55.5729 -55.5574 -55.5528 -55.0351 -55.0351 -55.0235 -54.9747
   -32.5250 -32.5223 -32.5154 -32.5117 -32.4259 -32.4233 -32.2606 -32.2413
   -32.1789 -32.1700 -32.1544 -32.1071 -32.1053 -32.0978 -32.0863 -32.0614
   -32.0181 -31.9777 -31.9621 -31.9603 -31.9152 -31.9052 -31.8933 -31.8888
   -31.8842 -31.8739 -31.8693 -31.8651 -31.8600 -31.8567 -31.8117 -31.8050
   -31.7726 -31.7675 -31.7537 -31.7497 -31.4541 -31.3678 -31.3678 -31.3267
   -31.2939 -31.2666 -31.2659 -31.2656 -31.2275 -31.2273 -31.1853 -31.0781
   -19.2505 -16.1021 -16.0286 -15.9525 -15.9220 -15.7835 -15.7630 -15.6769
   -15.6201 -15.6137 -15.6057 -15.5501 -15.5406 -15.5080 -15.4719 -15.3772
   -15.3553 -15.3420 -15.3155 -15.2654 -15.2605 -15.1882 -15.1816 -15.1402
   -15.1382 -15.1000 -15.0861 -15.0374 -15.0355 -14.8321 -13.5352 -13.5351
    -7.5559  -7.0860  -3.6462  -3.3524  -3.1872  -3.1650  -3.1431  -3.0665
    -3.0513  -3.0292  -3.0193  -2.9906  -2.9504  -2.8976  -2.8842  -2.8488
    -2.8344  -2.8081  -2.7968  -2.7770  -2.7588  -2.6674  -2.6584  -2.6277
    -2.6089  -2.5984  -2.5715  -2.5312  -2.5027  -2.4347  -2.4153  -2.3568
    -2.2961  -2.0261  -2.0040  -1.9490  -1.9222  -1.8843  -1.8557  -1.8258
    -1.7552  -1.7380  -1.7034  -1.6765  -1.6387  -1.5903  -1.5565  -1.4964
    -1.4562  -1.3921  -1.3691  -1.3234  -1.1906  -1.0268  -0.9958  -0.9431
    -0.8844  -0.8237  -0.8015  -0.7652  -0.7327  -0.7034  -0.6812  -0.6773
    -0.6070  -0.6012  -0.5729  -0.5673  -0.5501  -0.5125  -0.4988  -0.4620
    -0.4167  -0.4045  -0.3756  -0.3408  -0.3002  -0.1543  -0.1113  -0.0006
     0.0265   0.0785   0.1460   0.2243   0.3114   0.3222   0.3370   0.4046
     0.4135   0.4330   0.6734   0.7344   0.8261   0.8330   1.3355   1.3382
     1.4382   1.4394   2.0848   2.4635   3.4729   3.4738   3.5706   3.6014
     3.6436   3.6510   3.6814   3.7139   3.8593

          k = 0.0380-0.0419 0.0000 ( 17876 PWs)   bands (ev):

   -56.2749 -56.2510 -55.9048 -55.8895 -55.8757 -55.7114 -55.6576 -55.6473
   -55.6232 -55.5712 -55.5676 -55.5424 -55.0471 -55.0262 -55.0231 -54.9719
   -32.6542 -32.5237 -32.5037 -32.4559 -32.3928 -32.3895 -32.3890 -32.2545
   -32.1970 -32.1376 -32.1233 -32.1130 -32.1109 -32.1008 -32.0921 -32.0782
   -32.0648 -32.0438 -32.0227 -31.9366 -31.9098 -31.8992 -31.8915 -31.8906
   -31.8749 -31.8683 -31.8263 -31.8244 -31.8182 -31.8008 -31.7938 -31.7888
   -31.7586 -31.7477 -31.7429 -31.7336 -31.5205 -31.3977 -31.3778 -31.3578
   -31.2973 -31.2814 -31.2633 -31.2573 -31.1973 -31.1794 -31.1298 -31.0588
   -19.2507 -16.3797 -16.2135 -15.9972 -15.9008 -15.8488 -15.7951 -15.7468
   -15.6982 -15.6175 -15.5367 -15.5010 -15.4773 -15.4271 -15.4145 -15.3798
   -15.3624 -15.3353 -15.3166 -15.3065 -15.2934 -15.1688 -15.1424 -15.1215
   -15.1032 -15.0664 -15.0247 -14.9645 -14.9132 -14.7489 -13.5493 -13.4730
    -7.5515  -7.0850  -3.7443  -3.5810  -3.5499  -3.4019  -3.3767  -3.2960
    -3.1742  -3.1584  -3.1119  -3.0336  -2.9937  -2.8842  -2.8608  -2.8321
    -2.8030  -2.7591  -2.7400  -2.7222  -2.6979  -2.6926  -2.6543  -2.6091
    -2.5835  -2.5743  -2.5287  -2.4682  -2.4381  -2.3998  -2.3744  -2.3445
    -2.2475  -2.2072  -2.1337  -2.1245  -2.0042  -1.9844  -1.8923  -1.8046
    -1.7038  -1.6792  -1.6114  -1.5225  -1.4285  -1.3618  -1.3260  -1.3182
    -1.2220  -1.1900  -1.1453  -1.1273  -1.1151  -1.0597  -1.0246  -0.9882
    -0.9736  -0.8900  -0.8527  -0.8151  -0.8063  -0.7631  -0.7381  -0.7121
    -0.6864  -0.6481  -0.6055  -0.5521  -0.5092  -0.5017  -0.4616  -0.4109
    -0.3320  -0.3102  -0.2252  -0.1908  -0.1652  -0.1512  -0.0437   0.0005
     0.0662   0.1180   0.2265   0.2877   0.3197   0.3560   0.3864   0.4295
     0.4871   0.5059   0.5806   0.5955   0.8095   1.0427   1.1960   1.2731
     1.4184   1.5109   1.9744   2.4960   3.2804   3.4387   3.5103   3.5637
     3.6175   3.6806   3.7345   3.7867   3.7896

          k =-0.0760-0.0000 0.0000 ( 17886 PWs)   bands (ev):

   -56.2798 -56.2462 -55.9095 -55.8903 -55.8710 -55.7106 -55.6593 -55.6521
   -55.6182 -55.5729 -55.5693 -55.5374 -55.0520 -55.0288 -55.0181 -54.9693
   -32.7083 -32.5278 -32.4997 -32.4666 -32.4458 -32.3799 -32.3334 -32.3043
   -32.2100 -32.1609 -32.1485 -32.1324 -32.1147 -32.0995 -32.0918 -32.0792
   -32.0741 -32.0402 -32.0309 -31.9064 -31.9046 -31.8954 -31.8936 -31.8841
   -31.8785 -31.8650 -31.8229 -31.8048 -31.7985 -31.7903 -31.7869 -31.7635
   -31.7464 -31.7365 -31.7305 -31.6770 -31.5637 -31.4509 -31.3845 -31.3526
   -31.3025 -31.2696 -31.2645 -31.2596 -31.1846 -31.1699 -31.0729 -31.0385
   -19.2507 -16.4125 -16.1632 -16.0127 -16.0045 -15.9020 -15.8853 -15.7906
   -15.7191 -15.6354 -15.6176 -15.6039 -15.5487 -15.5321 -15.5112 -15.3591
   -15.3153 -15.3150 -15.2913 -15.2655 -15.1800 -15.1657 -15.1267 -15.0741
   -15.0409 -15.0388 -14.9298 -14.8983 -14.8550 -14.6821 -13.5401 -13.4320
    -7.5440  -7.0782  -3.8713  -3.6146  -3.4396  -3.4069  -3.3667  -3.3505
    -3.3345  -3.2394  -3.2099  -3.1756  -3.1038  -3.0581  -2.9850  -2.9198
    -2.8254  -2.7693  -2.6812  -2.6412  -2.6120  -2.5312  -2.4877  -2.4589
    -2.4222  -2.4175  -2.3821  -2.3095  -2.2339  -2.2211  -2.1864  -2.1445
    -2.1078  -2.0916  -2.0809  -2.0479  -2.0400  -1.9828  -1.9765  -1.7141
    -1.6871  -1.6771  -1.6185  -1.6062  -1.5886  -1.5612  -1.5134  -1.4732
    -1.3398  -1.3315  -1.3167  -1.2895  -1.2613  -1.2230  -1.1437  -1.1264
    -1.1083  -1.0637  -1.0177  -0.8903  -0.7272  -0.6350  -0.6290  -0.5864
    -0.5641  -0.5510  -0.5223  -0.4842  -0.4329  -0.4223  -0.3896  -0.3196
    -0.2972  -0.2704  -0.1780  -0.1482  -0.1219  -0.1086  -0.0587  -0.0334
     0.0261   0.1422   0.1968   0.2494   0.2697   0.2986   0.3634   0.4625
     0.5636   0.6549   0.6662   0.7330   0.8571   0.9731   1.0096   1.1410
     1.3020   1.4470   1.9009   2.4009   3.1883   3.3233   3.3314   3.4951
     3.5089   3.6049   3.6847   3.7795   3.8471

          k =-0.0760 0.0419 0.0000 ( 17914 PWs)   bands (ev):

   -56.2749 -56.2511 -55.9048 -55.8895 -55.8757 -55.7115 -55.6576 -55.6472
   -55.6232 -55.5712 -55.5676 -55.5425 -55.0471 -55.0263 -55.0231 -54.9719
   -32.6551 -32.5237 -32.5037 -32.4544 -32.3928 -32.3898 -32.3893 -32.2555
   -32.1971 -32.1375 -32.1254 -32.1217 -32.1104 -32.0961 -32.0942 -32.0787
   -32.0649 -32.0297 -32.0235 -31.9370 -31.9091 -31.8984 -31.8913 -31.8816
   -31.8753 -31.8684 -31.8323 -31.8191 -31.8171 -31.8023 -31.7939 -31.7887
   -31.7700 -31.7505 -31.7429 -31.7338 -31.5203 -31.3975 -31.3800 -31.3572
   -31.2991 -31.2814 -31.2632 -31.2573 -31.1973 -31.1794 -31.1299 -31.0588
   -19.2505 -16.2961 -16.0421 -15.9287 -15.8946 -15.8474 -15.8161 -15.7506
   -15.7015 -15.6282 -15.5883 -15.5793 -15.5197 -15.4945 -15.4828 -15.4053
   -15.3807 -15.3377 -15.3146 -15.3035 -15.2711 -15.2270 -15.1445 -15.1239
   -15.0841 -15.0516 -15.0266 -14.9726 -14.9108 -14.7488 -13.5473 -13.4733
    -7.5498  -7.0800  -3.7362  -3.5629  -3.2541  -3.1830  -3.1452  -3.1279
    -3.0629  -3.0187  -3.0030  -2.9766  -2.9469  -2.9156  -2.8787  -2.8221
    -2.7937  -2.7831  -2.7503  -2.7423  -2.6655  -2.6093  -2.5848  -2.5768
    -2.5692  -2.5580  -2.5270  -2.5144  -2.4278  -2.3586  -2.3081  -2.2559
    -2.1841  -2.1614  -2.0117  -1.9658  -1.9459  -1.9140  -1.8991  -1.8847
    -1.8468  -1.6674  -1.6017  -1.5114  -1.4835  -1.4375  -1.3932  -1.3632
    -1.3277  -1.2843  -1.2449  -1.2101  -1.1880  -1.1643  -1.1408  -1.1068
    -1.0951  -1.0507  -1.0230  -0.9838  -0.9019  -0.8844  -0.8581  -0.7901
    -0.7413  -0.7075  -0.6715  -0.6392  -0.6133  -0.5868  -0.5661  -0.5238
    -0.4921  -0.3528  -0.3326  -0.2664  -0.2339  -0.1624  -0.0782   0.0295
     0.0663   0.2213   0.2383   0.2744   0.3666   0.3791   0.4613   0.5231
     0.5409   0.6075   0.6147   0.6932   0.7559   0.8845   1.2130   1.2781
     1.3499   1.4834   1.9899   2.4852   3.2706   3.3991   3.4918   3.5176
     3.5749   3.6007   3.6836   3.8083   3.8215

          k =-0.0760-0.0839 0.0000 ( 17948 PWs)   bands (ev):

   -56.2646 -56.2615 -55.8977 -55.8887 -55.8829 -55.7123 -55.6559 -55.6367
   -55.6337 -55.5729 -55.5574 -55.5528 -55.0352 -55.0351 -55.0235 -54.9747
   -32.5257 -32.5230 -32.5154 -32.5118 -32.4250 -32.4224 -32.2607 -32.2415
   -32.1796 -32.1701 -32.1545 -32.1064 -32.1053 -32.0983 -32.0863 -32.0614
   -32.0190 -31.9720 -31.9654 -31.9636 -31.9141 -31.9041 -31.8948 -31.8903
   -31.8844 -31.8739 -31.8720 -31.8638 -31.8471 -31.8443 -31.8138 -31.8065
   -31.7724 -31.7673 -31.7632 -31.7587 -31.4541 -31.3685 -31.3685 -31.3266
   -31.2945 -31.2674 -31.2659 -31.2656 -31.2275 -31.2274 -31.1853 -31.0782
   -19.2504 -16.0591 -15.9592 -15.8178 -15.7839 -15.7463 -15.7452 -15.6996
   -15.6655 -15.6364 -15.6321 -15.5441 -15.5142 -15.4894 -15.4844 -15.4188
   -15.4120 -15.4059 -15.4023 -15.3324 -15.3269 -15.2290 -15.2200 -15.1391
   -15.1317 -15.0966 -15.0781 -15.0347 -15.0323 -14.8300 -13.5350 -13.5349
    -7.5553  -7.0817  -3.6432  -3.3521  -3.1588  -3.0287  -2.9870  -2.8989
    -2.8736  -2.8643  -2.8638  -2.8008  -2.7567  -2.7459  -2.7056  -2.6794
    -2.6731  -2.6507  -2.6465  -2.6154  -2.6134  -2.6082  -2.6060  -2.5927
    -2.5569  -2.5088  -2.5059  -2.4938  -2.4866  -2.4384  -2.3690  -2.3321
    -2.2581  -2.1642  -2.1631  -2.0908  -2.0554  -1.9816  -1.9721  -1.9666
    -1.9478  -1.9219  -1.7830  -1.6759  -1.6526  -1.6360  -1.5849  -1.5767
    -1.5225  -1.3293  -1.3119  -1.2527  -1.1848  -1.1619  -1.1225  -1.1112
    -1.0505  -1.0463  -1.0261  -0.9904  -0.9818  -0.9366  -0.9087  -0.8215
    -0.7992  -0.7711  -0.7513  -0.6823  -0.6564  -0.6148  -0.5770  -0.5495
    -0.5315  -0.5075  -0.4362  -0.3934  -0.3279  -0.2841  -0.2190   0.0228
     0.0305   0.2198   0.2964   0.3863   0.4520   0.4720   0.4864   0.5485
     0.6174   0.6241   0.6401   0.6612   0.7357   0.7404   1.3615   1.3640
     1.4148   1.4153   2.1032   2.5270   3.5371   3.5418   3.5567   3.5775
     3.5855   3.6305   3.6463   3.6797   3.9471

     the Fermi energy is     2.4956 ev

!    total energy              =   -2931.21630486 Ry
     estimated scf accuracy    <       0.00000004 Ry
     smearing contrib. (-TS)   =      -0.01054065 Ry
     internal energy E=F+TS    =   -2931.20576421 Ry

     The total energy is F=E-TS. E is the sum of the following terms:
     one-electron contribution =  -24526.31029445 Ry
     hartree contribution      =   12349.61199174 Ry
     xc contribution           =    -481.85252374 Ry
     ewald contribution        =    9727.34390589 Ry
     electric field correction =       0.00115635 Ry

     convergence has been achieved in  47 iterations

     Forces acting on atoms (cartesian axes, Ry/au):

     atom    1 type  1   force =     0.00016735   -0.00009316    0.14782081
     atom    2 type  1   force =     0.00001303    0.00056290   -0.16852027
     atom    3 type  2   force =     0.00012284    0.00257760   -0.06042121
     atom    4 type  2   force =    -0.00023205   -0.00139761    0.04034273
     atom    5 type  2   force =    -0.02184439    0.00009337    0.00384053
     atom    6 type  2   force =     0.02069127   -0.00003701    0.00305001
     atom    7 type  1   force =     0.00105844    0.00044164    0.00001166
     atom    8 type  1   force =    -0.00060514    0.00110580   -0.00047420
     atom    9 type  2   force =    -0.00007473    0.00015561   -0.00038378
     atom   10 type  2   force =     0.00022762   -0.00015587    0.00046498
     atom   11 type  2   force =     0.00009979   -0.00022856    0.00009766
     atom   12 type  2   force =    -0.00027399   -0.00027036   -0.00006349
     atom   13 type  1   force =     0.00015697   -0.00045541   -0.00051799
     atom   14 type  1   force =     0.00022939   -0.00025370    0.00057504
     atom   15 type  2   force =     0.00006031   -0.00021853    0.00020687
     atom   16 type  2   force =    -0.00003543    0.00011149   -0.00002851
     atom   17 type  2   force =    -0.00016878    0.00021617   -0.00046410
     atom   18 type  2   force =    -0.00034484   -0.00014366    0.00000195
     atom   19 type  1   force =     0.00060917    0.00079150   -0.00010917
     atom   20 type  1   force =    -0.00049754   -0.00066792    0.00118591
     atom   21 type  2   force =     0.00009171   -0.00010148    0.10202765
     atom   22 type  2   force =     0.00004864    0.00034891   -0.00027736
     atom   23 type  2   force =    -0.07529128    0.00018293   -0.03472415
     atom   24 type  2   force =     0.07531619    0.00062110   -0.03481382
     atom   25 type  1   force =    -0.00003139   -0.00011658    0.14837007
     atom   26 type  1   force =     0.00005986   -0.00186633   -0.16843956
     atom   27 type  2   force =     0.00016155    0.00246475   -0.05953048
     atom   28 type  2   force =    -0.00017128   -0.00144582    0.04094665
     atom   29 type  2   force =    -0.02195024    0.00144809    0.00420188
     atom   30 type  2   force =     0.02064962    0.00073175    0.00338701
     atom   31 type  1   force =     0.00110303   -0.00044868    0.00003358
     atom   32 type  1   force =    -0.00066436   -0.00068238   -0.00042978
     atom   33 type  2   force =     0.00011198   -0.00013989   -0.00061282
     atom   34 type  2   force =     0.00021737    0.00062625   -0.00052833
     atom   35 type  2   force =    -0.00015380    0.00015666   -0.00015478
     atom   36 type  2   force =     0.00053409   -0.00031230   -0.00012238
     atom   37 type  1   force =     0.00006745    0.00047569    0.00011750
     atom   38 type  1   force =    -0.00006614    0.00035332    0.00045865
     atom   39 type  2   force =     0.00002540   -0.00057994    0.00048745
     atom   40 type  2   force =    -0.00006617   -0.00042750    0.00046566
     atom   41 type  2   force =    -0.00065590   -0.00094775   -0.00022306
     atom   42 type  2   force =     0.00043812   -0.00052620    0.00024098
     atom   43 type  1   force =     0.00112388   -0.00085640   -0.00023143
     atom   44 type  1   force =    -0.00065587   -0.00020019    0.00012886
     atom   45 type  2   force =     0.00008488   -0.00008991    0.10197532
     atom   46 type  2   force =    -0.07530818    0.00010085   -0.03473327
     atom   47 type  2   force =     0.07534057    0.00054254   -0.03483573
     atom   48 type  3   force =     0.00000223   -0.00087076   -0.00044265
     atom   49 type  4   force =     0.00027783   -0.00014691    0.00024025
     atom   50 type  2   force =     0.00488295    0.00379436   -0.00248084
     atom   51 type  4   force =    -0.00037294   -0.00064807    0.00030309
     atom   52 type  4   force =    -0.00450910   -0.00357444    0.00258042

     Total force =     0.401827     Total SCF correction =     0.000715
  @ DRIVER MODE: Message from server: STATUS
  @ DRIVER MODE: Message from server: GETFORCE
  @ DRIVER MODE: Returning v,forces,stress,ensemble 

     Writing output data file ./calc.save/
  @ DRIVER MODE: Message from server: EXIT
  @ DRIVE MODE: Exiting  
 
     init_run     :     10.51s CPU     10.72s WALL (       1 calls)
     electrons    :    699.53s CPU    709.89s WALL (       1 calls)
     forces       :      2.17s CPU      2.26s WALL (       1 calls)

     Called by init_run:
     wfcinit      :      4.64s CPU      4.71s WALL (       1 calls)
     potinit      :      5.29s CPU      5.36s WALL (       1 calls)
     hinit0       :      0.25s CPU      0.25s WALL (       1 calls)

     Called by electrons:
     c_bands      :    593.38s CPU    597.56s WALL (      47 calls)
     sum_band     :     72.20s CPU     74.73s WALL (      47 calls)
     v_of_rho     :     27.97s CPU     29.28s WALL (      48 calls)
     newd         :      9.85s CPU     12.26s WALL (      48 calls)
     mix_rho      :      0.96s CPU      0.97s WALL (      47 calls)
     vdW_kernel   :      4.54s CPU      4.56s WALL (       1 calls)

     Called by c_bands:
     init_us_2    :      4.17s CPU      4.19s WALL (     960 calls)
     cegterg      :    580.98s CPU    584.97s WALL (     471 calls)

     Called by *egterg:
     cdiaghg      :     93.91s CPU     94.35s WALL (    4330 calls)
     h_psi        :    314.35s CPU    317.19s WALL (    4340 calls)
     s_psi        :     40.54s CPU     40.67s WALL (    4340 calls)
     g_psi        :      1.15s CPU      1.15s WALL (    3859 calls)

     Called by h_psi:
     h_psi:calbec :     38.71s CPU     38.92s WALL (    4340 calls)
     vloc_psi     :    232.89s CPU    235.19s WALL (    4340 calls)
     add_vuspsi   :     40.69s CPU     40.89s WALL (    4340 calls)

     General routines
     calbec       :     51.91s CPU     52.16s WALL (    4850 calls)
     fft          :     13.51s CPU     13.61s WALL (    3024 calls)
     ffts         :      0.09s CPU      0.10s WALL (      95 calls)
     fftw         :    261.72s CPU    264.30s WALL (  625398 calls)
     interpolate  :      0.30s CPU      0.30s WALL (      48 calls)
     davcio       :      0.00s CPU      1.69s WALL (      10 calls)
 
     Parallel routines
 
     PWSCF        :  11m52.62s CPU  12m 7.19s WALL

 
   This run was terminated on:  22:37:48  15Sep2021            

=------------------------------------------------------------------------------=
   JOB DONE.
=------------------------------------------------------------------------------=
