
     Program PWSCF v.6.7GPU starts on 16Sep2021 at  0:49:25 

     This program is part of the open-source Quantum ESPRESSO suite
     for quantum simulation of materials; please cite
         "P. Giannozzi et al., J. Phys.:Condens. Matter 21 395502 (2009);
         "P. Giannozzi et al., J. Phys.:Condens. Matter 29 465901 (2017);
         "P. Giannozzi et al., J. Chem. Phys. 152 154105 (2020);
          URL http://www.quantum-espresso.org", 
     in publications or presentations arising from this work. More details at
     http://www.quantum-espresso.org/quote

     Parallel version (MPI), running on    10 processors

     MPI processes distributed on     1 nodes
     R & G space division:  proc/nbgrp/npool/nimage =      10
     Reading input from /storage/home/hcoda1/3/ntian30/research/carbon/CxH_vib/H2O_calc/ads_slab/CH3NNHHHH2O_a/out_0026/pw.inp
Warning: card &CELL ignored
Warning: card   CELL_DYNAMICS='IPI', ignored
Warning: card / ignored

     Current dimensions of program PWSCF are:
     Max number of different atomic species (ntypx) = 10
     Max number of k-points (npk) =  40000
     Max angular momentum in pseudopotentials (lmaxx) =  3
     Presently no symmetry can be used with electric field

     Message from routine cell_base_init:
     DEPRECATED: use true lattice parameter, not A to a.u. conversion factor

     **************************************************************************
     Initializing libbeef V0.1.2 with the BEEF-vdW functional.
     Citation: Wellendorff et al., PRB 85, 235149 (2012).
     **************************************************************************


     IMPORTANT: XC functional enforced from input :
     Exchange-correlation= BEEF-VDW
                           (   1   4  43  14   2   0   0)
     Any further DFT definition will be discarded
     Please, verify this is what you really want


     Subspace diagonalization in iterative solution of the eigenvalue problem:
     one sub-group per band group will be used
     scalapack distributed-memory algorithm (size of sub-group:  3*  3 procs)

  @ DRIVER MODE: Connecting to 
 qe_1139763_2852622.sched-torque.pace.gatech.eduh9llpd75_scratch
  using UNIX socket
  @ DRIVER MODE: Message from server: STATUS
  @ DRIVER MODE: Message from server: INIT
  @ DRIVER MODE: Receiving replica           0          -1
  @ DRIVER MODE: Receiving encoded integer          25
  @ DRIVER MODE:  SCF:  T  FORCE:  T  STRESS:  F  VC:  F  ENSEMBLE:  F
  @ DRIVER MODE:  SCF:  T  FORCE:  T  STRESS:  F  VC:  F  ENSEMBLE:  F
 
     Parallelization info
     --------------------
     sticks:   dense  smooth     PW     G-vecs:    dense   smooth      PW
     Min         327     131     37                56683    14340    2191
     Max         328     133     38                56694    14346    2206
     Sum        3275    1317    379               566857   143421   21985
 
     Using Slab Decomposition
 


     bravais-lattice index     =            0
     lattice parameter (alat)  =       1.8897  a.u.
     unit-cell volume          =    6658.9804 (a.u.)^3
     number of atoms/cell      =           59
     number of atomic types    =            5
     number of electrons       =       406.00
     number of Kohn-Sham states=          213
     kinetic-energy cutoff     =      29.3995  Ry
     charge density cutoff     =     293.9946  Ry
     scf convergence threshold =      7.3E-08
     mixing beta               =       0.0500
     number of iterations used =            8  plain     mixing
     Exchange-correlation= BEEF-VDW
                           (   1   4  43  14   2   0   0)

     celldm(1)=   1.889726  celldm(2)=   0.000000  celldm(3)=   0.000000
     celldm(4)=   0.000000  celldm(5)=   0.000000  celldm(6)=   0.000000

     crystal axes: (cart. coord. in units of alat)
               a(1) = (   6.579727   0.000000   0.000000 )  
               a(2) = (  -0.000775   5.961596   0.000000 )  
               a(3) = (   0.000000   0.000000  25.155947 )  

     reciprocal axes: (cart. coord. in units 2 pi/alat)
               b(1) = (  0.151982  0.000020  0.000000 )  
               b(2) = (  0.000000  0.167740  0.000000 )  
               b(3) = (  0.000000  0.000000  0.039752 )  


     PseudoPot. # 1 for Ti read from file:
     /storage/coda1/p-amedford6/0/shared/rich_project_chbe-medford/medford-share/data/pseudos_module/espresso/nninc/pbe/van/Ti.UPF
     MD5 check sum: 8e4df49b7f0d34bbd5052bf3f5ea0213
     Pseudo is Ultrasoft, Zval = 12.0
     Generated by new atomic code, or converted to UPF format
     Using radial grid of  851 points,  6 beta functions with: 
                l(1) =   0
                l(2) =   0
                l(3) =   1
                l(4) =   1
                l(5) =   2
                l(6) =   2
     Q(r) pseudized with  8 coefficients,  rinner =    1.000   1.000   1.000
                                                       1.000   1.000

     PseudoPot. # 2 for O  read from file:
     /storage/coda1/p-amedford6/0/shared/rich_project_chbe-medford/medford-share/data/pseudos_module/espresso/nninc/pbe/van/O.UPF
     MD5 check sum: 78c19812648e8988a0fe644b0f25305e
     Pseudo is Ultrasoft, Zval =  6.0
     Generated by new atomic code, or converted to UPF format
     Using radial grid of  737 points,  4 beta functions with: 
                l(1) =   0
                l(2) =   0
                l(3) =   1
                l(4) =   1
     Q(r) pseudized with  8 coefficients,  rinner =    0.800   0.800   0.800


     PseudoPot. # 3 for N  read from file:
     /storage/coda1/p-amedford6/0/shared/rich_project_chbe-medford/medford-share/data/pseudos_module/espresso/nninc/pbe/van/N.UPF
     MD5 check sum: 90d10febe142ad51ac9d5be1deb811c4
     Pseudo is Ultrasoft, Zval =  5.0
     Generated by new atomic code, or converted to UPF format
     Using radial grid of  729 points,  4 beta functions with: 
                l(1) =   0
                l(2) =   0
                l(3) =   1
                l(4) =   1
     Q(r) pseudized with  8 coefficients,  rinner =    0.800   0.800   0.800


     PseudoPot. # 4 for C  read from file:
     /storage/coda1/p-amedford6/0/shared/rich_project_chbe-medford/medford-share/data/pseudos_module/espresso/nninc/pbe/van/C.UPF
     MD5 check sum: 1a69bf6b8db32088f5b2163dbdb77a27
     Pseudo is Ultrasoft, Zval =  4.0
     Generated by new atomic code, or converted to UPF format
     Using radial grid of  721 points,  4 beta functions with: 
                l(1) =   0
                l(2) =   0
                l(3) =   1
                l(4) =   1
     Q(r) pseudized with  8 coefficients,  rinner =    0.800   0.800   0.800


     PseudoPot. # 5 for H  read from file:
     /storage/coda1/p-amedford6/0/shared/rich_project_chbe-medford/medford-share/data/pseudos_module/espresso/nninc/pbe/van/H.UPF
     MD5 check sum: b5ee9d7bfd3a09ee7748110bda690ff7
     Pseudo is Ultrasoft, Zval =  1.0
     Generated by new atomic code, or converted to UPF format
     Using radial grid of  615 points,  1 beta functions with: 
                l(1) =   0
     Q(r) pseudized with  8 coefficients,  rinner =    0.800

     atomic species   valence    mass     pseudopotential
        Ti1           12.00    47.86700     Ti( 1.00)
        O1             6.00    15.99900     O ( 1.00)
        N1             5.00    14.00700     N ( 1.00)
        C1             4.00    12.01100     C ( 1.00)
        H1             1.00     1.00800     H ( 1.00)

     No symmetry found



   Cartesian axes

     site n.     atom                  positions (alat units)
         1           Ti1 tau(   1) = (   0.0004258   2.9801865   6.0000000  )
         2           Ti1 tau(   2) = (   3.2906075   1.4906267   6.0002472  )
         3           O1  tau(   3) = (   0.0006271   0.0005054   7.9858123  )
         4           O1  tau(   4) = (   3.2906025   0.0005020   7.3038282  )
         5           O1  tau(   5) = (   4.5942328   1.4918067   9.2879030  )
         6           O1  tau(   6) = (   1.9868534   1.4903216   9.2879459  )
         7           Ti1 tau(   7) = (   3.2907910   2.8959150   9.1758416  )
         8           Ti1 tau(   8) = (   0.0015273   1.4827037   9.2680791  )
         9           O1  tau(   9) = (   3.2800960   5.9426830  11.3808346  )
        10           O1  tau(  10) = (   0.0116148   5.9584955  10.6183126  )
        11           O1  tau(  11) = (   1.2797812   1.4911726  12.6624455  )
        12           O1  tau(  12) = (   5.2824698   1.4871998  12.6412817  )
        13           Ti1 tau(  13) = (   0.0041451   2.9720195  12.5119452  )
        14           Ti1 tau(  14) = (   3.3095611   1.4699318  12.5307708  )
        15           O1  tau(  15) = (   6.5436702   0.0697967  14.6864816  )
        16           O1  tau(  16) = (   3.2812162   5.9597207  14.0300411  )
        17           O1  tau(  17) = (   4.5129646   1.5046642  16.2361130  )
        18           O1  tau(  18) = (   1.9708392   1.5012857  16.1671103  )
        19           Ti1 tau(  19) = (   3.2655272   2.9480959  15.7331506  )
        20           Ti1 tau(  20) = (   6.5674642   1.4497656  15.9937491  )
        21           O1  tau(  21) = (   3.2904802   0.0005063   4.7018136  )
        22           O1  tau(  22) = (   6.5217933   5.8323795  17.2454964  )
        23           O1  tau(  23) = (   1.3043587   1.4918075   6.0039043  )
        24           O1  tau(  24) = (   5.2767064   1.4903225   6.0039473  )
        25           Ti1 tau(  25) = (   0.0000382   5.9609847   6.0000000  )
        26           Ti1 tau(  26) = (   3.2902200   4.4714249   6.0002472  )
        27           O1  tau(  27) = (   0.0002396   2.9813036   7.9858123  )
        28           O1  tau(  28) = (   3.2902150   2.9813002   7.3038282  )
        29           O1  tau(  29) = (   4.5938453   4.4726049   9.2879030  )
        30           O1  tau(  30) = (   1.9864658   4.4711199   9.2879459  )
        31           Ti1 tau(  31) = (   3.2891106   5.8743827   9.1763621  )
        32           Ti1 tau(  32) = (   0.0006254   4.4649316   9.2693709  )
        33           O1  tau(  33) = (   3.2830490   2.9749636  11.3746576  )
        34           O1  tau(  34) = (   0.0092240   2.9805883  10.6323155  )
        35           O1  tau(  35) = (   1.2760807   4.4612897  12.6946019  )
        36           O1  tau(  36) = (   5.2846406   4.4647657  12.6742532  )
        37           Ti1 tau(  37) = (   0.0173662   5.9591775  12.4970172  )
        38           Ti1 tau(  38) = (   3.3070294   4.4569304  12.5379467  )
        39           O1  tau(  39) = (   6.5190077   2.9374781  14.9220565  )
        40           O1  tau(  40) = (   3.2909943   2.9519766  13.9498127  )
        41           O1  tau(  41) = (   4.5146313   4.4149292  16.1460290  )
        42           O1  tau(  42) = (   1.9668235   4.4047650  16.1116202  )
        43           Ti1 tau(  43) = (   3.2426406   5.9218513  15.8539982  )
        44           Ti1 tau(  44) = (   6.5337747   4.6515477  15.8702276  )
        45           O1  tau(  45) = (   3.2900926   2.9813045   4.7018136  )
        46           O1  tau(  46) = (   1.3039711   4.4726057   6.0039043  )
        47           O1  tau(  47) = (   5.2763189   4.4711207   6.0039473  )
        48           N1  tau(  48) = (   1.0802268   3.0592680  18.8437747  )
        49           N1  tau(  49) = (   6.4825355   2.6367244  18.1156036  )
        50           C1  tau(  50) = (   0.7269815   3.7261681  20.0984356  )
        51           H1  tau(  51) = (   0.0344531   4.5672025  19.9493712  )
        52           H1  tau(  52) = (   0.2818923   3.0081313  20.7822053  )
        53           H1  tau(  53) = (   1.6424345   4.1087450  20.5485440  )
        54           H1  tau(  54) = (   5.7152520   3.3097272  18.2274121  )
        55           H1  tau(  55) = (   6.1788988   1.7551022  18.5268573  )
        56           H1  tau(  56) = (   1.5478348   3.7306874  18.2371031  )
        57           O1  tau(  57) = (   3.1661568   0.0027346  18.3937517  )
        58           H1  tau(  58) = (   4.0701885   0.3469208  18.4697374  )
        59           H1  tau(  59) = (   2.5798038   0.7742236  18.5044111  )

     number of k points=    10  Fermi-Dirac smearing, width (Ry)=  0.0073
                       cart. coord. in units 2pi/alat
        k(    1) = (   0.0000000   0.0000000   0.0000000), wk =   0.1250000
        k(    2) = (   0.0000000   0.0419351   0.0000000), wk =   0.2500000
        k(    3) = (   0.0000000  -0.0838702   0.0000000), wk =   0.1250000
        k(    4) = (   0.0379955   0.0000049   0.0000000), wk =   0.2500000
        k(    5) = (   0.0379955   0.0419400   0.0000000), wk =   0.2500000
        k(    6) = (   0.0379955  -0.0838652   0.0000000), wk =   0.2500000
        k(    7) = (   0.0379955  -0.0419301   0.0000000), wk =   0.2500000
        k(    8) = (  -0.0759910  -0.0000099   0.0000000), wk =   0.1250000
        k(    9) = (  -0.0759910   0.0419252   0.0000000), wk =   0.2500000
        k(   10) = (  -0.0759910  -0.0838800   0.0000000), wk =   0.1250000

     Dense  grid:   566857 G-vectors     FFT dimensions: (  72,  64, 270)

     Smooth grid:   143421 G-vectors     FFT dimensions: (  45,  40, 180)

     Estimated max dynamical RAM per process >     368.16 MB

     Estimated total dynamical RAM >       3.60 GB
     Cannot read rho : file not found

     Initial potential from superposition of free atoms

     starting charge  389.99912, renormalised to  406.00000

     negative rho (up, down):  1.307E-02 0.000E+00


     %%%%%%%%%%%%%%%%%%%%%%%%%%%%%%%%%%%%%%%%%%%%%%%%%%%%%%%%%%%%%%%%%%%%%%%%
     %                                                                      %
     % You are using vdW-DF, which was implemented by the Thonhauser group. %
     % Please cite the following two papers that made this development      %
     % possible and the two reviews that describe the various versions:     %
     %                                                                      %
     %   T. Thonhauser et al., PRL 115, 136402 (2015).                      %
     %   T. Thonhauser et al., PRB 76, 125112 (2007).                       %
     %   K. Berland et al., Rep. Prog. Phys. 78, 066501 (2015).             %
     %   D.C. Langreth et al., J. Phys.: Condens. Matter 21, 084203 (2009). %
     %                                                                      %
     %                                                                      %
     % If you are calculating the stress with vdW-DF, please also cite:     %
     %                                                                      %
     %   R. Sabatini et al., J. Phys.: Condens. Matter 24, 424209 (2012).   %
     %                                                                      %
     %%%%%%%%%%%%%%%%%%%%%%%%%%%%%%%%%%%%%%%%%%%%%%%%%%%%%%%%%%%%%%%%%%%%%%%%


 
     Adding external electric field

     Computed dipole along edir(3) : 
        Dipole              -16.1158 Ry au,        -40.9623 Debye
        Dipole field         -0.0304 Ry au, 
 
        Potential amp.        2.8192 Ry
        Total length         46.3494 bohr
 
     Starting wfcs are  308 atomic wfcs
  @ DRIVER MODE: Message from server: STATUS
  @ DRIVER MODE: Message from server: POSDATA
  @ DRIVER MODE: Reading and sharing cell 
  @ DRIVER MODE: Reading and sharing positions 
  @ DRIVER MODE: Received positions 

     total cpu time spent up to now is       11.4 secs

     Self-consistent Calculation

     iteration #  1     ecut=    29.40 Ry     beta= 0.05
     Davidson diagonalization with overlap
     c_bands:  2 eigenvalues not converged
     c_bands:  3 eigenvalues not converged
     c_bands:  2 eigenvalues not converged
     c_bands:  3 eigenvalues not converged
     c_bands:  4 eigenvalues not converged
     c_bands:  2 eigenvalues not converged
     c_bands:  1 eigenvalues not converged
     c_bands:  5 eigenvalues not converged
     c_bands:  1 eigenvalues not converged
     ethr =  1.00E-05,  avg # of iterations = 23.1

     negative rho (up, down):  7.466E-03 0.000E+00
 
     Adding external electric field

     Computed dipole along edir(3) : 
        Dipole               63.0702 Ry au,        160.3086 Debye
        Dipole field          0.1190 Ry au, 
 
        Potential amp.      -11.0332 Ry
        Total length         46.3494 bohr
 

     total cpu time spent up to now is       58.6 secs

     total energy              =   -2140.63566313 Ry
     estimated scf accuracy    <    9598.82931837 Ry

     iteration #  2     ecut=    29.40 Ry     beta= 0.05
     Davidson diagonalization with overlap
     ethr =  1.00E-02,  avg # of iterations = 32.9

     negative rho (up, down):  2.099E-04 0.000E+00
 
     Adding external electric field

     Computed dipole along edir(3) : 
        Dipole                0.0600 Ry au,          0.1526 Debye
        Dipole field          0.0001 Ry au, 
 
        Potential amp.       -0.0105 Ry
        Total length         46.3494 bohr
 

     total cpu time spent up to now is      157.7 secs

     total energy              =   -2440.18026376 Ry
     estimated scf accuracy    <   80610.57765608 Ry

     iteration #  3     ecut=    29.40 Ry     beta= 0.05
     Davidson diagonalization with overlap
     ethr =  1.00E-02,  avg # of iterations = 17.3

     negative rho (up, down):  2.540E-04 0.000E+00
 
     Adding external electric field

     Computed dipole along edir(3) : 
        Dipole               -3.7824 Ry au,         -9.6138 Debye
        Dipole field         -0.0071 Ry au, 
 
        Potential amp.        0.6617 Ry
        Total length         46.3494 bohr
 

     total cpu time spent up to now is      208.7 secs

     total energy              =   -2966.05354524 Ry
     estimated scf accuracy    <    8695.17443663 Ry

     iteration #  4     ecut=    29.40 Ry     beta= 0.05
     Davidson diagonalization with overlap
     ethr =  1.00E-02,  avg # of iterations = 10.7

     negative rho (up, down):  2.665E-04 0.000E+00
 
     Adding external electric field

     Computed dipole along edir(3) : 
        Dipole               -5.3956 Ry au,        -13.7142 Debye
        Dipole field         -0.0102 Ry au, 
 
        Potential amp.        0.9439 Ry
        Total length         46.3494 bohr
 

     total cpu time spent up to now is      232.5 secs

     total energy              =   -2972.71591850 Ry
     estimated scf accuracy    <    2600.99579467 Ry

     iteration #  5     ecut=    29.40 Ry     beta= 0.05
     Davidson diagonalization with overlap
     ethr =  1.00E-02,  avg # of iterations =  7.3

     negative rho (up, down):  3.258E-04 0.000E+00
 
     Adding external electric field

     Computed dipole along edir(3) : 
        Dipole               -9.3337 Ry au,        -23.7239 Debye
        Dipole field         -0.0176 Ry au, 
 
        Potential amp.        1.6328 Ry
        Total length         46.3494 bohr
 

     total cpu time spent up to now is      246.4 secs

     total energy              =   -2922.76199125 Ry
     estimated scf accuracy    <    2183.92459206 Ry

     iteration #  6     ecut=    29.40 Ry     beta= 0.05
     Davidson diagonalization with overlap
     ethr =  1.00E-02,  avg # of iterations = 10.2

     negative rho (up, down):  2.717E-04 0.000E+00
 
     Adding external electric field

     Computed dipole along edir(3) : 
        Dipole               -6.6987 Ry au,        -17.0265 Debye
        Dipole field         -0.0126 Ry au, 
 
        Potential amp.        1.1718 Ry
        Total length         46.3494 bohr
 

     total cpu time spent up to now is      272.6 secs

     total energy              =   -2979.41757940 Ry
     estimated scf accuracy    <     554.97530824 Ry

     iteration #  7     ecut=    29.40 Ry     beta= 0.05
     Davidson diagonalization with overlap
     ethr =  1.00E-02,  avg # of iterations =  2.6

     negative rho (up, down):  2.848E-04 0.000E+00
 
     Adding external electric field

     Computed dipole along edir(3) : 
        Dipole               -5.8542 Ry au,        -14.8798 Debye
        Dipole field         -0.0110 Ry au, 
 
        Potential amp.        1.0241 Ry
        Total length         46.3494 bohr
 

     total cpu time spent up to now is      283.5 secs

     total energy              =   -2981.92370293 Ry
     estimated scf accuracy    <      68.34022602 Ry

     iteration #  8     ecut=    29.40 Ry     beta= 0.05
     Davidson diagonalization with overlap
     ethr =  1.00E-02,  avg # of iterations =  2.1

     negative rho (up, down):  2.948E-04 0.000E+00
 
     Adding external electric field

     Computed dipole along edir(3) : 
        Dipole               -5.3082 Ry au,        -13.4921 Debye
        Dipole field         -0.0100 Ry au, 
 
        Potential amp.        0.9286 Ry
        Total length         46.3494 bohr
 

     total cpu time spent up to now is      294.2 secs

     total energy              =   -2981.20024424 Ry
     estimated scf accuracy    <      54.87774780 Ry

     iteration #  9     ecut=    29.40 Ry     beta= 0.05
     Davidson diagonalization with overlap
     ethr =  1.00E-02,  avg # of iterations =  3.2

     negative rho (up, down):  3.497E-04 0.000E+00
 
     Adding external electric field

     Computed dipole along edir(3) : 
        Dipole               -3.3868 Ry au,         -8.6084 Debye
        Dipole field         -0.0064 Ry au, 
 
        Potential amp.        0.5925 Ry
        Total length         46.3494 bohr
 

     total cpu time spent up to now is      305.1 secs

     total energy              =   -2978.08879897 Ry
     estimated scf accuracy    <      39.24134972 Ry

     iteration # 10     ecut=    29.40 Ry     beta= 0.05
     Davidson diagonalization with overlap
     ethr =  9.67E-03,  avg # of iterations = 14.3

     negative rho (up, down):  3.702E-04 0.000E+00
 
     Adding external electric field

     Computed dipole along edir(3) : 
        Dipole               -2.4807 Ry au,         -6.3054 Debye
        Dipole field         -0.0047 Ry au, 
 
        Potential amp.        0.4340 Ry
        Total length         46.3494 bohr
 

     total cpu time spent up to now is      321.8 secs

     total energy              =   -2985.68686641 Ry
     estimated scf accuracy    <     302.47175693 Ry

     iteration # 11     ecut=    29.40 Ry     beta= 0.05
     Davidson diagonalization with overlap
     ethr =  9.67E-03,  avg # of iterations =  3.3

     negative rho (up, down):  4.481E-04 0.000E+00
 
     Adding external electric field

     Computed dipole along edir(3) : 
        Dipole               -0.9118 Ry au,         -2.3177 Debye
        Dipole field         -0.0017 Ry au, 
 
        Potential amp.        0.1595 Ry
        Total length         46.3494 bohr
 

     total cpu time spent up to now is      333.2 secs

     total energy              =   -2988.48084799 Ry
     estimated scf accuracy    <     440.70778039 Ry

     iteration # 12     ecut=    29.40 Ry     beta= 0.05
     Davidson diagonalization with overlap
     c_bands:  3 eigenvalues not converged
     c_bands:  4 eigenvalues not converged
     ethr =  9.67E-03,  avg # of iterations = 16.8

     negative rho (up, down):  4.463E-04 0.000E+00
 
     Adding external electric field

     Computed dipole along edir(3) : 
        Dipole               -2.9728 Ry au,         -7.5560 Debye
        Dipole field         -0.0056 Ry au, 
 
        Potential amp.        0.5200 Ry
        Total length         46.3494 bohr
 

     total cpu time spent up to now is      353.3 secs

     total energy              =   -2959.01497354 Ry
     estimated scf accuracy    <    1817.07684044 Ry

     iteration # 13     ecut=    29.40 Ry     beta= 0.05
     Davidson diagonalization with overlap
     ethr =  9.67E-03,  avg # of iterations =  7.5

     negative rho (up, down):  4.675E-04 0.000E+00
 
     Adding external electric field

     Computed dipole along edir(3) : 
        Dipole               -2.6674 Ry au,         -6.7799 Debye
        Dipole field         -0.0050 Ry au, 
 
        Potential amp.        0.4666 Ry
        Total length         46.3494 bohr
 

     total cpu time spent up to now is      368.7 secs

     total energy              =   -2976.36222659 Ry
     estimated scf accuracy    <      55.38732639 Ry

     iteration # 14     ecut=    29.40 Ry     beta= 0.05
     Davidson diagonalization with overlap
     ethr =  9.67E-03,  avg # of iterations =  1.9

     negative rho (up, down):  5.309E-04 0.000E+00
 
     Adding external electric field

     Computed dipole along edir(3) : 
        Dipole               -1.3123 Ry au,         -3.3355 Debye
        Dipole field         -0.0025 Ry au, 
 
        Potential amp.        0.2296 Ry
        Total length         46.3494 bohr
 

     total cpu time spent up to now is      379.2 secs

     total energy              =   -2977.16112096 Ry
     estimated scf accuracy    <      36.72154029 Ry

     iteration # 15     ecut=    29.40 Ry     beta= 0.05
     Davidson diagonalization with overlap
     ethr =  9.04E-03,  avg # of iterations =  1.3

     negative rho (up, down):  5.696E-04 0.000E+00
 
     Adding external electric field

     Computed dipole along edir(3) : 
        Dipole               -0.2049 Ry au,         -0.5209 Debye
        Dipole field         -0.0004 Ry au, 
 
        Potential amp.        0.0358 Ry
        Total length         46.3494 bohr
 

     total cpu time spent up to now is      389.6 secs

     total energy              =   -2978.02504263 Ry
     estimated scf accuracy    <      32.22399484 Ry

     iteration # 16     ecut=    29.40 Ry     beta= 0.05
     Davidson diagonalization with overlap
     ethr =  7.94E-03,  avg # of iterations =  1.0

     negative rho (up, down):  5.854E-04 0.000E+00
 
     Adding external electric field

     Computed dipole along edir(3) : 
        Dipole               -0.0926 Ry au,         -0.2353 Debye
        Dipole field         -0.0002 Ry au, 
 
        Potential amp.        0.0162 Ry
        Total length         46.3494 bohr
 

     total cpu time spent up to now is      399.7 secs

     total energy              =   -2976.18712283 Ry
     estimated scf accuracy    <      86.72375242 Ry

     iteration # 17     ecut=    29.40 Ry     beta= 0.05
     Davidson diagonalization with overlap
     ethr =  7.94E-03,  avg # of iterations =  2.7

     negative rho (up, down):  5.886E-04 0.000E+00
 
     Adding external electric field

     Computed dipole along edir(3) : 
        Dipole               -0.1611 Ry au,         -0.4094 Debye
        Dipole field         -0.0003 Ry au, 
 
        Potential amp.        0.0282 Ry
        Total length         46.3494 bohr
 

     total cpu time spent up to now is      410.6 secs

     total energy              =   -2977.11801784 Ry
     estimated scf accuracy    <      16.10417222 Ry

     iteration # 18     ecut=    29.40 Ry     beta= 0.05
     Davidson diagonalization with overlap
     ethr =  3.97E-03,  avg # of iterations =  7.5

     negative rho (up, down):  6.069E-04 0.000E+00
 
     Adding external electric field

     Computed dipole along edir(3) : 
        Dipole               -0.8606 Ry au,         -2.1873 Debye
        Dipole field         -0.0016 Ry au, 
 
        Potential amp.        0.1505 Ry
        Total length         46.3494 bohr
 

     total cpu time spent up to now is      424.0 secs

     total energy              =   -2977.36614006 Ry
     estimated scf accuracy    <       4.26371559 Ry

     iteration # 19     ecut=    29.40 Ry     beta= 0.05
     Davidson diagonalization with overlap
     c_bands:  4 eigenvalues not converged
     c_bands:  4 eigenvalues not converged
     c_bands:  2 eigenvalues not converged
     c_bands:  1 eigenvalues not converged
     c_bands:  4 eigenvalues not converged
     c_bands:  3 eigenvalues not converged
     ethr =  1.05E-03,  avg # of iterations = 17.6

     negative rho (up, down):  6.661E-04 0.000E+00
 
     Adding external electric field

     Computed dipole along edir(3) : 
        Dipole               -0.6185 Ry au,         -1.5721 Debye
        Dipole field         -0.0012 Ry au, 
 
        Potential amp.        0.1082 Ry
        Total length         46.3494 bohr
 

     total cpu time spent up to now is      441.4 secs

     total energy              =   -2977.66976837 Ry
     estimated scf accuracy    <       2.82433595 Ry

     iteration # 20     ecut=    29.40 Ry     beta= 0.05
     Davidson diagonalization with overlap
     ethr =  6.96E-04,  avg # of iterations =  9.0

     negative rho (up, down):  7.697E-04 0.000E+00
 
     Adding external electric field

     Computed dipole along edir(3) : 
        Dipole                0.1152 Ry au,          0.2929 Debye
        Dipole field          0.0002 Ry au, 
 
        Potential amp.       -0.0202 Ry
        Total length         46.3494 bohr
 

     total cpu time spent up to now is      454.9 secs

     total energy              =   -2977.87277181 Ry
     estimated scf accuracy    <       1.86115791 Ry

     iteration # 21     ecut=    29.40 Ry     beta= 0.05
     Davidson diagonalization with overlap
     ethr =  4.58E-04,  avg # of iterations = 10.2

     negative rho (up, down):  7.885E-04 0.000E+00
 
     Adding external electric field

     Computed dipole along edir(3) : 
        Dipole               -0.9234 Ry au,         -2.3470 Debye
        Dipole field         -0.0017 Ry au, 
 
        Potential amp.        0.1615 Ry
        Total length         46.3494 bohr
 

     total cpu time spent up to now is      469.2 secs

     total energy              =   -2977.04828901 Ry
     estimated scf accuracy    <       9.16575616 Ry

     iteration # 22     ecut=    29.40 Ry     beta= 0.05
     Davidson diagonalization with overlap
     c_bands:  1 eigenvalues not converged
     c_bands:  4 eigenvalues not converged
     c_bands:  2 eigenvalues not converged
     c_bands:  1 eigenvalues not converged
     c_bands:  3 eigenvalues not converged
     c_bands:  3 eigenvalues not converged
     c_bands:  1 eigenvalues not converged
     c_bands:  2 eigenvalues not converged
     c_bands:  3 eigenvalues not converged
     ethr =  4.58E-04,  avg # of iterations = 19.5

     negative rho (up, down):  8.616E-04 0.000E+00
 
     Adding external electric field

     Computed dipole along edir(3) : 
        Dipole               -0.2529 Ry au,         -0.6429 Debye
        Dipole field         -0.0005 Ry au, 
 
        Potential amp.        0.0442 Ry
        Total length         46.3494 bohr
 

     total cpu time spent up to now is      490.1 secs

     total energy              =   -2977.64446888 Ry
     estimated scf accuracy    <       3.86327732 Ry

     iteration # 23     ecut=    29.40 Ry     beta= 0.05
     Davidson diagonalization with overlap
     c_bands:  5 eigenvalues not converged
     ethr =  4.58E-04,  avg # of iterations =  8.7

     negative rho (up, down):  9.856E-04 0.000E+00
 
     Adding external electric field

     Computed dipole along edir(3) : 
        Dipole               -0.0766 Ry au,         -0.1947 Debye
        Dipole field         -0.0001 Ry au, 
 
        Potential amp.        0.0134 Ry
        Total length         46.3494 bohr
 

     total cpu time spent up to now is      503.1 secs

     total energy              =   -2977.68094708 Ry
     estimated scf accuracy    <       1.40515721 Ry

     iteration # 24     ecut=    29.40 Ry     beta= 0.05
     Davidson diagonalization with overlap
     c_bands:  2 eigenvalues not converged
     ethr =  3.46E-04,  avg # of iterations =  5.8

     negative rho (up, down):  1.235E-03 0.000E+00
 
     Adding external electric field

     Computed dipole along edir(3) : 
        Dipole                0.8786 Ry au,          2.2332 Debye
        Dipole field          0.0017 Ry au, 
 
        Potential amp.       -0.1537 Ry
        Total length         46.3494 bohr
 

     total cpu time spent up to now is      515.2 secs

     total energy              =   -2977.56590973 Ry
     estimated scf accuracy    <       2.92556095 Ry

     iteration # 25     ecut=    29.40 Ry     beta= 0.05
     Davidson diagonalization with overlap
     ethr =  3.46E-04,  avg # of iterations = 15.3

     negative rho (up, down):  1.315E-03 0.000E+00
 
     Adding external electric field

     Computed dipole along edir(3) : 
        Dipole                0.6909 Ry au,          1.7561 Debye
        Dipole field          0.0013 Ry au, 
 
        Potential amp.       -0.1209 Ry
        Total length         46.3494 bohr
 

     total cpu time spent up to now is      532.1 secs

     total energy              =   -2977.72432018 Ry
     estimated scf accuracy    <       0.99243040 Ry

     iteration # 26     ecut=    29.40 Ry     beta= 0.05
     Davidson diagonalization with overlap
     ethr =  2.44E-04,  avg # of iterations =  2.5

     negative rho (up, down):  1.619E-03 0.000E+00
 
     Adding external electric field

     Computed dipole along edir(3) : 
        Dipole                0.2645 Ry au,          0.6724 Debye
        Dipole field          0.0005 Ry au, 
 
        Potential amp.       -0.0463 Ry
        Total length         46.3494 bohr
 

     total cpu time spent up to now is      542.9 secs

     total energy              =   -2977.65543129 Ry
     estimated scf accuracy    <       0.59982575 Ry

     iteration # 27     ecut=    29.40 Ry     beta= 0.05
     Davidson diagonalization with overlap
     c_bands:  4 eigenvalues not converged
     c_bands:  2 eigenvalues not converged
     c_bands:  1 eigenvalues not converged
     c_bands:  2 eigenvalues not converged
     c_bands:  1 eigenvalues not converged
     ethr =  1.48E-04,  avg # of iterations = 17.1

     negative rho (up, down):  1.984E-03 0.000E+00
 
     Adding external electric field

     Computed dipole along edir(3) : 
        Dipole                0.9647 Ry au,          2.4520 Debye
        Dipole field          0.0018 Ry au, 
 
        Potential amp.       -0.1688 Ry
        Total length         46.3494 bohr
 

     total cpu time spent up to now is      561.6 secs

     total energy              =   -2977.57120843 Ry
     estimated scf accuracy    <       2.22182144 Ry

     iteration # 28     ecut=    29.40 Ry     beta= 0.05
     Davidson diagonalization with overlap
     c_bands:  1 eigenvalues not converged
     c_bands:  2 eigenvalues not converged
     c_bands:  2 eigenvalues not converged
     c_bands:  1 eigenvalues not converged
     c_bands:  3 eigenvalues not converged
     c_bands:  1 eigenvalues not converged
     c_bands:  1 eigenvalues not converged
     ethr =  1.48E-04,  avg # of iterations = 18.3

     negative rho (up, down):  2.030E-03 0.000E+00
 
     Adding external electric field

     Computed dipole along edir(3) : 
        Dipole                1.0641 Ry au,          2.7048 Debye
        Dipole field          0.0020 Ry au, 
 
        Potential amp.       -0.1862 Ry
        Total length         46.3494 bohr
 

     total cpu time spent up to now is      580.0 secs

     total energy              =   -2977.73134784 Ry
     estimated scf accuracy    <       0.54113257 Ry

     iteration # 29     ecut=    29.40 Ry     beta= 0.05
     Davidson diagonalization with overlap
     c_bands:  1 eigenvalues not converged
     ethr =  1.33E-04,  avg # of iterations = 12.4

     negative rho (up, down):  2.182E-03 0.000E+00
 
     Adding external electric field

     Computed dipole along edir(3) : 
        Dipole                1.0591 Ry au,          2.6920 Debye
        Dipole field          0.0020 Ry au, 
 
        Potential amp.       -0.1853 Ry
        Total length         46.3494 bohr
 

     total cpu time spent up to now is      593.9 secs

     total energy              =   -2977.70327406 Ry
     estimated scf accuracy    <       0.48395999 Ry

     iteration # 30     ecut=    29.40 Ry     beta= 0.05
     Davidson diagonalization with overlap
     c_bands:  3 eigenvalues not converged
     ethr =  1.19E-04,  avg # of iterations =  6.0

     negative rho (up, down):  3.297E-03 0.000E+00
 
     Adding external electric field

     Computed dipole along edir(3) : 
        Dipole                1.2285 Ry au,          3.1226 Debye
        Dipole field          0.0023 Ry au, 
 
        Potential amp.       -0.2149 Ry
        Total length         46.3494 bohr
 

     total cpu time spent up to now is      605.9 secs

     total energy              =   -2977.69655138 Ry
     estimated scf accuracy    <       0.26622397 Ry

     iteration # 31     ecut=    29.40 Ry     beta= 0.05
     Davidson diagonalization with overlap
     c_bands:  1 eigenvalues not converged
     ethr =  6.56E-05,  avg # of iterations = 12.9

     negative rho (up, down):  3.693E-03 0.000E+00
 
     Adding external electric field

     Computed dipole along edir(3) : 
        Dipole                1.2443 Ry au,          3.1626 Debye
        Dipole field          0.0023 Ry au, 
 
        Potential amp.       -0.2177 Ry
        Total length         46.3494 bohr
 

     total cpu time spent up to now is      621.5 secs

     total energy              =   -2977.70363394 Ry
     estimated scf accuracy    <       0.24833626 Ry

     iteration # 32     ecut=    29.40 Ry     beta= 0.05
     Davidson diagonalization with overlap
     ethr =  6.12E-05,  avg # of iterations =  1.4

     negative rho (up, down):  3.662E-03 0.000E+00
 
     Adding external electric field

     Computed dipole along edir(3) : 
        Dipole                1.2521 Ry au,          3.1826 Debye
        Dipole field          0.0024 Ry au, 
 
        Potential amp.       -0.2190 Ry
        Total length         46.3494 bohr
 

     total cpu time spent up to now is      632.0 secs

     total energy              =   -2977.70954584 Ry
     estimated scf accuracy    <       0.15657003 Ry

     iteration # 33     ecut=    29.40 Ry     beta= 0.05
     Davidson diagonalization with overlap
     ethr =  3.86E-05,  avg # of iterations =  1.1

     negative rho (up, down):  4.516E-03 0.000E+00
 
     Adding external electric field

     Computed dipole along edir(3) : 
        Dipole                1.2502 Ry au,          3.1778 Debye
        Dipole field          0.0024 Ry au, 
 
        Potential amp.       -0.2187 Ry
        Total length         46.3494 bohr
 

     total cpu time spent up to now is      642.2 secs

     total energy              =   -2977.70126406 Ry
     estimated scf accuracy    <       0.16437180 Ry

     iteration # 34     ecut=    29.40 Ry     beta= 0.05
     Davidson diagonalization with overlap
     ethr =  3.86E-05,  avg # of iterations =  4.1

     negative rho (up, down):  4.315E-03 0.000E+00
 
     Adding external electric field

     Computed dipole along edir(3) : 
        Dipole                1.2695 Ry au,          3.2268 Debye
        Dipole field          0.0024 Ry au, 
 
        Potential amp.       -0.2221 Ry
        Total length         46.3494 bohr
 

     total cpu time spent up to now is      653.8 secs

     total energy              =   -2977.70744959 Ry
     estimated scf accuracy    <       0.13998637 Ry

     iteration # 35     ecut=    29.40 Ry     beta= 0.05
     Davidson diagonalization with overlap
     ethr =  3.45E-05,  avg # of iterations =  1.2

     negative rho (up, down):  4.402E-03 0.000E+00
 
     Adding external electric field

     Computed dipole along edir(3) : 
        Dipole                0.9959 Ry au,          2.5312 Debye
        Dipole field          0.0019 Ry au, 
 
        Potential amp.       -0.1742 Ry
        Total length         46.3494 bohr
 

     total cpu time spent up to now is      664.1 secs

     total energy              =   -2977.67383982 Ry
     estimated scf accuracy    <       0.16334689 Ry

     iteration # 36     ecut=    29.40 Ry     beta= 0.05
     Davidson diagonalization with overlap
     c_bands:  1 eigenvalues not converged
     c_bands:  1 eigenvalues not converged
     c_bands:  3 eigenvalues not converged
     c_bands:  1 eigenvalues not converged
     c_bands:  1 eigenvalues not converged
     c_bands:  1 eigenvalues not converged
     c_bands:  1 eigenvalues not converged
     c_bands:  1 eigenvalues not converged
     ethr =  3.45E-05,  avg # of iterations = 19.8

     negative rho (up, down):  4.580E-03 0.000E+00
 
     Adding external electric field

     Computed dipole along edir(3) : 
        Dipole                1.0967 Ry au,          2.7875 Debye
        Dipole field          0.0021 Ry au, 
 
        Potential amp.       -0.1918 Ry
        Total length         46.3494 bohr
 

     total cpu time spent up to now is      687.1 secs

     total energy              =   -2977.69914227 Ry
     estimated scf accuracy    <       0.96908401 Ry

     iteration # 37     ecut=    29.40 Ry     beta= 0.05
     Davidson diagonalization with overlap
     ethr =  3.45E-05,  avg # of iterations =  4.6

     negative rho (up, down):  5.538E-03 0.000E+00
 
     Adding external electric field

     Computed dipole along edir(3) : 
        Dipole                1.1938 Ry au,          3.0345 Debye
        Dipole field          0.0023 Ry au, 
 
        Potential amp.       -0.2088 Ry
        Total length         46.3494 bohr
 

     total cpu time spent up to now is      698.8 secs

     total energy              =   -2977.69436757 Ry
     estimated scf accuracy    <       0.14975721 Ry

     iteration # 38     ecut=    29.40 Ry     beta= 0.05
     Davidson diagonalization with overlap
     c_bands:  2 eigenvalues not converged
     c_bands:  1 eigenvalues not converged
     c_bands:  2 eigenvalues not converged
     ethr =  3.45E-05,  avg # of iterations = 15.7

     negative rho (up, down):  6.497E-03 0.000E+00
 
     Adding external electric field

     Computed dipole along edir(3) : 
        Dipole                1.2841 Ry au,          3.2640 Debye
        Dipole field          0.0024 Ry au, 
 
        Potential amp.       -0.2246 Ry
        Total length         46.3494 bohr
 

     total cpu time spent up to now is      714.9 secs

     total energy              =   -2977.69504539 Ry
     estimated scf accuracy    <       0.02865393 Ry

     iteration # 39     ecut=    29.40 Ry     beta= 0.05
     Davidson diagonalization with overlap
     c_bands:  2 eigenvalues not converged
     c_bands:  3 eigenvalues not converged
     c_bands:  3 eigenvalues not converged
     c_bands:  3 eigenvalues not converged
     c_bands:  4 eigenvalues not converged
     c_bands:  3 eigenvalues not converged
     c_bands:  2 eigenvalues not converged
     c_bands:  2 eigenvalues not converged
     c_bands:  1 eigenvalues not converged
     ethr =  7.06E-06,  avg # of iterations = 19.9

     negative rho (up, down):  6.534E-03 0.000E+00
 
     Adding external electric field

     Computed dipole along edir(3) : 
        Dipole                1.3124 Ry au,          3.3358 Debye
        Dipole field          0.0025 Ry au, 
 
        Potential amp.       -0.2296 Ry
        Total length         46.3494 bohr
 

     total cpu time spent up to now is      736.4 secs

     total energy              =   -2977.69942770 Ry
     estimated scf accuracy    <       0.02834814 Ry

     iteration # 40     ecut=    29.40 Ry     beta= 0.05
     Davidson diagonalization with overlap
     ethr =  6.98E-06,  avg # of iterations =  5.4

     negative rho (up, down):  9.581E-03 0.000E+00
 
     Adding external electric field

     Computed dipole along edir(3) : 
        Dipole                1.2984 Ry au,          3.3002 Debye
        Dipole field          0.0025 Ry au, 
 
        Potential amp.       -0.2271 Ry
        Total length         46.3494 bohr
 

     total cpu time spent up to now is      748.4 secs

     total energy              =   -2977.69771806 Ry
     estimated scf accuracy    <       0.01787165 Ry

     iteration # 41     ecut=    29.40 Ry     beta= 0.05
     Davidson diagonalization with overlap
     c_bands:  2 eigenvalues not converged
     c_bands:  2 eigenvalues not converged
     c_bands:  1 eigenvalues not converged
     ethr =  4.40E-06,  avg # of iterations = 18.1

     negative rho (up, down):  9.510E-03 0.000E+00
 
     Adding external electric field

     Computed dipole along edir(3) : 
        Dipole                1.3099 Ry au,          3.3295 Debye
        Dipole field          0.0025 Ry au, 
 
        Potential amp.       -0.2292 Ry
        Total length         46.3494 bohr
 

     total cpu time spent up to now is      766.7 secs

     total energy              =   -2977.69946798 Ry
     estimated scf accuracy    <       0.05517540 Ry

     iteration # 42     ecut=    29.40 Ry     beta= 0.05
     Davidson diagonalization with overlap
     ethr =  4.40E-06,  avg # of iterations =  2.2

     negative rho (up, down):  8.513E-03 0.000E+00
 
     Adding external electric field

     Computed dipole along edir(3) : 
        Dipole                1.3034 Ry au,          3.3129 Debye
        Dipole field          0.0025 Ry au, 
 
        Potential amp.       -0.2280 Ry
        Total length         46.3494 bohr
 

     total cpu time spent up to now is      777.2 secs

     total energy              =   -2977.69908691 Ry
     estimated scf accuracy    <       0.01355624 Ry

     iteration # 43     ecut=    29.40 Ry     beta= 0.05
     Davidson diagonalization with overlap
     c_bands:  1 eigenvalues not converged
     c_bands:  1 eigenvalues not converged
     ethr =  3.34E-06,  avg # of iterations = 16.1

     negative rho (up, down):  8.475E-03 0.000E+00
 
     Adding external electric field

     Computed dipole along edir(3) : 
        Dipole                1.2966 Ry au,          3.2957 Debye
        Dipole field          0.0024 Ry au, 
 
        Potential amp.       -0.2268 Ry
        Total length         46.3494 bohr
 

     total cpu time spent up to now is      792.9 secs

     total energy              =   -2977.69929493 Ry
     estimated scf accuracy    <       0.00279763 Ry

     iteration # 44     ecut=    29.40 Ry     beta= 0.05
     Davidson diagonalization with overlap
     c_bands:  1 eigenvalues not converged
     c_bands:  1 eigenvalues not converged
     c_bands:  1 eigenvalues not converged
     ethr =  6.89E-07,  avg # of iterations = 13.0

     negative rho (up, down):  1.040E-02 0.000E+00
 
     Adding external electric field

     Computed dipole along edir(3) : 
        Dipole                1.3210 Ry au,          3.3577 Debye
        Dipole field          0.0025 Ry au, 
 
        Potential amp.       -0.2311 Ry
        Total length         46.3494 bohr
 

     total cpu time spent up to now is      808.8 secs

     total energy              =   -2977.69967157 Ry
     estimated scf accuracy    <       0.00127940 Ry

     iteration # 45     ecut=    29.40 Ry     beta= 0.05
     Davidson diagonalization with overlap
     c_bands:  4 eigenvalues not converged
     ethr =  3.15E-07,  avg # of iterations = 11.0

     negative rho (up, down):  1.296E-02 0.000E+00
 
     Adding external electric field

     Computed dipole along edir(3) : 
        Dipole                1.3413 Ry au,          3.4092 Debye
        Dipole field          0.0025 Ry au, 
 
        Potential amp.       -0.2346 Ry
        Total length         46.3494 bohr
 

     total cpu time spent up to now is      822.9 secs

     total energy              =   -2977.69986187 Ry
     estimated scf accuracy    <       0.00087729 Ry

     iteration # 46     ecut=    29.40 Ry     beta= 0.05
     Davidson diagonalization with overlap
     c_bands:  2 eigenvalues not converged
     ethr =  2.16E-07,  avg # of iterations = 10.7

     negative rho (up, down):  1.336E-02 0.000E+00
 
     Adding external electric field

     Computed dipole along edir(3) : 
        Dipole                1.3389 Ry au,          3.4032 Debye
        Dipole field          0.0025 Ry au, 
 
        Potential amp.       -0.2342 Ry
        Total length         46.3494 bohr
 

     total cpu time spent up to now is      837.1 secs

     total energy              =   -2977.69991446 Ry
     estimated scf accuracy    <       0.00036161 Ry

     iteration # 47     ecut=    29.40 Ry     beta= 0.05
     Davidson diagonalization with overlap
     c_bands:  1 eigenvalues not converged
     c_bands:  2 eigenvalues not converged
     ethr =  8.91E-08,  avg # of iterations = 16.3

     negative rho (up, down):  1.333E-02 0.000E+00
 
     Adding external electric field

     Computed dipole along edir(3) : 
        Dipole                1.3440 Ry au,          3.4162 Debye
        Dipole field          0.0025 Ry au, 
 
        Potential amp.       -0.2351 Ry
        Total length         46.3494 bohr
 

     total cpu time spent up to now is      858.1 secs

     total energy              =   -2977.69987914 Ry
     estimated scf accuracy    <       0.00072905 Ry

     iteration # 48     ecut=    29.40 Ry     beta= 0.05
     Davidson diagonalization with overlap
     ethr =  8.91E-08,  avg # of iterations = 11.9

     negative rho (up, down):  1.346E-02 0.000E+00
 
     Adding external electric field

     Computed dipole along edir(3) : 
        Dipole                1.3391 Ry au,          3.4038 Debye
        Dipole field          0.0025 Ry au, 
 
        Potential amp.       -0.2343 Ry
        Total length         46.3494 bohr
 

     total cpu time spent up to now is      874.4 secs

     total energy              =   -2977.69994869 Ry
     estimated scf accuracy    <       0.00020080 Ry

     iteration # 49     ecut=    29.40 Ry     beta= 0.05
     Davidson diagonalization with overlap
     ethr =  4.95E-08,  avg # of iterations =  9.1

     negative rho (up, down):  1.374E-02 0.000E+00
 
     Adding external electric field

     Computed dipole along edir(3) : 
        Dipole                1.3404 Ry au,          3.4069 Debye
        Dipole field          0.0025 Ry au, 
 
        Potential amp.       -0.2345 Ry
        Total length         46.3494 bohr
 

     total cpu time spent up to now is      888.4 secs

     total energy              =   -2977.69997196 Ry
     estimated scf accuracy    <       0.00009619 Ry

     iteration # 50     ecut=    29.40 Ry     beta= 0.05
     Davidson diagonalization with overlap
     c_bands:  1 eigenvalues not converged
     ethr =  2.37E-08,  avg # of iterations = 14.9

     negative rho (up, down):  1.381E-02 0.000E+00
 
     Adding external electric field

     Computed dipole along edir(3) : 
        Dipole                1.3417 Ry au,          3.4104 Debye
        Dipole field          0.0025 Ry au, 
 
        Potential amp.       -0.2347 Ry
        Total length         46.3494 bohr
 

     total cpu time spent up to now is      907.1 secs

     total energy              =   -2977.69999481 Ry
     estimated scf accuracy    <       0.00006907 Ry

     iteration # 51     ecut=    29.40 Ry     beta= 0.05
     Davidson diagonalization with overlap
     ethr =  1.70E-08,  avg # of iterations =  8.4

     negative rho (up, down):  1.404E-02 0.000E+00
 
     Adding external electric field

     Computed dipole along edir(3) : 
        Dipole                1.3432 Ry au,          3.4141 Debye
        Dipole field          0.0025 Ry au, 
 
        Potential amp.       -0.2350 Ry
        Total length         46.3494 bohr
 

     total cpu time spent up to now is      920.0 secs

     total energy              =   -2977.70001078 Ry
     estimated scf accuracy    <       0.00002660 Ry

     iteration # 52     ecut=    29.40 Ry     beta= 0.05
     Davidson diagonalization with overlap
     c_bands:  1 eigenvalues not converged
     ethr =  6.55E-09,  avg # of iterations = 14.2

     negative rho (up, down):  1.400E-02 0.000E+00
 
     Adding external electric field

     Computed dipole along edir(3) : 
        Dipole                1.3404 Ry au,          3.4069 Debye
        Dipole field          0.0025 Ry au, 
 
        Potential amp.       -0.2345 Ry
        Total length         46.3494 bohr
 

     total cpu time spent up to now is      936.3 secs

     total energy              =   -2977.70002264 Ry
     estimated scf accuracy    <       0.00001764 Ry

     iteration # 53     ecut=    29.40 Ry     beta= 0.05
     Davidson diagonalization with overlap
     ethr =  4.35E-09,  avg # of iterations = 13.7

     negative rho (up, down):  1.397E-02 0.000E+00
 
     Adding external electric field

     Computed dipole along edir(3) : 
        Dipole                1.3403 Ry au,          3.4067 Debye
        Dipole field          0.0025 Ry au, 
 
        Potential amp.       -0.2345 Ry
        Total length         46.3494 bohr
 

     total cpu time spent up to now is      952.7 secs

     total energy              =   -2977.70003405 Ry
     estimated scf accuracy    <       0.00000903 Ry

     iteration # 54     ecut=    29.40 Ry     beta= 0.05
     Davidson diagonalization with overlap
     ethr =  2.22E-09,  avg # of iterations =  7.1

     negative rho (up, down):  1.390E-02 0.000E+00
 
     Adding external electric field

     Computed dipole along edir(3) : 
        Dipole                1.3395 Ry au,          3.4047 Debye
        Dipole field          0.0025 Ry au, 
 
        Potential amp.       -0.2343 Ry
        Total length         46.3494 bohr
 

     total cpu time spent up to now is      965.4 secs

     total energy              =   -2977.70004293 Ry
     estimated scf accuracy    <       0.00000395 Ry

     iteration # 55     ecut=    29.40 Ry     beta= 0.05
     Davidson diagonalization with overlap
     ethr =  9.74E-10,  avg # of iterations = 14.0

     negative rho (up, down):  1.396E-02 0.000E+00
 
     Adding external electric field

     Computed dipole along edir(3) : 
        Dipole                1.3397 Ry au,          3.4051 Debye
        Dipole field          0.0025 Ry au, 
 
        Potential amp.       -0.2344 Ry
        Total length         46.3494 bohr
 

     total cpu time spent up to now is      982.2 secs

     total energy              =   -2977.70005144 Ry
     estimated scf accuracy    <       0.00000339 Ry

     iteration # 56     ecut=    29.40 Ry     beta= 0.05
     Davidson diagonalization with overlap
     ethr =  8.35E-10,  avg # of iterations =  6.4

     negative rho (up, down):  1.400E-02 0.000E+00
 
     Adding external electric field

     Computed dipole along edir(3) : 
        Dipole                1.3393 Ry au,          3.4041 Debye
        Dipole field          0.0025 Ry au, 
 
        Potential amp.       -0.2343 Ry
        Total length         46.3494 bohr
 

     total cpu time spent up to now is      995.2 secs

     total energy              =   -2977.70005909 Ry
     estimated scf accuracy    <       0.00000169 Ry

     iteration # 57     ecut=    29.40 Ry     beta= 0.05
     Davidson diagonalization with overlap
     c_bands:  1 eigenvalues not converged
     c_bands:  1 eigenvalues not converged
     ethr =  4.17E-10,  avg # of iterations = 14.2

     negative rho (up, down):  1.398E-02 0.000E+00
 
     Adding external electric field

     Computed dipole along edir(3) : 
        Dipole                1.3394 Ry au,          3.4043 Debye
        Dipole field          0.0025 Ry au, 
 
        Potential amp.       -0.2343 Ry
        Total length         46.3494 bohr
 

     total cpu time spent up to now is     1014.7 secs

     total energy              =   -2977.70006570 Ry
     estimated scf accuracy    <       0.00000104 Ry

     iteration # 58     ecut=    29.40 Ry     beta= 0.05
     Davidson diagonalization with overlap
     ethr =  2.57E-10,  avg # of iterations =  2.8

     negative rho (up, down):  1.400E-02 0.000E+00
 
     Adding external electric field

     Computed dipole along edir(3) : 
        Dipole                1.3406 Ry au,          3.4074 Debye
        Dipole field          0.0025 Ry au, 
 
        Potential amp.       -0.2345 Ry
        Total length         46.3494 bohr
 

     total cpu time spent up to now is     1025.9 secs

     total energy              =   -2977.70007157 Ry
     estimated scf accuracy    <       0.00000083 Ry

     iteration # 59     ecut=    29.40 Ry     beta= 0.05
     Davidson diagonalization with overlap
     c_bands:  1 eigenvalues not converged
     c_bands:  2 eigenvalues not converged
     c_bands:  3 eigenvalues not converged
     ethr =  2.04E-10,  avg # of iterations = 17.6

     negative rho (up, down):  1.404E-02 0.000E+00
 
     Adding external electric field

     Computed dipole along edir(3) : 
        Dipole                1.3400 Ry au,          3.4058 Debye
        Dipole field          0.0025 Ry au, 
 
        Potential amp.       -0.2344 Ry
        Total length         46.3494 bohr
 

     total cpu time spent up to now is     1051.4 secs

     total energy              =   -2977.70007664 Ry
     estimated scf accuracy    <       0.00000205 Ry

     iteration # 60     ecut=    29.40 Ry     beta= 0.05
     Davidson diagonalization with overlap
     c_bands:  1 eigenvalues not converged
     c_bands:  2 eigenvalues not converged
     c_bands:  1 eigenvalues not converged
     ethr =  2.04E-10,  avg # of iterations = 16.2

     negative rho (up, down):  1.403E-02 0.000E+00
 
     Adding external electric field

     Computed dipole along edir(3) : 
        Dipole                1.3401 Ry au,          3.4062 Debye
        Dipole field          0.0025 Ry au, 
 
        Potential amp.       -0.2344 Ry
        Total length         46.3494 bohr
 

     total cpu time spent up to now is     1076.0 secs

     total energy              =   -2977.70008175 Ry
     estimated scf accuracy    <       0.00000051 Ry

     iteration # 61     ecut=    29.40 Ry     beta= 0.05
     Davidson diagonalization with overlap
     ethr =  1.24E-10,  avg # of iterations = 10.4

     negative rho (up, down):  1.403E-02 0.000E+00
 
     Adding external electric field

     Computed dipole along edir(3) : 
        Dipole                1.3404 Ry au,          3.4069 Debye
        Dipole field          0.0025 Ry au, 
 
        Potential amp.       -0.2345 Ry
        Total length         46.3494 bohr
 

     total cpu time spent up to now is     1090.7 secs

     total energy              =   -2977.70008606 Ry
     estimated scf accuracy    <       0.00000019 Ry

     iteration # 62     ecut=    29.40 Ry     beta= 0.05
     Davidson diagonalization with overlap
     c_bands:  2 eigenvalues not converged
     ethr =  4.75E-11,  avg # of iterations = 16.5

     negative rho (up, down):  1.403E-02 0.000E+00
 
     Adding external electric field

     Computed dipole along edir(3) : 
        Dipole                1.3402 Ry au,          3.4066 Debye
        Dipole field          0.0025 Ry au, 
 
        Potential amp.       -0.2345 Ry
        Total length         46.3494 bohr
 

     total cpu time spent up to now is     1113.2 secs

     total energy              =   -2977.70008995 Ry
     estimated scf accuracy    <       0.00000024 Ry

     iteration # 63     ecut=    29.40 Ry     beta= 0.05
     Davidson diagonalization with overlap
     ethr =  4.75E-11,  avg # of iterations =  2.4

     negative rho (up, down):  1.405E-02 0.000E+00
 
     Adding external electric field

     Computed dipole along edir(3) : 
        Dipole                1.3402 Ry au,          3.4063 Debye
        Dipole field          0.0025 Ry au, 
 
        Potential amp.       -0.2344 Ry
        Total length         46.3494 bohr
 

     total cpu time spent up to now is     1124.2 secs

     total energy              =   -2977.70009336 Ry
     estimated scf accuracy    <       0.00000020 Ry

     iteration # 64     ecut=    29.40 Ry     beta= 0.05
     Davidson diagonalization with overlap
     ethr =  4.75E-11,  avg # of iterations = 11.6

     negative rho (up, down):  1.408E-02 0.000E+00
 
     Adding external electric field

     Computed dipole along edir(3) : 
        Dipole                1.3386 Ry au,          3.4024 Debye
        Dipole field          0.0025 Ry au, 
 
        Potential amp.       -0.2342 Ry
        Total length         46.3494 bohr
 

     total cpu time spent up to now is     1140.4 secs

     End of self-consistent calculation

          k = 0.0000 0.0000 0.0000 ( 18029 PWs)   bands (ev):

   -55.1185 -55.0818 -55.0743 -55.0401 -55.0345 -55.0293 -54.9977 -54.9619
   -54.9433 -54.9085 -54.9048 -54.8878 -54.8711 -54.8372 -54.1040 -54.0700
   -31.6803 -31.5942 -31.5667 -31.4869 -31.4324 -31.4297 -31.4161 -31.4103
   -31.3631 -31.3405 -31.3301 -31.3189 -31.3124 -31.3096 -31.2912 -31.2831
   -31.2628 -31.2601 -31.2578 -31.2396 -31.2269 -31.2175 -31.2002 -31.1957
   -31.1881 -31.1765 -31.1734 -31.1442 -31.1315 -31.1286 -31.1238 -31.1033
   -31.1006 -31.0929 -31.0895 -31.0657 -31.0567 -31.0401 -31.0327 -31.0308
   -31.0158 -31.0146 -30.5134 -30.4192 -30.3972 -30.3298 -30.2431 -30.1321
   -18.8050 -17.8176 -15.9497 -15.6942 -15.5576 -15.4566 -15.3219 -15.2157
   -15.1344 -15.0203 -14.9704 -14.8550 -14.8229 -14.8183 -14.7787 -14.7475
   -14.6986 -14.6599 -14.6578 -14.6354 -14.6160 -14.6082 -14.5653 -14.5585
   -14.5189 -14.5170 -14.4972 -14.3610 -14.2794 -14.2095 -14.0272 -13.2021
   -12.6066 -12.4891  -9.7846  -6.5369  -6.4027  -5.4463  -4.9193  -3.5540
    -3.2835  -3.1385  -3.0853  -3.0503  -3.0148  -2.9598  -2.8806  -2.7950
    -2.6501  -2.5811  -2.5556  -2.4033  -2.3293  -2.3197  -2.2631  -2.1634
    -2.1385  -2.0917  -2.0496  -1.9850  -1.9476  -1.9241  -1.9023  -1.8672
    -1.8635  -1.8096  -1.7557  -1.6863  -1.5966  -1.5652  -1.5195  -1.4757
    -1.4536  -1.4510  -1.4107  -1.4043  -1.3936  -1.3492  -1.3431  -1.3130
    -1.2670  -1.1574  -1.0075  -0.9451  -0.8555  -0.7609  -0.7361  -0.7101
    -0.6900  -0.6278  -0.6053  -0.5761  -0.5006  -0.4522  -0.3729  -0.3267
    -0.3040  -0.2244  -0.1197  -0.1026  -0.0954  -0.0073   0.0849   0.0978
     0.1125   0.1221   0.2200   0.2855   0.3192   0.3609   0.4251   0.4342
     0.4921   0.5210   0.5724   0.6390   0.6719   0.7509   0.7904   0.8112
     0.8170   0.8395   0.8589   0.8703   0.9519   0.9609   0.9865   1.0751
     1.1797   1.3339   1.4800   1.4909   1.8242   1.8253   1.9188   2.1024
     2.4949   2.5432   3.9759   4.0515   4.1100   4.1212   4.1267   4.2117
     4.4607   4.4786   4.4899   4.4915   4.5264

          k = 0.0000 0.0419 0.0000 ( 17933 PWs)   bands (ev):

   -55.1133 -55.0868 -55.0692 -55.0451 -55.0335 -55.0284 -54.9929 -54.9666
   -54.9384 -54.9133 -54.8998 -54.8887 -54.8760 -54.8380 -54.0990 -54.0749
   -31.6235 -31.5555 -31.5127 -31.4321 -31.4046 -31.3809 -31.3790 -31.3676
   -31.3582 -31.3511 -31.3420 -31.3189 -31.3142 -31.3031 -31.2975 -31.2845
   -31.2758 -31.2675 -31.2559 -31.2447 -31.2249 -31.2226 -31.2129 -31.2052
   -31.2020 -31.1708 -31.1693 -31.1581 -31.1475 -31.1466 -31.1449 -31.1359
   -31.1127 -31.0945 -31.0920 -31.0895 -31.0849 -31.0732 -31.0697 -31.0553
   -31.0432 -31.0264 -30.4591 -30.4158 -30.4002 -30.3172 -30.2557 -30.1892
   -18.8045 -17.8162 -15.8236 -15.5825 -15.4764 -15.3831 -15.2168 -15.1558
   -15.0957 -15.0204 -14.9637 -14.9280 -14.8788 -14.8107 -14.7691 -14.7618
   -14.7255 -14.6911 -14.6780 -14.6290 -14.6216 -14.6039 -14.6019 -14.5733
   -14.5574 -14.5566 -14.4909 -14.4173 -14.3347 -14.2692 -14.1350 -13.2023
   -12.6101 -12.5283  -9.7824  -6.5400  -6.3931  -5.4497  -4.9230  -3.5377
    -3.1001  -2.9951  -2.9698  -2.9273  -2.8758  -2.8387  -2.7672  -2.7373
    -2.4723  -2.4618  -2.4271  -2.3524  -2.2837  -2.2799  -2.2219  -2.1901
    -2.1458  -2.1356  -2.1064  -2.0678  -2.0488  -2.0241  -1.9834  -1.9175
    -1.8922  -1.8628  -1.8365  -1.7613  -1.7447  -1.7155  -1.6800  -1.6728
    -1.6360  -1.5569  -1.5482  -1.4409  -1.4319  -1.3653  -1.2837  -1.1704
    -1.0758  -0.9922  -0.9497  -0.9238  -0.8375  -0.7448  -0.7187  -0.6728
    -0.5487  -0.4819  -0.4607  -0.4393  -0.4266  -0.4006  -0.3135  -0.2872
    -0.2245  -0.1340  -0.1128  -0.0726  -0.0569  -0.0459   0.0380   0.0565
     0.0690   0.1088   0.2081   0.2543   0.2690   0.2917   0.3312   0.3713
     0.4352   0.4799   0.5164   0.5760   0.6252   0.6299   0.6657   0.6855
     0.6923   0.8175   0.8334   0.8741   0.8997   0.9106   0.9918   1.0582
     1.1699   1.1747   1.1937   1.3499   1.5267   1.6996   2.1024   2.1784
     2.4498   2.4536   4.1708   4.1795   4.2110   4.2676   4.3514   4.3718
     4.3895   4.4130   4.4648   4.4731   4.5423

          k = 0.0000-0.0839 0.0000 ( 17884 PWs)   bands (ev):

   -55.1040 -55.0960 -55.0572 -55.0570 -55.0325 -55.0275 -54.9848 -54.9746
   -54.9290 -54.9226 -54.8896 -54.8884 -54.8873 -54.8388 -54.0869 -54.0869
   -31.5091 -31.4895 -31.4796 -31.3803 -31.3801 -31.3762 -31.3690 -31.3483
   -31.3482 -31.3116 -31.3071 -31.3026 -31.2952 -31.2930 -31.2913 -31.2872
   -31.2731 -31.2658 -31.2545 -31.2509 -31.2487 -31.2428 -31.2268 -31.2067
   -31.1943 -31.1934 -31.1898 -31.1861 -31.1792 -31.1791 -31.1783 -31.1621
   -31.1583 -31.1536 -31.1491 -31.1004 -31.0861 -31.0832 -31.0808 -31.0685
   -31.0679 -31.0233 -30.4078 -30.4077 -30.3260 -30.3259 -30.2865 -30.2864
   -18.8039 -17.8147 -15.5909 -15.4818 -15.3316 -15.2781 -15.1700 -15.1500
   -15.1265 -15.0370 -14.9603 -14.9530 -14.9449 -14.9031 -14.8078 -14.7327
   -14.7167 -14.7126 -14.7095 -14.6957 -14.6334 -14.5855 -14.5586 -14.5486
   -14.5295 -14.5264 -14.4727 -14.4651 -14.4145 -14.4117 -14.3007 -13.2026
   -12.5911 -12.5910  -9.7803  -6.5431  -6.3843  -5.4535  -4.9265  -3.5234
    -3.0005  -2.7858  -2.6905  -2.6716  -2.5942  -2.5706  -2.5587  -2.5482
    -2.5118  -2.4703  -2.4010  -2.3966  -2.3771  -2.3088  -2.2930  -2.2824
    -2.2646  -2.2515  -2.1785  -2.1342  -2.1125  -2.0455  -2.0128  -1.9899
    -1.9845  -1.9695  -1.9530  -1.8855  -1.8430  -1.7615  -1.7296  -1.6261
    -1.5686  -1.5049  -1.4898  -1.4595  -1.2674  -1.2544  -1.2071  -1.1949
    -1.0548  -0.9408  -0.9179  -0.8922  -0.8859  -0.6706  -0.6491  -0.6063
    -0.5951  -0.5783  -0.5715  -0.5327  -0.5066  -0.4960  -0.3776  -0.3082
    -0.2899  -0.2196  -0.1749  -0.1022  -0.0190   0.1361   0.1509   0.1754
     0.2114   0.2348   0.2555   0.2747   0.2828   0.2989   0.3417   0.3935
     0.4010   0.4289   0.4711   0.5041   0.5233   0.5466   0.5706   0.6208
     0.6431   0.6656   0.6667   0.6917   0.7068   0.8688   0.9902   1.0524
     1.0900   1.0911   1.2339   1.2457   1.4408   1.4513   2.2440   2.2452
     2.3856   2.3856   4.2534   4.2815   4.2918   4.3071   4.3910   4.4049
     4.4577   4.4631   4.5490   4.5685   4.5840

          k = 0.0380 0.0000 0.0000 ( 17913 PWs)   bands (ev):

   -55.1183 -55.0817 -55.0741 -55.0400 -55.0340 -55.0296 -54.9977 -54.9618
   -54.9431 -54.9084 -54.9048 -54.8876 -54.8710 -54.8372 -54.1039 -54.0699
   -31.6804 -31.5943 -31.5676 -31.4922 -31.4364 -31.4334 -31.4159 -31.4106
   -31.3629 -31.3402 -31.3189 -31.3139 -31.3116 -31.3097 -31.2911 -31.2672
   -31.2625 -31.2600 -31.2513 -31.2247 -31.2191 -31.2174 -31.2070 -31.1957
   -31.1939 -31.1878 -31.1731 -31.1442 -31.1312 -31.1279 -31.1163 -31.1121
   -31.1031 -31.1004 -31.0921 -31.0629 -31.0554 -31.0397 -31.0363 -31.0326
   -31.0162 -31.0150 -30.5129 -30.4228 -30.3951 -30.3296 -30.2430 -30.1318
   -18.8045 -17.8175 -15.8701 -15.6075 -15.5619 -15.4036 -15.2381 -15.2090
   -15.1394 -15.0435 -14.9761 -14.9456 -14.8961 -14.8918 -14.8200 -14.8153
   -14.7917 -14.7207 -14.6789 -14.6609 -14.6096 -14.5633 -14.5447 -14.5220
   -14.4795 -14.4341 -14.3766 -14.3542 -14.3436 -14.2961 -14.0256 -13.2034
   -12.6032 -12.4888  -9.7852  -6.5408  -6.3965  -5.4415  -4.9220  -3.5536
    -3.1593  -3.0300  -2.9646  -2.9052  -2.8603  -2.7761  -2.7658  -2.7287
    -2.6482  -2.6337  -2.5917  -2.5523  -2.4863  -2.4419  -2.2618  -2.1982
    -2.1887  -2.1046  -2.0328  -1.9067  -1.8943  -1.8640  -1.8363  -1.8071
    -1.7838  -1.7262  -1.7064  -1.6540  -1.5415  -1.5201  -1.4797  -1.4696
    -1.4533  -1.4438  -1.4017  -1.3756  -1.3587  -1.3054  -1.2093  -1.1853
    -1.1648  -1.0606  -0.9797  -0.9364  -0.8648  -0.8319  -0.7693  -0.7506
    -0.6947  -0.6446  -0.6324  -0.5777  -0.5418  -0.5351  -0.4684  -0.4341
    -0.4263  -0.2047  -0.1593  -0.1391  -0.0680  -0.0174   0.0000   0.0399
     0.0949   0.1718   0.2077   0.2308   0.2696   0.3063   0.3592   0.4065
     0.4356   0.4895   0.5569   0.5760   0.6097   0.6313   0.6521   0.6907
     0.7357   0.7678   0.8255   0.8391   0.8753   0.9051   0.9253   0.9974
     1.0747   1.1129   1.3170   1.5417   1.6862   1.8301   1.9307   2.0712
     2.3823   2.4604   3.9903   4.0778   4.1934   4.2898   4.3133   4.3691
     4.4170   4.4245   4.4673   4.4804   4.4914

          k = 0.0380 0.0419 0.0000 ( 17878 PWs)   bands (ev):

   -55.1132 -55.0868 -55.0691 -55.0450 -55.0331 -55.0287 -54.9929 -54.9665
   -54.9382 -54.9133 -54.8998 -54.8886 -54.8760 -54.8380 -54.0989 -54.0749
   -31.6236 -31.5556 -31.5136 -31.4384 -31.4047 -31.3847 -31.3832 -31.3680
   -31.3580 -31.3510 -31.3421 -31.3144 -31.3061 -31.3026 -31.2974 -31.2845
   -31.2621 -31.2580 -31.2556 -31.2448 -31.2227 -31.2113 -31.2078 -31.2067
   -31.2042 -31.1869 -31.1690 -31.1557 -31.1479 -31.1448 -31.1383 -31.1338
   -31.1220 -31.0980 -31.0938 -31.0918 -31.0914 -31.0707 -31.0695 -31.0552
   -31.0433 -31.0326 -30.4588 -30.4186 -30.3991 -30.3170 -30.2557 -30.1891
   -18.8041 -17.8161 -15.7520 -15.5219 -15.4761 -15.3130 -15.1701 -15.1219
   -15.0896 -15.0193 -14.9893 -14.9357 -14.9142 -14.8687 -14.8241 -14.7940
   -14.7690 -14.7351 -14.7074 -14.6739 -14.6506 -14.5968 -14.5755 -14.5572
   -14.5338 -14.4870 -14.4455 -14.4129 -14.4024 -14.3501 -14.1344 -13.2034
   -12.6078 -12.5286  -9.7831  -6.5612  -6.3682  -5.4440  -4.9249  -3.5393
    -3.0126  -2.9422  -2.8737  -2.7862  -2.7386  -2.6703  -2.6161  -2.5564
    -2.5022  -2.4697  -2.4355  -2.3936  -2.3240  -2.2565  -2.1945  -2.1629
    -2.1395  -2.1198  -2.0560  -2.0167  -1.9945  -1.9569  -1.9392  -1.9168
    -1.8793  -1.8271  -1.8159  -1.7615  -1.7461  -1.7028  -1.6425  -1.6252
    -1.5831  -1.5671  -1.5177  -1.4471  -1.3353  -1.2801  -1.1907  -1.1451
    -1.1048  -0.9755  -0.9412  -0.8713  -0.8381  -0.7999  -0.7320  -0.6549
    -0.6102  -0.5681  -0.5295  -0.5148  -0.4856  -0.4520  -0.4010  -0.3756
    -0.2961  -0.2494  -0.2118  -0.1634  -0.0941  -0.0629  -0.0564  -0.0253
     0.0460   0.1108   0.1155   0.1618   0.1821   0.2228   0.2599   0.2863
     0.3073   0.3486   0.3958   0.4414   0.4774   0.5285   0.6019   0.6265
     0.7223   0.7552   0.8136   0.8590   0.8915   0.9408   0.9986   1.0316
     1.1120   1.1538   1.2976   1.3033   1.4730   1.6547   2.1132   2.1818
     2.3720   2.4352   4.1477   4.1744   4.1972   4.3206   4.3567   4.3914
     4.4106   4.4656   4.5262   4.5526   4.5808

          k = 0.0380-0.0839 0.0000 ( 17916 PWs)   bands (ev):

   -55.1040 -55.0960 -55.0572 -55.0570 -55.0322 -55.0278 -54.9848 -54.9747
   -54.9289 -54.9226 -54.8897 -54.8885 -54.8874 -54.8389 -54.0869 -54.0869
   -31.5094 -31.4897 -31.4799 -31.3811 -31.3809 -31.3763 -31.3693 -31.3484
   -31.3483 -31.3201 -31.3155 -31.3144 -31.3074 -31.2887 -31.2743 -31.2653
   -31.2645 -31.2568 -31.2559 -31.2528 -31.2519 -31.2485 -31.2271 -31.2126
   -31.1960 -31.1952 -31.1784 -31.1782 -31.1734 -31.1694 -31.1676 -31.1653
   -31.1620 -31.1574 -31.1535 -31.1017 -31.0977 -31.0951 -31.0756 -31.0686
   -31.0679 -31.0315 -30.4088 -30.4088 -30.3260 -30.3258 -30.2865 -30.2864
   -18.8037 -17.8145 -15.5617 -15.4405 -15.2938 -15.2255 -15.1563 -15.1078
   -15.0712 -15.0099 -14.9715 -14.9664 -14.9087 -14.8653 -14.8016 -14.7725
   -14.7445 -14.7394 -14.7144 -14.7022 -14.6934 -14.6089 -14.6024 -14.5597
   -14.5557 -14.5481 -14.4928 -14.4858 -14.4655 -14.4643 -14.2927 -13.2033
   -12.5908 -12.5908  -9.7809  -6.5689  -6.3517  -5.4484  -4.9283  -3.5258
    -2.9778  -2.7893  -2.6592  -2.6258  -2.4845  -2.4180  -2.3979  -2.3885
    -2.3498  -2.3077  -2.2995  -2.2501  -2.2363  -2.2229  -2.2008  -2.1971
    -2.1787  -2.1618  -2.1234  -2.1038  -2.0675  -2.0282  -2.0069  -1.9773
    -1.9590  -1.8991  -1.8897  -1.8413  -1.8090  -1.7825  -1.7458  -1.6901
    -1.6086  -1.4713  -1.4014  -1.3223  -1.2899  -1.2688  -1.2076  -1.1144
    -1.0869  -1.0525  -1.0165  -0.9820  -0.9233  -0.8801  -0.8239  -0.8045
    -0.7957  -0.7409  -0.6770  -0.5987  -0.4833  -0.4636  -0.4383  -0.3877
    -0.3609  -0.2710  -0.2040  -0.1650  -0.1462  -0.0790  -0.0303   0.0187
     0.0572   0.0655   0.0869   0.1033   0.1867   0.2344   0.2404   0.2717
     0.3118   0.3511   0.3607   0.3839   0.4055   0.5573   0.5983   0.6131
     0.6405   0.7560   0.7947   0.8874   0.9404   0.9438   0.9519   1.0326
     1.0963   1.1227   1.2008   1.2117   1.4303   1.4407   2.2574   2.2586
     2.3760   2.3767   4.1529   4.2296   4.2784   4.3086   4.3937   4.4288
     4.4350   4.4636   4.5593   4.5903   4.6295

          k = 0.0380-0.0419 0.0000 ( 17876 PWs)   bands (ev):

   -55.1132 -55.0867 -55.0691 -55.0450 -55.0331 -55.0287 -54.9929 -54.9665
   -54.9382 -54.9133 -54.8998 -54.8886 -54.8760 -54.8380 -54.0989 -54.0749
   -31.6236 -31.5556 -31.5135 -31.4384 -31.4047 -31.3848 -31.3832 -31.3680
   -31.3580 -31.3511 -31.3421 -31.3144 -31.3060 -31.3027 -31.2973 -31.2846
   -31.2608 -31.2580 -31.2554 -31.2448 -31.2229 -31.2113 -31.2094 -31.2066
   -31.2037 -31.1870 -31.1690 -31.1557 -31.1479 -31.1448 -31.1383 -31.1338
   -31.1223 -31.0978 -31.0939 -31.0931 -31.0915 -31.0699 -31.0693 -31.0539
   -31.0433 -31.0334 -30.4588 -30.4186 -30.3991 -30.3170 -30.2557 -30.1891
   -18.8041 -17.8159 -15.7521 -15.5222 -15.4754 -15.3098 -15.1687 -15.1223
   -15.0897 -15.0214 -14.9931 -14.9347 -14.9184 -14.8680 -14.8235 -14.7928
   -14.7694 -14.7349 -14.7034 -14.6735 -14.6505 -14.5969 -14.5783 -14.5581
   -14.5343 -14.4869 -14.4448 -14.4127 -14.4028 -14.3504 -14.1330 -13.2031
   -12.6078 -12.5286  -9.7828  -6.5510  -6.3764  -5.4456  -4.9255  -3.5391
    -3.0089  -2.9353  -2.8759  -2.8160  -2.7389  -2.6680  -2.6152  -2.5559
    -2.4996  -2.4659  -2.4346  -2.3959  -2.3179  -2.2520  -2.1944  -2.1622
    -2.1363  -2.1215  -2.0571  -2.0171  -1.9969  -1.9591  -1.9375  -1.9151
    -1.8802  -1.8260  -1.8158  -1.7600  -1.7452  -1.7035  -1.6374  -1.6202
    -1.5940  -1.5592  -1.5238  -1.4526  -1.3379  -1.2800  -1.1883  -1.1398
    -1.1053  -0.9831  -0.9479  -0.8713  -0.8368  -0.7876  -0.7388  -0.6546
    -0.6079  -0.5667  -0.5313  -0.5135  -0.4766  -0.4539  -0.4001  -0.3808
    -0.2948  -0.2401  -0.2097  -0.1570  -0.0975  -0.0720  -0.0618  -0.0238
     0.0431   0.0988   0.1245   0.1680   0.1818   0.2172   0.2603   0.2767
     0.3100   0.3526   0.4086   0.4463   0.4838   0.5291   0.6003   0.6152
     0.7047   0.7619   0.8249   0.8637   0.8949   0.9396   0.9910   1.0322
     1.1030   1.1545   1.2973   1.3040   1.4733   1.6550   2.1133   2.1818
     2.3718   2.4359   4.1460   4.1748   4.1963   4.3201   4.3607   4.3937
     4.4120   4.4674   4.5281   4.5544   4.5782

          k =-0.0760-0.0000 0.0000 ( 17886 PWs)   bands (ev):

   -55.1182 -55.0817 -55.0741 -55.0400 -55.0334 -55.0301 -54.9977 -54.9618
   -54.9429 -54.9084 -54.9049 -54.8876 -54.8710 -54.8371 -54.1039 -54.0699
   -31.6806 -31.5945 -31.5686 -31.4974 -31.4404 -31.4371 -31.4157 -31.4109
   -31.3628 -31.3402 -31.3189 -31.3123 -31.3103 -31.2911 -31.2879 -31.2624
   -31.2597 -31.2458 -31.2387 -31.2275 -31.2211 -31.2193 -31.2173 -31.1957
   -31.1878 -31.1853 -31.1734 -31.1465 -31.1441 -31.1315 -31.1278 -31.1080
   -31.1032 -31.1006 -31.0956 -31.0592 -31.0545 -31.0452 -31.0377 -31.0325
   -31.0169 -31.0155 -30.5125 -30.4262 -30.3938 -30.3296 -30.2428 -30.1319
   -18.8041 -17.8175 -15.7233 -15.6598 -15.4692 -15.3347 -15.2061 -15.1649
   -15.0913 -15.0489 -15.0195 -14.9925 -14.9724 -14.9441 -14.8982 -14.8751
   -14.8413 -14.8059 -14.6738 -14.6198 -14.6050 -14.5643 -14.5488 -14.5269
   -14.5173 -14.4513 -14.3975 -14.3674 -14.2865 -14.2555 -14.0244 -13.2046
   -12.6001 -12.4885  -9.7858  -6.5446  -6.3906  -5.4369  -4.9247  -3.5551
    -3.1226  -3.0103  -2.9541  -2.7892  -2.7575  -2.6705  -2.6413  -2.6235
    -2.6084  -2.5868  -2.5552  -2.5401  -2.4336  -2.3688  -2.3529  -2.1757
    -2.0741  -2.0156  -1.9710  -1.8640  -1.8014  -1.7738  -1.7649  -1.7237
    -1.7064  -1.6646  -1.6341  -1.6080  -1.6000  -1.5883  -1.5706  -1.4787
    -1.4538  -1.4338  -1.4101  -1.4002  -1.3263  -1.2816  -1.2354  -1.1340
    -1.1222  -1.0514  -0.9405  -0.8652  -0.7961  -0.7851  -0.7646  -0.7564
    -0.7308  -0.7094  -0.6864  -0.6312  -0.5976  -0.5653  -0.5307  -0.4605
    -0.4230  -0.3959  -0.3905  -0.3211  -0.1250  -0.0961  -0.0318  -0.0053
     0.0749   0.1029   0.1494   0.1829   0.2342   0.2724   0.3221   0.3529
     0.3834   0.3925   0.4566   0.4694   0.5406   0.5625   0.6303   0.6631
     0.6811   0.7018   0.7279   0.7726   0.8089   0.8618   0.8931   1.0072
     1.1214   1.1510   1.3683   1.4072   1.5668   1.8347   1.9521   2.0462
     2.2521   2.4054   3.9903   4.0356   4.1259   4.2470   4.2619   4.3605
     4.4186   4.4346   4.4666   4.4823   4.5613

          k =-0.0760 0.0419 0.0000 ( 17914 PWs)   bands (ev):

   -55.1132 -55.0868 -55.0691 -55.0451 -55.0326 -55.0292 -54.9929 -54.9666
   -54.9380 -54.9133 -54.9000 -54.8886 -54.8760 -54.8380 -54.0989 -54.0749
   -31.6239 -31.5558 -31.5146 -31.4445 -31.4051 -31.3884 -31.3876 -31.3685
   -31.3580 -31.3511 -31.3421 -31.3146 -31.3036 -31.2981 -31.2872 -31.2846
   -31.2557 -31.2485 -31.2451 -31.2348 -31.2276 -31.2226 -31.2084 -31.2064
   -31.2044 -31.1734 -31.1698 -31.1551 -31.1533 -31.1480 -31.1445 -31.1410
   -31.1118 -31.1086 -31.0995 -31.0944 -31.0920 -31.0702 -31.0669 -31.0526
   -31.0433 -31.0423 -30.4585 -30.4216 -30.3984 -30.3171 -30.2557 -30.1892
   -18.8038 -17.8159 -15.6096 -15.5934 -15.3796 -15.2435 -15.1357 -15.0888
   -15.0411 -15.0196 -15.0038 -14.9538 -14.9230 -14.9123 -14.8989 -14.8500
   -14.8245 -14.7781 -14.7150 -14.6825 -14.6703 -14.5944 -14.5803 -14.5690
   -14.5466 -14.4993 -14.4968 -14.4113 -14.3745 -14.3625 -14.1330 -13.2043
   -12.6056 -12.5290  -9.7837  -6.5697  -6.3543  -5.4399  -4.9275  -3.5414
    -2.9926  -2.9125  -2.8597  -2.7975  -2.5430  -2.4885  -2.4826  -2.3981
    -2.3943  -2.3675  -2.3596  -2.3219  -2.2610  -2.2028  -2.1525  -2.1331
    -2.0791  -2.0746  -2.0462  -2.0141  -1.9428  -1.9343  -1.8672  -1.8398
    -1.8002  -1.7846  -1.7573  -1.7316  -1.7020  -1.6824  -1.6730  -1.6627
    -1.5854  -1.5707  -1.3765  -1.3521  -1.2853  -1.2623  -1.2139  -1.1167
    -1.0671  -1.0353  -0.9207  -0.8897  -0.8132  -0.7811  -0.7539  -0.7259
    -0.7025  -0.6341  -0.6150  -0.6006  -0.5170  -0.5131  -0.4794  -0.4585
    -0.3991  -0.3758  -0.3580  -0.3295  -0.3011  -0.2547  -0.1914  -0.1754
    -0.1097  -0.0901   0.0127   0.0793   0.0975   0.1079   0.1423   0.1796
     0.1950   0.3280   0.3494   0.3923   0.4508   0.5082   0.6045   0.6185
     0.6973   0.7646   0.8101   0.8210   0.9043   0.9949   1.0756   1.1238
     1.1516   1.2185   1.2929   1.3747   1.3942   1.5323   2.1285   2.1839
     2.2941   2.4244   4.1528   4.1733   4.1759   4.2033   4.2881   4.3592
     4.3788   4.4479   4.4793   4.5852   4.6163

          k =-0.0760-0.0839 0.0000 ( 17948 PWs)   bands (ev):

   -55.1040 -55.0960 -55.0572 -55.0570 -55.0318 -55.0282 -54.9849 -54.9747
   -54.9289 -54.9225 -54.8897 -54.8886 -54.8875 -54.8389 -54.0870 -54.0869
   -31.5096 -31.4900 -31.4802 -31.3819 -31.3817 -31.3763 -31.3697 -31.3484
   -31.3483 -31.3281 -31.3230 -31.3173 -31.3076 -31.2888 -31.2752 -31.2607
   -31.2564 -31.2551 -31.2516 -31.2452 -31.2433 -31.2395 -31.2275 -31.2264
   -31.1972 -31.1964 -31.1792 -31.1770 -31.1768 -31.1682 -31.1680 -31.1620
   -31.1535 -31.1413 -31.1357 -31.1202 -31.1187 -31.1026 -31.0687 -31.0681
   -31.0667 -31.0434 -30.4098 -30.4098 -30.3259 -30.3258 -30.2865 -30.2864
   -18.8036 -17.8142 -15.5297 -15.3911 -15.2521 -15.1483 -15.1334 -15.0799
   -15.0307 -14.9889 -14.9473 -14.9030 -14.8930 -14.8749 -14.8466 -14.8196
   -14.7952 -14.7360 -14.7197 -14.7041 -14.6818 -14.6349 -14.6271 -14.6243
   -14.6172 -14.5710 -14.5684 -14.5434 -14.4748 -14.4727 -14.2863 -13.2041
   -12.5906 -12.5905  -9.7815  -6.5887  -6.3251  -5.4434  -4.9302  -3.5282
    -2.9540  -2.8094  -2.6531  -2.6172  -2.4715  -2.3711  -2.3260  -2.2979
    -2.2441  -2.1984  -2.1383  -2.1233  -2.1049  -2.0463  -2.0207  -2.0021
    -1.9706  -1.9517  -1.9380  -1.9195  -1.9021  -1.8740  -1.8477  -1.8390
    -1.8343  -1.8060  -1.7896  -1.7502  -1.7435  -1.7356  -1.6925  -1.6804
    -1.6542  -1.5973  -1.4902  -1.4800  -1.3274  -1.3251  -1.2910  -1.2455
    -1.2255  -1.2154  -1.1549  -1.1470  -1.1347  -0.8991  -0.8717  -0.8617
    -0.8344  -0.7763  -0.7588  -0.6960  -0.6867  -0.6027  -0.5880  -0.4861
    -0.4704  -0.4142  -0.3305  -0.3225  -0.3104  -0.1991  -0.1495  -0.1119
    -0.0855  -0.0753  -0.0577  -0.0199  -0.0197   0.0700   0.1134   0.1438
     0.1590   0.1888   0.3535   0.4021   0.4110   0.5501   0.5639   0.7116
     0.7754   0.7897   0.8758   0.8976   0.9850   0.9953   1.0349   1.1745
     1.1860   1.2092   1.2563   1.2847   1.3366   1.3417   2.2751   2.2764
     2.3631   2.3633   4.1082   4.2335   4.2399   4.3006   4.4099   4.4430
     4.4893   4.5229   4.5603   4.5630   4.6306

     the Fermi energy is     4.0379 ev

!    total energy              =   -2977.70012547 Ry
     estimated scf accuracy    <       0.00000006 Ry
     smearing contrib. (-TS)   =      -0.03675313 Ry
     internal energy E=F+TS    =   -2977.66337234 Ry

     The total energy is F=E-TS. E is the sum of the following terms:
     one-electron contribution =  -23082.92419729 Ry
     hartree contribution      =   11640.61295908 Ry
     xc contribution           =    -496.62499644 Ry
     ewald contribution        =    8961.26948086 Ry
     electric field correction =       0.00338144 Ry

     convergence has been achieved in  64 iterations

     Forces acting on atoms (cartesian axes, Ry/au):

     atom    1 type  1   force =     0.00017915   -0.00018993    0.09315404
     atom    2 type  1   force =    -0.00010356   -0.00033318   -0.17819309
     atom    3 type  2   force =     0.00002137   -0.00017765   -0.02036879
     atom    4 type  2   force =    -0.00002732   -0.00200609    0.05899695
     atom    5 type  2   force =    -0.01059837   -0.00141942    0.00860041
     atom    6 type  2   force =     0.01186234   -0.00070280    0.00713121
     atom    7 type  1   force =    -0.00089338    0.00314074   -0.01229453
     atom    8 type  1   force =     0.00054817    0.00112779   -0.00449949
     atom    9 type  2   force =    -0.00007408   -0.00037055    0.00014232
     atom   10 type  2   force =    -0.00129455   -0.00051013   -0.00194722
     atom   11 type  2   force =    -0.00022603   -0.00021580   -0.00006875
     atom   12 type  2   force =     0.00061820   -0.00007207   -0.00025456
     atom   13 type  1   force =    -0.00103006   -0.00062798    0.00021726
     atom   14 type  1   force =     0.00011457   -0.00004014    0.00017449
     atom   15 type  2   force =    -0.00027512   -0.00051646   -0.00005523
     atom   16 type  2   force =    -0.00000721   -0.00007695    0.00066510
     atom   17 type  2   force =    -0.00028425    0.00024655    0.00054066
     atom   18 type  2   force =     0.00019706    0.00004333    0.00029711
     atom   19 type  1   force =     0.00022776    0.00003430    0.00057822
     atom   20 type  1   force =    -0.00018204   -0.00021314    0.00027033
     atom   21 type  2   force =     0.00007310   -0.00001675    0.10398417
     atom   22 type  2   force =     0.00006363   -0.00022288   -0.00106778
     atom   23 type  2   force =    -0.07039609   -0.00010732   -0.02687438
     atom   24 type  2   force =     0.07027441    0.00033833   -0.02691488
     atom   25 type  1   force =     0.00000509   -0.00022720    0.09278844
     atom   26 type  1   force =    -0.00020286   -0.00037088   -0.17830727
     atom   27 type  2   force =     0.00010508   -0.00028694   -0.01934285
     atom   28 type  2   force =     0.00003842   -0.00162513    0.05806949
     atom   29 type  2   force =    -0.01068256   -0.00080745    0.00799850
     atom   30 type  2   force =     0.01180167   -0.00047751    0.00652390
     atom   31 type  1   force =    -0.00072879    0.00504775   -0.01492833
     atom   32 type  1   force =     0.00040277   -0.00139177   -0.00478172
     atom   33 type  2   force =    -0.00011051    0.00021609    0.00029182
     atom   34 type  2   force =    -0.00128993    0.00140581   -0.00090433
     atom   35 type  2   force =     0.00018893    0.00013599    0.00000841
     atom   36 type  2   force =     0.00012581   -0.00001651   -0.00012811
     atom   37 type  1   force =    -0.00103932    0.00056326    0.00003009
     atom   38 type  1   force =     0.00014719   -0.00015330   -0.00003935
     atom   39 type  2   force =    -0.00003001   -0.00014759    0.00009466
     atom   40 type  2   force =    -0.00020517    0.00020779    0.00023778
     atom   41 type  2   force =     0.00000134   -0.00015831    0.00038846
     atom   42 type  2   force =    -0.00014964   -0.00004321    0.00005947
     atom   43 type  1   force =     0.00011154    0.00031084    0.00040541
     atom   44 type  1   force =    -0.00010638    0.00021439   -0.00036679
     atom   45 type  2   force =     0.00004034   -0.00005099    0.10397365
     atom   46 type  2   force =    -0.07038385   -0.00005704   -0.02690467
     atom   47 type  2   force =     0.07029259    0.00036993   -0.02693494
     atom   48 type  3   force =     0.00030531    0.00040218   -0.00061168
     atom   49 type  3   force =    -0.00089828   -0.00036729    0.00027121
     atom   50 type  4   force =     0.00406238    0.00297755   -0.00284310
     atom   51 type  5   force =    -0.00019710   -0.00079264    0.00056579
     atom   52 type  5   force =    -0.00321710   -0.00347748    0.00329757
     atom   53 type  5   force =     0.00095721    0.00076009   -0.00084207
     atom   54 type  5   force =     0.00079791   -0.00024705   -0.00027767
     atom   55 type  5   force =     0.00040232    0.00084662   -0.00002180
     atom   56 type  5   force =     0.00001958    0.00026048    0.00016435
     atom   57 type  2   force =    -0.00035439    0.00062392   -0.00061292
     atom   58 type  5   force =     0.00075656   -0.00042657    0.00012412
     atom   59 type  5   force =     0.00024616   -0.00032962    0.00034092

     Total force =     0.366174     Total SCF correction =     0.000499
  @ DRIVER MODE: Message from server: STATUS
  @ DRIVER MODE: Message from server: GETFORCE
  @ DRIVER MODE: Returning v,forces,stress,ensemble 

     Writing output data file ./calc.save/
  @ DRIVER MODE: Message from server: EXIT
  @ DRIVE MODE: Exiting  
 
     init_run     :     10.96s CPU     11.17s WALL (       1 calls)
     electrons    :   1113.95s CPU   1129.01s WALL (       1 calls)
     forces       :      2.48s CPU      2.57s WALL (       1 calls)

     Called by init_run:
     wfcinit      :      4.96s CPU      5.02s WALL (       1 calls)
     potinit      :      5.33s CPU      5.40s WALL (       1 calls)
     hinit0       :      0.30s CPU      0.31s WALL (       1 calls)

     Called by electrons:
     c_bands      :    957.87s CPU    964.38s WALL (      64 calls)
     sum_band     :    105.56s CPU    109.08s WALL (      64 calls)
     v_of_rho     :     38.08s CPU     39.90s WALL (      65 calls)
     newd         :     15.67s CPU     18.92s WALL (      65 calls)
     mix_rho      :      1.38s CPU      1.41s WALL (      64 calls)
     vdW_kernel   :      4.54s CPU      4.56s WALL (       1 calls)

     Called by c_bands:
     init_us_2    :      7.33s CPU      7.36s WALL (    1300 calls)
     cegterg      :    939.16s CPU    945.40s WALL (     657 calls)

     Called by *egterg:
     cdiaghg      :    159.52s CPU    160.18s WALL (    7385 calls)
     h_psi        :    485.71s CPU    490.04s WALL (    7397 calls)
     s_psi        :     68.32s CPU     68.52s WALL (    7397 calls)
     g_psi        :      1.91s CPU      1.93s WALL (    6730 calls)

     Called by h_psi:
     h_psi:calbec :     63.63s CPU     63.92s WALL (    7397 calls)
     vloc_psi     :    349.44s CPU    352.91s WALL (    7397 calls)
     add_vuspsi   :     68.93s CPU     69.32s WALL (    7397 calls)

     General routines
     calbec       :     82.46s CPU     82.80s WALL (    8077 calls)
     fft          :     19.62s CPU     19.76s WALL (    4095 calls)
     ffts         :      0.12s CPU      0.12s WALL (     129 calls)
     fftw         :    388.62s CPU    392.42s WALL (  931450 calls)
     interpolate  :      0.40s CPU      0.40s WALL (      65 calls)
     davcio       :      0.00s CPU      0.15s WALL (      10 calls)
 
     Parallel routines
 
     PWSCF        :  18m47.68s CPU  19m 3.33s WALL

 
   This run was terminated on:   1: 8:28  16Sep2021            

=------------------------------------------------------------------------------=
   JOB DONE.
=------------------------------------------------------------------------------=
