
     Program PWSCF v.6.7GPU starts on 23Sep2021 at  4:14:10 

     This program is part of the open-source Quantum ESPRESSO suite
     for quantum simulation of materials; please cite
         "P. Giannozzi et al., J. Phys.:Condens. Matter 21 395502 (2009);
         "P. Giannozzi et al., J. Phys.:Condens. Matter 29 465901 (2017);
         "P. Giannozzi et al., J. Chem. Phys. 152 154105 (2020);
          URL http://www.quantum-espresso.org", 
     in publications or presentations arising from this work. More details at
     http://www.quantum-espresso.org/quote

     Parallel version (MPI), running on    10 processors

     MPI processes distributed on     1 nodes
     R & G space division:  proc/nbgrp/npool/nimage =      10
     Reading input from /storage/home/hcoda1/3/ntian30/research/carbon/CxH_vib/H2O_calc/ads_slab/CHON2HO_d/out_0036/pw.inp
Warning: card &CELL ignored
Warning: card   CELL_DYNAMICS='IPI', ignored
Warning: card / ignored

     Current dimensions of program PWSCF are:
     Max number of different atomic species (ntypx) = 10
     Max number of k-points (npk) =  40000
     Max angular momentum in pseudopotentials (lmaxx) =  3
     Presently no symmetry can be used with electric field

     Message from routine cell_base_init:
     DEPRECATED: use true lattice parameter, not A to a.u. conversion factor

     **************************************************************************
     Initializing libbeef V0.1.2 with the BEEF-vdW functional.
     Citation: Wellendorff et al., PRB 85, 235149 (2012).
     **************************************************************************


     IMPORTANT: XC functional enforced from input :
     Exchange-correlation= BEEF-VDW
                           (   1   4  43  14   2   0   0)
     Any further DFT definition will be discarded
     Please, verify this is what you really want


     Subspace diagonalization in iterative solution of the eigenvalue problem:
     one sub-group per band group will be used
     scalapack distributed-memory algorithm (size of sub-group:  3*  3 procs)

  @ DRIVER MODE: Connecting to 
 qe_1139763_2937317.sched-torque.pace.gatech.edu74i63ffp_scratch
  using UNIX socket
  @ DRIVER MODE: Message from server: STATUS
  @ DRIVER MODE: Message from server: INIT
  @ DRIVER MODE: Receiving replica           0          -1
  @ DRIVER MODE: Receiving encoded integer          25
  @ DRIVER MODE:  SCF:  T  FORCE:  T  STRESS:  F  VC:  F  ENSEMBLE:  F
  @ DRIVER MODE:  SCF:  T  FORCE:  T  STRESS:  F  VC:  F  ENSEMBLE:  F
 
     Parallelization info
     --------------------
     sticks:   dense  smooth     PW     G-vecs:    dense   smooth      PW
     Min         327     131     37                56683    14340    2191
     Max         328     133     38                56694    14346    2206
     Sum        3275    1317    379               566857   143421   21985
 
     Using Slab Decomposition
 


     bravais-lattice index     =            0
     lattice parameter (alat)  =       1.8897  a.u.
     unit-cell volume          =    6658.9804 (a.u.)^3
     number of atoms/cell      =           54
     number of atomic types    =            5
     number of electrons       =       406.00
     number of Kohn-Sham states=          213
     kinetic-energy cutoff     =      29.3995  Ry
     charge density cutoff     =     293.9946  Ry
     scf convergence threshold =      7.3E-08
     mixing beta               =       0.0500
     number of iterations used =            8  plain     mixing
     Exchange-correlation= BEEF-VDW
                           (   1   4  43  14   2   0   0)

     celldm(1)=   1.889726  celldm(2)=   0.000000  celldm(3)=   0.000000
     celldm(4)=   0.000000  celldm(5)=   0.000000  celldm(6)=   0.000000

     crystal axes: (cart. coord. in units of alat)
               a(1) = (   6.579727   0.000000   0.000000 )  
               a(2) = (  -0.000775   5.961596   0.000000 )  
               a(3) = (   0.000000   0.000000  25.155947 )  

     reciprocal axes: (cart. coord. in units 2 pi/alat)
               b(1) = (  0.151982  0.000020  0.000000 )  
               b(2) = (  0.000000  0.167740  0.000000 )  
               b(3) = (  0.000000  0.000000  0.039752 )  


     PseudoPot. # 1 for O  read from file:
     /storage/coda1/p-amedford6/0/shared/rich_project_chbe-medford/medford-share/data/pseudos_module/espresso/nninc/pbe/van/O.UPF
     MD5 check sum: 78c19812648e8988a0fe644b0f25305e
     Pseudo is Ultrasoft, Zval =  6.0
     Generated by new atomic code, or converted to UPF format
     Using radial grid of  737 points,  4 beta functions with: 
                l(1) =   0
                l(2) =   0
                l(3) =   1
                l(4) =   1
     Q(r) pseudized with  8 coefficients,  rinner =    0.800   0.800   0.800


     PseudoPot. # 2 for Ti read from file:
     /storage/coda1/p-amedford6/0/shared/rich_project_chbe-medford/medford-share/data/pseudos_module/espresso/nninc/pbe/van/Ti.UPF
     MD5 check sum: 8e4df49b7f0d34bbd5052bf3f5ea0213
     Pseudo is Ultrasoft, Zval = 12.0
     Generated by new atomic code, or converted to UPF format
     Using radial grid of  851 points,  6 beta functions with: 
                l(1) =   0
                l(2) =   0
                l(3) =   1
                l(4) =   1
                l(5) =   2
                l(6) =   2
     Q(r) pseudized with  8 coefficients,  rinner =    1.000   1.000   1.000
                                                       1.000   1.000

     PseudoPot. # 3 for C  read from file:
     /storage/coda1/p-amedford6/0/shared/rich_project_chbe-medford/medford-share/data/pseudos_module/espresso/nninc/pbe/van/C.UPF
     MD5 check sum: 1a69bf6b8db32088f5b2163dbdb77a27
     Pseudo is Ultrasoft, Zval =  4.0
     Generated by new atomic code, or converted to UPF format
     Using radial grid of  721 points,  4 beta functions with: 
                l(1) =   0
                l(2) =   0
                l(3) =   1
                l(4) =   1
     Q(r) pseudized with  8 coefficients,  rinner =    0.800   0.800   0.800


     PseudoPot. # 4 for H  read from file:
     /storage/coda1/p-amedford6/0/shared/rich_project_chbe-medford/medford-share/data/pseudos_module/espresso/nninc/pbe/van/H.UPF
     MD5 check sum: b5ee9d7bfd3a09ee7748110bda690ff7
     Pseudo is Ultrasoft, Zval =  1.0
     Generated by new atomic code, or converted to UPF format
     Using radial grid of  615 points,  1 beta functions with: 
                l(1) =   0
     Q(r) pseudized with  8 coefficients,  rinner =    0.800

     PseudoPot. # 5 for N  read from file:
     /storage/coda1/p-amedford6/0/shared/rich_project_chbe-medford/medford-share/data/pseudos_module/espresso/nninc/pbe/van/N.UPF
     MD5 check sum: 90d10febe142ad51ac9d5be1deb811c4
     Pseudo is Ultrasoft, Zval =  5.0
     Generated by new atomic code, or converted to UPF format
     Using radial grid of  729 points,  4 beta functions with: 
                l(1) =   0
                l(2) =   0
                l(3) =   1
                l(4) =   1
     Q(r) pseudized with  8 coefficients,  rinner =    0.800   0.800   0.800


     atomic species   valence    mass     pseudopotential
        O1             6.00    15.99900     O ( 1.00)
        Ti1           12.00    47.86700     Ti( 1.00)
        C1             4.00    12.01100     C ( 1.00)
        H1             1.00     1.00800     H ( 1.00)
        N1             5.00    14.00700     N ( 1.00)

     No symmetry found



   Cartesian axes

     site n.     atom                  positions (alat units)
         1           O1  tau(   1) = (   3.2904802   0.0005063   4.7018136  )
         2           O1  tau(   2) = (   3.2900926   2.9813045   4.7018136  )
         3           Ti1 tau(   3) = (   0.0004258   2.9801865   6.0000000  )
         4           Ti1 tau(   4) = (   0.0000382   5.9609847   6.0000000  )
         5           Ti1 tau(   5) = (   3.2906075   1.4906267   6.0002472  )
         6           Ti1 tau(   6) = (   3.2902200   4.4714249   6.0002472  )
         7           O1  tau(   7) = (   1.3043587   1.4918075   6.0039043  )
         8           O1  tau(   8) = (   1.3039711   4.4726057   6.0039043  )
         9           O1  tau(   9) = (   5.2767064   1.4903225   6.0039473  )
        10           O1  tau(  10) = (   5.2763189   4.4711207   6.0039473  )
        11           O1  tau(  11) = (   3.2906025   0.0005020   7.3038282  )
        12           O1  tau(  12) = (   3.2902150   2.9813002   7.3038282  )
        13           O1  tau(  13) = (   0.0006271   0.0005054   7.9858123  )
        14           O1  tau(  14) = (   0.0002396   2.9813036   7.9858123  )
        15           Ti1 tau(  15) = (   3.2350752   0.0608747   9.1773017  )
        16           Ti1 tau(  16) = (   3.2297482   3.0449837   9.2258248  )
        17           Ti1 tau(  17) = (   6.5035314   4.4790947   9.3419400  )
        18           O1  tau(  18) = (   4.5942328   1.4918067   9.2879030  )
        19           O1  tau(  19) = (   4.5938453   4.4726049   9.2879030  )
        20           O1  tau(  20) = (   1.9868534   1.4903216   9.2879459  )
        21           O1  tau(  21) = (   1.9864658   4.4711199   9.2879459  )
        22           Ti1 tau(  22) = (   6.5047199   1.5482117   9.3251357  )
        23           O1  tau(  23) = (   6.5709586   2.9893791  10.5365161  )
        24           O1  tau(  24) = (   6.5791863   0.0068326  10.5847705  )
        25           O1  tau(  25) = (   3.2737170   2.9471243  11.2864913  )
        26           O1  tau(  26) = (   3.2757665   0.0160177  11.3056520  )
        27           Ti1 tau(  27) = (   3.3024496   1.5456137  12.4328335  )
        28           Ti1 tau(  28) = (   0.0381823   0.0558990  12.5328616  )
        29           Ti1 tau(  29) = (   3.2867454   4.6490159  12.6676011  )
        30           O1  tau(  30) = (   1.2579511   1.4933188  12.6274103  )
        31           O1  tau(  31) = (   5.2930440   1.4968169  12.6131059  )
        32           O1  tau(  32) = (   1.2503383   4.4760527  12.6363980  )
        33           O1  tau(  33) = (   5.2887019   4.4660859  12.6249461  )
        34           Ti1 tau(  34) = (   6.5320965   3.0346479  12.8073368  )
        35           O1  tau(  35) = (   3.2762579   2.9735537  13.8874883  )
        36           O1  tau(  36) = (   3.2793791   5.9387796  13.8789893  )
        37           O1  tau(  37) = (   6.5412754   2.9812497  14.6926498  )
        38           O1  tau(  38) = (   6.5531526   0.0082392  14.6823945  )
        39           Ti1 tau(  39) = (   3.2668636   2.9663550  15.6683660  )
        40           Ti1 tau(  40) = (   3.2982107   5.9440960  16.3508785  )
        41           Ti1 tau(  41) = (   0.0141158   4.5598071  15.9269461  )
        42           O1  tau(  42) = (   4.5124726   4.4172202  16.0573870  )
        43           O1  tau(  43) = (   1.9821766   4.4208814  16.0404589  )
        44           O1  tau(  44) = (   4.4954461   1.5000296  16.1066544  )
        45           O1  tau(  45) = (   1.9782815   1.5221889  16.0619205  )
        46           Ti1 tau(  46) = (   0.0269324   1.3869748  16.0447141  )
        47           O1  tau(  47) = (   6.5379229   5.9414530  17.1901000  )
        48           O1  tau(  48) = (   6.5175113   2.9840192  17.3772383  )
        49           C1  tau(  49) = (   5.9742390   3.1768082  18.5865123  )
        50           H1  tau(  50) = (   5.8341806   4.1706531  18.9840957  )
        51           N1  tau(  51) = (   5.5886240   2.1683037  19.3003467  )
        52           N1  tau(  52) = (   5.2398892   1.2394158  19.8970451  )
        53           O1  tau(  53) = (   3.2183551   5.8834210  18.1546619  )
        54           H1  tau(  54) = (   3.7026433   0.4006729  18.8445816  )

     number of k points=    10  Fermi-Dirac smearing, width (Ry)=  0.0073
                       cart. coord. in units 2pi/alat
        k(    1) = (   0.0000000   0.0000000   0.0000000), wk =   0.1250000
        k(    2) = (   0.0000000   0.0419351   0.0000000), wk =   0.2500000
        k(    3) = (   0.0000000  -0.0838702   0.0000000), wk =   0.1250000
        k(    4) = (   0.0379955   0.0000049   0.0000000), wk =   0.2500000
        k(    5) = (   0.0379955   0.0419400   0.0000000), wk =   0.2500000
        k(    6) = (   0.0379955  -0.0838652   0.0000000), wk =   0.2500000
        k(    7) = (   0.0379955  -0.0419301   0.0000000), wk =   0.2500000
        k(    8) = (  -0.0759910  -0.0000099   0.0000000), wk =   0.1250000
        k(    9) = (  -0.0759910   0.0419252   0.0000000), wk =   0.2500000
        k(   10) = (  -0.0759910  -0.0838800   0.0000000), wk =   0.1250000

     Dense  grid:   566857 G-vectors     FFT dimensions: (  72,  64, 270)

     Smooth grid:   143421 G-vectors     FFT dimensions: (  45,  40, 180)

     Estimated max dynamical RAM per process >     370.82 MB

     Estimated total dynamical RAM >       3.62 GB
     Cannot read rho : file not found

     Initial potential from superposition of free atoms

     starting charge  389.99917, renormalised to  406.00000

     negative rho (up, down):  1.658E-02 0.000E+00


     %%%%%%%%%%%%%%%%%%%%%%%%%%%%%%%%%%%%%%%%%%%%%%%%%%%%%%%%%%%%%%%%%%%%%%%%
     %                                                                      %
     % You are using vdW-DF, which was implemented by the Thonhauser group. %
     % Please cite the following two papers that made this development      %
     % possible and the two reviews that describe the various versions:     %
     %                                                                      %
     %   T. Thonhauser et al., PRL 115, 136402 (2015).                      %
     %   T. Thonhauser et al., PRB 76, 125112 (2007).                       %
     %   K. Berland et al., Rep. Prog. Phys. 78, 066501 (2015).             %
     %   D.C. Langreth et al., J. Phys.: Condens. Matter 21, 084203 (2009). %
     %                                                                      %
     %                                                                      %
     % If you are calculating the stress with vdW-DF, please also cite:     %
     %                                                                      %
     %   R. Sabatini et al., J. Phys.: Condens. Matter 24, 424209 (2012).   %
     %                                                                      %
     %%%%%%%%%%%%%%%%%%%%%%%%%%%%%%%%%%%%%%%%%%%%%%%%%%%%%%%%%%%%%%%%%%%%%%%%


 
     Adding external electric field

     Computed dipole along edir(3) : 
        Dipole              -13.7833 Ry au,        -35.0338 Debye
        Dipole field         -0.0260 Ry au, 
 
        Potential amp.        2.4112 Ry
        Total length         46.3494 bohr
 
     Starting wfcs are  306 atomic wfcs
  @ DRIVER MODE: Message from server: STATUS
  @ DRIVER MODE: Message from server: POSDATA
  @ DRIVER MODE: Reading and sharing cell 
  @ DRIVER MODE: Reading and sharing positions 
  @ DRIVER MODE: Received positions 

     total cpu time spent up to now is       11.4 secs

     Self-consistent Calculation

     iteration #  1     ecut=    29.40 Ry     beta= 0.05
     Davidson diagonalization with overlap
     c_bands:  1 eigenvalues not converged
     c_bands:  1 eigenvalues not converged
     c_bands:  5 eigenvalues not converged
     c_bands:  5 eigenvalues not converged
     ethr =  1.00E-05,  avg # of iterations = 30.9

     negative rho (up, down):  9.590E-03 0.000E+00
 
     Adding external electric field

     Computed dipole along edir(3) : 
        Dipole               57.8703 Ry au,        147.0917 Debye
        Dipole field          0.1092 Ry au, 
 
        Potential amp.      -10.1235 Ry
        Total length         46.3494 bohr
 

     total cpu time spent up to now is       64.8 secs

     total energy              =   -2308.15155147 Ry
     estimated scf accuracy    <    7893.13030583 Ry

     iteration #  2     ecut=    29.40 Ry     beta= 0.05
     Davidson diagonalization with overlap
     ethr =  1.00E-02,  avg # of iterations = 24.8

     negative rho (up, down):  3.513E-04 0.000E+00
 
     Adding external electric field

     Computed dipole along edir(3) : 
        Dipole                0.7219 Ry au,          1.8348 Debye
        Dipole field          0.0014 Ry au, 
 
        Potential amp.       -0.1263 Ry
        Total length         46.3494 bohr
 

     total cpu time spent up to now is      150.1 secs

     total energy              =   -2510.02375474 Ry
     estimated scf accuracy    <   73778.04738081 Ry

     iteration #  3     ecut=    29.40 Ry     beta= 0.05
     Davidson diagonalization with overlap
     ethr =  1.00E-02,  avg # of iterations = 16.2

     negative rho (up, down):  4.002E-04 0.000E+00
 
     Adding external electric field

     Computed dipole along edir(3) : 
        Dipole               -2.7424 Ry au,         -6.9704 Debye
        Dipole field         -0.0052 Ry au, 
 
        Potential amp.        0.4797 Ry
        Total length         46.3494 bohr
 

     total cpu time spent up to now is      200.6 secs

     total energy              =   -2988.46775742 Ry
     estimated scf accuracy    <    7283.52169899 Ry

     iteration #  4     ecut=    29.40 Ry     beta= 0.05
     Davidson diagonalization with overlap
     ethr =  1.00E-02,  avg # of iterations = 10.6

     negative rho (up, down):  4.179E-04 0.000E+00
 
     Adding external electric field

     Computed dipole along edir(3) : 
        Dipole               -4.4506 Ry au,        -11.3123 Debye
        Dipole field         -0.0084 Ry au, 
 
        Potential amp.        0.7786 Ry
        Total length         46.3494 bohr
 

     total cpu time spent up to now is      223.4 secs

     total energy              =   -2994.33578745 Ry
     estimated scf accuracy    <    2167.55051451 Ry

     iteration #  5     ecut=    29.40 Ry     beta= 0.05
     Davidson diagonalization with overlap
     ethr =  1.00E-02,  avg # of iterations =  5.4

     negative rho (up, down):  4.602E-04 0.000E+00
 
     Adding external electric field

     Computed dipole along edir(3) : 
        Dipole               -6.6260 Ry au,        -16.8416 Debye
        Dipole field         -0.0125 Ry au, 
 
        Potential amp.        1.1591 Ry
        Total length         46.3494 bohr
 

     total cpu time spent up to now is      235.4 secs

     total energy              =   -2973.51240197 Ry
     estimated scf accuracy    <    1963.42878174 Ry

     iteration #  6     ecut=    29.40 Ry     beta= 0.05
     Davidson diagonalization with overlap
     ethr =  1.00E-02,  avg # of iterations = 12.6

     negative rho (up, down):  4.593E-04 0.000E+00
 
     Adding external electric field

     Computed dipole along edir(3) : 
        Dipole               -5.4942 Ry au,        -13.9648 Debye
        Dipole field         -0.0104 Ry au, 
 
        Potential amp.        0.9611 Ry
        Total length         46.3494 bohr
 

     total cpu time spent up to now is      260.5 secs

     total energy              =   -3007.24888299 Ry
     estimated scf accuracy    <      30.14136000 Ry

     iteration #  7     ecut=    29.40 Ry     beta= 0.05
     Davidson diagonalization with overlap
     ethr =  7.42E-03,  avg # of iterations =  1.5

     negative rho (up, down):  4.679E-04 0.000E+00
 
     Adding external electric field

     Computed dipole along edir(3) : 
        Dipole               -4.4874 Ry au,        -11.4058 Debye
        Dipole field         -0.0085 Ry au, 
 
        Potential amp.        0.7850 Ry
        Total length         46.3494 bohr
 

     total cpu time spent up to now is      270.9 secs

     total energy              =   -3006.18175398 Ry
     estimated scf accuracy    <      22.22670514 Ry

     iteration #  8     ecut=    29.40 Ry     beta= 0.05
     Davidson diagonalization with overlap
     ethr =  5.47E-03,  avg # of iterations =  1.0

     negative rho (up, down):  5.338E-04 0.000E+00
 
     Adding external electric field

     Computed dipole along edir(3) : 
        Dipole               -0.1277 Ry au,         -0.3247 Debye
        Dipole field         -0.0002 Ry au, 
 
        Potential amp.        0.0223 Ry
        Total length         46.3494 bohr
 

     total cpu time spent up to now is      280.9 secs

     total energy              =   -3002.68746687 Ry
     estimated scf accuracy    <      17.37952076 Ry

     iteration #  9     ecut=    29.40 Ry     beta= 0.05
     Davidson diagonalization with overlap
     c_bands:  2 eigenvalues not converged
     c_bands:  2 eigenvalues not converged
     c_bands:  1 eigenvalues not converged
     c_bands:  1 eigenvalues not converged
     c_bands:  1 eigenvalues not converged
     c_bands:  5 eigenvalues not converged
     ethr =  4.28E-03,  avg # of iterations = 19.4

     negative rho (up, down):  5.953E-04 0.000E+00
 
     Adding external electric field

     Computed dipole along edir(3) : 
        Dipole               -0.5255 Ry au,         -1.3358 Debye
        Dipole field         -0.0010 Ry au, 
 
        Potential amp.        0.0919 Ry
        Total length         46.3494 bohr
 

     total cpu time spent up to now is      302.8 secs

     total energy              =   -3009.47233323 Ry
     estimated scf accuracy    <    1453.61612703 Ry

     iteration # 10     ecut=    29.40 Ry     beta= 0.05
     Davidson diagonalization with overlap
     ethr =  4.28E-03,  avg # of iterations =  1.9

     negative rho (up, down):  6.988E-04 0.000E+00
 
     Adding external electric field

     Computed dipole along edir(3) : 
        Dipole                0.8704 Ry au,          2.2124 Debye
        Dipole field          0.0016 Ry au, 
 
        Potential amp.       -0.1523 Ry
        Total length         46.3494 bohr
 

     total cpu time spent up to now is      313.3 secs

     total energy              =   -3014.93071348 Ry
     estimated scf accuracy    <    1111.44349464 Ry

     iteration # 11     ecut=    29.40 Ry     beta= 0.05
     Davidson diagonalization with overlap
     ethr =  4.28E-03,  avg # of iterations =  5.3

     negative rho (up, down):  7.552E-04 0.000E+00
 
     Adding external electric field

     Computed dipole along edir(3) : 
        Dipole               -0.8068 Ry au,         -2.0507 Debye
        Dipole field         -0.0015 Ry au, 
 
        Potential amp.        0.1411 Ry
        Total length         46.3494 bohr
 

     total cpu time spent up to now is      325.1 secs

     total energy              =   -3000.33710363 Ry
     estimated scf accuracy    <    1651.07509073 Ry

     iteration # 12     ecut=    29.40 Ry     beta= 0.05
     Davidson diagonalization with overlap
     ethr =  4.28E-03,  avg # of iterations =  4.4

     negative rho (up, down):  7.678E-04 0.000E+00
 
     Adding external electric field

     Computed dipole along edir(3) : 
        Dipole               -0.8394 Ry au,         -2.1335 Debye
        Dipole field         -0.0016 Ry au, 
 
        Potential amp.        0.1468 Ry
        Total length         46.3494 bohr
 

     total cpu time spent up to now is      336.9 secs

     total energy              =   -3003.52583155 Ry
     estimated scf accuracy    <     557.88831135 Ry

     iteration # 13     ecut=    29.40 Ry     beta= 0.05
     Davidson diagonalization with overlap
     ethr =  4.28E-03,  avg # of iterations =  1.3

     negative rho (up, down):  7.788E-04 0.000E+00
 
     Adding external electric field

     Computed dipole along edir(3) : 
        Dipole               -1.7487 Ry au,         -4.4447 Debye
        Dipole field         -0.0033 Ry au, 
 
        Potential amp.        0.3059 Ry
        Total length         46.3494 bohr
 

     total cpu time spent up to now is      347.1 secs

     total energy              =   -2998.60003977 Ry
     estimated scf accuracy    <     521.13226859 Ry

     iteration # 14     ecut=    29.40 Ry     beta= 0.05
     Davidson diagonalization with overlap
     ethr =  4.28E-03,  avg # of iterations =  7.5

     negative rho (up, down):  8.267E-04 0.000E+00
 
     Adding external electric field

     Computed dipole along edir(3) : 
        Dipole               -1.4850 Ry au,         -3.7746 Debye
        Dipole field         -0.0028 Ry au, 
 
        Potential amp.        0.2598 Ry
        Total length         46.3494 bohr
 

     total cpu time spent up to now is      360.4 secs

     total energy              =   -3000.76608951 Ry
     estimated scf accuracy    <     167.69934202 Ry

     iteration # 15     ecut=    29.40 Ry     beta= 0.05
     Davidson diagonalization with overlap
     ethr =  4.28E-03,  avg # of iterations =  1.2

     negative rho (up, down):  8.962E-04 0.000E+00
 
     Adding external electric field

     Computed dipole along edir(3) : 
        Dipole               -1.7026 Ry au,         -4.3275 Debye
        Dipole field         -0.0032 Ry au, 
 
        Potential amp.        0.2978 Ry
        Total length         46.3494 bohr
 

     total cpu time spent up to now is      370.6 secs

     total energy              =   -2999.72884696 Ry
     estimated scf accuracy    <     160.73203596 Ry

     iteration # 16     ecut=    29.40 Ry     beta= 0.05
     Davidson diagonalization with overlap
     ethr =  4.28E-03,  avg # of iterations =  4.6

     negative rho (up, down):  9.490E-04 0.000E+00
 
     Adding external electric field

     Computed dipole along edir(3) : 
        Dipole               -2.1087 Ry au,         -5.3597 Debye
        Dipole field         -0.0040 Ry au, 
 
        Potential amp.        0.3689 Ry
        Total length         46.3494 bohr
 

     total cpu time spent up to now is      382.8 secs

     total energy              =   -2999.64940634 Ry
     estimated scf accuracy    <      86.76141460 Ry

     iteration # 17     ecut=    29.40 Ry     beta= 0.05
     Davidson diagonalization with overlap
     c_bands:  1 eigenvalues not converged
     ethr =  4.28E-03,  avg # of iterations = 10.4

     negative rho (up, down):  1.152E-03 0.000E+00
 
     Adding external electric field

     Computed dipole along edir(3) : 
        Dipole               -1.6702 Ry au,         -4.2452 Debye
        Dipole field         -0.0032 Ry au, 
 
        Potential amp.        0.2922 Ry
        Total length         46.3494 bohr
 

     total cpu time spent up to now is      397.9 secs

     total energy              =   -3001.65142720 Ry
     estimated scf accuracy    <       3.54479473 Ry

     iteration # 18     ecut=    29.40 Ry     beta= 0.05
     Davidson diagonalization with overlap
     c_bands:  1 eigenvalues not converged
     ethr =  8.73E-04,  avg # of iterations = 12.8

     negative rho (up, down):  1.293E-03 0.000E+00
 
     Adding external electric field

     Computed dipole along edir(3) : 
        Dipole               -1.4765 Ry au,         -3.7529 Debye
        Dipole field         -0.0028 Ry au, 
 
        Potential amp.        0.2583 Ry
        Total length         46.3494 bohr
 

     total cpu time spent up to now is      413.7 secs

     total energy              =   -3002.81721073 Ry
     estimated scf accuracy    <       1.39464328 Ry

     iteration # 19     ecut=    29.40 Ry     beta= 0.05
     Davidson diagonalization with overlap
     c_bands:  5 eigenvalues not converged
     ethr =  3.44E-04,  avg # of iterations =  9.7

     negative rho (up, down):  1.449E-03 0.000E+00
 
     Adding external electric field

     Computed dipole along edir(3) : 
        Dipole               -1.3828 Ry au,         -3.5147 Debye
        Dipole field         -0.0026 Ry au, 
 
        Potential amp.        0.2419 Ry
        Total length         46.3494 bohr
 

     total cpu time spent up to now is      428.9 secs

     total energy              =   -3002.79827421 Ry
     estimated scf accuracy    <       1.77817665 Ry

     iteration # 20     ecut=    29.40 Ry     beta= 0.05
     Davidson diagonalization with overlap
     ethr =  3.44E-04,  avg # of iterations =  2.7

     negative rho (up, down):  1.572E-03 0.000E+00
 
     Adding external electric field

     Computed dipole along edir(3) : 
        Dipole               -1.3345 Ry au,         -3.3921 Debye
        Dipole field         -0.0025 Ry au, 
 
        Potential amp.        0.2335 Ry
        Total length         46.3494 bohr
 

     total cpu time spent up to now is      439.8 secs

     total energy              =   -3002.70741151 Ry
     estimated scf accuracy    <       2.19190614 Ry

     iteration # 21     ecut=    29.40 Ry     beta= 0.05
     Davidson diagonalization with overlap
     c_bands:  3 eigenvalues not converged
     ethr =  3.44E-04,  avg # of iterations =  8.4

     negative rho (up, down):  1.682E-03 0.000E+00
 
     Adding external electric field

     Computed dipole along edir(3) : 
        Dipole               -1.1025 Ry au,         -2.8024 Debye
        Dipole field         -0.0021 Ry au, 
 
        Potential amp.        0.1929 Ry
        Total length         46.3494 bohr
 

     total cpu time spent up to now is      452.8 secs

     total energy              =   -3002.70257213 Ry
     estimated scf accuracy    <       1.81082824 Ry

     iteration # 22     ecut=    29.40 Ry     beta= 0.05
     Davidson diagonalization with overlap
     ethr =  3.44E-04,  avg # of iterations =  1.5

     negative rho (up, down):  2.887E-03 0.000E+00
 
     Adding external electric field

     Computed dipole along edir(3) : 
        Dipole               -0.4938 Ry au,         -1.2552 Debye
        Dipole field         -0.0009 Ry au, 
 
        Potential amp.        0.0864 Ry
        Total length         46.3494 bohr
 

     total cpu time spent up to now is      463.2 secs

     total energy              =   -3002.64765683 Ry
     estimated scf accuracy    <       0.73151881 Ry

     iteration # 23     ecut=    29.40 Ry     beta= 0.05
     Davidson diagonalization with overlap
     c_bands:  3 eigenvalues not converged
     c_bands:  1 eigenvalues not converged
     c_bands:  4 eigenvalues not converged
     c_bands:  1 eigenvalues not converged
     c_bands:  2 eigenvalues not converged
     ethr =  1.80E-04,  avg # of iterations = 16.9

     negative rho (up, down):  2.823E-03 0.000E+00
 
     Adding external electric field

     Computed dipole along edir(3) : 
        Dipole               -0.3280 Ry au,         -0.8337 Debye
        Dipole field         -0.0006 Ry au, 
 
        Potential amp.        0.0574 Ry
        Total length         46.3494 bohr
 

     total cpu time spent up to now is      480.2 secs

     total energy              =   -3002.65624446 Ry
     estimated scf accuracy    <       1.78977741 Ry

     iteration # 24     ecut=    29.40 Ry     beta= 0.05
     Davidson diagonalization with overlap
     ethr =  1.80E-04,  avg # of iterations =  1.6

     negative rho (up, down):  2.747E-03 0.000E+00
 
     Adding external electric field

     Computed dipole along edir(3) : 
        Dipole               -0.3302 Ry au,         -0.8394 Debye
        Dipole field         -0.0006 Ry au, 
 
        Potential amp.        0.0578 Ry
        Total length         46.3494 bohr
 

     total cpu time spent up to now is      490.9 secs

     total energy              =   -3002.67975338 Ry
     estimated scf accuracy    <       0.28814974 Ry

     iteration # 25     ecut=    29.40 Ry     beta= 0.05
     Davidson diagonalization with overlap
     c_bands:  3 eigenvalues not converged
     c_bands:  4 eigenvalues not converged
     ethr =  7.10E-05,  avg # of iterations =  5.1

     negative rho (up, down):  3.925E-03 0.000E+00
 
     Adding external electric field

     Computed dipole along edir(3) : 
        Dipole                0.0085 Ry au,          0.0215 Debye
        Dipole field          0.0000 Ry au, 
 
        Potential amp.       -0.0015 Ry
        Total length         46.3494 bohr
 

     total cpu time spent up to now is      502.5 secs

     total energy              =   -3002.64864265 Ry
     estimated scf accuracy    <       0.28611153 Ry

     iteration # 26     ecut=    29.40 Ry     beta= 0.05
     Davidson diagonalization with overlap
     c_bands:  1 eigenvalues not converged
     ethr =  7.05E-05,  avg # of iterations = 14.5

     negative rho (up, down):  4.331E-03 0.000E+00
 
     Adding external electric field

     Computed dipole along edir(3) : 
        Dipole               -0.0349 Ry au,         -0.0886 Debye
        Dipole field         -0.0001 Ry au, 
 
        Potential amp.        0.0061 Ry
        Total length         46.3494 bohr
 

     total cpu time spent up to now is      518.5 secs

     total energy              =   -3002.65379534 Ry
     estimated scf accuracy    <       0.18891801 Ry

     iteration # 27     ecut=    29.40 Ry     beta= 0.05
     Davidson diagonalization with overlap
     ethr =  4.65E-05,  avg # of iterations =  5.4

     negative rho (up, down):  6.951E-03 0.000E+00
 
     Adding external electric field

     Computed dipole along edir(3) : 
        Dipole                0.1188 Ry au,          0.3019 Debye
        Dipole field          0.0002 Ry au, 
 
        Potential amp.       -0.0208 Ry
        Total length         46.3494 bohr
 

     total cpu time spent up to now is      530.2 secs

     total energy              =   -3002.64976319 Ry
     estimated scf accuracy    <       0.16227004 Ry

     iteration # 28     ecut=    29.40 Ry     beta= 0.05
     Davidson diagonalization with overlap
     c_bands:  2 eigenvalues not converged
     ethr =  4.00E-05,  avg # of iterations = 14.2

     negative rho (up, down):  7.984E-03 0.000E+00
 
     Adding external electric field

     Computed dipole along edir(3) : 
        Dipole                0.2322 Ry au,          0.5902 Debye
        Dipole field          0.0004 Ry au, 
 
        Potential amp.       -0.0406 Ry
        Total length         46.3494 bohr
 

     total cpu time spent up to now is      546.2 secs

     total energy              =   -3002.63388203 Ry
     estimated scf accuracy    <       0.65784988 Ry

     iteration # 29     ecut=    29.40 Ry     beta= 0.05
     Davidson diagonalization with overlap
     c_bands:  4 eigenvalues not converged
     c_bands:  3 eigenvalues not converged
     ethr =  4.00E-05,  avg # of iterations = 14.7

     negative rho (up, down):  8.858E-03 0.000E+00
 
     Adding external electric field

     Computed dipole along edir(3) : 
        Dipole                0.3003 Ry au,          0.7633 Debye
        Dipole field          0.0006 Ry au, 
 
        Potential amp.       -0.0525 Ry
        Total length         46.3494 bohr
 

     total cpu time spent up to now is      562.5 secs

     total energy              =   -3002.64832098 Ry
     estimated scf accuracy    <       0.06329472 Ry

     iteration # 30     ecut=    29.40 Ry     beta= 0.05
     Davidson diagonalization with overlap
     c_bands:  3 eigenvalues not converged
     c_bands:  2 eigenvalues not converged
     c_bands:  2 eigenvalues not converged
     c_bands:  3 eigenvalues not converged
     c_bands:  1 eigenvalues not converged
     ethr =  1.56E-05,  avg # of iterations = 16.9

     negative rho (up, down):  9.484E-03 0.000E+00
 
     Adding external electric field

     Computed dipole along edir(3) : 
        Dipole                0.3101 Ry au,          0.7881 Debye
        Dipole field          0.0006 Ry au, 
 
        Potential amp.       -0.0542 Ry
        Total length         46.3494 bohr
 

     total cpu time spent up to now is      579.3 secs

     total energy              =   -3002.65039701 Ry
     estimated scf accuracy    <       0.04904594 Ry

     iteration # 31     ecut=    29.40 Ry     beta= 0.05
     Davidson diagonalization with overlap
     ethr =  1.21E-05,  avg # of iterations =  7.9

     negative rho (up, down):  1.396E-02 0.000E+00
 
     Adding external electric field

     Computed dipole along edir(3) : 
        Dipole                0.3531 Ry au,          0.8976 Debye
        Dipole field          0.0007 Ry au, 
 
        Potential amp.       -0.0618 Ry
        Total length         46.3494 bohr
 

     total cpu time spent up to now is      591.6 secs

     total energy              =   -3002.64687573 Ry
     estimated scf accuracy    <       0.05341184 Ry

     iteration # 32     ecut=    29.40 Ry     beta= 0.05
     Davidson diagonalization with overlap
     c_bands:  1 eigenvalues not converged
     ethr =  1.21E-05,  avg # of iterations =  3.7

     negative rho (up, down):  1.770E-02 0.000E+00
 
     Adding external electric field

     Computed dipole along edir(3) : 
        Dipole                0.3754 Ry au,          0.9541 Debye
        Dipole field          0.0007 Ry au, 
 
        Potential amp.       -0.0657 Ry
        Total length         46.3494 bohr
 

     total cpu time spent up to now is      603.0 secs

     total energy              =   -3002.64413461 Ry
     estimated scf accuracy    <       0.04342122 Ry

     iteration # 33     ecut=    29.40 Ry     beta= 0.05
     Davidson diagonalization with overlap
     c_bands:  2 eigenvalues not converged
     c_bands:  3 eigenvalues not converged
     c_bands:  1 eigenvalues not converged
     c_bands:  1 eigenvalues not converged
     c_bands:  1 eigenvalues not converged
     c_bands:  2 eigenvalues not converged
     c_bands:  1 eigenvalues not converged
     c_bands:  1 eigenvalues not converged
     c_bands:  2 eigenvalues not converged
     ethr =  1.07E-05,  avg # of iterations = 19.6

     negative rho (up, down):  1.388E-02 0.000E+00
 
     Adding external electric field

     Computed dipole along edir(3) : 
        Dipole                0.3539 Ry au,          0.8996 Debye
        Dipole field          0.0007 Ry au, 
 
        Potential amp.       -0.0619 Ry
        Total length         46.3494 bohr
 

     total cpu time spent up to now is      623.6 secs

     total energy              =   -3002.64444097 Ry
     estimated scf accuracy    <       0.02347370 Ry

     iteration # 34     ecut=    29.40 Ry     beta= 0.05
     Davidson diagonalization with overlap
     c_bands:  2 eigenvalues not converged
     c_bands:  2 eigenvalues not converged
     c_bands:  1 eigenvalues not converged
     c_bands:  2 eigenvalues not converged
     c_bands:  2 eigenvalues not converged
     c_bands:  2 eigenvalues not converged
     c_bands:  2 eigenvalues not converged
     ethr =  5.78E-06,  avg # of iterations = 19.3

     negative rho (up, down):  1.245E-02 0.000E+00
 
     Adding external electric field

     Computed dipole along edir(3) : 
        Dipole                0.3818 Ry au,          0.9704 Debye
        Dipole field          0.0007 Ry au, 
 
        Potential amp.       -0.0668 Ry
        Total length         46.3494 bohr
 

     total cpu time spent up to now is      642.6 secs

     total energy              =   -3002.64454277 Ry
     estimated scf accuracy    <       0.01370078 Ry

     iteration # 35     ecut=    29.40 Ry     beta= 0.05
     Davidson diagonalization with overlap
     c_bands:  1 eigenvalues not converged
     c_bands:  4 eigenvalues not converged
     c_bands:  2 eigenvalues not converged
     c_bands:  1 eigenvalues not converged
     c_bands:  1 eigenvalues not converged
     c_bands:  2 eigenvalues not converged
     c_bands:  1 eigenvalues not converged
     c_bands:  1 eigenvalues not converged
     ethr =  3.37E-06,  avg # of iterations = 19.6

     negative rho (up, down):  1.405E-02 0.000E+00
 
     Adding external electric field

     Computed dipole along edir(3) : 
        Dipole                0.3998 Ry au,          1.0161 Debye
        Dipole field          0.0008 Ry au, 
 
        Potential amp.       -0.0699 Ry
        Total length         46.3494 bohr
 

     total cpu time spent up to now is      661.0 secs

     total energy              =   -3002.64519695 Ry
     estimated scf accuracy    <       0.00368495 Ry

     iteration # 36     ecut=    29.40 Ry     beta= 0.05
     Davidson diagonalization with overlap
     c_bands:  1 eigenvalues not converged
     c_bands:  1 eigenvalues not converged
     c_bands:  1 eigenvalues not converged
     c_bands:  1 eigenvalues not converged
     ethr =  9.08E-07,  avg # of iterations = 18.5

     negative rho (up, down):  1.532E-02 0.000E+00
 
     Adding external electric field

     Computed dipole along edir(3) : 
        Dipole                0.4095 Ry au,          1.0407 Debye
        Dipole field          0.0008 Ry au, 
 
        Potential amp.       -0.0716 Ry
        Total length         46.3494 bohr
 

     total cpu time spent up to now is      681.3 secs

     total energy              =   -3002.64576219 Ry
     estimated scf accuracy    <       0.00220188 Ry

     iteration # 37     ecut=    29.40 Ry     beta= 0.05
     Davidson diagonalization with overlap
     c_bands:  1 eigenvalues not converged
     ethr =  5.42E-07,  avg # of iterations = 11.8

     negative rho (up, down):  1.528E-02 0.000E+00
 
     Adding external electric field

     Computed dipole along edir(3) : 
        Dipole                0.4081 Ry au,          1.0372 Debye
        Dipole field          0.0008 Ry au, 
 
        Potential amp.       -0.0714 Ry
        Total length         46.3494 bohr
 

     total cpu time spent up to now is      697.1 secs

     total energy              =   -3002.64591957 Ry
     estimated scf accuracy    <       0.00214761 Ry

     iteration # 38     ecut=    29.40 Ry     beta= 0.05
     Davidson diagonalization with overlap
     ethr =  5.29E-07,  avg # of iterations =  1.2

     negative rho (up, down):  1.439E-02 0.000E+00
 
     Adding external electric field

     Computed dipole along edir(3) : 
        Dipole                0.3903 Ry au,          0.9919 Debye
        Dipole field          0.0007 Ry au, 
 
        Potential amp.       -0.0683 Ry
        Total length         46.3494 bohr
 

     total cpu time spent up to now is      707.2 secs

     total energy              =   -3002.64516048 Ry
     estimated scf accuracy    <       0.00179624 Ry

     iteration # 39     ecut=    29.40 Ry     beta= 0.05
     Davidson diagonalization with overlap
     c_bands:  1 eigenvalues not converged
     c_bands:  1 eigenvalues not converged
     c_bands:  2 eigenvalues not converged
     c_bands:  2 eigenvalues not converged
     c_bands:  2 eigenvalues not converged
     c_bands:  3 eigenvalues not converged
     c_bands:  4 eigenvalues not converged
     c_bands:  2 eigenvalues not converged
     c_bands:  3 eigenvalues not converged
     ethr =  4.42E-07,  avg # of iterations = 19.6

     negative rho (up, down):  1.598E-02 0.000E+00
 
     Adding external electric field

     Computed dipole along edir(3) : 
        Dipole                0.4065 Ry au,          1.0331 Debye
        Dipole field          0.0008 Ry au, 
 
        Potential amp.       -0.0711 Ry
        Total length         46.3494 bohr
 

     total cpu time spent up to now is      736.3 secs

     total energy              =   -3002.64513551 Ry
     estimated scf accuracy    <       0.00991295 Ry

     iteration # 40     ecut=    29.40 Ry     beta= 0.05
     Davidson diagonalization with overlap
     c_bands:  1 eigenvalues not converged
     c_bands:  2 eigenvalues not converged
     c_bands:  1 eigenvalues not converged
     c_bands:  2 eigenvalues not converged
     c_bands:  3 eigenvalues not converged
     c_bands:  1 eigenvalues not converged
     c_bands:  1 eigenvalues not converged
     ethr =  4.42E-07,  avg # of iterations = 19.0

     negative rho (up, down):  1.606E-02 0.000E+00
 
     Adding external electric field

     Computed dipole along edir(3) : 
        Dipole                0.4061 Ry au,          1.0322 Debye
        Dipole field          0.0008 Ry au, 
 
        Potential amp.       -0.0710 Ry
        Total length         46.3494 bohr
 

     total cpu time spent up to now is      759.6 secs

     total energy              =   -3002.64572160 Ry
     estimated scf accuracy    <       0.00118558 Ry

     iteration # 41     ecut=    29.40 Ry     beta= 0.05
     Davidson diagonalization with overlap
     c_bands:  1 eigenvalues not converged
     ethr =  2.92E-07,  avg # of iterations =  6.9

     negative rho (up, down):  1.609E-02 0.000E+00
 
     Adding external electric field

     Computed dipole along edir(3) : 
        Dipole                0.4044 Ry au,          1.0279 Debye
        Dipole field          0.0008 Ry au, 
 
        Potential amp.       -0.0707 Ry
        Total length         46.3494 bohr
 

     total cpu time spent up to now is      772.7 secs

     total energy              =   -3002.64584466 Ry
     estimated scf accuracy    <       0.00047763 Ry

     iteration # 42     ecut=    29.40 Ry     beta= 0.05
     Davidson diagonalization with overlap
     ethr =  1.18E-07,  avg # of iterations =  2.0

     negative rho (up, down):  1.665E-02 0.000E+00
 
     Adding external electric field

     Computed dipole along edir(3) : 
        Dipole                0.4092 Ry au,          1.0400 Debye
        Dipole field          0.0008 Ry au, 
 
        Potential amp.       -0.0716 Ry
        Total length         46.3494 bohr
 

     total cpu time spent up to now is      783.9 secs

     total energy              =   -3002.64587648 Ry
     estimated scf accuracy    <       0.00030647 Ry

     iteration # 43     ecut=    29.40 Ry     beta= 0.05
     Davidson diagonalization with overlap
     ethr =  7.55E-08,  avg # of iterations =  6.2

     negative rho (up, down):  1.671E-02 0.000E+00
 
     Adding external electric field

     Computed dipole along edir(3) : 
        Dipole                0.4085 Ry au,          1.0384 Debye
        Dipole field          0.0008 Ry au, 
 
        Potential amp.       -0.0715 Ry
        Total length         46.3494 bohr
 

     total cpu time spent up to now is      799.1 secs

     total energy              =   -3002.64594328 Ry
     estimated scf accuracy    <       0.00019692 Ry

     iteration # 44     ecut=    29.40 Ry     beta= 0.05
     Davidson diagonalization with overlap
     ethr =  4.85E-08,  avg # of iterations =  5.0

     negative rho (up, down):  1.682E-02 0.000E+00
 
     Adding external electric field

     Computed dipole along edir(3) : 
        Dipole                0.4088 Ry au,          1.0391 Debye
        Dipole field          0.0008 Ry au, 
 
        Potential amp.       -0.0715 Ry
        Total length         46.3494 bohr
 

     total cpu time spent up to now is      811.4 secs

     total energy              =   -3002.64597723 Ry
     estimated scf accuracy    <       0.00008910 Ry

     iteration # 45     ecut=    29.40 Ry     beta= 0.05
     Davidson diagonalization with overlap
     ethr =  2.19E-08,  avg # of iterations =  6.8

     negative rho (up, down):  1.692E-02 0.000E+00
 
     Adding external electric field

     Computed dipole along edir(3) : 
        Dipole                0.4126 Ry au,          1.0488 Debye
        Dipole field          0.0008 Ry au, 
 
        Potential amp.       -0.0722 Ry
        Total length         46.3494 bohr
 

     total cpu time spent up to now is      825.7 secs

     total energy              =   -3002.64600491 Ry
     estimated scf accuracy    <       0.00006499 Ry

     iteration # 46     ecut=    29.40 Ry     beta= 0.05
     Davidson diagonalization with overlap
     ethr =  1.60E-08,  avg # of iterations =  6.0

     negative rho (up, down):  1.682E-02 0.000E+00
 
     Adding external electric field

     Computed dipole along edir(3) : 
        Dipole                0.4142 Ry au,          1.0527 Debye
        Dipole field          0.0008 Ry au, 
 
        Potential amp.       -0.0725 Ry
        Total length         46.3494 bohr
 

     total cpu time spent up to now is      839.4 secs

     total energy              =   -3002.64604349 Ry
     estimated scf accuracy    <       0.00003736 Ry

     iteration # 47     ecut=    29.40 Ry     beta= 0.05
     Davidson diagonalization with overlap
     ethr =  9.20E-09,  avg # of iterations =  6.3

     negative rho (up, down):  1.676E-02 0.000E+00
 
     Adding external electric field

     Computed dipole along edir(3) : 
        Dipole                0.4118 Ry au,          1.0468 Debye
        Dipole field          0.0008 Ry au, 
 
        Potential amp.       -0.0720 Ry
        Total length         46.3494 bohr
 

     total cpu time spent up to now is      855.1 secs

     total energy              =   -3002.64605560 Ry
     estimated scf accuracy    <       0.00010083 Ry

     iteration # 48     ecut=    29.40 Ry     beta= 0.05
     Davidson diagonalization with overlap
     ethr =  9.20E-09,  avg # of iterations =  5.5

     negative rho (up, down):  1.665E-02 0.000E+00
 
     Adding external electric field

     Computed dipole along edir(3) : 
        Dipole                0.4098 Ry au,          1.0417 Debye
        Dipole field          0.0008 Ry au, 
 
        Potential amp.       -0.0717 Ry
        Total length         46.3494 bohr
 

     total cpu time spent up to now is      868.0 secs

     total energy              =   -3002.64607276 Ry
     estimated scf accuracy    <       0.00002439 Ry

     iteration # 49     ecut=    29.40 Ry     beta= 0.05
     Davidson diagonalization with overlap
     ethr =  6.01E-09,  avg # of iterations =  6.6

     negative rho (up, down):  1.659E-02 0.000E+00
 
     Adding external electric field

     Computed dipole along edir(3) : 
        Dipole                0.4109 Ry au,          1.0444 Debye
        Dipole field          0.0008 Ry au, 
 
        Potential amp.       -0.0719 Ry
        Total length         46.3494 bohr
 

     total cpu time spent up to now is      886.3 secs

     total energy              =   -3002.64609590 Ry
     estimated scf accuracy    <       0.00002907 Ry

     iteration # 50     ecut=    29.40 Ry     beta= 0.05
     Davidson diagonalization with overlap
     ethr =  6.01E-09,  avg # of iterations =  5.0

     negative rho (up, down):  1.650E-02 0.000E+00
 
     Adding external electric field

     Computed dipole along edir(3) : 
        Dipole                0.4120 Ry au,          1.0471 Debye
        Dipole field          0.0008 Ry au, 
 
        Potential amp.       -0.0721 Ry
        Total length         46.3494 bohr
 

     total cpu time spent up to now is      898.5 secs

     total energy              =   -3002.64611276 Ry
     estimated scf accuracy    <       0.00000740 Ry

     iteration # 51     ecut=    29.40 Ry     beta= 0.05
     Davidson diagonalization with overlap
     ethr =  1.82E-09,  avg # of iterations =  8.5

     negative rho (up, down):  1.649E-02 0.000E+00
 
     Adding external electric field

     Computed dipole along edir(3) : 
        Dipole                0.4115 Ry au,          1.0460 Debye
        Dipole field          0.0008 Ry au, 
 
        Potential amp.       -0.0720 Ry
        Total length         46.3494 bohr
 

     total cpu time spent up to now is      919.1 secs

     total energy              =   -3002.64613031 Ry
     estimated scf accuracy    <       0.00001933 Ry

     iteration # 52     ecut=    29.40 Ry     beta= 0.05
     Davidson diagonalization with overlap
     ethr =  1.82E-09,  avg # of iterations =  3.0

     negative rho (up, down):  1.642E-02 0.000E+00
 
     Adding external electric field

     Computed dipole along edir(3) : 
        Dipole                0.4099 Ry au,          1.0420 Debye
        Dipole field          0.0008 Ry au, 
 
        Potential amp.       -0.0717 Ry
        Total length         46.3494 bohr
 

     total cpu time spent up to now is      930.3 secs

     total energy              =   -3002.64613922 Ry
     estimated scf accuracy    <       0.00001155 Ry

     iteration # 53     ecut=    29.40 Ry     beta= 0.05
     Davidson diagonalization with overlap
     ethr =  1.82E-09,  avg # of iterations =  7.0

     negative rho (up, down):  1.642E-02 0.000E+00
 
     Adding external electric field

     Computed dipole along edir(3) : 
        Dipole                0.4106 Ry au,          1.0435 Debye
        Dipole field          0.0008 Ry au, 
 
        Potential amp.       -0.0718 Ry
        Total length         46.3494 bohr
 

     total cpu time spent up to now is      951.1 secs

     total energy              =   -3002.64615484 Ry
     estimated scf accuracy    <       0.00001410 Ry

     iteration # 54     ecut=    29.40 Ry     beta= 0.05
     Davidson diagonalization with overlap
     ethr =  1.82E-09,  avg # of iterations =  4.9

     negative rho (up, down):  1.644E-02 0.000E+00
 
     Adding external electric field

     Computed dipole along edir(3) : 
        Dipole                0.4111 Ry au,          1.0450 Debye
        Dipole field          0.0008 Ry au, 
 
        Potential amp.       -0.0719 Ry
        Total length         46.3494 bohr
 

     total cpu time spent up to now is      963.0 secs

     total energy              =   -3002.64616460 Ry
     estimated scf accuracy    <       0.00000558 Ry

     iteration # 55     ecut=    29.40 Ry     beta= 0.05
     Davidson diagonalization with overlap
     ethr =  1.37E-09,  avg # of iterations =  5.5

     negative rho (up, down):  1.641E-02 0.000E+00
 
     Adding external electric field

     Computed dipole along edir(3) : 
        Dipole                0.4109 Ry au,          1.0444 Debye
        Dipole field          0.0008 Ry au, 
 
        Potential amp.       -0.0719 Ry
        Total length         46.3494 bohr
 

     total cpu time spent up to now is      977.5 secs

     total energy              =   -3002.64617531 Ry
     estimated scf accuracy    <       0.00000074 Ry

     iteration # 56     ecut=    29.40 Ry     beta= 0.05
     Davidson diagonalization with overlap
     ethr =  1.83E-10,  avg # of iterations =  4.9

     negative rho (up, down):  1.636E-02 0.000E+00
 
     Adding external electric field

     Computed dipole along edir(3) : 
        Dipole                0.4103 Ry au,          1.0429 Debye
        Dipole field          0.0008 Ry au, 
 
        Potential amp.       -0.0718 Ry
        Total length         46.3494 bohr
 

     total cpu time spent up to now is      990.6 secs

     total energy              =   -3002.64618417 Ry
     estimated scf accuracy    <       0.00000053 Ry

     iteration # 57     ecut=    29.40 Ry     beta= 0.05
     Davidson diagonalization with overlap
     ethr =  1.31E-10,  avg # of iterations =  5.6

     negative rho (up, down):  1.637E-02 0.000E+00
 
     Adding external electric field

     Computed dipole along edir(3) : 
        Dipole                0.4105 Ry au,          1.0433 Debye
        Dipole field          0.0008 Ry au, 
 
        Potential amp.       -0.0718 Ry
        Total length         46.3494 bohr
 

     total cpu time spent up to now is     1005.5 secs

     total energy              =   -3002.64619203 Ry
     estimated scf accuracy    <       0.00000032 Ry

     iteration # 58     ecut=    29.40 Ry     beta= 0.05
     Davidson diagonalization with overlap
     ethr =  7.87E-11,  avg # of iterations =  5.0

     negative rho (up, down):  1.638E-02 0.000E+00
 
     Adding external electric field

     Computed dipole along edir(3) : 
        Dipole                0.4106 Ry au,          1.0435 Debye
        Dipole field          0.0008 Ry au, 
 
        Potential amp.       -0.0718 Ry
        Total length         46.3494 bohr
 

     total cpu time spent up to now is     1017.6 secs

     total energy              =   -3002.64619907 Ry
     estimated scf accuracy    <       0.00000023 Ry

     iteration # 59     ecut=    29.40 Ry     beta= 0.05
     Davidson diagonalization with overlap
     ethr =  5.57E-11,  avg # of iterations =  5.6

     negative rho (up, down):  1.637E-02 0.000E+00
 
     Adding external electric field

     Computed dipole along edir(3) : 
        Dipole                0.4104 Ry au,          1.0430 Debye
        Dipole field          0.0008 Ry au, 
 
        Potential amp.       -0.0718 Ry
        Total length         46.3494 bohr
 

     total cpu time spent up to now is     1033.7 secs

     total energy              =   -3002.64620550 Ry
     estimated scf accuracy    <       0.00000045 Ry

     iteration # 60     ecut=    29.40 Ry     beta= 0.05
     Davidson diagonalization with overlap
     ethr =  5.57E-11,  avg # of iterations =  2.0

     negative rho (up, down):  1.636E-02 0.000E+00
 
     Adding external electric field

     Computed dipole along edir(3) : 
        Dipole                0.4100 Ry au,          1.0420 Debye
        Dipole field          0.0008 Ry au, 
 
        Potential amp.       -0.0717 Ry
        Total length         46.3494 bohr
 

     total cpu time spent up to now is     1044.6 secs

     total energy              =   -3002.64621123 Ry
     estimated scf accuracy    <       0.00000027 Ry

     iteration # 61     ecut=    29.40 Ry     beta= 0.05
     Davidson diagonalization with overlap
     ethr =  5.57E-11,  avg # of iterations =  7.5

     negative rho (up, down):  1.636E-02 0.000E+00
 
     Adding external electric field

     Computed dipole along edir(3) : 
        Dipole                0.4100 Ry au,          1.0421 Debye
        Dipole field          0.0008 Ry au, 
 
        Potential amp.       -0.0717 Ry
        Total length         46.3494 bohr
 

     total cpu time spent up to now is     1062.1 secs

     total energy              =   -3002.64621652 Ry
     estimated scf accuracy    <       0.00000013 Ry

     iteration # 62     ecut=    29.40 Ry     beta= 0.05
     Davidson diagonalization with overlap
     ethr =  3.25E-11,  avg # of iterations =  2.7

     negative rho (up, down):  1.636E-02 0.000E+00
 
     Adding external electric field

     Computed dipole along edir(3) : 
        Dipole                0.4101 Ry au,          1.0423 Debye
        Dipole field          0.0008 Ry au, 
 
        Potential amp.       -0.0717 Ry
        Total length         46.3494 bohr
 

     total cpu time spent up to now is     1073.1 secs

     total energy              =   -3002.64622118 Ry
     estimated scf accuracy    <       0.00000013 Ry

     iteration # 63     ecut=    29.40 Ry     beta= 0.05
     Davidson diagonalization with overlap
     ethr =  3.22E-11,  avg # of iterations =  5.5

     negative rho (up, down):  1.646E-02 0.000E+00
 
     Adding external electric field

     Computed dipole along edir(3) : 
        Dipole                0.4102 Ry au,          1.0426 Debye
        Dipole field          0.0008 Ry au, 
 
        Potential amp.       -0.0718 Ry
        Total length         46.3494 bohr
 

     total cpu time spent up to now is     1087.2 secs

     End of self-consistent calculation

          k = 0.0000 0.0000 0.0000 ( 18029 PWs)   bands (ev):

   -56.2528 -56.1962 -55.7710 -55.7327 -55.7097 -55.6972 -55.6621 -55.6579
   -55.6281 -55.6157 -55.5751 -55.5661 -55.4966 -55.3272 -54.9046 -54.8707
   -32.6680 -32.5290 -32.4637 -32.4229 -32.3245 -32.2926 -32.2526 -32.2206
   -32.2079 -32.1026 -32.0855 -32.0117 -32.0085 -32.0031 -31.9974 -31.9713
   -31.9644 -31.9528 -31.9334 -31.9303 -31.8754 -31.8680 -31.8676 -31.8639
   -31.8618 -31.8440 -31.8383 -31.8240 -31.8200 -31.8141 -31.8060 -31.7787
   -31.7748 -31.7730 -31.7552 -31.7440 -31.7341 -31.7227 -31.6982 -31.5869
   -31.5453 -31.5372 -31.3013 -31.2425 -31.2183 -31.1178 -31.0326 -30.9213
   -20.5466 -18.6881 -16.5112 -16.4693 -16.3141 -16.1091 -15.9528 -15.8774
   -15.6850 -15.5929 -15.5412 -15.5076 -15.4715 -15.3943 -15.3576 -15.3091
   -15.2610 -15.2465 -15.2303 -15.2078 -15.2026 -15.1934 -15.1859 -15.1606
   -15.1190 -15.0206 -14.9526 -14.9210 -14.8970 -14.8892 -14.8472 -14.5416
   -13.5414 -13.4069 -13.2973  -6.9399  -5.8975  -4.9130  -4.3541  -3.9618
    -3.7908  -3.6984  -3.6313  -3.5759  -3.5327  -3.3467  -3.3067  -3.1538
    -3.0324  -2.9500  -2.8789  -2.8614  -2.8339  -2.7976  -2.7405  -2.7049
    -2.6747  -2.6449  -2.5868  -2.5461  -2.5225  -2.4918  -2.4733  -2.4356
    -2.4178  -2.4089  -2.2732  -2.2277  -2.1823  -2.1785  -2.1534  -2.1348
    -2.1118  -2.0743  -2.0611  -2.0118  -1.9353  -1.8478  -1.8312  -1.7508
    -1.7187  -1.5404  -1.4756  -1.4023  -1.3724  -1.2088  -1.1814  -1.1723
    -1.1520  -1.1303  -1.0022  -0.9757  -0.9468  -0.9203  -0.8860  -0.8700
    -0.8423  -0.7386  -0.6767  -0.6356  -0.6202  -0.5511  -0.4571  -0.3899
    -0.3583  -0.3266  -0.2933  -0.1841  -0.1568  -0.1161  -0.1072  -0.0487
    -0.0139   0.0109   0.0667   0.0908   0.1463   0.1608   0.1814   0.2220
     0.2284   0.2755   0.3426   0.4078   0.5050   0.5232   0.5507   0.5877
     0.6661   0.7421   0.8245   1.0024   1.1131   1.1524   1.3141   1.3631
     1.6639   1.7115   2.5319   3.0375   3.1890   3.4503   3.5030   3.5366
     3.5690   3.6315   3.7620   3.8709   3.9272

          k = 0.0000 0.0419 0.0000 ( 17933 PWs)   bands (ev):

   -56.2501 -56.1987 -55.7697 -55.7322 -55.7062 -55.6950 -55.6654 -55.6591
   -55.6301 -55.6118 -55.5789 -55.5665 -55.4957 -55.3280 -54.8996 -54.8756
   -32.6150 -32.5272 -32.4647 -32.4110 -32.3480 -32.3364 -32.2107 -32.1676
   -32.1574 -32.0581 -32.0488 -32.0055 -31.9990 -31.9935 -31.9711 -31.9645
   -31.9563 -31.9414 -31.9314 -31.9166 -31.8926 -31.8885 -31.8773 -31.8745
   -31.8702 -31.8656 -31.8552 -31.8436 -31.8341 -31.8335 -31.8132 -31.8039
   -31.7830 -31.7790 -31.7766 -31.7737 -31.7524 -31.7321 -31.6973 -31.6080
   -31.5738 -31.5369 -31.2475 -31.2387 -31.2216 -31.1052 -31.0453 -30.9779
   -20.5458 -18.6824 -16.4994 -16.3411 -16.1975 -16.0011 -15.8511 -15.7930
   -15.6534 -15.6054 -15.5615 -15.5333 -15.4672 -15.4222 -15.3578 -15.3313
   -15.2930 -15.2707 -15.2493 -15.2455 -15.2220 -15.1907 -15.1884 -15.1757
   -15.1190 -15.0152 -14.9877 -14.9769 -14.9682 -14.9431 -14.9062 -14.6098
   -13.5451 -13.4142 -13.3385  -6.9260  -5.9044  -4.9085  -4.3519  -3.7787
    -3.6143  -3.6095  -3.5384  -3.4702  -3.3812  -3.2708  -3.2095  -2.9620
    -2.9257  -2.9185  -2.8587  -2.8283  -2.8084  -2.7813  -2.7602  -2.7305
    -2.6971  -2.6856  -2.6720  -2.6334  -2.5928  -2.5689  -2.5577  -2.5057
    -2.4822  -2.4375  -2.4124  -2.3921  -2.3502  -2.3325  -2.2430  -2.1510
    -2.1243  -2.0933  -1.9871  -1.9544  -1.9176  -1.7842  -1.7357  -1.6595
    -1.4930  -1.4627  -1.4305  -1.3899  -1.2676  -1.1774  -1.1726  -1.0501
    -1.0247  -0.9953  -0.9486  -0.9243  -0.8936  -0.8421  -0.7779  -0.7468
    -0.7178  -0.7091  -0.6728  -0.6569  -0.6325  -0.5736  -0.5358  -0.5167
    -0.4726  -0.4501  -0.3531  -0.3367  -0.2978  -0.2419  -0.1551  -0.1019
    -0.0758  -0.0358  -0.0141   0.0177   0.0522   0.0686   0.0870   0.1413
     0.1922   0.2538   0.3156   0.3643   0.4083   0.4363   0.4894   0.5203
     0.5455   0.5984   0.7027   0.7795   0.8988   1.1914   1.3212   1.4515
     1.6107   1.6292   2.5122   3.2878   3.3067   3.4567   3.6822   3.7096
     3.7331   3.7530   3.7819   3.8082   3.8965

          k = 0.0000-0.0839 0.0000 ( 17884 PWs)   bands (ev):

   -56.2472 -56.2016 -55.7684 -55.7316 -55.7021 -55.6927 -55.6695 -55.6603
   -55.6324 -55.6065 -55.5841 -55.5669 -55.4948 -55.3288 -54.8878 -54.8873
   -32.5253 -32.5022 -32.4662 -32.4635 -32.3925 -32.3547 -32.1555 -32.0698
   -32.0602 -32.0273 -32.0246 -31.9895 -31.9884 -31.9789 -31.9652 -31.9552
   -31.9422 -31.9269 -31.9254 -31.9235 -31.9217 -31.9102 -31.9095 -31.8950
   -31.8832 -31.8814 -31.8790 -31.8744 -31.8638 -31.8428 -31.8375 -31.8278
   -31.8237 -31.7952 -31.7836 -31.7784 -31.7512 -31.7311 -31.6965 -31.6613
   -31.5858 -31.5367 -31.2300 -31.2299 -31.1169 -31.1147 -31.0746 -31.0735
   -20.5451 -18.6767 -16.4935 -16.0132 -16.0026 -15.9306 -15.8981 -15.7256
   -15.7244 -15.5927 -15.5686 -15.5483 -15.5257 -15.4117 -15.3898 -15.3890
   -15.3820 -15.2874 -15.2740 -15.2166 -15.1719 -15.1575 -15.1378 -15.1201
   -15.0966 -15.0789 -15.0760 -15.0613 -15.0416 -15.0384 -14.9161 -14.7125
   -13.5488 -13.4020 -13.4002  -6.9120  -5.9124  -4.9041  -4.3499  -3.6084
    -3.3223  -3.3207  -3.3184  -3.1901  -3.1640  -3.1472  -3.1335  -3.1282
    -3.0591  -3.0235  -2.9640  -2.9274  -2.8871  -2.8763  -2.8482  -2.8285
    -2.8183  -2.7661  -2.7265  -2.7079  -2.6882  -2.6552  -2.5903  -2.5255
    -2.5157  -2.4559  -2.4051  -2.3569  -2.3191  -2.1897  -2.1429  -2.0016
    -1.9194  -1.9033  -1.8441  -1.8138  -1.7444  -1.6578  -1.5970  -1.5803
    -1.5656  -1.4747  -1.4669  -1.3559  -1.3165  -1.2919  -1.2421  -1.2081
    -1.1904  -1.1743  -1.1412  -1.0994  -1.0116  -0.9761  -0.9188  -0.7297
    -0.6700  -0.6630  -0.5528  -0.5429  -0.4664  -0.4439  -0.4219  -0.3940
    -0.3715  -0.3652  -0.3468  -0.3110  -0.2640  -0.2337  -0.2041  -0.1918
    -0.1827  -0.1105  -0.0920  -0.0438  -0.0129   0.0040   0.0259   0.0362
     0.0566   0.1107   0.1650   0.1957   0.2466   0.2822   0.3046   0.3893
     0.4402   0.5650   0.6705   0.7996   0.9417   1.0114   1.4653   1.4893
     1.5496   1.5630   2.4897   3.4810   3.5258   3.6238   3.6479   3.7304
     3.7531   3.7650   3.8320   3.9259   3.9320

          k = 0.0380 0.0000 0.0000 ( 17913 PWs)   bands (ev):

   -56.2527 -56.1961 -55.7709 -55.7326 -55.7096 -55.6972 -55.6619 -55.6578
   -55.6280 -55.6157 -55.5750 -55.5660 -55.4965 -55.3271 -54.9045 -54.8706
   -32.6686 -32.5288 -32.4636 -32.4209 -32.3241 -32.2923 -32.2527 -32.2208
   -32.2096 -32.1078 -32.0889 -32.0114 -32.0077 -31.9993 -31.9932 -31.9673
   -31.9616 -31.9351 -31.9322 -31.9307 -31.8761 -31.8704 -31.8652 -31.8602
   -31.8593 -31.8438 -31.8383 -31.8242 -31.8213 -31.8195 -31.8136 -31.7777
   -31.7747 -31.7727 -31.7602 -31.7440 -31.7340 -31.7226 -31.7013 -31.5867
   -31.5452 -31.5380 -31.3009 -31.2449 -31.2165 -31.1176 -31.0324 -30.9211
   -20.5465 -18.6877 -16.5010 -16.3785 -16.2210 -16.0239 -15.9398 -15.8513
   -15.7502 -15.7262 -15.5625 -15.5223 -15.4287 -15.4275 -15.4196 -15.3920
   -15.3651 -15.3011 -15.2899 -15.2391 -15.2137 -15.1651 -15.0672 -15.0381
   -15.0136 -14.9848 -14.9773 -14.9539 -14.9462 -14.9028 -14.8946 -14.5396
   -13.5411 -13.4041 -13.2970  -6.9392  -5.8949  -4.9096  -4.3619  -3.6849
    -3.6369  -3.6078  -3.4949  -3.4364  -3.4004  -3.3122  -3.2631  -3.1830
    -3.1365  -3.1067  -3.0434  -3.0228  -2.9745  -2.8406  -2.7959  -2.7105
    -2.6752  -2.5616  -2.5155  -2.4903  -2.4377  -2.4119  -2.3700  -2.3521
    -2.3086  -2.2832  -2.2339  -2.2210  -2.1845  -2.1749  -2.1596  -2.0871
    -2.0518  -1.9913  -1.9483  -1.8391  -1.7838  -1.7501  -1.7109  -1.6807
    -1.5890  -1.5651  -1.4898  -1.4063  -1.3906  -1.3761  -1.2990  -1.2568
    -1.1587  -1.1554  -1.1276  -1.1054  -1.0894  -1.0297  -0.9646  -0.9307
    -0.8953  -0.8226  -0.7287  -0.6569  -0.6030  -0.5273  -0.4902  -0.4147
    -0.3555  -0.3505  -0.3055  -0.2191  -0.1802  -0.1666  -0.1196  -0.0993
    -0.0577  -0.0411  -0.0223   0.0284   0.0448   0.0778   0.1032   0.1553
     0.1887   0.2562   0.2937   0.3810   0.4102   0.4509   0.4904   0.5454
     0.5863   0.6135   0.8304   0.8937   1.1248   1.1343   1.2140   1.3352
     1.5560   1.6231   2.5243   3.1686   3.2102   3.4791   3.5397   3.6329
     3.6846   3.7457   3.7710   3.8016   3.8280

          k = 0.0380 0.0419 0.0000 ( 17878 PWs)   bands (ev):

   -56.2500 -56.1987 -55.7697 -55.7320 -55.7061 -55.6950 -55.6654 -55.6590
   -55.6301 -55.6117 -55.5789 -55.5664 -55.4956 -55.3279 -54.8995 -54.8756
   -32.6156 -32.5270 -32.4647 -32.4094 -32.3480 -32.3359 -32.2110 -32.1680
   -32.1591 -32.0613 -32.0549 -32.0053 -31.9953 -31.9907 -31.9697 -31.9603
   -31.9552 -31.9318 -31.9256 -31.9172 -31.8928 -31.8885 -31.8738 -31.8710
   -31.8667 -31.8646 -31.8552 -31.8438 -31.8342 -31.8324 -31.8207 -31.8130
   -31.7811 -31.7808 -31.7767 -31.7730 -31.7586 -31.7320 -31.7002 -31.6078
   -31.5738 -31.5380 -31.2472 -31.2407 -31.2206 -31.1050 -31.0454 -30.9778
   -20.5458 -18.6822 -16.4954 -16.2525 -16.1103 -15.9252 -15.8487 -15.7471
   -15.7335 -15.6555 -15.5655 -15.4933 -15.4823 -15.4305 -15.4210 -15.3819
   -15.3550 -15.3259 -15.3019 -15.2670 -15.2119 -15.1803 -15.1338 -15.1075
   -15.0591 -15.0378 -15.0237 -14.9986 -14.9888 -14.9714 -14.9337 -14.6077
   -13.5448 -13.4122 -13.3387  -6.9256  -5.9027  -4.9051  -4.3590  -3.6142
    -3.5050  -3.4569  -3.3561  -3.3298  -3.2643  -3.1906  -3.1632  -3.0271
    -2.9559  -2.9194  -2.8857  -2.8702  -2.8170  -2.7698  -2.7473  -2.6918
    -2.6849  -2.6347  -2.6083  -2.5752  -2.5541  -2.5372  -2.5088  -2.4882
    -2.4505  -2.4113  -2.3928  -2.3399  -2.3092  -2.2410  -2.2206  -2.1302
    -2.0955  -2.0367  -1.9660  -1.8534  -1.8325  -1.7704  -1.7272  -1.6805
    -1.5236  -1.4303  -1.4153  -1.3724  -1.2782  -1.2436  -1.2249  -1.1634
    -1.1203  -1.0652  -1.0271  -0.9727  -0.9634  -0.9311  -0.8781  -0.8421
    -0.8073  -0.7721  -0.7461  -0.7324  -0.7129  -0.6360  -0.5932  -0.5652
    -0.5326  -0.5010  -0.4819  -0.4324  -0.3734  -0.3309  -0.2771  -0.2628
    -0.1896  -0.1486  -0.1018  -0.0532  -0.0171   0.0134   0.0652   0.1360
     0.1879   0.2426   0.3022   0.3942   0.4379   0.4808   0.5205   0.5258
     0.5831   0.6131   0.6494   0.7596   0.8777   1.1291   1.3329   1.4563
     1.5356   1.5996   2.5112   3.2800   3.4217   3.5333   3.6726   3.7099
     3.7361   3.7990   3.8232   3.8598   3.9062

          k = 0.0380-0.0839 0.0000 ( 17916 PWs)   bands (ev):

   -56.2472 -56.2016 -55.7684 -55.7315 -55.7021 -55.6927 -55.6695 -55.6603
   -55.6324 -55.6066 -55.5841 -55.5670 -55.4948 -55.3288 -54.8878 -54.8873
   -32.5254 -32.5028 -32.4662 -32.4641 -32.3918 -32.3540 -32.1560 -32.0713
   -32.0607 -32.0283 -32.0248 -31.9901 -31.9876 -31.9791 -31.9594 -31.9557
   -31.9428 -31.9414 -31.9281 -31.9261 -31.9254 -31.9101 -31.8904 -31.8829
   -31.8800 -31.8792 -31.8744 -31.8707 -31.8654 -31.8480 -31.8360 -31.8238
   -31.8162 -31.8044 -31.7941 -31.7784 -31.7593 -31.7310 -31.6992 -31.6609
   -31.5859 -31.5383 -31.2307 -31.2306 -31.1168 -31.1146 -31.0746 -31.0735
   -20.5451 -18.6766 -16.4917 -15.9490 -15.9367 -15.8795 -15.8421 -15.6820
   -15.6768 -15.5969 -15.5693 -15.5258 -15.5066 -15.4855 -15.4769 -15.3830
   -15.3798 -15.2830 -15.2750 -15.2310 -15.2181 -15.1904 -15.1594 -15.1450
   -15.1227 -15.1214 -15.1039 -15.0931 -15.0755 -15.0421 -14.9078 -14.7060
   -13.5487 -13.4019 -13.4000  -6.9119  -5.9125  -4.9082  -4.3461  -3.6056
    -3.2997  -3.1211  -3.1106  -3.0976  -3.0872  -2.9932  -2.9759  -2.9255
    -2.9173  -2.9084  -2.8793  -2.8511  -2.8089  -2.7850  -2.7646  -2.7520
    -2.7355  -2.7170  -2.6967  -2.6521  -2.6222  -2.5963  -2.5695  -2.5190
    -2.5061  -2.4655  -2.4496  -2.4006  -2.3658  -2.0967  -2.0534  -1.9955
    -1.9415  -1.8681  -1.8233  -1.7858  -1.7455  -1.7194  -1.6933  -1.6762
    -1.6129  -1.5849  -1.5265  -1.5059  -1.4781  -1.4288  -1.4111  -1.4015
    -1.3318  -1.2488  -1.2263  -1.0871  -1.0100  -0.9736  -0.8707  -0.8373
    -0.7673  -0.7283  -0.6948  -0.6643  -0.6228  -0.6023  -0.5906  -0.5434
    -0.5244  -0.5046  -0.4716  -0.4501  -0.4305  -0.3901  -0.3585  -0.3055
    -0.2397  -0.2086  -0.1572  -0.0744  -0.0589   0.0047   0.0827   0.1270
     0.1820   0.2449   0.2717   0.2773   0.3024   0.3478   0.4203   0.4662
     0.5170   0.5453   0.6671   0.7750   0.9252   0.9553   1.4756   1.4966
     1.5377   1.5487   2.4706   3.4948   3.5146   3.6632   3.6725   3.7853
     3.8461   3.8870   3.9011   3.9276   3.9753

          k = 0.0380-0.0419 0.0000 ( 17876 PWs)   bands (ev):

   -56.2500 -56.1987 -55.7697 -55.7320 -55.7061 -55.6950 -55.6653 -55.6590
   -55.6301 -55.6117 -55.5789 -55.5664 -55.4956 -55.3279 -54.8995 -54.8756
   -32.6156 -32.5270 -32.4647 -32.4094 -32.3480 -32.3359 -32.2109 -32.1679
   -32.1590 -32.0606 -32.0550 -32.0054 -31.9955 -31.9922 -31.9702 -31.9599
   -31.9552 -31.9320 -31.9252 -31.9173 -31.8927 -31.8883 -31.8726 -31.8704
   -31.8673 -31.8645 -31.8548 -31.8438 -31.8344 -31.8340 -31.8212 -31.8105
   -31.7821 -31.7812 -31.7764 -31.7730 -31.7585 -31.7320 -31.6999 -31.6078
   -31.5738 -31.5382 -31.2472 -31.2407 -31.2206 -31.1050 -31.0454 -30.9778
   -20.5458 -18.6821 -16.4959 -16.2522 -16.1100 -15.9250 -15.8490 -15.7481
   -15.7343 -15.6564 -15.5643 -15.4941 -15.4853 -15.4293 -15.4204 -15.3806
   -15.3468 -15.3238 -15.3013 -15.2673 -15.2151 -15.1805 -15.1452 -15.1054
   -15.0601 -15.0314 -15.0195 -15.0006 -14.9899 -14.9726 -14.9351 -14.6074
   -13.5448 -13.4122 -13.3387  -6.9255  -5.9034  -4.9124  -4.3489  -3.6095
    -3.5046  -3.4554  -3.3585  -3.3220  -3.2707  -3.1940  -3.1628  -3.0314
    -2.9544  -2.9242  -2.8791  -2.8649  -2.8085  -2.7797  -2.7582  -2.6965
    -2.6750  -2.6330  -2.6137  -2.5784  -2.5526  -2.5332  -2.5134  -2.4968
    -2.4521  -2.4055  -2.3864  -2.3334  -2.3081  -2.2449  -2.2075  -2.1284
    -2.0942  -2.0395  -1.9726  -1.8820  -1.8093  -1.7874  -1.7435  -1.6840
    -1.5262  -1.4321  -1.4103  -1.3615  -1.2767  -1.2540  -1.2241  -1.1592
    -1.1145  -1.0666  -1.0245  -0.9746  -0.9520  -0.9120  -0.9045  -0.8528
    -0.8083  -0.7697  -0.7464  -0.7300  -0.6937  -0.6551  -0.5852  -0.5516
    -0.5186  -0.4941  -0.4780  -0.4319  -0.3605  -0.3261  -0.2953  -0.2411
    -0.1733  -0.1588  -0.1013  -0.0563  -0.0126   0.0346   0.0628   0.1256
     0.2060   0.2413   0.3049   0.3753   0.4190   0.4466   0.5158   0.5264
     0.5861   0.6189   0.6411   0.7583   0.8660   1.1285   1.3336   1.4551
     1.5363   1.5995   2.4858   3.2757   3.4213   3.5336   3.6720   3.6943
     3.7344   3.8443   3.8552   3.8926   3.9184

          k =-0.0760-0.0000 0.0000 ( 17886 PWs)   bands (ev):

   -56.2526 -56.1961 -55.7709 -55.7325 -55.7095 -55.6972 -55.6619 -55.6578
   -55.6280 -55.6157 -55.5750 -55.5660 -55.4964 -55.3271 -54.9045 -54.8706
   -32.6693 -32.5287 -32.4635 -32.4190 -32.3243 -32.2923 -32.2529 -32.2210
   -32.2114 -32.1128 -32.0924 -32.0111 -32.0080 -31.9944 -31.9903 -31.9661
   -31.9526 -31.9333 -31.9316 -31.9034 -31.8797 -31.8731 -31.8647 -31.8621
   -31.8572 -31.8484 -31.8435 -31.8377 -31.8192 -31.8189 -31.8135 -31.7768
   -31.7747 -31.7728 -31.7657 -31.7441 -31.7340 -31.7228 -31.7051 -31.5867
   -31.5452 -31.5389 -31.3006 -31.2473 -31.2154 -31.1175 -31.0323 -30.9211
   -20.5464 -18.6873 -16.4954 -16.2162 -16.1025 -16.0308 -15.8614 -15.8499
   -15.8331 -15.6927 -15.6535 -15.5703 -15.5208 -15.5001 -15.4993 -15.4264
   -15.3961 -15.2969 -15.2560 -15.2382 -15.2145 -15.1649 -15.0575 -15.0533
   -15.0384 -15.0016 -14.9426 -14.9417 -14.9269 -14.8959 -14.8880 -14.5387
   -13.5409 -13.4015 -13.2966  -6.9386  -5.8924  -4.9061  -4.3694  -3.6319
    -3.5816  -3.4299  -3.3409  -3.3006  -3.2813  -3.2586  -3.2408  -3.2253
    -3.1246  -3.1153  -3.0459  -3.0152  -2.9807  -2.7772  -2.7624  -2.6796
    -2.6058  -2.5287  -2.4411  -2.4034  -2.3785  -2.3347  -2.3284  -2.2833
    -2.2364  -2.2176  -2.2063  -2.1862  -2.1649  -2.1630  -2.1238  -2.1111
    -2.0282  -1.9642  -1.9349  -1.8510  -1.8123  -1.7179  -1.6183  -1.5811
    -1.5391  -1.5180  -1.4975  -1.4822  -1.4401  -1.4282  -1.4006  -1.3891
    -1.2987  -1.2030  -1.1672  -1.1510  -1.1293  -1.0786  -0.9974  -0.9942
    -0.9302  -0.9193  -0.8283  -0.7545  -0.6383  -0.6128  -0.5526  -0.4600
    -0.4489  -0.4039  -0.3753  -0.3048  -0.2719  -0.2468  -0.2029  -0.1868
    -0.1605  -0.1234  -0.0944  -0.0395  -0.0047   0.0217   0.1161   0.1654
     0.2253   0.2281   0.2462   0.3333   0.4108   0.4408   0.5036   0.5687
     0.6201   0.7653   0.7796   0.8555   0.9236   1.1449   1.1933   1.3131
     1.4327   1.5550   2.5223   3.1536   3.2918   3.3781   3.4937   3.5731
     3.6089   3.6827   3.7156   3.7458   3.8326

          k =-0.0760 0.0419 0.0000 ( 17914 PWs)   bands (ev):

   -56.2501 -56.1987 -55.7697 -55.7320 -55.7061 -55.6951 -55.6653 -55.6590
   -55.6301 -55.6118 -55.5789 -55.5665 -55.4956 -55.3280 -54.8995 -54.8756
   -32.6165 -32.5271 -32.4647 -32.4081 -32.3483 -32.3358 -32.2112 -32.1684
   -32.1609 -32.0641 -32.0609 -32.0053 -31.9928 -31.9895 -31.9696 -31.9577
   -31.9487 -31.9316 -31.9182 -31.9028 -31.8932 -31.8891 -31.8780 -31.8703
   -31.8632 -31.8585 -31.8520 -31.8466 -31.8436 -31.8334 -31.8316 -31.8090
   -31.7854 -31.7804 -31.7761 -31.7727 -31.7657 -31.7320 -31.7032 -31.6078
   -31.5738 -31.5394 -31.2470 -31.2428 -31.2200 -31.1051 -31.0454 -30.9779
   -20.5457 -18.6819 -16.4925 -16.0961 -16.0015 -15.9263 -15.7936 -15.7820
   -15.7599 -15.6122 -15.5631 -15.5479 -15.5444 -15.5010 -15.4759 -15.4161
   -15.3601 -15.3254 -15.3134 -15.2622 -15.2590 -15.1759 -15.1179 -15.0989
   -15.0839 -15.0775 -15.0527 -14.9928 -14.9778 -14.9683 -14.9326 -14.6063
   -13.5447 -13.4104 -13.3390  -6.9253  -5.9019  -4.9092  -4.3557  -3.6117
    -3.4331  -3.3072  -3.2834  -3.0820  -3.0479  -3.0091  -2.9998  -2.9878
    -2.9434  -2.8918  -2.8632  -2.8594  -2.8065  -2.7782  -2.7468  -2.6898
    -2.6762  -2.6332  -2.5960  -2.5685  -2.5327  -2.4679  -2.4482  -2.4033
    -2.3638  -2.3384  -2.3213  -2.3111  -2.2915  -2.2202  -2.1557  -2.1053
    -2.0124  -1.9341  -1.8828  -1.8287  -1.8237  -1.7403  -1.6978  -1.6515
    -1.6076  -1.5151  -1.3829  -1.3731  -1.3334  -1.3158  -1.3020  -1.2608
    -1.2493  -1.1880  -1.1593  -1.0926  -1.0852  -1.0401  -1.0162  -0.9643
    -0.9308  -0.8804  -0.8640  -0.8108  -0.7972  -0.7443  -0.7173  -0.6864
    -0.6571  -0.6101  -0.5803  -0.5644  -0.4600  -0.4272  -0.3721  -0.3120
    -0.2673  -0.2402  -0.1175  -0.0870  -0.0694   0.0300   0.0767   0.1254
     0.1936   0.3032   0.3659   0.3998   0.4356   0.5180   0.5665   0.5802
     0.6355   0.6665   0.7521   0.7971   0.8682   0.9093   1.3481   1.4587
     1.4635   1.5805   2.4872   3.2782   3.4376   3.4681   3.5970   3.6473
     3.7171   3.7651   3.8270   3.9245   3.9709

          k =-0.0760-0.0839 0.0000 ( 17948 PWs)   bands (ev):

   -56.2472 -56.2016 -55.7685 -55.7315 -55.7021 -55.6928 -55.6695 -55.6603
   -55.6325 -55.6066 -55.5842 -55.5670 -55.4949 -55.3288 -54.8878 -54.8874
   -32.5254 -32.5034 -32.4663 -32.4646 -32.3910 -32.3532 -32.1563 -32.0728
   -32.0611 -32.0295 -32.0250 -31.9913 -31.9848 -31.9799 -31.9579 -31.9510
   -31.9491 -31.9425 -31.9344 -31.9260 -31.9254 -31.9103 -31.8887 -31.8809
   -31.8797 -31.8737 -31.8705 -31.8666 -31.8460 -31.8448 -31.8315 -31.8238
   -31.8197 -31.8098 -31.8076 -31.7785 -31.7703 -31.7307 -31.7018 -31.6608
   -31.5859 -31.5398 -31.2314 -31.2312 -31.1168 -31.1146 -31.0746 -31.0735
   -20.5451 -18.6764 -16.4901 -15.8364 -15.8312 -15.7921 -15.7523 -15.7039
   -15.6917 -15.6265 -15.6163 -15.5892 -15.5079 -15.4455 -15.3968 -15.3723
   -15.3667 -15.3440 -15.3171 -15.2733 -15.2540 -15.2425 -15.2345 -15.1778
   -15.1587 -15.1539 -15.1244 -15.1052 -15.0852 -15.0366 -14.9025 -14.7008
   -13.5487 -13.4017 -13.3999  -6.9119  -5.9126  -4.9122  -4.3420  -3.6029
    -3.2918  -3.0947  -3.0679  -2.9828  -2.9283  -2.8294  -2.8107  -2.7942
    -2.7765  -2.7651  -2.7372  -2.7103  -2.6617  -2.6306  -2.5967  -2.5845
    -2.5774  -2.5572  -2.5500  -2.5189  -2.5028  -2.4842  -2.4661  -2.4488
    -2.4386  -2.4215  -2.3513  -2.3194  -2.2891  -2.1174  -2.1016  -2.0983
    -2.0746  -2.0601  -2.0515  -1.9888  -1.9256  -1.9156  -1.8649  -1.8487
    -1.7737  -1.7064  -1.5431  -1.5059  -1.4765  -1.4024  -1.3416  -1.3096
    -1.2871  -1.2533  -1.2216  -1.2107  -1.1678  -1.1191  -1.0355  -1.0091
    -0.9623  -0.9573  -0.9454  -0.8491  -0.7856  -0.7787  -0.7317  -0.7139
    -0.6833  -0.6513  -0.5968  -0.5612  -0.5468  -0.5385  -0.4397  -0.3886
    -0.3362  -0.2348  -0.1980  -0.1379  -0.0291   0.0586   0.0748   0.1700
     0.2132   0.3083   0.3426   0.4021   0.4403   0.4651   0.4933   0.6111
     0.6303   0.6780   0.7536   0.7724   0.7993   0.8509   1.5019   1.5096
     1.5198   1.5215   2.4511   3.5593   3.5866   3.6053   3.6439   3.8371
     3.8675   3.8859   3.9133   3.9355   3.9852

     the Fermi energy is     2.8414 ev

!    total energy              =   -3002.64626457 Ry
     estimated scf accuracy    <       0.00000005 Ry
     smearing contrib. (-TS)   =      -0.00433908 Ry
     internal energy E=F+TS    =   -3002.64192549 Ry

     The total energy is F=E-TS. E is the sum of the following terms:
     one-electron contribution =  -23366.97260169 Ry
     hartree contribution      =   11777.27470993 Ry
     xc contribution           =    -498.79022868 Ry
     ewald contribution        =    9085.84587746 Ry
     electric field correction =       0.00031750 Ry

     convergence has been achieved in  63 iterations

     Forces acting on atoms (cartesian axes, Ry/au):

     atom    1 type  1   force =     0.00016652    0.00010376    0.09958064
     atom    2 type  1   force =     0.00014643    0.00020957    0.09908619
     atom    3 type  2   force =     0.00019167    0.00034677    0.12380626
     atom    4 type  2   force =     0.00044682    0.00004185    0.13838802
     atom    5 type  2   force =    -0.00010010    0.00965507   -0.16004080
     atom    6 type  2   force =     0.00009410   -0.00872849   -0.15983594
     atom    7 type  1   force =    -0.07906562    0.00145621   -0.03321136
     atom    8 type  1   force =    -0.07909748   -0.00181315   -0.03325064
     atom    9 type  1   force =     0.07902410    0.00178635   -0.03329091
     atom   10 type  1   force =     0.07905330   -0.00146634   -0.03326947
     atom   11 type  1   force =    -0.00114645    0.00063198    0.04304422
     atom   12 type  1   force =    -0.00115456    0.00004039    0.04569804
     atom   13 type  1   force =    -0.00040003   -0.00174343   -0.05048360
     atom   14 type  1   force =    -0.00086534    0.00122768   -0.04769354
     atom   15 type  2   force =    -0.00033362   -0.00005093   -0.00012472
     atom   16 type  2   force =    -0.00032472    0.00004791   -0.00041905
     atom   17 type  2   force =     0.00023115   -0.00040888   -0.00033513
     atom   18 type  1   force =    -0.01158440   -0.00690038   -0.00018204
     atom   19 type  1   force =    -0.01370648    0.00098389    0.00216838
     atom   20 type  1   force =     0.01287805   -0.00248646   -0.00220157
     atom   21 type  1   force =     0.01412890    0.00576611    0.00041907
     atom   22 type  2   force =     0.00032175    0.00007480    0.00007462
     atom   23 type  1   force =    -0.00009831   -0.00008945    0.00005579
     atom   24 type  1   force =    -0.00025315    0.00000454    0.00055160
     atom   25 type  1   force =     0.00023959    0.00028528    0.00003242
     atom   26 type  1   force =     0.00035505    0.00009947   -0.00014243
     atom   27 type  2   force =    -0.00031852   -0.00039119    0.00010419
     atom   28 type  2   force =     0.00050838   -0.00028885   -0.00020951
     atom   29 type  2   force =    -0.00016013    0.00018253   -0.00012530
     atom   30 type  1   force =    -0.00029535   -0.00033969   -0.00021609
     atom   31 type  1   force =     0.00045684   -0.00002930    0.00015848
     atom   32 type  1   force =    -0.00024734    0.00038602    0.00003521
     atom   33 type  1   force =     0.00017902    0.00033936    0.00013734
     atom   34 type  2   force =     0.00041038    0.00014959   -0.00047481
     atom   35 type  1   force =     0.00006011   -0.00010289   -0.00019088
     atom   36 type  1   force =     0.00008898    0.00001782    0.00069468
     atom   37 type  1   force =     0.00001206   -0.00021485    0.00058867
     atom   38 type  1   force =     0.00002674    0.00042782   -0.00011720
     atom   39 type  2   force =    -0.00010007    0.00034212    0.00034121
     atom   40 type  2   force =    -0.00019063   -0.00030700    0.00692515
     atom   41 type  2   force =    -0.00029083    0.00041902    0.00007713
     atom   42 type  1   force =    -0.00014519    0.00065796    0.00003650
     atom   43 type  1   force =     0.00004761    0.00053377    0.00008773
     atom   44 type  1   force =     0.00002509   -0.00054487    0.00060566
     atom   45 type  1   force =    -0.00025288   -0.00031293    0.00045237
     atom   46 type  2   force =    -0.00008695    0.00032782    0.00007336
     atom   47 type  1   force =    -0.00001564    0.00023228   -0.00009296
     atom   48 type  1   force =     0.00026405   -0.00006749   -0.00077232
     atom   49 type  3   force =     0.00035573    0.00077417   -0.00035284
     atom   50 type  4   force =    -0.00009177    0.00028343    0.00060323
     atom   51 type  5   force =    -0.00059474   -0.00185019    0.00096848
     atom   52 type  5   force =     0.00104295    0.00062946    0.00000314
     atom   53 type  1   force =    -0.00599141   -0.00615094   -0.01692221
     atom   54 type  4   force =     0.00615636    0.00582290    0.00915755

     Total force =     0.380944     Total SCF correction =     0.000590
  @ DRIVER MODE: Message from server: STATUS
  @ DRIVER MODE: Message from server: GETFORCE
  @ DRIVER MODE: Returning v,forces,stress,ensemble 

     Writing output data file ./calc.save/
  @ DRIVER MODE: Message from server: EXIT
  @ DRIVE MODE: Exiting  
 
     init_run     :     10.89s CPU     11.11s WALL (       1 calls)
     electrons    :   1060.46s CPU   1075.82s WALL (       1 calls)
     forces       :      2.43s CPU      2.50s WALL (       1 calls)

     Called by init_run:
     wfcinit      :      4.86s CPU      4.93s WALL (       1 calls)
     potinit      :      5.37s CPU      5.44s WALL (       1 calls)
     hinit0       :      0.29s CPU      0.31s WALL (       1 calls)

     Called by electrons:
     c_bands      :    910.71s CPU    917.59s WALL (      63 calls)
     sum_band     :    102.36s CPU    105.82s WALL (      63 calls)
     v_of_rho     :     36.14s CPU     37.95s WALL (      64 calls)
     newd         :     14.64s CPU     17.76s WALL (      64 calls)
     mix_rho      :      1.31s CPU      1.39s WALL (      63 calls)
     vdW_kernel   :      4.55s CPU      4.57s WALL (       1 calls)

     Called by c_bands:
     init_us_2    :      5.91s CPU      5.95s WALL (    1280 calls)
     cegterg      :    893.37s CPU    899.95s WALL (     655 calls)

     Called by *egterg:
     cdiaghg      :    137.40s CPU    138.09s WALL (    6123 calls)
     h_psi        :    481.41s CPU    485.95s WALL (    6141 calls)
     s_psi        :     62.99s CPU     63.21s WALL (    6141 calls)
     g_psi        :      1.80s CPU      1.81s WALL (    5476 calls)

     Called by h_psi:
     h_psi:calbec :     59.58s CPU     59.88s WALL (    6141 calls)
     vloc_psi     :    355.28s CPU    359.02s WALL (    6141 calls)
     add_vuspsi   :     63.34s CPU     63.66s WALL (    6141 calls)

     General routines
     calbec       :     77.89s CPU     78.25s WALL (    6811 calls)
     fft          :     18.19s CPU     18.34s WALL (    4032 calls)
     ffts         :      0.11s CPU      0.11s WALL (     127 calls)
     fftw         :    393.78s CPU    397.91s WALL (  935894 calls)
     interpolate  :      0.37s CPU      0.38s WALL (      64 calls)
     davcio       :      0.00s CPU      0.08s WALL (      10 calls)
 
     Parallel routines
 
     PWSCF        :  17m54.08s CPU  18m10.22s WALL

 
   This run was terminated on:   4:32:21  23Sep2021            

=------------------------------------------------------------------------------=
   JOB DONE.
=------------------------------------------------------------------------------=
