
     Program PWSCF v.6.7GPU starts on 23Aug2021 at 15:12:20 

     This program is part of the open-source Quantum ESPRESSO suite
     for quantum simulation of materials; please cite
         "P. Giannozzi et al., J. Phys.:Condens. Matter 21 395502 (2009);
         "P. Giannozzi et al., J. Phys.:Condens. Matter 29 465901 (2017);
         "P. Giannozzi et al., J. Chem. Phys. 152 154105 (2020);
          URL http://www.quantum-espresso.org", 
     in publications or presentations arising from this work. More details at
     http://www.quantum-espresso.org/quote

     Parallel version (MPI), running on     6 processors

     MPI processes distributed on     1 nodes
     R & G space division:  proc/nbgrp/npool/nimage =       6
     Reading input from /storage/home/hcoda1/3/ntian30/research/carbon/CH2_vib/ads_slab/CH2N2_a/out_0005/pw.inp
Warning: card &CELL ignored
Warning: card   CELL_DYNAMICS='IPI', ignored
Warning: card / ignored

     Current dimensions of program PWSCF are:
     Max number of different atomic species (ntypx) = 10
     Max number of k-points (npk) =  40000
     Max angular momentum in pseudopotentials (lmaxx) =  3
     Presently no symmetry can be used with electric field

     Message from routine cell_base_init:
     DEPRECATED: use true lattice parameter, not A to a.u. conversion factor

     **************************************************************************
     Initializing libbeef V0.1.2 with the BEEF-vdW functional.
     Citation: Wellendorff et al., PRB 85, 235149 (2012).
     **************************************************************************


     IMPORTANT: XC functional enforced from input :
     Exchange-correlation= BEEF-VDW
                           (   1   4  43  14   2   0   0)
     Any further DFT definition will be discarded
     Please, verify this is what you really want


     Subspace diagonalization in iterative solution of the eigenvalue problem:
     one sub-group per band group will be used
     scalapack distributed-memory algorithm (size of sub-group:  2*  2 procs)

  @ DRIVER MODE: Connecting to 
 qe_1139763_2632803.sched-torque.pace.gatech.eduhdyk8803_scratch
  using UNIX socket
  @ DRIVER MODE: Message from server: STATUS
  @ DRIVER MODE: Message from server: INIT
  @ DRIVER MODE: Receiving replica           0          -1
  @ DRIVER MODE: Receiving encoded integer          25
  @ DRIVER MODE:  SCF:  T  FORCE:  T  STRESS:  F  VC:  F  ENSEMBLE:  F
  @ DRIVER MODE:  SCF:  T  FORCE:  T  STRESS:  F  VC:  F  ENSEMBLE:  F
 
     Parallelization info
     --------------------
     sticks:   dense  smooth     PW     G-vecs:    dense   smooth      PW
     Min         545     219     63                94473    23902    3663
     Max         546     222     64                94484    23905    3665
     Sum        3275    1317    379               566857   143421   21985
 
     Using Slab Decomposition
 


     bravais-lattice index     =            0
     lattice parameter (alat)  =       1.8897  a.u.
     unit-cell volume          =    6658.9804 (a.u.)^3
     number of atoms/cell      =           52
     number of atomic types    =            5
     number of electrons       =       394.00
     number of Kohn-Sham states=          207
     kinetic-energy cutoff     =      29.3995  Ry
     charge density cutoff     =     293.9946  Ry
     scf convergence threshold =      7.3E-08
     mixing beta               =       0.0500
     number of iterations used =            8  plain     mixing
     Exchange-correlation= BEEF-VDW
                           (   1   4  43  14   2   0   0)

     celldm(1)=   1.889726  celldm(2)=   0.000000  celldm(3)=   0.000000
     celldm(4)=   0.000000  celldm(5)=   0.000000  celldm(6)=   0.000000

     crystal axes: (cart. coord. in units of alat)
               a(1) = (   6.579727   0.000000   0.000000 )  
               a(2) = (  -0.000775   5.961596   0.000000 )  
               a(3) = (   0.000000   0.000000  25.155947 )  

     reciprocal axes: (cart. coord. in units 2 pi/alat)
               b(1) = (  0.151982  0.000020  0.000000 )  
               b(2) = (  0.000000  0.167740  0.000000 )  
               b(3) = (  0.000000  0.000000  0.039752 )  


     PseudoPot. # 1 for Ti read from file:
     /storage/coda1/p-amedford6/0/shared/rich_project_chbe-medford/medford-share/data/pseudos_module/espresso/nninc/pbe/van/Ti.UPF
     MD5 check sum: 8e4df49b7f0d34bbd5052bf3f5ea0213
     Pseudo is Ultrasoft, Zval = 12.0
     Generated by new atomic code, or converted to UPF format
     Using radial grid of  851 points,  6 beta functions with: 
                l(1) =   0
                l(2) =   0
                l(3) =   1
                l(4) =   1
                l(5) =   2
                l(6) =   2
     Q(r) pseudized with  8 coefficients,  rinner =    1.000   1.000   1.000
                                                       1.000   1.000

     PseudoPot. # 2 for O  read from file:
     /storage/coda1/p-amedford6/0/shared/rich_project_chbe-medford/medford-share/data/pseudos_module/espresso/nninc/pbe/van/O.UPF
     MD5 check sum: 78c19812648e8988a0fe644b0f25305e
     Pseudo is Ultrasoft, Zval =  6.0
     Generated by new atomic code, or converted to UPF format
     Using radial grid of  737 points,  4 beta functions with: 
                l(1) =   0
                l(2) =   0
                l(3) =   1
                l(4) =   1
     Q(r) pseudized with  8 coefficients,  rinner =    0.800   0.800   0.800


     PseudoPot. # 3 for N  read from file:
     /storage/coda1/p-amedford6/0/shared/rich_project_chbe-medford/medford-share/data/pseudos_module/espresso/nninc/pbe/van/N.UPF
     MD5 check sum: 90d10febe142ad51ac9d5be1deb811c4
     Pseudo is Ultrasoft, Zval =  5.0
     Generated by new atomic code, or converted to UPF format
     Using radial grid of  729 points,  4 beta functions with: 
                l(1) =   0
                l(2) =   0
                l(3) =   1
                l(4) =   1
     Q(r) pseudized with  8 coefficients,  rinner =    0.800   0.800   0.800


     PseudoPot. # 4 for C  read from file:
     /storage/coda1/p-amedford6/0/shared/rich_project_chbe-medford/medford-share/data/pseudos_module/espresso/nninc/pbe/van/C.UPF
     MD5 check sum: 1a69bf6b8db32088f5b2163dbdb77a27
     Pseudo is Ultrasoft, Zval =  4.0
     Generated by new atomic code, or converted to UPF format
     Using radial grid of  721 points,  4 beta functions with: 
                l(1) =   0
                l(2) =   0
                l(3) =   1
                l(4) =   1
     Q(r) pseudized with  8 coefficients,  rinner =    0.800   0.800   0.800


     PseudoPot. # 5 for H  read from file:
     /storage/coda1/p-amedford6/0/shared/rich_project_chbe-medford/medford-share/data/pseudos_module/espresso/nninc/pbe/van/H.UPF
     MD5 check sum: b5ee9d7bfd3a09ee7748110bda690ff7
     Pseudo is Ultrasoft, Zval =  1.0
     Generated by new atomic code, or converted to UPF format
     Using radial grid of  615 points,  1 beta functions with: 
                l(1) =   0
     Q(r) pseudized with  8 coefficients,  rinner =    0.800

     atomic species   valence    mass     pseudopotential
        Ti1           12.00    47.86700     Ti( 1.00)
        O1             6.00    15.99900     O ( 1.00)
        N1             5.00    14.00700     N ( 1.00)
        C1             4.00    12.01100     C ( 1.00)
        H1             1.00     1.00800     H ( 1.00)

     No symmetry found



   Cartesian axes

     site n.     atom                  positions (alat units)
         1           Ti1 tau(   1) = (   0.0004258   2.9801865   6.0000000  )
         2           Ti1 tau(   2) = (   3.2906075   1.4906267   6.0002472  )
         3           O1  tau(   3) = (   0.0006271   0.0005054   7.9858123  )
         4           O1  tau(   4) = (   3.2906025   0.0005020   7.3038282  )
         5           O1  tau(   5) = (   4.5942328   1.4918067   9.2879030  )
         6           O1  tau(   6) = (   1.9868534   1.4903216   9.2879459  )
         7           Ti1 tau(   7) = (   3.2907910   2.8959150   9.1758416  )
         8           Ti1 tau(   8) = (   0.0015273   1.4827037   9.2680791  )
         9           O1  tau(   9) = (   3.2817373   5.9460525  11.2946146  )
        10           O1  tau(  10) = (   0.0116148   5.9584955  10.6183126  )
        11           O1  tau(  11) = (   1.3133758   1.4766388  12.6259016  )
        12           O1  tau(  12) = (   5.2926964   1.4629885  12.6363546  )
        13           Ti1 tau(  13) = (   6.4867702   2.9530348  12.7875790  )
        14           Ti1 tau(  14) = (   3.1556433   1.4654666  12.4614878  )
        15           O1  tau(  15) = (   0.0119351   5.9170239  14.6319389  )
        16           O1  tau(  16) = (   3.2888796   5.9458463  13.8730829  )
        17           O1  tau(  17) = (   4.5050169   1.4765614  15.9709225  )
        18           O1  tau(  18) = (   2.0372034   1.4852366  16.0641042  )
        19           Ti1 tau(  19) = (   3.3196583   2.9724019  15.6708981  )
        20           Ti1 tau(  20) = (   6.5671717   1.4125937  15.9950936  )
        21           O1  tau(  21) = (   3.2904802   0.0005063   4.7018136  )
        22           O1  tau(  22) = (   6.4769187   0.0355975  17.2006351  )
        23           O1  tau(  23) = (   1.3043587   1.4918075   6.0039043  )
        24           O1  tau(  24) = (   5.2767064   1.4903225   6.0039473  )
        25           Ti1 tau(  25) = (   0.0000382   5.9609847   6.0000000  )
        26           Ti1 tau(  26) = (   3.2902200   4.4714249   6.0002472  )
        27           O1  tau(  27) = (   0.0002396   2.9813036   7.9858123  )
        28           O1  tau(  28) = (   3.2902150   2.9813002   7.3038282  )
        29           O1  tau(  29) = (   4.5938453   4.4726049   9.2879030  )
        30           O1  tau(  30) = (   1.9864658   4.4711199   9.2879459  )
        31           Ti1 tau(  31) = (   3.2891106   5.8743827   9.1763621  )
        32           Ti1 tau(  32) = (   0.0006254   4.4649316   9.2693709  )
        33           O1  tau(  33) = (   3.2830713   2.9620590  11.2933342  )
        34           O1  tau(  34) = (   0.0092240   2.9805883  10.6323155  )
        35           O1  tau(  35) = (   1.3110001   4.4530301  12.6158702  )
        36           O1  tau(  36) = (   5.2890030   4.4574094  12.6263766  )
        37           Ti1 tau(  37) = (   6.4749751   5.9256585  12.7408108  )
        38           Ti1 tau(  38) = (   3.1548284   4.4449468  12.4552140  )
        39           O1  tau(  39) = (   6.5563663   2.9679540  14.6355405  )
        40           O1  tau(  40) = (   3.2955455   2.9696487  13.8658995  )
        41           O1  tau(  41) = (   4.4874099   4.4549745  16.0617524  )
        42           O1  tau(  42) = (   2.0361269   4.4599000  15.9844638  )
        43           Ti1 tau(  43) = (   3.2961532   5.9498675  15.6757175  )
        44           Ti1 tau(  44) = (   0.0931452   4.4613781  16.2340760  )
        45           O1  tau(  45) = (   3.2900926   2.9813045   4.7018136  )
        46           O1  tau(  46) = (   1.3039711   4.4726057   6.0039043  )
        47           O1  tau(  47) = (   5.2763189   4.4711207   6.0039473  )
        48           N1  tau(  48) = (   0.6376139   3.5490058  18.1021658  )
        49           C1  tau(  49) = (   1.1877089   3.2859424  19.2441644  )
        50           H1  tau(  50) = (   1.7795953   4.0554207  19.7143479  )
        51           H1  tau(  51) = (   1.0443441   2.3179332  19.7136356  )
        52           N1  tau(  52) = (   6.4637678   2.8186144  17.3583733  )

     number of k points=    10  Fermi-Dirac smearing, width (Ry)=  0.0073
                       cart. coord. in units 2pi/alat
        k(    1) = (   0.0000000   0.0000000   0.0000000), wk =   0.1250000
        k(    2) = (   0.0000000   0.0419351   0.0000000), wk =   0.2500000
        k(    3) = (   0.0000000  -0.0838702   0.0000000), wk =   0.1250000
        k(    4) = (   0.0379955   0.0000049   0.0000000), wk =   0.2500000
        k(    5) = (   0.0379955   0.0419400   0.0000000), wk =   0.2500000
        k(    6) = (   0.0379955  -0.0838652   0.0000000), wk =   0.2500000
        k(    7) = (   0.0379955  -0.0419301   0.0000000), wk =   0.2500000
        k(    8) = (  -0.0759910  -0.0000099   0.0000000), wk =   0.1250000
        k(    9) = (  -0.0759910   0.0419252   0.0000000), wk =   0.2500000
        k(   10) = (  -0.0759910  -0.0838800   0.0000000), wk =   0.1250000

     Dense  grid:   566857 G-vectors     FFT dimensions: (  72,  64, 270)

     Smooth grid:   143421 G-vectors     FFT dimensions: (  45,  40, 180)

     Estimated max dynamical RAM per process >     600.94 MB

     Estimated total dynamical RAM >       3.52 GB
     Cannot read rho : file not found

     Initial potential from superposition of free atoms

     starting charge  377.99917, renormalised to  394.00000

     negative rho (up, down):  1.613E-02 0.000E+00


     %%%%%%%%%%%%%%%%%%%%%%%%%%%%%%%%%%%%%%%%%%%%%%%%%%%%%%%%%%%%%%%%%%%%%%%%
     %                                                                      %
     % You are using vdW-DF, which was implemented by the Thonhauser group. %
     % Please cite the following two papers that made this development      %
     % possible and the two reviews that describe the various versions:     %
     %                                                                      %
     %   T. Thonhauser et al., PRL 115, 136402 (2015).                      %
     %   T. Thonhauser et al., PRB 76, 125112 (2007).                       %
     %   K. Berland et al., Rep. Prog. Phys. 78, 066501 (2015).             %
     %   D.C. Langreth et al., J. Phys.: Condens. Matter 21, 084203 (2009). %
     %                                                                      %
     %                                                                      %
     % If you are calculating the stress with vdW-DF, please also cite:     %
     %                                                                      %
     %   R. Sabatini et al., J. Phys.: Condens. Matter 24, 424209 (2012).   %
     %                                                                      %
     %%%%%%%%%%%%%%%%%%%%%%%%%%%%%%%%%%%%%%%%%%%%%%%%%%%%%%%%%%%%%%%%%%%%%%%%


 
     Adding external electric field

     Computed dipole along edir(3) : 
        Dipole               -7.0498 Ry au,        -17.9188 Debye
        Dipole field         -0.0133 Ry au, 
 
        Potential amp.        1.2333 Ry
        Total length         46.3494 bohr
 
     Starting wfcs are  298 atomic wfcs
  @ DRIVER MODE: Message from server: STATUS
  @ DRIVER MODE: Message from server: POSDATA
  @ DRIVER MODE: Reading and sharing cell 
  @ DRIVER MODE: Reading and sharing positions 
  @ DRIVER MODE: Received positions 

     total cpu time spent up to now is       19.2 secs

     Self-consistent Calculation

     iteration #  1     ecut=    29.40 Ry     beta= 0.05
     Davidson diagonalization with overlap
     c_bands:  1 eigenvalues not converged
     c_bands:  1 eigenvalues not converged
     c_bands:  2 eigenvalues not converged
     c_bands:  3 eigenvalues not converged
     ethr =  1.00E-05,  avg # of iterations = 18.0

     negative rho (up, down):  1.520E-02 0.000E+00
 
     Adding external electric field

     Computed dipole along edir(3) : 
        Dipole               31.2534 Ry au,         79.4383 Debye
        Dipole field          0.0590 Ry au, 
 
        Potential amp.       -5.4673 Ry
        Total length         46.3494 bohr
 

     total cpu time spent up to now is       85.6 secs

     total energy              =   -2722.88211434 Ry
     estimated scf accuracy    <    2373.54865567 Ry

     iteration #  2     ecut=    29.40 Ry     beta= 0.05
     Davidson diagonalization with overlap
     c_bands:  3 eigenvalues not converged
     c_bands:  1 eigenvalues not converged
     c_bands:  1 eigenvalues not converged
     ethr =  1.00E-02,  avg # of iterations = 19.9

     negative rho (up, down):  5.887E-03 0.000E+00
 
     Adding external electric field

     Computed dipole along edir(3) : 
        Dipole               -2.6408 Ry au,         -6.7123 Debye
        Dipole field         -0.0050 Ry au, 
 
        Potential amp.        0.4620 Ry
        Total length         46.3494 bohr
 

     total cpu time spent up to now is      181.7 secs

     total energy              =   -2586.75186722 Ry
     estimated scf accuracy    <   47109.99444025 Ry

     iteration #  3     ecut=    29.40 Ry     beta= 0.05
     Davidson diagonalization with overlap
     ethr =  1.00E-02,  avg # of iterations = 14.9

     negative rho (up, down):  5.943E-03 0.000E+00
 
     Adding external electric field

     Computed dipole along edir(3) : 
        Dipole               -4.1505 Ry au,        -10.5495 Debye
        Dipole field         -0.0078 Ry au, 
 
        Potential amp.        0.7261 Ry
        Total length         46.3494 bohr
 

     total cpu time spent up to now is      252.8 secs

     total energy              =   -2924.40152708 Ry
     estimated scf accuracy    <    1903.39696496 Ry

     iteration #  4     ecut=    29.40 Ry     beta= 0.05
     Davidson diagonalization with overlap
     ethr =  1.00E-02,  avg # of iterations =  4.4

     negative rho (up, down):  6.109E-03 0.000E+00
 
     Adding external electric field

     Computed dipole along edir(3) : 
        Dipole               -5.7626 Ry au,        -14.6471 Debye
        Dipole field         -0.0109 Ry au, 
 
        Potential amp.        1.0081 Ry
        Total length         46.3494 bohr
 

     total cpu time spent up to now is      273.7 secs

     total energy              =   -2906.44204987 Ry
     estimated scf accuracy    <    1682.90326258 Ry

     iteration #  5     ecut=    29.40 Ry     beta= 0.05
     Davidson diagonalization with overlap
     ethr =  1.00E-02,  avg # of iterations = 13.4

     negative rho (up, down):  5.343E-03 0.000E+00
 
     Adding external electric field

     Computed dipole along edir(3) : 
        Dipole               -5.0994 Ry au,        -12.9613 Debye
        Dipole field         -0.0096 Ry au, 
 
        Potential amp.        0.8921 Ry
        Total length         46.3494 bohr
 

     total cpu time spent up to now is      317.0 secs

     total energy              =   -2940.83008056 Ry
     estimated scf accuracy    <      46.74967684 Ry

     iteration #  6     ecut=    29.40 Ry     beta= 0.05
     Davidson diagonalization with overlap
     ethr =  1.00E-02,  avg # of iterations =  1.3

     negative rho (up, down):  5.573E-03 0.000E+00
 
     Adding external electric field

     Computed dipole along edir(3) : 
        Dipole               -4.5295 Ry au,        -11.5129 Debye
        Dipole field         -0.0085 Ry au, 
 
        Potential amp.        0.7924 Ry
        Total length         46.3494 bohr
 

     total cpu time spent up to now is      335.5 secs

     total energy              =   -2939.93763712 Ry
     estimated scf accuracy    <      19.70120909 Ry

     iteration #  7     ecut=    29.40 Ry     beta= 0.05
     Davidson diagonalization with overlap
     ethr =  5.00E-03,  avg # of iterations =  1.4

     negative rho (up, down):  6.428E-03 0.000E+00
 
     Adding external electric field

     Computed dipole along edir(3) : 
        Dipole               -4.2352 Ry au,        -10.7647 Debye
        Dipole field         -0.0080 Ry au, 
 
        Potential amp.        0.7409 Ry
        Total length         46.3494 bohr
 

     total cpu time spent up to now is      354.0 secs

     total energy              =   -2939.24841884 Ry
     estimated scf accuracy    <      10.63474728 Ry

     iteration #  8     ecut=    29.40 Ry     beta= 0.05
     Davidson diagonalization with overlap
     ethr =  2.70E-03,  avg # of iterations =  2.5

     negative rho (up, down):  2.018E-02 0.000E+00
 
     Adding external electric field

     Computed dipole along edir(3) : 
        Dipole               -1.9279 Ry au,         -4.9001 Debye
        Dipole field         -0.0036 Ry au, 
 
        Potential amp.        0.3373 Ry
        Total length         46.3494 bohr
 

     total cpu time spent up to now is      373.7 secs

     total energy              =   -2936.73841695 Ry
     estimated scf accuracy    <       8.71285967 Ry

     iteration #  9     ecut=    29.40 Ry     beta= 0.05
     Davidson diagonalization with overlap
     c_bands:  3 eigenvalues not converged
     ethr =  2.21E-03,  avg # of iterations = 18.8

     negative rho (up, down):  1.865E-02 0.000E+00
 
     Adding external electric field

     Computed dipole along edir(3) : 
        Dipole               -2.0859 Ry au,         -5.3018 Debye
        Dipole field         -0.0039 Ry au, 
 
        Potential amp.        0.3649 Ry
        Total length         46.3494 bohr
 

     total cpu time spent up to now is      418.9 secs

     total energy              =   -2946.08516492 Ry
     estimated scf accuracy    <    1471.59254531 Ry

     iteration # 10     ecut=    29.40 Ry     beta= 0.05
     Davidson diagonalization with overlap
     ethr =  2.21E-03,  avg # of iterations =  1.2

     negative rho (up, down):  2.645E-02 0.000E+00
 
     Adding external electric field

     Computed dipole along edir(3) : 
        Dipole               -1.5098 Ry au,         -3.8374 Debye
        Dipole field         -0.0028 Ry au, 
 
        Potential amp.        0.2641 Ry
        Total length         46.3494 bohr
 

     total cpu time spent up to now is      437.1 secs

     total energy              =   -2953.63742905 Ry
     estimated scf accuracy    <    1009.28685086 Ry

     iteration # 11     ecut=    29.40 Ry     beta= 0.05
     Davidson diagonalization with overlap
     ethr =  2.21E-03,  avg # of iterations =  2.1

     negative rho (up, down):  1.596E-02 0.000E+00
 
     Adding external electric field

     Computed dipole along edir(3) : 
        Dipole               -2.1882 Ry au,         -5.5618 Debye
        Dipole field         -0.0041 Ry au, 
 
        Potential amp.        0.3828 Ry
        Total length         46.3494 bohr
 

     total cpu time spent up to now is      455.9 secs

     total energy              =   -2934.27997521 Ry
     estimated scf accuracy    <    1615.58570567 Ry

     iteration # 12     ecut=    29.40 Ry     beta= 0.05
     Davidson diagonalization with overlap
     c_bands:  3 eigenvalues not converged
     ethr =  2.21E-03,  avg # of iterations = 14.4

     negative rho (up, down):  9.436E-03 0.000E+00
 
     Adding external electric field

     Computed dipole along edir(3) : 
        Dipole               -3.0302 Ry au,         -7.7021 Debye
        Dipole field         -0.0057 Ry au, 
 
        Potential amp.        0.5301 Ry
        Total length         46.3494 bohr
 

     total cpu time spent up to now is      486.0 secs

     total energy              =   -2927.22864894 Ry
     estimated scf accuracy    <     633.51077269 Ry

     iteration # 13     ecut=    29.40 Ry     beta= 0.05
     Davidson diagonalization with overlap
     c_bands:  2 eigenvalues not converged
     c_bands:  1 eigenvalues not converged
     c_bands:  2 eigenvalues not converged
     c_bands:  1 eigenvalues not converged
     c_bands:  2 eigenvalues not converged
     ethr =  2.21E-03,  avg # of iterations = 18.5

     negative rho (up, down):  8.551E-03 0.000E+00
 
     Adding external electric field

     Computed dipole along edir(3) : 
        Dipole               -3.0852 Ry au,         -7.8419 Debye
        Dipole field         -0.0058 Ry au, 
 
        Potential amp.        0.5397 Ry
        Total length         46.3494 bohr
 

     total cpu time spent up to now is      532.4 secs

     total energy              =   -2938.20018038 Ry
     estimated scf accuracy    <      76.01452467 Ry

     iteration # 14     ecut=    29.40 Ry     beta= 0.05
     Davidson diagonalization with overlap
     ethr =  2.21E-03,  avg # of iterations =  1.3

     negative rho (up, down):  7.680E-03 0.000E+00
 
     Adding external electric field

     Computed dipole along edir(3) : 
        Dipole               -2.8777 Ry au,         -7.3144 Debye
        Dipole field         -0.0054 Ry au, 
 
        Potential amp.        0.5034 Ry
        Total length         46.3494 bohr
 

     total cpu time spent up to now is      550.8 secs

     total energy              =   -2938.21945131 Ry
     estimated scf accuracy    <      34.67113573 Ry

     iteration # 15     ecut=    29.40 Ry     beta= 0.05
     Davidson diagonalization with overlap
     ethr =  2.21E-03,  avg # of iterations =  1.0

     negative rho (up, down):  6.518E-03 0.000E+00
 
     Adding external electric field

     Computed dipole along edir(3) : 
        Dipole               -2.8499 Ry au,         -7.2437 Debye
        Dipole field         -0.0054 Ry au, 
 
        Potential amp.        0.4985 Ry
        Total length         46.3494 bohr
 

     total cpu time spent up to now is      568.6 secs

     total energy              =   -2938.53255315 Ry
     estimated scf accuracy    <      67.79887934 Ry

     iteration # 16     ecut=    29.40 Ry     beta= 0.05
     Davidson diagonalization with overlap
     ethr =  2.21E-03,  avg # of iterations =  2.0

     negative rho (up, down):  7.912E-03 0.000E+00
 
     Adding external electric field

     Computed dipole along edir(3) : 
        Dipole               -2.7068 Ry au,         -6.8801 Debye
        Dipole field         -0.0051 Ry au, 
 
        Potential amp.        0.4735 Ry
        Total length         46.3494 bohr
 

     total cpu time spent up to now is      587.6 secs

     total energy              =   -2937.22410378 Ry
     estimated scf accuracy    <     261.55591697 Ry

     iteration # 17     ecut=    29.40 Ry     beta= 0.05
     Davidson diagonalization with overlap
     ethr =  2.21E-03,  avg # of iterations =  1.5

     negative rho (up, down):  7.227E-03 0.000E+00
 
     Adding external electric field

     Computed dipole along edir(3) : 
        Dipole               -1.2211 Ry au,         -3.1037 Debye
        Dipole field         -0.0023 Ry au, 
 
        Potential amp.        0.2136 Ry
        Total length         46.3494 bohr
 

     total cpu time spent up to now is      606.4 secs

     total energy              =   -2937.65887404 Ry
     estimated scf accuracy    <      36.97444710 Ry

     iteration # 18     ecut=    29.40 Ry     beta= 0.05
     Davidson diagonalization with overlap
     ethr =  2.21E-03,  avg # of iterations =  4.0

     negative rho (up, down):  7.425E-03 0.000E+00
 
     Adding external electric field

     Computed dipole along edir(3) : 
        Dipole               -1.1054 Ry au,         -2.8095 Debye
        Dipole field         -0.0021 Ry au, 
 
        Potential amp.        0.1934 Ry
        Total length         46.3494 bohr
 

     total cpu time spent up to now is      626.8 secs

     total energy              =   -2937.95183246 Ry
     estimated scf accuracy    <      40.06441016 Ry

     iteration # 19     ecut=    29.40 Ry     beta= 0.05
     Davidson diagonalization with overlap
     ethr =  2.21E-03,  avg # of iterations =  1.1

     negative rho (up, down):  7.386E-03 0.000E+00
 
     Adding external electric field

     Computed dipole along edir(3) : 
        Dipole               -0.9055 Ry au,         -2.3016 Debye
        Dipole field         -0.0017 Ry au, 
 
        Potential amp.        0.1584 Ry
        Total length         46.3494 bohr
 

     total cpu time spent up to now is      644.8 secs

     total energy              =   -2937.99241488 Ry
     estimated scf accuracy    <       6.71434574 Ry

     iteration # 20     ecut=    29.40 Ry     beta= 0.05
     Davidson diagonalization with overlap
     ethr =  1.70E-03,  avg # of iterations =  1.0

     negative rho (up, down):  7.884E-03 0.000E+00
 
     Adding external electric field

     Computed dipole along edir(3) : 
        Dipole               -0.6850 Ry au,         -1.7412 Debye
        Dipole field         -0.0013 Ry au, 
 
        Potential amp.        0.1198 Ry
        Total length         46.3494 bohr
 

     total cpu time spent up to now is      662.6 secs

     total energy              =   -2937.88321109 Ry
     estimated scf accuracy    <       2.58145263 Ry

     iteration # 21     ecut=    29.40 Ry     beta= 0.05
     Davidson diagonalization with overlap
     ethr =  6.55E-04,  avg # of iterations =  4.9

     negative rho (up, down):  8.617E-03 0.000E+00
 
     Adding external electric field

     Computed dipole along edir(3) : 
        Dipole               -0.8504 Ry au,         -2.1615 Debye
        Dipole field         -0.0016 Ry au, 
 
        Potential amp.        0.1488 Ry
        Total length         46.3494 bohr
 

     total cpu time spent up to now is      683.2 secs

     total energy              =   -2937.84591906 Ry
     estimated scf accuracy    <       1.13998793 Ry

     iteration # 22     ecut=    29.40 Ry     beta= 0.05
     Davidson diagonalization with overlap
     ethr =  2.89E-04,  avg # of iterations = 10.0

     negative rho (up, down):  8.315E-03 0.000E+00
 
     Adding external electric field

     Computed dipole along edir(3) : 
        Dipole               -0.7498 Ry au,         -1.9057 Debye
        Dipole field         -0.0014 Ry au, 
 
        Potential amp.        0.1312 Ry
        Total length         46.3494 bohr
 

     total cpu time spent up to now is      707.0 secs

     total energy              =   -2937.91228164 Ry
     estimated scf accuracy    <       0.50304533 Ry

     iteration # 23     ecut=    29.40 Ry     beta= 0.05
     Davidson diagonalization with overlap
     ethr =  1.28E-04,  avg # of iterations =  5.6

     negative rho (up, down):  7.556E-03 0.000E+00
 
     Adding external electric field

     Computed dipole along edir(3) : 
        Dipole               -0.6304 Ry au,         -1.6023 Debye
        Dipole field         -0.0012 Ry au, 
 
        Potential amp.        0.1103 Ry
        Total length         46.3494 bohr
 

     total cpu time spent up to now is      727.7 secs

     total energy              =   -2937.90065605 Ry
     estimated scf accuracy    <       0.45186481 Ry

     iteration # 24     ecut=    29.40 Ry     beta= 0.05
     Davidson diagonalization with overlap
     c_bands:  1 eigenvalues not converged
     c_bands:  1 eigenvalues not converged
     ethr =  1.15E-04,  avg # of iterations =  8.9

     negative rho (up, down):  7.539E-03 0.000E+00
 
     Adding external electric field

     Computed dipole along edir(3) : 
        Dipole               -0.9022 Ry au,         -2.2932 Debye
        Dipole field         -0.0017 Ry au, 
 
        Potential amp.        0.1578 Ry
        Total length         46.3494 bohr
 

     total cpu time spent up to now is      750.5 secs

     total energy              =   -2937.89665606 Ry
     estimated scf accuracy    <       0.44219548 Ry

     iteration # 25     ecut=    29.40 Ry     beta= 0.05
     Davidson diagonalization with overlap
     ethr =  1.12E-04,  avg # of iterations =  4.3

     negative rho (up, down):  7.855E-03 0.000E+00
 
     Adding external electric field

     Computed dipole along edir(3) : 
        Dipole               -0.9146 Ry au,         -2.3246 Debye
        Dipole field         -0.0017 Ry au, 
 
        Potential amp.        0.1600 Ry
        Total length         46.3494 bohr
 

     total cpu time spent up to now is      770.7 secs

     total energy              =   -2937.86987317 Ry
     estimated scf accuracy    <       0.57327536 Ry

     iteration # 26     ecut=    29.40 Ry     beta= 0.05
     Davidson diagonalization with overlap
     c_bands:  1 eigenvalues not converged
     ethr =  1.12E-04,  avg # of iterations =  8.4

     negative rho (up, down):  7.878E-03 0.000E+00
 
     Adding external electric field

     Computed dipole along edir(3) : 
        Dipole               -0.8167 Ry au,         -2.0759 Debye
        Dipole field         -0.0015 Ry au, 
 
        Potential amp.        0.1429 Ry
        Total length         46.3494 bohr
 

     total cpu time spent up to now is      792.9 secs

     total energy              =   -2937.86029477 Ry
     estimated scf accuracy    <       0.27756571 Ry

     iteration # 27     ecut=    29.40 Ry     beta= 0.05
     Davidson diagonalization with overlap
     ethr =  7.04E-05,  avg # of iterations =  4.0

     negative rho (up, down):  7.818E-03 0.000E+00
 
     Adding external electric field

     Computed dipole along edir(3) : 
        Dipole               -0.5489 Ry au,         -1.3952 Debye
        Dipole field         -0.0010 Ry au, 
 
        Potential amp.        0.0960 Ry
        Total length         46.3494 bohr
 

     total cpu time spent up to now is      813.5 secs

     total energy              =   -2937.86622708 Ry
     estimated scf accuracy    <       0.15709645 Ry

     iteration # 28     ecut=    29.40 Ry     beta= 0.05
     Davidson diagonalization with overlap
     c_bands:  1 eigenvalues not converged
     c_bands:  1 eigenvalues not converged
     c_bands:  2 eigenvalues not converged
     ethr =  3.99E-05,  avg # of iterations = 14.4

     negative rho (up, down):  7.800E-03 0.000E+00
 
     Adding external electric field

     Computed dipole along edir(3) : 
        Dipole               -0.2727 Ry au,         -0.6931 Debye
        Dipole field         -0.0005 Ry au, 
 
        Potential amp.        0.0477 Ry
        Total length         46.3494 bohr
 

     total cpu time spent up to now is      843.8 secs

     total energy              =   -2937.81069339 Ry
     estimated scf accuracy    <      13.05899772 Ry

     iteration # 29     ecut=    29.40 Ry     beta= 0.05
     Davidson diagonalization with overlap
     ethr =  3.99E-05,  avg # of iterations =  4.7

     negative rho (up, down):  7.872E-03 0.000E+00
 
     Adding external electric field

     Computed dipole along edir(3) : 
        Dipole               -0.0543 Ry au,         -0.1380 Debye
        Dipole field         -0.0001 Ry au, 
 
        Potential amp.        0.0095 Ry
        Total length         46.3494 bohr
 

     total cpu time spent up to now is      864.3 secs

     total energy              =   -2937.85959249 Ry
     estimated scf accuracy    <       0.36155283 Ry

     iteration # 30     ecut=    29.40 Ry     beta= 0.05
     Davidson diagonalization with overlap
     c_bands:  1 eigenvalues not converged
     c_bands:  1 eigenvalues not converged
     ethr =  3.99E-05,  avg # of iterations = 12.1

     negative rho (up, down):  8.141E-03 0.000E+00
 
     Adding external electric field

     Computed dipole along edir(3) : 
        Dipole                0.1783 Ry au,          0.4531 Debye
        Dipole field          0.0003 Ry au, 
 
        Potential amp.       -0.0312 Ry
        Total length         46.3494 bohr
 

     total cpu time spent up to now is      889.4 secs

     total energy              =   -2937.86702684 Ry
     estimated scf accuracy    <       0.04390172 Ry

     iteration # 31     ecut=    29.40 Ry     beta= 0.05
     Davidson diagonalization with overlap
     c_bands:  3 eigenvalues not converged
     c_bands:  3 eigenvalues not converged
     c_bands:  1 eigenvalues not converged
     c_bands:  1 eigenvalues not converged
     c_bands:  1 eigenvalues not converged
     c_bands:  2 eigenvalues not converged
     c_bands:  1 eigenvalues not converged
     c_bands:  1 eigenvalues not converged
     c_bands:  1 eigenvalues not converged
     c_bands:  4 eigenvalues not converged
     ethr =  1.11E-05,  avg # of iterations = 20.0

     negative rho (up, down):  8.587E-03 0.000E+00
 
     Adding external electric field

     Computed dipole along edir(3) : 
        Dipole                0.1501 Ry au,          0.3814 Debye
        Dipole field          0.0003 Ry au, 
 
        Potential amp.       -0.0263 Ry
        Total length         46.3494 bohr
 

     total cpu time spent up to now is      922.7 secs

     total energy              =   -2937.86742804 Ry
     estimated scf accuracy    <       0.04781099 Ry

     iteration # 32     ecut=    29.40 Ry     beta= 0.05
     Davidson diagonalization with overlap
     c_bands:  1 eigenvalues not converged
     c_bands:  1 eigenvalues not converged
     c_bands:  2 eigenvalues not converged
     c_bands:  1 eigenvalues not converged
     c_bands:  1 eigenvalues not converged
     c_bands:  2 eigenvalues not converged
     c_bands:  1 eigenvalues not converged
     c_bands:  1 eigenvalues not converged
     ethr =  1.11E-05,  avg # of iterations = 18.8

     negative rho (up, down):  1.020E-02 0.000E+00
 
     Adding external electric field

     Computed dipole along edir(3) : 
        Dipole                0.1685 Ry au,          0.4283 Debye
        Dipole field          0.0003 Ry au, 
 
        Potential amp.       -0.0295 Ry
        Total length         46.3494 bohr
 

     total cpu time spent up to now is      953.1 secs

     total energy              =   -2937.87247582 Ry
     estimated scf accuracy    <       0.01590505 Ry

     iteration # 33     ecut=    29.40 Ry     beta= 0.05
     Davidson diagonalization with overlap
     c_bands:  2 eigenvalues not converged
     ethr =  4.04E-06,  avg # of iterations = 14.3

     negative rho (up, down):  1.052E-02 0.000E+00
 
     Adding external electric field

     Computed dipole along edir(3) : 
        Dipole                0.2322 Ry au,          0.5902 Debye
        Dipole field          0.0004 Ry au, 
 
        Potential amp.       -0.0406 Ry
        Total length         46.3494 bohr
 

     total cpu time spent up to now is      983.2 secs

     total energy              =   -2937.87426998 Ry
     estimated scf accuracy    <       0.23648596 Ry

     iteration # 34     ecut=    29.40 Ry     beta= 0.05
     Davidson diagonalization with overlap
     ethr =  4.04E-06,  avg # of iterations =  2.3

     negative rho (up, down):  1.046E-02 0.000E+00
 
     Adding external electric field

     Computed dipole along edir(3) : 
        Dipole                0.2859 Ry au,          0.7267 Debye
        Dipole field          0.0005 Ry au, 
 
        Potential amp.       -0.0500 Ry
        Total length         46.3494 bohr
 

     total cpu time spent up to now is     1001.6 secs

     total energy              =   -2937.87281352 Ry
     estimated scf accuracy    <       0.06563039 Ry

     iteration # 35     ecut=    29.40 Ry     beta= 0.05
     Davidson diagonalization with overlap
     ethr =  4.04E-06,  avg # of iterations =  6.3

     negative rho (up, down):  1.155E-02 0.000E+00
 
     Adding external electric field

     Computed dipole along edir(3) : 
        Dipole                0.3234 Ry au,          0.8221 Debye
        Dipole field          0.0006 Ry au, 
 
        Potential amp.       -0.0566 Ry
        Total length         46.3494 bohr
 

     total cpu time spent up to now is     1022.6 secs

     total energy              =   -2937.87304917 Ry
     estimated scf accuracy    <       0.00883535 Ry

     iteration # 36     ecut=    29.40 Ry     beta= 0.05
     Davidson diagonalization with overlap
     c_bands:  1 eigenvalues not converged
     c_bands:  1 eigenvalues not converged
     c_bands:  1 eigenvalues not converged
     ethr =  2.24E-06,  avg # of iterations = 15.4

     negative rho (up, down):  1.278E-02 0.000E+00
 
     Adding external electric field

     Computed dipole along edir(3) : 
        Dipole                0.3317 Ry au,          0.8431 Debye
        Dipole field          0.0006 Ry au, 
 
        Potential amp.       -0.0580 Ry
        Total length         46.3494 bohr
 

     total cpu time spent up to now is     1057.0 secs

     total energy              =   -2937.87375149 Ry
     estimated scf accuracy    <       0.00906615 Ry

     iteration # 37     ecut=    29.40 Ry     beta= 0.05
     Davidson diagonalization with overlap
     c_bands:  1 eigenvalues not converged
     ethr =  2.24E-06,  avg # of iterations =  7.9

     negative rho (up, down):  1.532E-02 0.000E+00
 
     Adding external electric field

     Computed dipole along edir(3) : 
        Dipole                0.3017 Ry au,          0.7668 Debye
        Dipole field          0.0006 Ry au, 
 
        Potential amp.       -0.0528 Ry
        Total length         46.3494 bohr
 

     total cpu time spent up to now is     1079.3 secs

     total energy              =   -2937.87344241 Ry
     estimated scf accuracy    <       0.00336718 Ry

     iteration # 38     ecut=    29.40 Ry     beta= 0.05
     Davidson diagonalization with overlap
     c_bands:  1 eigenvalues not converged
     c_bands:  1 eigenvalues not converged
     c_bands:  2 eigenvalues not converged
     ethr =  8.55E-07,  avg # of iterations = 16.8

     negative rho (up, down):  1.449E-02 0.000E+00
 
     Adding external electric field

     Computed dipole along edir(3) : 
        Dipole                0.3134 Ry au,          0.7967 Debye
        Dipole field          0.0006 Ry au, 
 
        Potential amp.       -0.0548 Ry
        Total length         46.3494 bohr
 

     total cpu time spent up to now is     1121.0 secs

     total energy              =   -2937.87447697 Ry
     estimated scf accuracy    <       0.03572119 Ry

     iteration # 39     ecut=    29.40 Ry     beta= 0.05
     Davidson diagonalization with overlap
     ethr =  8.55E-07,  avg # of iterations =  4.9

     negative rho (up, down):  1.437E-02 0.000E+00
 
     Adding external electric field

     Computed dipole along edir(3) : 
        Dipole                0.3401 Ry au,          0.8645 Debye
        Dipole field          0.0006 Ry au, 
 
        Potential amp.       -0.0595 Ry
        Total length         46.3494 bohr
 

     total cpu time spent up to now is     1143.4 secs

     total energy              =   -2937.87411674 Ry
     estimated scf accuracy    <       0.00899575 Ry

     iteration # 40     ecut=    29.40 Ry     beta= 0.05
     Davidson diagonalization with overlap
     c_bands:  1 eigenvalues not converged
     ethr =  8.55E-07,  avg # of iterations = 11.7

     negative rho (up, down):  1.573E-02 0.000E+00
 
     Adding external electric field

     Computed dipole along edir(3) : 
        Dipole                0.3715 Ry au,          0.9442 Debye
        Dipole field          0.0007 Ry au, 
 
        Potential amp.       -0.0650 Ry
        Total length         46.3494 bohr
 

     total cpu time spent up to now is     1175.3 secs

     total energy              =   -2937.87495375 Ry
     estimated scf accuracy    <       0.00209936 Ry

     iteration # 41     ecut=    29.40 Ry     beta= 0.05
     Davidson diagonalization with overlap
     ethr =  5.33E-07,  avg # of iterations =  2.4

     negative rho (up, down):  1.621E-02 0.000E+00
 
     Adding external electric field

     Computed dipole along edir(3) : 
        Dipole                0.3696 Ry au,          0.9395 Debye
        Dipole field          0.0007 Ry au, 
 
        Potential amp.       -0.0647 Ry
        Total length         46.3494 bohr
 

     total cpu time spent up to now is     1196.9 secs

     total energy              =   -2937.87486627 Ry
     estimated scf accuracy    <       0.00213963 Ry

     iteration # 42     ecut=    29.40 Ry     beta= 0.05
     Davidson diagonalization with overlap
     ethr =  5.33E-07,  avg # of iterations =  5.0

     negative rho (up, down):  1.581E-02 0.000E+00
 
     Adding external electric field

     Computed dipole along edir(3) : 
        Dipole                0.3660 Ry au,          0.9302 Debye
        Dipole field          0.0007 Ry au, 
 
        Potential amp.       -0.0640 Ry
        Total length         46.3494 bohr
 

     total cpu time spent up to now is     1218.7 secs

     total energy              =   -2937.87504832 Ry
     estimated scf accuracy    <       0.00144091 Ry

     iteration # 43     ecut=    29.40 Ry     beta= 0.05
     Davidson diagonalization with overlap
     ethr =  3.66E-07,  avg # of iterations =  1.7

     negative rho (up, down):  1.593E-02 0.000E+00
 
     Adding external electric field

     Computed dipole along edir(3) : 
        Dipole                0.3691 Ry au,          0.9382 Debye
        Dipole field          0.0007 Ry au, 
 
        Potential amp.       -0.0646 Ry
        Total length         46.3494 bohr
 

     total cpu time spent up to now is     1239.3 secs

     total energy              =   -2937.87511689 Ry
     estimated scf accuracy    <       0.00120038 Ry

     iteration # 44     ecut=    29.40 Ry     beta= 0.05
     Davidson diagonalization with overlap
     ethr =  3.05E-07,  avg # of iterations =  1.0

     negative rho (up, down):  1.613E-02 0.000E+00
 
     Adding external electric field

     Computed dipole along edir(3) : 
        Dipole                0.3711 Ry au,          0.9431 Debye
        Dipole field          0.0007 Ry au, 
 
        Potential amp.       -0.0649 Ry
        Total length         46.3494 bohr
 

     total cpu time spent up to now is     1258.6 secs

     total energy              =   -2937.87517367 Ry
     estimated scf accuracy    <       0.00135345 Ry

     iteration # 45     ecut=    29.40 Ry     beta= 0.05
     Davidson diagonalization with overlap
     ethr =  3.05E-07,  avg # of iterations =  2.6

     negative rho (up, down):  1.609E-02 0.000E+00
 
     Adding external electric field

     Computed dipole along edir(3) : 
        Dipole                0.3702 Ry au,          0.9410 Debye
        Dipole field          0.0007 Ry au, 
 
        Potential amp.       -0.0648 Ry
        Total length         46.3494 bohr
 

     total cpu time spent up to now is     1279.5 secs

     total energy              =   -2937.87524427 Ry
     estimated scf accuracy    <       0.00168918 Ry

     iteration # 46     ecut=    29.40 Ry     beta= 0.05
     Davidson diagonalization with overlap
     ethr =  3.05E-07,  avg # of iterations =  1.0

     negative rho (up, down):  1.590E-02 0.000E+00
 
     Adding external electric field

     Computed dipole along edir(3) : 
        Dipole                0.3742 Ry au,          0.9510 Debye
        Dipole field          0.0007 Ry au, 
 
        Potential amp.       -0.0655 Ry
        Total length         46.3494 bohr
 

     total cpu time spent up to now is     1298.0 secs

     total energy              =   -2937.87499874 Ry
     estimated scf accuracy    <       0.00182692 Ry

     iteration # 47     ecut=    29.40 Ry     beta= 0.05
     Davidson diagonalization with overlap
     ethr =  3.05E-07,  avg # of iterations =  2.6

     negative rho (up, down):  1.579E-02 0.000E+00
 
     Adding external electric field

     Computed dipole along edir(3) : 
        Dipole                0.3798 Ry au,          0.9653 Debye
        Dipole field          0.0007 Ry au, 
 
        Potential amp.       -0.0664 Ry
        Total length         46.3494 bohr
 

     total cpu time spent up to now is     1317.3 secs

     total energy              =   -2937.87485493 Ry
     estimated scf accuracy    <       0.00083200 Ry

     iteration # 48     ecut=    29.40 Ry     beta= 0.05
     Davidson diagonalization with overlap
     ethr =  2.11E-07,  avg # of iterations =  6.5

     negative rho (up, down):  1.570E-02 0.000E+00
 
     Adding external electric field

     Computed dipole along edir(3) : 
        Dipole                0.3764 Ry au,          0.9568 Debye
        Dipole field          0.0007 Ry au, 
 
        Potential amp.       -0.0658 Ry
        Total length         46.3494 bohr
 

     total cpu time spent up to now is     1354.5 secs

     total energy              =   -2937.87498827 Ry
     estimated scf accuracy    <       0.00093359 Ry

     iteration # 49     ecut=    29.40 Ry     beta= 0.05
     Davidson diagonalization with overlap
     ethr =  2.11E-07,  avg # of iterations =  5.0

     negative rho (up, down):  1.583E-02 0.000E+00
 
     Adding external electric field

     Computed dipole along edir(3) : 
        Dipole                0.3705 Ry au,          0.9417 Debye
        Dipole field          0.0007 Ry au, 
 
        Potential amp.       -0.0648 Ry
        Total length         46.3494 bohr
 

     total cpu time spent up to now is     1377.8 secs

     total energy              =   -2937.87501916 Ry
     estimated scf accuracy    <       0.00025571 Ry

     iteration # 50     ecut=    29.40 Ry     beta= 0.05
     Davidson diagonalization with overlap
     c_bands:  1 eigenvalues not converged
     ethr =  6.49E-08,  avg # of iterations =  7.8

     negative rho (up, down):  1.588E-02 0.000E+00
 
     Adding external electric field

     Computed dipole along edir(3) : 
        Dipole                0.3776 Ry au,          0.9598 Debye
        Dipole field          0.0007 Ry au, 
 
        Potential amp.       -0.0661 Ry
        Total length         46.3494 bohr
 

     total cpu time spent up to now is     1406.4 secs

     total energy              =   -2937.87508177 Ry
     estimated scf accuracy    <       0.00012595 Ry

     iteration # 51     ecut=    29.40 Ry     beta= 0.05
     Davidson diagonalization with overlap
     ethr =  3.20E-08,  avg # of iterations =  5.5

     negative rho (up, down):  1.587E-02 0.000E+00
 
     Adding external electric field

     Computed dipole along edir(3) : 
        Dipole                0.3772 Ry au,          0.9588 Debye
        Dipole field          0.0007 Ry au, 
 
        Potential amp.       -0.0660 Ry
        Total length         46.3494 bohr
 

     total cpu time spent up to now is     1429.3 secs

     total energy              =   -2937.87510971 Ry
     estimated scf accuracy    <       0.00008829 Ry

     iteration # 52     ecut=    29.40 Ry     beta= 0.05
     Davidson diagonalization with overlap
     ethr =  2.24E-08,  avg # of iterations =  1.0

     negative rho (up, down):  1.579E-02 0.000E+00
 
     Adding external electric field

     Computed dipole along edir(3) : 
        Dipole                0.3730 Ry au,          0.9482 Debye
        Dipole field          0.0007 Ry au, 
 
        Potential amp.       -0.0653 Ry
        Total length         46.3494 bohr
 

     total cpu time spent up to now is     1447.4 secs

     total energy              =   -2937.87511673 Ry
     estimated scf accuracy    <       0.00008551 Ry

     iteration # 53     ecut=    29.40 Ry     beta= 0.05
     Davidson diagonalization with overlap
     ethr =  2.17E-08,  avg # of iterations =  2.0

     negative rho (up, down):  1.586E-02 0.000E+00
 
     Adding external electric field

     Computed dipole along edir(3) : 
        Dipole                0.3737 Ry au,          0.9498 Debye
        Dipole field          0.0007 Ry au, 
 
        Potential amp.       -0.0654 Ry
        Total length         46.3494 bohr
 

     total cpu time spent up to now is     1466.6 secs

     total energy              =   -2937.87513455 Ry
     estimated scf accuracy    <       0.00008070 Ry

     iteration # 54     ecut=    29.40 Ry     beta= 0.05
     Davidson diagonalization with overlap
     ethr =  2.05E-08,  avg # of iterations =  2.6

     negative rho (up, down):  1.602E-02 0.000E+00
 
     Adding external electric field

     Computed dipole along edir(3) : 
        Dipole                0.3761 Ry au,          0.9559 Debye
        Dipole field          0.0007 Ry au, 
 
        Potential amp.       -0.0658 Ry
        Total length         46.3494 bohr
 

     total cpu time spent up to now is     1486.4 secs

     total energy              =   -2937.87515338 Ry
     estimated scf accuracy    <       0.00007683 Ry

     iteration # 55     ecut=    29.40 Ry     beta= 0.05
     Davidson diagonalization with overlap
     ethr =  1.95E-08,  avg # of iterations =  1.0

     negative rho (up, down):  1.596E-02 0.000E+00
 
     Adding external electric field

     Computed dipole along edir(3) : 
        Dipole                0.3742 Ry au,          0.9512 Debye
        Dipole field          0.0007 Ry au, 
 
        Potential amp.       -0.0655 Ry
        Total length         46.3494 bohr
 

     total cpu time spent up to now is     1504.3 secs

     total energy              =   -2937.87516406 Ry
     estimated scf accuracy    <       0.00007824 Ry

     iteration # 56     ecut=    29.40 Ry     beta= 0.05
     Davidson diagonalization with overlap
     ethr =  1.95E-08,  avg # of iterations =  1.3

     negative rho (up, down):  1.594E-02 0.000E+00
 
     Adding external electric field

     Computed dipole along edir(3) : 
        Dipole                0.3753 Ry au,          0.9538 Debye
        Dipole field          0.0007 Ry au, 
 
        Potential amp.       -0.0656 Ry
        Total length         46.3494 bohr
 

     total cpu time spent up to now is     1522.5 secs

     total energy              =   -2937.87516881 Ry
     estimated scf accuracy    <       0.00009148 Ry

     iteration # 57     ecut=    29.40 Ry     beta= 0.05
     Davidson diagonalization with overlap
     ethr =  1.95E-08,  avg # of iterations =  1.2

     negative rho (up, down):  1.594E-02 0.000E+00
 
     Adding external electric field

     Computed dipole along edir(3) : 
        Dipole                0.3753 Ry au,          0.9538 Debye
        Dipole field          0.0007 Ry au, 
 
        Potential amp.       -0.0656 Ry
        Total length         46.3494 bohr
 

     total cpu time spent up to now is     1540.7 secs

     total energy              =   -2937.87517738 Ry
     estimated scf accuracy    <       0.00008258 Ry

     iteration # 58     ecut=    29.40 Ry     beta= 0.05
     Davidson diagonalization with overlap
     ethr =  1.95E-08,  avg # of iterations =  1.0

     negative rho (up, down):  1.596E-02 0.000E+00
 
     Adding external electric field

     Computed dipole along edir(3) : 
        Dipole                0.3751 Ry au,          0.9535 Debye
        Dipole field          0.0007 Ry au, 
 
        Potential amp.       -0.0656 Ry
        Total length         46.3494 bohr
 

     total cpu time spent up to now is     1558.5 secs

     total energy              =   -2937.87518306 Ry
     estimated scf accuracy    <       0.00008301 Ry

     iteration # 59     ecut=    29.40 Ry     beta= 0.05
     Davidson diagonalization with overlap
     ethr =  1.95E-08,  avg # of iterations =  1.0

     negative rho (up, down):  1.595E-02 0.000E+00
 
     Adding external electric field

     Computed dipole along edir(3) : 
        Dipole                0.3744 Ry au,          0.9516 Debye
        Dipole field          0.0007 Ry au, 
 
        Potential amp.       -0.0655 Ry
        Total length         46.3494 bohr
 

     total cpu time spent up to now is     1576.4 secs

     total energy              =   -2937.87518913 Ry
     estimated scf accuracy    <       0.00007805 Ry

     iteration # 60     ecut=    29.40 Ry     beta= 0.05
     Davidson diagonalization with overlap
     ethr =  1.95E-08,  avg # of iterations =  1.0

     negative rho (up, down):  1.602E-02 0.000E+00
 
     Adding external electric field

     Computed dipole along edir(3) : 
        Dipole                0.3771 Ry au,          0.9584 Debye
        Dipole field          0.0007 Ry au, 
 
        Potential amp.       -0.0660 Ry
        Total length         46.3494 bohr
 

     total cpu time spent up to now is     1594.3 secs

     total energy              =   -2937.87519127 Ry
     estimated scf accuracy    <       0.00007608 Ry

     iteration # 61     ecut=    29.40 Ry     beta= 0.05
     Davidson diagonalization with overlap
     ethr =  1.93E-08,  avg # of iterations =  4.9

     negative rho (up, down):  1.598E-02 0.000E+00
 
     Adding external electric field

     Computed dipole along edir(3) : 
        Dipole                0.3761 Ry au,          0.9560 Debye
        Dipole field          0.0007 Ry au, 
 
        Potential amp.       -0.0658 Ry
        Total length         46.3494 bohr
 

     total cpu time spent up to now is     1615.3 secs

     total energy              =   -2937.87519649 Ry
     estimated scf accuracy    <       0.00006509 Ry

     iteration # 62     ecut=    29.40 Ry     beta= 0.05
     Davidson diagonalization with overlap
     ethr =  1.65E-08,  avg # of iterations =  1.8

     negative rho (up, down):  1.608E-02 0.000E+00
 
     Adding external electric field

     Computed dipole along edir(3) : 
        Dipole                0.3750 Ry au,          0.9531 Debye
        Dipole field          0.0007 Ry au, 
 
        Potential amp.       -0.0656 Ry
        Total length         46.3494 bohr
 

     total cpu time spent up to now is     1634.3 secs

     total energy              =   -2937.87520045 Ry
     estimated scf accuracy    <       0.00005715 Ry

     iteration # 63     ecut=    29.40 Ry     beta= 0.05
     Davidson diagonalization with overlap
     ethr =  1.45E-08,  avg # of iterations =  5.8

     negative rho (up, down):  1.626E-02 0.000E+00
 
     Adding external electric field

     Computed dipole along edir(3) : 
        Dipole                0.3794 Ry au,          0.9643 Debye
        Dipole field          0.0007 Ry au, 
 
        Potential amp.       -0.0664 Ry
        Total length         46.3494 bohr
 

     total cpu time spent up to now is     1658.1 secs

     total energy              =   -2937.87520996 Ry
     estimated scf accuracy    <       0.00005405 Ry

     iteration # 64     ecut=    29.40 Ry     beta= 0.05
     Davidson diagonalization with overlap
     ethr =  1.37E-08,  avg # of iterations =  5.1

     negative rho (up, down):  1.671E-02 0.000E+00
 
     Adding external electric field

     Computed dipole along edir(3) : 
        Dipole                0.3856 Ry au,          0.9802 Debye
        Dipole field          0.0007 Ry au, 
 
        Potential amp.       -0.0675 Ry
        Total length         46.3494 bohr
 

     total cpu time spent up to now is     1679.7 secs

     total energy              =   -2937.87522499 Ry
     estimated scf accuracy    <       0.00002718 Ry

     iteration # 65     ecut=    29.40 Ry     beta= 0.05
     Davidson diagonalization with overlap
     ethr =  6.90E-09,  avg # of iterations =  6.0

     negative rho (up, down):  1.676E-02 0.000E+00
 
     Adding external electric field

     Computed dipole along edir(3) : 
        Dipole                0.3848 Ry au,          0.9780 Debye
        Dipole field          0.0007 Ry au, 
 
        Potential amp.       -0.0673 Ry
        Total length         46.3494 bohr
 

     total cpu time spent up to now is     1705.3 secs

     total energy              =   -2937.87523383 Ry
     estimated scf accuracy    <       0.00003524 Ry

     iteration # 66     ecut=    29.40 Ry     beta= 0.05
     Davidson diagonalization with overlap
     ethr =  6.90E-09,  avg # of iterations =  2.0

     negative rho (up, down):  1.667E-02 0.000E+00
 
     Adding external electric field

     Computed dipole along edir(3) : 
        Dipole                0.3836 Ry au,          0.9750 Debye
        Dipole field          0.0007 Ry au, 
 
        Potential amp.       -0.0671 Ry
        Total length         46.3494 bohr
 

     total cpu time spent up to now is     1724.7 secs

     total energy              =   -2937.87523569 Ry
     estimated scf accuracy    <       0.00002956 Ry

     iteration # 67     ecut=    29.40 Ry     beta= 0.05
     Davidson diagonalization with overlap
     ethr =  6.90E-09,  avg # of iterations =  5.0

     negative rho (up, down):  1.666E-02 0.000E+00
 
     Adding external electric field

     Computed dipole along edir(3) : 
        Dipole                0.3834 Ry au,          0.9745 Debye
        Dipole field          0.0007 Ry au, 
 
        Potential amp.       -0.0671 Ry
        Total length         46.3494 bohr
 

     total cpu time spent up to now is     1745.1 secs

     total energy              =   -2937.87523875 Ry
     estimated scf accuracy    <       0.00002760 Ry

     iteration # 68     ecut=    29.40 Ry     beta= 0.05
     Davidson diagonalization with overlap
     ethr =  6.90E-09,  avg # of iterations =  1.0

     negative rho (up, down):  1.673E-02 0.000E+00
 
     Adding external electric field

     Computed dipole along edir(3) : 
        Dipole                0.3845 Ry au,          0.9774 Debye
        Dipole field          0.0007 Ry au, 
 
        Potential amp.       -0.0673 Ry
        Total length         46.3494 bohr
 

     total cpu time spent up to now is     1763.1 secs

     total energy              =   -2937.87523844 Ry
     estimated scf accuracy    <       0.00002849 Ry

     iteration # 69     ecut=    29.40 Ry     beta= 0.05
     Davidson diagonalization with overlap
     ethr =  6.90E-09,  avg # of iterations =  6.0

     negative rho (up, down):  1.682E-02 0.000E+00
 
     Adding external electric field

     Computed dipole along edir(3) : 
        Dipole                0.3871 Ry au,          0.9839 Debye
        Dipole field          0.0007 Ry au, 
 
        Potential amp.       -0.0677 Ry
        Total length         46.3494 bohr
 

     total cpu time spent up to now is     1784.6 secs

     total energy              =   -2937.87524247 Ry
     estimated scf accuracy    <       0.00001513 Ry

     iteration # 70     ecut=    29.40 Ry     beta= 0.05
     Davidson diagonalization with overlap
     ethr =  3.84E-09,  avg # of iterations =  6.0

     negative rho (up, down):  1.680E-02 0.000E+00
 
     Adding external electric field

     Computed dipole along edir(3) : 
        Dipole                0.3859 Ry au,          0.9809 Debye
        Dipole field          0.0007 Ry au, 
 
        Potential amp.       -0.0675 Ry
        Total length         46.3494 bohr
 

     total cpu time spent up to now is     1806.6 secs

     total energy              =   -2937.87524415 Ry
     estimated scf accuracy    <       0.00001134 Ry

     iteration # 71     ecut=    29.40 Ry     beta= 0.05
     Davidson diagonalization with overlap
     ethr =  2.88E-09,  avg # of iterations =  6.0

     negative rho (up, down):  1.675E-02 0.000E+00
 
     Adding external electric field

     Computed dipole along edir(3) : 
        Dipole                0.3851 Ry au,          0.9788 Debye
        Dipole field          0.0007 Ry au, 
 
        Potential amp.       -0.0674 Ry
        Total length         46.3494 bohr
 

     total cpu time spent up to now is     1828.6 secs

     total energy              =   -2937.87524595 Ry
     estimated scf accuracy    <       0.00000656 Ry

     iteration # 72     ecut=    29.40 Ry     beta= 0.05
     Davidson diagonalization with overlap
     ethr =  1.66E-09,  avg # of iterations =  5.8

     negative rho (up, down):  1.679E-02 0.000E+00
 
     Adding external electric field

     Computed dipole along edir(3) : 
        Dipole                0.3852 Ry au,          0.9790 Debye
        Dipole field          0.0007 Ry au, 
 
        Potential amp.       -0.0674 Ry
        Total length         46.3494 bohr
 

     total cpu time spent up to now is     1853.2 secs

     total energy              =   -2937.87524776 Ry
     estimated scf accuracy    <       0.00000653 Ry

     iteration # 73     ecut=    29.40 Ry     beta= 0.05
     Davidson diagonalization with overlap
     ethr =  1.66E-09,  avg # of iterations =  6.0

     negative rho (up, down):  1.675E-02 0.000E+00
 
     Adding external electric field

     Computed dipole along edir(3) : 
        Dipole                0.3843 Ry au,          0.9768 Debye
        Dipole field          0.0007 Ry au, 
 
        Potential amp.       -0.0672 Ry
        Total length         46.3494 bohr
 

     total cpu time spent up to now is     1874.8 secs

     total energy              =   -2937.87524933 Ry
     estimated scf accuracy    <       0.00000299 Ry

     iteration # 74     ecut=    29.40 Ry     beta= 0.05
     Davidson diagonalization with overlap
     ethr =  7.60E-10,  avg # of iterations =  5.2

     negative rho (up, down):  1.679E-02 0.000E+00
 
     Adding external electric field

     Computed dipole along edir(3) : 
        Dipole                0.3848 Ry au,          0.9779 Debye
        Dipole field          0.0007 Ry au, 
 
        Potential amp.       -0.0673 Ry
        Total length         46.3494 bohr
 

     total cpu time spent up to now is     1896.9 secs

     total energy              =   -2937.87525086 Ry
     estimated scf accuracy    <       0.00000226 Ry

     iteration # 75     ecut=    29.40 Ry     beta= 0.05
     Davidson diagonalization with overlap
     ethr =  5.74E-10,  avg # of iterations =  6.0

     negative rho (up, down):  1.677E-02 0.000E+00
 
     Adding external electric field

     Computed dipole along edir(3) : 
        Dipole                0.3848 Ry au,          0.9781 Debye
        Dipole field          0.0007 Ry au, 
 
        Potential amp.       -0.0673 Ry
        Total length         46.3494 bohr
 

     total cpu time spent up to now is     1919.3 secs

     total energy              =   -2937.87525223 Ry
     estimated scf accuracy    <       0.00000071 Ry

     iteration # 76     ecut=    29.40 Ry     beta= 0.05
     Davidson diagonalization with overlap
     ethr =  1.81E-10,  avg # of iterations =  6.0

     negative rho (up, down):  1.676E-02 0.000E+00
 
     Adding external electric field

     Computed dipole along edir(3) : 
        Dipole                0.3843 Ry au,          0.9769 Debye
        Dipole field          0.0007 Ry au, 
 
        Potential amp.       -0.0672 Ry
        Total length         46.3494 bohr
 

     total cpu time spent up to now is     1942.4 secs

     total energy              =   -2937.87525338 Ry
     estimated scf accuracy    <       0.00000045 Ry

     iteration # 77     ecut=    29.40 Ry     beta= 0.05
     Davidson diagonalization with overlap
     ethr =  1.14E-10,  avg # of iterations =  5.1

     negative rho (up, down):  1.672E-02 0.000E+00
 
     Adding external electric field

     Computed dipole along edir(3) : 
        Dipole                0.3837 Ry au,          0.9752 Debye
        Dipole field          0.0007 Ry au, 
 
        Potential amp.       -0.0671 Ry
        Total length         46.3494 bohr
 

     total cpu time spent up to now is     1963.1 secs

     total energy              =   -2937.87525430 Ry
     estimated scf accuracy    <       0.00000028 Ry

     iteration # 78     ecut=    29.40 Ry     beta= 0.05
     Davidson diagonalization with overlap
     ethr =  7.09E-11,  avg # of iterations =  6.1

     negative rho (up, down):  1.674E-02 0.000E+00
 
     Adding external electric field

     Computed dipole along edir(3) : 
        Dipole                0.3838 Ry au,          0.9756 Debye
        Dipole field          0.0007 Ry au, 
 
        Potential amp.       -0.0671 Ry
        Total length         46.3494 bohr
 

     total cpu time spent up to now is     1987.7 secs

     total energy              =   -2937.87525525 Ry
     estimated scf accuracy    <       0.00000026 Ry

     iteration # 79     ecut=    29.40 Ry     beta= 0.05
     Davidson diagonalization with overlap
     ethr =  6.53E-11,  avg # of iterations =  5.8

     negative rho (up, down):  1.673E-02 0.000E+00
 
     Adding external electric field

     Computed dipole along edir(3) : 
        Dipole                0.3837 Ry au,          0.9752 Debye
        Dipole field          0.0007 Ry au, 
 
        Potential amp.       -0.0671 Ry
        Total length         46.3494 bohr
 

     total cpu time spent up to now is     2011.5 secs

     total energy              =   -2937.87525610 Ry
     estimated scf accuracy    <       0.00000012 Ry

     iteration # 80     ecut=    29.40 Ry     beta= 0.05
     Davidson diagonalization with overlap
     ethr =  3.15E-11,  avg # of iterations =  2.6

     negative rho (up, down):  1.673E-02 0.000E+00
 
     Adding external electric field

     Computed dipole along edir(3) : 
        Dipole                0.3836 Ry au,          0.9749 Debye
        Dipole field          0.0007 Ry au, 
 
        Potential amp.       -0.0671 Ry
        Total length         46.3494 bohr
 

     total cpu time spent up to now is     2031.2 secs

     total energy              =   -2937.87525683 Ry
     estimated scf accuracy    <       0.00000009 Ry

     iteration # 81     ecut=    29.40 Ry     beta= 0.05
     Davidson diagonalization with overlap
     ethr =  2.30E-11,  avg # of iterations =  6.0

     negative rho (up, down):  1.676E-02 0.000E+00
 
     Adding external electric field

     Computed dipole along edir(3) : 
        Dipole                0.3844 Ry au,          0.9770 Debye
        Dipole field          0.0007 Ry au, 
 
        Potential amp.       -0.0672 Ry
        Total length         46.3494 bohr
 

     total cpu time spent up to now is     2055.8 secs

     End of self-consistent calculation

          k = 0.0000 0.0000 0.0000 ( 18029 PWs)   bands (ev):

   -56.6556 -56.6219 -55.8620 -55.8507 -55.8268 -55.8179 -55.7876 -55.7520
   -55.6127 -55.5671 -55.4703 -55.4050 -55.3564 -55.3225 -55.0642 -54.8064
   -33.0881 -32.9346 -32.9064 -32.8281 -32.7366 -32.7136 -32.3346 -32.3335
   -32.3257 -32.1468 -32.1182 -32.0785 -32.0757 -32.0592 -32.0583 -32.0366
   -32.0031 -31.9986 -31.9981 -31.9918 -31.9762 -31.9658 -31.9654 -31.9532
   -31.9515 -31.9472 -31.9244 -31.9232 -31.8455 -31.7521 -31.7511 -31.7180
   -31.6926 -31.6724 -31.6686 -31.6456 -31.6288 -31.5951 -31.5733 -31.5693
   -31.4855 -31.4852 -31.3742 -31.3249 -31.2765 -31.1585 -31.0488 -30.9543
   -18.0805 -16.8505 -16.5078 -16.2771 -16.0371 -16.0359 -15.9369 -15.9155
   -15.9055 -15.7959 -15.7402 -15.7142 -15.6292 -15.6155 -15.4575 -15.3787
   -15.3593 -15.3432 -15.2242 -15.1716 -15.1571 -15.1108 -15.0807 -15.0140
   -14.8706 -14.8324 -14.7627 -14.6920 -14.5602 -14.3309 -13.8557 -13.7448
   -12.0970  -6.5661  -4.5241  -4.4061  -4.3935  -3.9878  -3.7905  -3.6718
    -3.5617  -3.5373  -3.5078  -3.2971  -3.2593  -3.2432  -3.1986  -3.1373
    -3.0872  -2.9463  -2.9134  -2.8662  -2.8526  -2.8455  -2.8222  -2.7590
    -2.6588  -2.5297  -2.5025  -2.4874  -2.4605  -2.3797  -2.3643  -2.2900
    -2.2628  -2.2410  -2.2164  -2.1976  -2.0456  -2.0265  -1.9991  -1.9776
    -1.9155  -1.8725  -1.8642  -1.7475  -1.6703  -1.5793  -1.5532  -1.4240
    -1.4161  -1.3763  -1.3003  -1.2788  -1.1853  -1.1399  -1.0693  -1.0507
    -0.9896  -0.9695  -0.8468  -0.8314  -0.8053  -0.7940  -0.6679  -0.6574
    -0.6243  -0.5540  -0.5466  -0.4940  -0.3841  -0.3618  -0.3352  -0.2945
    -0.2697  -0.2229  -0.1610  -0.1475  -0.0976  -0.0600   0.0192   0.1305
     0.1346   0.2200   0.2924   0.3186   0.4154   0.4599   0.5272   0.5924
     0.6183   0.6650   0.6851   0.7088   0.7987   0.8958   0.9023   0.9701
     1.2190   1.2584   1.4483   1.9094   2.2618   2.6096   2.7598   3.0634
     3.1961   3.3004   3.5677   3.6005   3.6010   3.6499   3.7375

          k = 0.0000 0.0419 0.0000 ( 17933 PWs)   bands (ev):

   -56.6506 -56.6268 -55.8570 -55.8459 -55.8316 -55.8226 -55.7824 -55.7571
   -55.6090 -55.5707 -55.4678 -55.4073 -55.3513 -55.3273 -55.0636 -54.8069
   -33.0346 -32.9304 -32.9102 -32.8147 -32.7696 -32.7500 -32.2814 -32.2775
   -32.2728 -32.1325 -32.1090 -32.0639 -32.0636 -32.0567 -32.0501 -32.0240
   -32.0210 -32.0094 -32.0006 -32.0002 -31.9956 -31.9947 -31.9899 -31.9858
   -31.9576 -31.9427 -31.9191 -31.9124 -31.8325 -31.7695 -31.7268 -31.7122
   -31.6980 -31.6889 -31.6719 -31.6438 -31.6382 -31.6279 -31.5934 -31.5570
   -31.4974 -31.4513 -31.4310 -31.3223 -31.2750 -31.1655 -31.0579 -30.9802
   -18.0759 -16.7286 -16.3799 -16.1734 -16.1002 -15.9774 -15.9619 -15.8811
   -15.8282 -15.7815 -15.6890 -15.6757 -15.6651 -15.6500 -15.5058 -15.4217
   -15.4009 -15.3876 -15.2702 -15.2147 -15.1635 -15.1354 -15.1087 -14.9532
   -14.9206 -14.8315 -14.8155 -14.7037 -14.5795 -14.3949 -13.8625 -13.7857
   -12.0998  -6.5615  -4.5183  -4.3725  -4.2242  -3.8071  -3.6284  -3.5101
    -3.4217  -3.4041  -3.3833  -3.2835  -3.2352  -3.2099  -3.1970  -3.0906
    -3.0254  -2.9637  -2.9134  -2.9118  -2.8919  -2.8583  -2.7879  -2.7311
    -2.7241  -2.6705  -2.6546  -2.5838  -2.5396  -2.5047  -2.4790  -2.4637
    -2.3600  -2.3324  -2.2458  -2.2075  -2.1686  -2.0101  -1.9672  -1.9314
    -1.9111  -1.7492  -1.7187  -1.6234  -1.5910  -1.5499  -1.4381  -1.4213
    -1.3188  -1.3116  -1.2791  -1.2105  -1.1768  -1.1247  -1.1138  -1.0424
    -1.0129  -0.9830  -0.8816  -0.8569  -0.7905  -0.7180  -0.6482  -0.5947
    -0.5629  -0.5261  -0.5092  -0.4649  -0.4374  -0.4141  -0.3901  -0.3473
    -0.2808  -0.2556  -0.2107  -0.1972  -0.0951  -0.0397   0.0343   0.0527
     0.1025   0.1229   0.1763   0.1986   0.2263   0.2650   0.3255   0.4066
     0.4652   0.5666   0.6363   0.7006   0.8677   0.8895   0.9169   0.9949
     1.1613   1.1658   1.3406   1.8472   2.2149   2.8687   2.8823   3.0681
     3.3974   3.4039   3.4732   3.5023   3.5568   3.6246   3.6409

          k = 0.0000-0.0839 0.0000 ( 17884 PWs)   bands (ev):

   -56.6391 -56.6382 -55.8477 -55.8411 -55.8347 -55.8335 -55.7712 -55.7682
   -55.6045 -55.5752 -55.4652 -55.4098 -55.3394 -55.3392 -55.0630 -54.8074
   -32.9208 -32.9196 -32.9037 -32.9032 -32.7827 -32.7819 -32.1549 -32.1508
   -32.1458 -32.1444 -32.1417 -32.1394 -32.0974 -32.0958 -32.0760 -32.0747
   -32.0360 -32.0286 -32.0264 -32.0230 -31.9967 -31.9943 -31.9757 -31.9707
   -31.9448 -31.9275 -31.8876 -31.8672 -31.8073 -31.8041 -31.7800 -31.7528
   -31.6942 -31.6802 -31.6801 -31.6448 -31.6401 -31.5950 -31.5665 -31.5663
   -31.5274 -31.5273 -31.4086 -31.3155 -31.2778 -31.1783 -31.0728 -31.0029
   -18.0714 -16.4264 -16.4252 -16.0729 -16.0666 -15.9472 -15.9436 -15.8333
   -15.8332 -15.8127 -15.8111 -15.5892 -15.5806 -15.5584 -15.5505 -15.4680
   -15.4612 -15.4396 -15.4247 -15.2755 -15.2610 -15.0538 -15.0344 -14.9767
   -14.9612 -14.8811 -14.8039 -14.7220 -14.5941 -14.4818 -13.8484 -13.8483
   -12.1027  -6.5570  -4.5126  -4.3535  -3.7709  -3.7709  -3.3856  -3.3756
    -3.2907  -3.2902  -3.2805  -3.2611  -3.2592  -3.2124  -3.2071  -3.1032
    -3.0784  -2.9545  -2.9371  -2.9345  -2.9209  -2.9011  -2.8947  -2.8690
    -2.8619  -2.7050  -2.6941  -2.5773  -2.5526  -2.4612  -2.3966  -2.3864
    -2.3446  -2.3236  -2.1787  -2.1305  -2.0364  -2.0048  -1.9945  -1.9876
    -1.9771  -1.9019  -1.8392  -1.7032  -1.6978  -1.4876  -1.4611  -1.4258
    -1.3156  -1.3125  -1.2608  -1.2427  -1.1548  -1.1112  -1.0765  -1.0389
    -0.9283  -0.9168  -0.8427  -0.8305  -0.8082  -0.7759  -0.6705  -0.6283
    -0.6038  -0.5501  -0.5452  -0.5075  -0.4829  -0.3794  -0.3637  -0.3140
    -0.2377  -0.2248  -0.1807  -0.1507  -0.1327  -0.0718  -0.0470  -0.0156
     0.0202   0.0608   0.0912   0.1293   0.1411   0.1632   0.2131   0.2424
     0.2997   0.4230   0.4818   0.8331   0.8465   0.9892   1.0258   1.0268
     1.0523   1.1252   1.1340   1.8009   2.1495   3.1077   3.1087   3.2485
     3.2491   3.3166   3.3171   3.6499   3.6576   3.6854   3.7030

          k = 0.0380 0.0000 0.0000 ( 17913 PWs)   bands (ev):

   -56.6555 -56.6218 -55.8614 -55.8511 -55.8267 -55.8178 -55.7875 -55.7519
   -55.6126 -55.5670 -55.4702 -55.4049 -55.3563 -55.3223 -55.0641 -54.8063
   -33.0888 -32.9344 -32.9063 -32.8260 -32.7363 -32.7133 -32.3383 -32.3339
   -32.3260 -32.1274 -32.1177 -32.0794 -32.0754 -32.0592 -32.0582 -32.0298
   -32.0229 -31.9997 -31.9985 -31.9906 -31.9886 -31.9711 -31.9632 -31.9531
   -31.9528 -31.9242 -31.9231 -31.9212 -31.8425 -31.7521 -31.7507 -31.7253
   -31.6951 -31.6722 -31.6667 -31.6454 -31.6287 -31.5949 -31.5731 -31.5690
   -31.4850 -31.4848 -31.3739 -31.3263 -31.2763 -31.1583 -31.0486 -30.9542
   -18.0799 -16.7472 -16.4401 -16.2166 -16.1948 -16.0846 -15.9017 -15.8774
   -15.8018 -15.7966 -15.7545 -15.7367 -15.6195 -15.6168 -15.6149 -15.3778
   -15.3760 -15.3430 -15.2877 -15.1881 -15.1819 -15.1192 -15.0241 -14.9608
   -14.9465 -14.8321 -14.7700 -14.6760 -14.5583 -14.3300 -13.8529 -13.7445
   -12.0968  -6.5653  -4.5189  -4.3816  -4.1227  -3.8708  -3.6693  -3.5792
    -3.5526  -3.4677  -3.4390  -3.3893  -3.3032  -3.2738  -3.1900  -3.1231
    -3.0928  -3.0426  -2.9257  -2.9056  -2.8067  -2.7557  -2.6999  -2.6568
    -2.6011  -2.5552  -2.4891  -2.4844  -2.4319  -2.4288  -2.2547  -2.2421
    -2.1982  -2.1670  -2.1453  -2.0585  -2.0019  -1.9731  -1.9588  -1.9295
    -1.9100  -1.8688  -1.8476  -1.7973  -1.6784  -1.5771  -1.5640  -1.5526
    -1.4536  -1.4146  -1.3280  -1.2649  -1.2509  -1.2060  -1.1554  -1.1202
    -1.1119  -1.0592  -0.9358  -0.9197  -0.7908  -0.7475  -0.7277  -0.6679
    -0.6602  -0.6137  -0.5883  -0.5505  -0.5002  -0.4328  -0.3250  -0.3077
    -0.2553  -0.2053  -0.1648  -0.1261  -0.0824  -0.0077  -0.0043   0.0379
     0.0571   0.1064   0.2086   0.2678   0.3677   0.4051   0.4419   0.5453
     0.5603   0.6399   0.6763   0.6876   0.7116   0.7780   0.8575   0.8802
     1.1132   1.1700   1.3207   1.8675   2.2546   2.7441   2.7830   3.0630
     3.2155   3.2836   3.5127   3.6011   3.6165   3.6668   3.7098

          k = 0.0380 0.0419 0.0000 ( 17878 PWs)   bands (ev):

   -56.6505 -56.6268 -55.8565 -55.8462 -55.8315 -55.8227 -55.7823 -55.7571
   -55.6089 -55.5706 -55.4678 -55.4072 -55.3513 -55.3273 -55.0635 -54.8068
   -33.0353 -32.9301 -32.9103 -32.8130 -32.7696 -32.7497 -32.2855 -32.2776
   -32.2737 -32.1157 -32.1081 -32.0638 -32.0636 -32.0501 -32.0448 -32.0296
   -32.0249 -32.0157 -32.0039 -32.0013 -31.9994 -31.9937 -31.9900 -31.9822
   -31.9727 -31.9428 -31.9191 -31.8950 -31.8301 -31.7693 -31.7268 -31.7183
   -31.6977 -31.6908 -31.6709 -31.6436 -31.6390 -31.6277 -31.5933 -31.5568
   -31.4974 -31.4512 -31.4308 -31.3234 -31.2749 -31.1655 -31.0578 -30.9803
   -18.0755 -16.6316 -16.3166 -16.1792 -16.1297 -16.0124 -15.9719 -15.8083
   -15.8011 -15.7811 -15.7470 -15.6749 -15.6517 -15.6100 -15.5753 -15.5035
   -15.3851 -15.2976 -15.2864 -15.2573 -15.2314 -15.1157 -15.0776 -15.0551
   -14.9875 -14.8206 -14.7988 -14.6910 -14.5769 -14.3941 -13.8605 -13.7859
   -12.0998  -6.5613  -4.5144  -4.3659  -3.9452  -3.6957  -3.5203  -3.4156
    -3.4035  -3.3546  -3.3387  -3.2338  -3.1667  -3.1086  -3.0982  -3.0675
    -3.0398  -2.9625  -2.9547  -2.9163  -2.8852  -2.8024  -2.7830  -2.7237
    -2.6959  -2.6331  -2.5803  -2.5184  -2.4772  -2.4425  -2.4207  -2.3883
    -2.3463  -2.2924  -2.2418  -2.1711  -2.1381  -2.1051  -2.0130  -1.9329
    -1.8030  -1.7143  -1.6784  -1.6494  -1.6411  -1.5577  -1.5257  -1.4459
    -1.3956  -1.3568  -1.3211  -1.2628  -1.2279  -1.1914  -1.1768  -1.0852
    -1.0570  -0.9935  -0.9568  -0.9374  -0.8747  -0.8168  -0.7543  -0.7130
    -0.6798  -0.6493  -0.6247  -0.5758  -0.5163  -0.5040  -0.4538  -0.3925
    -0.3443  -0.3081  -0.2751  -0.1977  -0.1559  -0.1051  -0.0143   0.0064
     0.0646   0.0891   0.1333   0.2087   0.2371   0.2819   0.3083   0.4111
     0.4897   0.5383   0.6522   0.7153   0.7951   0.8479   0.9170   1.0106
     1.0900   1.1467   1.2615   1.8613   2.2006   2.8608   3.0218   3.1158
     3.2639   3.4254   3.5191   3.5865   3.6084   3.6369   3.7433

          k = 0.0380-0.0839 0.0000 ( 17916 PWs)   bands (ev):

   -56.6391 -56.6382 -55.8475 -55.8407 -55.8350 -55.8338 -55.7713 -55.7682
   -55.6045 -55.5752 -55.4652 -55.4098 -55.3394 -55.3393 -55.0630 -54.8074
   -32.9208 -32.9197 -32.9044 -32.9038 -32.7820 -32.7812 -32.1601 -32.1572
   -32.1487 -32.1445 -32.1418 -32.1416 -32.0775 -32.0766 -32.0756 -32.0746
   -32.0361 -32.0286 -32.0266 -32.0231 -32.0086 -32.0062 -31.9754 -31.9706
   -31.9449 -31.9278 -31.8881 -31.8678 -31.8062 -31.8005 -31.7788 -31.7510
   -31.6973 -31.6809 -31.6808 -31.6480 -31.6402 -31.5950 -31.5665 -31.5663
   -31.5274 -31.5273 -31.4088 -31.3164 -31.2778 -31.1787 -31.0728 -31.0030
   -18.0712 -16.3576 -16.3560 -16.0312 -16.0257 -15.9912 -15.9897 -15.8826
   -15.8815 -15.7815 -15.7797 -15.5645 -15.5615 -15.5322 -15.5239 -15.4535
   -15.4437 -15.4204 -15.4045 -15.3226 -15.3094 -15.1286 -15.1135 -15.0547
   -15.0309 -14.8541 -14.7833 -14.7148 -14.5908 -14.4794 -13.8483 -13.8482
   -12.1027  -6.5560  -4.5119  -4.3515  -3.5604  -3.5591  -3.2932  -3.2852
    -3.2600  -3.2383  -3.2299  -3.1888  -3.1880  -3.1414  -3.1359  -2.9375
    -2.9285  -2.9038  -2.8951  -2.8606  -2.8552  -2.8018  -2.7890  -2.7680
    -2.7184  -2.7001  -2.6732  -2.5883  -2.5775  -2.4309  -2.3797  -2.3484
    -2.2909  -2.2536  -2.2083  -2.2009  -2.1362  -2.0793  -2.0667  -2.0359
    -1.9695  -1.8184  -1.8071  -1.7139  -1.6990  -1.5848  -1.5628  -1.5355
    -1.5218  -1.4589  -1.3536  -1.3288  -1.2583  -1.2039  -1.1080  -1.0725
    -1.0599  -1.0291  -0.9914  -0.9639  -0.8644  -0.8415  -0.7701  -0.7511
    -0.7421  -0.7165  -0.6840  -0.5899  -0.5073  -0.4616  -0.4147  -0.3900
    -0.3264  -0.2964  -0.2584  -0.2368  -0.2084  -0.1891  -0.1734  -0.1486
    -0.1037   0.0320   0.0679   0.1149   0.2713   0.2897   0.3269   0.3599
     0.4302   0.5499   0.6066   0.8278   0.8356   1.0091   1.0161   1.0391
     1.0422   1.1060   1.1142   1.8330   2.1319   3.1109   3.1123   3.2783
     3.2800   3.4864   3.4872   3.6211   3.6299   3.6862   3.6958

          k = 0.0380-0.0419 0.0000 ( 17876 PWs)   bands (ev):

   -56.6505 -56.6267 -55.8565 -55.8462 -55.8315 -55.8227 -55.7823 -55.7571
   -55.6089 -55.5706 -55.4678 -55.4072 -55.3513 -55.3273 -55.0635 -54.8068
   -33.0352 -32.9301 -32.9103 -32.8130 -32.7696 -32.7497 -32.2855 -32.2775
   -32.2736 -32.1157 -32.1081 -32.0638 -32.0636 -32.0501 -32.0448 -32.0295
   -32.0249 -32.0157 -32.0041 -32.0009 -31.9996 -31.9937 -31.9899 -31.9821
   -31.9729 -31.9428 -31.9191 -31.8950 -31.8301 -31.7692 -31.7270 -31.7182
   -31.6977 -31.6909 -31.6709 -31.6436 -31.6391 -31.6277 -31.5933 -31.5568
   -31.4974 -31.4506 -31.4308 -31.3237 -31.2749 -31.1657 -31.0578 -30.9801
   -18.0755 -16.6314 -16.3165 -16.1800 -16.1295 -16.0122 -15.9715 -15.8078
   -15.8007 -15.7811 -15.7457 -15.6757 -15.6508 -15.6100 -15.5758 -15.5038
   -15.3842 -15.3033 -15.2935 -15.2567 -15.2317 -15.1179 -15.0764 -15.0394
   -14.9846 -14.8315 -14.7922 -14.6937 -14.5771 -14.3948 -13.8605 -13.7859
   -12.0996  -6.5598  -4.5176  -4.3637  -3.9446  -3.6955  -3.5216  -3.4164
    -3.4015  -3.3404  -3.3284  -3.2310  -3.1633  -3.1082  -3.0986  -3.0738
    -3.0446  -2.9827  -2.9539  -2.9148  -2.8845  -2.8064  -2.7783  -2.7246
    -2.6874  -2.6322  -2.5845  -2.5219  -2.4986  -2.4639  -2.4339  -2.3842
    -2.3623  -2.3166  -2.2036  -2.1608  -2.1352  -2.0466  -2.0030  -1.9333
    -1.7963  -1.7275  -1.7001  -1.6523  -1.6424  -1.5550  -1.5069  -1.4579
    -1.3858  -1.3585  -1.3281  -1.2564  -1.2062  -1.1932  -1.1768  -1.0914
    -1.0656  -1.0074  -0.9757  -0.9239  -0.8472  -0.8270  -0.7794  -0.7204
    -0.6954  -0.6586  -0.6234  -0.5979  -0.5496  -0.4894  -0.4658  -0.4149
    -0.3244  -0.3013  -0.2645  -0.2267  -0.1145  -0.0672  -0.0364  -0.0009
     0.0547   0.0853   0.1643   0.2094   0.2382   0.2791   0.2967   0.4220
     0.4829   0.5832   0.6838   0.7096   0.8069   0.8579   0.9163   1.0115
     1.0896   1.1472   1.2574   1.8341   2.2004   2.8614   3.0220   3.1159
     3.2628   3.4253   3.5198   3.5827   3.6066   3.6360   3.7362

          k =-0.0760-0.0000 0.0000 ( 17886 PWs)   bands (ev):

   -56.6554 -56.6218 -55.8608 -55.8517 -55.8266 -55.8178 -55.7874 -55.7519
   -55.6126 -55.5670 -55.4702 -55.4049 -55.3562 -55.3223 -55.0640 -54.8063
   -33.0895 -32.9343 -32.9062 -32.8239 -32.7366 -32.7133 -32.3423 -32.3340
   -32.3265 -32.1178 -32.0908 -32.0803 -32.0753 -32.0617 -32.0588 -32.0573
   -32.0219 -32.0106 -32.0022 -31.9900 -31.9824 -31.9713 -31.9591 -31.9569
   -31.9528 -31.9241 -31.9230 -31.9073 -31.8396 -31.7526 -31.7504 -31.7333
   -31.6975 -31.6721 -31.6656 -31.6452 -31.6290 -31.5947 -31.5731 -31.5690
   -31.4849 -31.4843 -31.3740 -31.3281 -31.2762 -31.1584 -31.0486 -30.9543
   -18.0793 -16.5817 -16.3940 -16.2778 -16.1696 -16.1503 -15.8990 -15.8978
   -15.7975 -15.7638 -15.7550 -15.7156 -15.6507 -15.6193 -15.5943 -15.4535
   -15.3765 -15.3500 -15.3065 -15.2915 -15.2528 -15.0970 -15.0440 -14.9739
   -14.8763 -14.8326 -14.7668 -14.6676 -14.5569 -14.3293 -13.8502 -13.7441
   -12.0966  -6.5646  -4.5154  -4.3713  -3.8479  -3.7365  -3.7316  -3.6345
    -3.4442  -3.4025  -3.3868  -3.3464  -3.2927  -3.2317  -3.0720  -3.0494
    -3.0101  -2.9819  -2.9483  -2.7655  -2.7173  -2.6259  -2.6144  -2.6034
    -2.5537  -2.5441  -2.5186  -2.4941  -2.4169  -2.3871  -2.2848  -2.2747
    -2.2233  -2.1650  -2.0711  -2.0636  -2.0530  -1.9650  -1.9552  -1.9475
    -1.8730  -1.8642  -1.8104  -1.7597  -1.7349  -1.6537  -1.5933  -1.5452
    -1.5104  -1.4877  -1.4449  -1.4154  -1.3473  -1.2026  -1.1485  -1.1273
    -1.0751  -1.0635  -1.0081  -0.9828  -0.9096  -0.8777  -0.7941  -0.7545
    -0.6898  -0.6639  -0.6189  -0.5737  -0.5588  -0.5480  -0.4705  -0.4441
    -0.2803  -0.2309  -0.2094  -0.1427  -0.1157  -0.0900   0.0548   0.0775
     0.0958   0.2051   0.2373   0.3192   0.3257   0.3436   0.4066   0.4762
     0.4907   0.5887   0.6603   0.6778   0.7032   0.7899   0.8410   0.8551
     0.9837   1.1072   1.1138   1.8346   2.2468   2.7355   2.8706   2.9593
     3.0621   3.3686   3.3760   3.6275   3.6450   3.6768   3.7110

          k =-0.0760 0.0419 0.0000 ( 17914 PWs)   bands (ev):

   -56.6505 -56.6268 -55.8560 -55.8467 -55.8314 -55.8228 -55.7823 -55.7571
   -55.6090 -55.5707 -55.4678 -55.4073 -55.3513 -55.3273 -55.0635 -54.8068
   -33.0361 -32.9302 -32.9103 -32.8115 -32.7699 -32.7496 -32.2898 -32.2778
   -32.2744 -32.1089 -32.0794 -32.0658 -32.0637 -32.0631 -32.0502 -32.0262
   -32.0255 -32.0152 -32.0134 -32.0059 -32.0008 -31.9930 -31.9904 -31.9843
   -31.9762 -31.9429 -31.9191 -31.8827 -31.8279 -31.7693 -31.7272 -31.7248
   -31.6975 -31.6930 -31.6702 -31.6436 -31.6401 -31.6277 -31.5933 -31.5568
   -31.4975 -31.4506 -31.4309 -31.3251 -31.2749 -31.1659 -31.0578 -30.9804
   -18.0751 -16.4691 -16.2851 -16.2338 -16.1160 -16.0719 -15.9670 -15.8542
   -15.7798 -15.7446 -15.6735 -15.6692 -15.6513 -15.6423 -15.5696 -15.5145
   -15.3737 -15.3583 -15.3338 -15.2681 -15.2394 -15.1917 -15.0925 -15.0501
   -15.0398 -14.8141 -14.7813 -14.6860 -14.5749 -14.3943 -13.8586 -13.7862
   -12.0996  -6.5597  -4.5144  -4.3585  -3.6797  -3.5256  -3.4955  -3.4308
    -3.3447  -3.2479  -3.2351  -3.1530  -3.1019  -3.0958  -3.0663  -3.0377
    -2.9029  -2.8792  -2.8617  -2.8290  -2.8051  -2.7945  -2.7642  -2.7377
    -2.6807  -2.5758  -2.5072  -2.4712  -2.4477  -2.4354  -2.3448  -2.3069
    -2.2659  -2.2529  -2.2378  -2.1408  -2.1162  -2.0593  -2.0027  -1.9568
    -1.8527  -1.7683  -1.7469  -1.7029  -1.6933  -1.6405  -1.5262  -1.4476
    -1.4279  -1.4127  -1.3869  -1.3760  -1.3547  -1.2920  -1.2491  -1.2011
    -1.1391  -1.0486  -1.0408  -0.9958  -0.9524  -0.9307  -0.8921  -0.8521
    -0.8183  -0.7972  -0.7173  -0.6744  -0.6396  -0.5948  -0.5250  -0.5039
    -0.4228  -0.3724  -0.3432  -0.3095  -0.2242  -0.1660  -0.1292   0.0125
     0.1014   0.1291   0.1841   0.2054   0.2512   0.3844   0.4448   0.4818
     0.5450   0.6275   0.6741   0.7096   0.7624   0.8398   0.9334   0.9879
     1.0235   1.1361   1.1510   1.8521   2.1868   2.8707   3.0400   3.0575
     3.1611   3.5272   3.5370   3.6027   3.6670   3.6682   3.7260

          k =-0.0760-0.0839 0.0000 ( 17948 PWs)   bands (ev):

   -56.6391 -56.6383 -55.8473 -55.8402 -55.8354 -55.8342 -55.7713 -55.7682
   -55.6045 -55.5752 -55.4653 -55.4099 -55.3394 -55.3393 -55.0630 -54.8074
   -32.9209 -32.9197 -32.9050 -32.9044 -32.7811 -32.7803 -32.1641 -32.1617
   -32.1509 -32.1447 -32.1435 -32.1420 -32.0761 -32.0748 -32.0460 -32.0452
   -32.0368 -32.0346 -32.0315 -32.0282 -32.0263 -32.0229 -31.9754 -31.9701
   -31.9450 -31.9282 -31.8886 -31.8684 -31.8052 -31.7967 -31.7776 -31.7490
   -31.7007 -31.6816 -31.6814 -31.6513 -31.6402 -31.5951 -31.5665 -31.5663
   -31.5274 -31.5273 -31.4089 -31.3173 -31.2778 -31.1791 -31.0728 -31.0032
   -18.0710 -16.2025 -16.1989 -16.1620 -16.1614 -15.9548 -15.9502 -15.9069
   -15.9015 -15.7686 -15.7626 -15.5375 -15.5369 -15.5185 -15.5039 -15.4220
   -15.4100 -15.3894 -15.3776 -15.3494 -15.3337 -15.2185 -15.2023 -15.1624
   -15.1215 -14.8381 -14.7693 -14.7098 -14.5881 -14.4772 -13.8481 -13.8480
   -12.1027  -6.5549  -4.5114  -4.3498  -3.3311  -3.3271  -3.2574  -3.2508
    -3.2468  -3.1996  -3.1974  -3.0250  -3.0242  -3.0229  -3.0219  -2.8457
    -2.8445  -2.8260  -2.8103  -2.7032  -2.6878  -2.6706  -2.6524  -2.5995
    -2.5796  -2.5382  -2.5331  -2.5243  -2.5046  -2.4801  -2.4241  -2.4209
    -2.3618  -2.3375  -2.2369  -2.1938  -2.1920  -2.1670  -2.1321  -2.0504
    -2.0142  -1.8628  -1.8554  -1.7893  -1.7886  -1.6906  -1.6316  -1.5976
    -1.5385  -1.4998  -1.4899  -1.4410  -1.3548  -1.3425  -1.2681  -1.2546
    -1.2323  -1.1205  -1.0970  -1.0392  -0.9620  -0.9248  -0.8719  -0.8652
    -0.8480  -0.8344  -0.8011  -0.7443  -0.6752  -0.6431  -0.5900  -0.5526
    -0.5196  -0.4584  -0.3897  -0.3269  -0.2319  -0.1807  -0.1742  -0.1217
    -0.1078   0.0783   0.0876   0.1632   0.3292   0.4064   0.4953   0.5150
     0.5808   0.7180   0.7379   0.7485   0.7841   0.9733   1.0200   1.0697
     1.0701   1.0722   1.0927   1.8665   2.1149   3.1727   3.1735   3.2371
     3.2378   3.5596   3.5635   3.6687   3.6743   3.6896   3.6939

     the Fermi energy is     2.4866 ev

!    total energy              =   -2937.87526344 Ry
     estimated scf accuracy    <       0.00000005 Ry
     smearing contrib. (-TS)   =      -0.00676192 Ry
     internal energy E=F+TS    =   -2937.86850152 Ry

     The total energy is F=E-TS. E is the sum of the following terms:
     one-electron contribution =  -24392.19461866 Ry
     hartree contribution      =   12283.07217283 Ry
     xc contribution           =    -484.37935364 Ry
     ewald contribution        =    9655.63301910 Ry
     electric field correction =       0.00027884 Ry

     convergence has been achieved in  81 iterations

     Forces acting on atoms (cartesian axes, Ry/au):

     atom    1 type  1   force =    -0.00001296   -0.00038343    0.12098903
     atom    2 type  1   force =    -0.00006433   -0.00059144   -0.16250941
     atom    3 type  2   force =     0.00018810   -0.00020723   -0.06346763
     atom    4 type  2   force =    -0.00005831   -0.00047287    0.03040530
     atom    5 type  2   force =    -0.01676252    0.00081790   -0.00762507
     atom    6 type  2   force =     0.01808966    0.00143543   -0.00863073
     atom    7 type  1   force =     0.00079758   -0.00400629    0.01554151
     atom    8 type  1   force =    -0.00025767    0.00469662    0.10601376
     atom    9 type  2   force =    -0.00027403   -0.00003648    0.00039224
     atom   10 type  2   force =    -0.00274790    0.00065073   -0.06147548
     atom   11 type  2   force =     0.00055010    0.00022382   -0.00016001
     atom   12 type  2   force =    -0.00024593    0.00013154   -0.00025517
     atom   13 type  1   force =     0.00028951   -0.00007620    0.00060327
     atom   14 type  1   force =    -0.00004116    0.00050494    0.00048934
     atom   15 type  2   force =     0.00008605    0.00054454    0.00001323
     atom   16 type  2   force =     0.00008706   -0.00019950   -0.00063175
     atom   17 type  2   force =     0.00027228    0.00011229    0.00010178
     atom   18 type  2   force =    -0.00021565    0.00024286    0.00004119
     atom   19 type  1   force =     0.00026060   -0.00012848    0.00018798
     atom   20 type  1   force =    -0.00018021   -0.00134007   -0.00107530
     atom   21 type  2   force =     0.00005468    0.00005378    0.10007650
     atom   22 type  2   force =    -0.00023764    0.00088478   -0.00046656
     atom   23 type  2   force =    -0.07806859    0.00003747   -0.03199124
     atom   24 type  2   force =     0.07793816    0.00045552   -0.03199388
     atom   25 type  1   force =     0.00008347   -0.00039328    0.12058197
     atom   26 type  1   force =    -0.00010693   -0.00034863   -0.16266033
     atom   27 type  2   force =     0.00029529   -0.00046129   -0.06254407
     atom   28 type  2   force =    -0.00002912   -0.00027668    0.03026253
     atom   29 type  2   force =    -0.01725193    0.00115088   -0.00754633
     atom   30 type  2   force =     0.01853372    0.00141199   -0.00851652
     atom   31 type  1   force =     0.00072677   -0.00087621    0.01500606
     atom   32 type  1   force =    -0.00023460   -0.00735280    0.10674972
     atom   33 type  2   force =     0.00011275    0.00048394    0.00044127
     atom   34 type  2   force =    -0.00267530   -0.00007083   -0.07489359
     atom   35 type  2   force =     0.00065922   -0.00004226   -0.00001261
     atom   36 type  2   force =    -0.00051236    0.00022778   -0.00013283
     atom   37 type  1   force =    -0.00016365    0.00061230    0.00070446
     atom   38 type  1   force =    -0.00019362    0.00050456    0.00050842
     atom   39 type  2   force =    -0.00011112   -0.00003531   -0.00013598
     atom   40 type  2   force =     0.00015175    0.00002794   -0.00017358
     atom   41 type  2   force =    -0.00023810   -0.00046741    0.00058479
     atom   42 type  2   force =     0.00080376   -0.00006978   -0.00062561
     atom   43 type  1   force =    -0.00025174   -0.00057585    0.00016318
     atom   44 type  1   force =    -0.00015021    0.00091164   -0.00201149
     atom   45 type  2   force =     0.00004874    0.00004489    0.10009894
     atom   46 type  2   force =    -0.07806320    0.00009015   -0.03195550
     atom   47 type  2   force =     0.07794147    0.00053420   -0.03197128
     atom   48 type  3   force =     0.01200919    0.00070117    0.02348575
     atom   49 type  4   force =    -0.00500725    0.00408816   -0.01395283
     atom   50 type  5   force =     0.00024305    0.00123470   -0.00101636
     atom   51 type  5   force =    -0.00098642    0.00068729    0.00009118
     atom   52 type  3   force =    -0.00508051   -0.00509152   -0.00510227

     Total force =     0.418854     Total SCF correction =     0.000610
  @ DRIVER MODE: Message from server: STATUS
  @ DRIVER MODE: Message from server: GETFORCE
  @ DRIVER MODE: Returning v,forces,stress,ensemble 

     Writing output data file ./calc.save/
  @ DRIVER MODE: Message from server: EXIT
  @ DRIVE MODE: Exiting  
 
     init_run     :     18.60s CPU     18.97s WALL (       1 calls)
     electrons    :   1977.10s CPU   2036.58s WALL (       1 calls)
     forces       :      4.03s CPU      4.22s WALL (       1 calls)

     Called by init_run:
     wfcinit      :      8.45s CPU      8.55s WALL (       1 calls)
     potinit      :      9.10s CPU      9.21s WALL (       1 calls)
     hinit0       :      0.49s CPU      0.50s WALL (       1 calls)

     Called by electrons:
     c_bands      :   1620.10s CPU   1654.16s WALL (      81 calls)
     sum_band     :    240.90s CPU    253.43s WALL (      81 calls)
     v_of_rho     :     85.03s CPU     88.54s WALL (      82 calls)
     newd         :     34.69s CPU     44.05s WALL (      82 calls)
     mix_rho      :      3.89s CPU      3.96s WALL (      81 calls)
     vdW_kernel   :      7.70s CPU      7.72s WALL (       1 calls)

     Called by c_bands:
     init_us_2    :     12.93s CPU     13.06s WALL (    1640 calls)
     cegterg      :   1582.71s CPU   1615.86s WALL (     814 calls)

     Called by *egterg:
     cdiaghg      :    167.37s CPU    169.76s WALL (    5772 calls)
     h_psi        :    927.51s CPU    947.33s WALL (    5782 calls)
     s_psi        :    117.62s CPU    118.88s WALL (    5782 calls)
     g_psi        :      3.20s CPU      3.23s WALL (    4958 calls)

     Called by h_psi:
     h_psi:calbec :    114.78s CPU    116.96s WALL (    5782 calls)
     vloc_psi     :    691.34s CPU    701.91s WALL (    5782 calls)
     add_vuspsi   :    116.45s CPU    119.65s WALL (    5782 calls)

     General routines
     calbec       :    157.25s CPU    159.83s WALL (    6632 calls)
     fft          :     48.59s CPU     49.12s WALL (    5166 calls)
     ffts         :      0.31s CPU      0.31s WALL (     163 calls)
     fftw         :    768.74s CPU    780.20s WALL ( 1018740 calls)
     interpolate  :      0.96s CPU      0.96s WALL (      82 calls)
     davcio       :      0.00s CPU      0.29s WALL (      10 calls)
 
     Parallel routines
 
     PWSCF        :  33m20.04s CPU  34m20.83s WALL

 
   This run was terminated on:  15:46:41  23Aug2021            

=------------------------------------------------------------------------------=
   JOB DONE.
=------------------------------------------------------------------------------=
