
     Program PWSCF v.6.7GPU starts on  4Aug2021 at 10: 3:27 

     This program is part of the open-source Quantum ESPRESSO suite
     for quantum simulation of materials; please cite
         "P. Giannozzi et al., J. Phys.:Condens. Matter 21 395502 (2009);
         "P. Giannozzi et al., J. Phys.:Condens. Matter 29 465901 (2017);
         "P. Giannozzi et al., J. Chem. Phys. 152 154105 (2020);
          URL http://www.quantum-espresso.org", 
     in publications or presentations arising from this work. More details at
     http://www.quantum-espresso.org/quote

     Parallel version (MPI), running on    16 processors

     MPI processes distributed on     1 nodes
     R & G space division:  proc/nbgrp/npool/nimage =      16
     Reading input from /storage/home/hcoda1/3/ntian30/research/carbon/02Aug_vib_paired/reference/CH3/out_0017/pw.inp
Warning: card &CELL ignored
Warning: card   CELL_DYNAMICS='IPI', ignored
Warning: card / ignored

     Current dimensions of program PWSCF are:
     Max number of different atomic species (ntypx) = 10
     Max number of k-points (npk) =  40000
     Max angular momentum in pseudopotentials (lmaxx) =  3
     Presently no symmetry can be used with electric field

     Message from routine cell_base_init:
     DEPRECATED: use true lattice parameter, not A to a.u. conversion factor

     **************************************************************************
     Initializing libbeef V0.1.2 with the BEEF-vdW functional.
     Citation: Wellendorff et al., PRB 85, 235149 (2012).
     **************************************************************************


     IMPORTANT: XC functional enforced from input :
     Exchange-correlation= BEEF-VDW
                           (   1   4  43  14   2   0   0)
     Any further DFT definition will be discarded
     Please, verify this is what you really want


     Subspace diagonalization in iterative solution of the eigenvalue problem:
     one sub-group per band group will be used
     scalapack distributed-memory algorithm (size of sub-group:  4*  4 procs)

  @ DRIVER MODE: Connecting to 
 qe_1139763_2497141.sched-torque.pace.gatech.eduwrlm679i_scratch
  using UNIX socket
  @ DRIVER MODE: Message from server: STATUS
  @ DRIVER MODE: Message from server: INIT
  @ DRIVER MODE: Receiving replica           0          -1
  @ DRIVER MODE: Receiving encoded integer          25
  @ DRIVER MODE:  SCF:  T  FORCE:  T  STRESS:  F  VC:  F  ENSEMBLE:  F
  @ DRIVER MODE:  SCF:  T  FORCE:  T  STRESS:  F  VC:  F  ENSEMBLE:  F
 
     Parallelization info
     --------------------
     sticks:   dense  smooth     PW     G-vecs:    dense   smooth      PW
     Min         633     252     68                43495    11006    1544
     Max         634     253     69                43498    11009    1547
     Sum       10135    4043   1097               695933   176115   24717
 
     Using Slab Decomposition
 


     bravais-lattice index     =            0
     lattice parameter (alat)  =       1.8897  a.u.
     unit-cell volume          =    8174.2953 (a.u.)^3
     number of atoms/cell      =            4
     number of atomic types    =            2
     number of electrons       =         7.00
     number of Kohn-Sham states=           13
     kinetic-energy cutoff     =      29.3995  Ry
     charge density cutoff     =     293.9946  Ry
     scf convergence threshold =      7.3E-08
     mixing beta               =       0.0500
     number of iterations used =            8  plain     mixing
     Exchange-correlation= BEEF-VDW
                           (   1   4  43  14   2   0   0)

     celldm(1)=   1.889726  celldm(2)=   0.000000  celldm(3)=   0.000000
     celldm(4)=   0.000000  celldm(5)=   0.000000  celldm(6)=   0.000000

     crystal axes: (cart. coord. in units of alat)
               a(1) = (  10.933930   0.000000   0.000000 )  
               a(2) = (   0.000000  11.078410   0.000000 )  
               a(3) = (   0.000000   0.000000  10.000000 )  

     reciprocal axes: (cart. coord. in units 2 pi/alat)
               b(1) = (  0.091458  0.000000  0.000000 )  
               b(2) = (  0.000000  0.090266  0.000000 )  
               b(3) = (  0.000000  0.000000  0.100000 )  


     PseudoPot. # 1 for C  read from file:
     /storage/coda1/p-amedford6/0/shared/rich_project_chbe-medford/medford-share/data/pseudos_module/espresso/nninc/pbe/van/C.UPF
     MD5 check sum: 1a69bf6b8db32088f5b2163dbdb77a27
     Pseudo is Ultrasoft, Zval =  4.0
     Generated by new atomic code, or converted to UPF format
     Using radial grid of  721 points,  4 beta functions with: 
                l(1) =   0
                l(2) =   0
                l(3) =   1
                l(4) =   1
     Q(r) pseudized with  8 coefficients,  rinner =    0.800   0.800   0.800


     PseudoPot. # 2 for H  read from file:
     /storage/coda1/p-amedford6/0/shared/rich_project_chbe-medford/medford-share/data/pseudos_module/espresso/nninc/pbe/van/H.UPF
     MD5 check sum: b5ee9d7bfd3a09ee7748110bda690ff7
     Pseudo is Ultrasoft, Zval =  1.0
     Generated by new atomic code, or converted to UPF format
     Using radial grid of  615 points,  1 beta functions with: 
                l(1) =   0
     Q(r) pseudized with  8 coefficients,  rinner =    0.800

     atomic species   valence    mass     pseudopotential
        C1             4.00    12.01100     C ( 1.00)
        H1             1.00     1.00800     H ( 1.00)

     No symmetry found



   Cartesian axes

     site n.     atom                  positions (alat units)
         1           C1  tau(   1) = (   5.4669648   5.2696070   5.0000001  )
         2           H1  tau(   2) = (   5.4669648   6.3456259   5.0000000  )
         3           H1  tau(   3) = (   6.3988492   4.7315884   4.9900000  )
         4           H1  tau(   4) = (   4.5350812   4.7315888   5.0000000  )

     number of k points=    10  Fermi-Dirac smearing, width (Ry)=  0.0073
                       cart. coord. in units 2pi/alat
        k(    1) = (   0.0000000   0.0000000   0.0000000), wk =   0.1250000
        k(    2) = (   0.0000000   0.0225664   0.0000000), wk =   0.2500000
        k(    3) = (   0.0000000  -0.0451328   0.0000000), wk =   0.1250000
        k(    4) = (   0.0228646   0.0000000   0.0000000), wk =   0.2500000
        k(    5) = (   0.0228646   0.0225664   0.0000000), wk =   0.2500000
        k(    6) = (   0.0228646  -0.0451328   0.0000000), wk =   0.2500000
        k(    7) = (   0.0228646  -0.0225664   0.0000000), wk =   0.2500000
        k(    8) = (  -0.0457292   0.0000000   0.0000000), wk =   0.1250000
        k(    9) = (  -0.0457292   0.0225664   0.0000000), wk =   0.2500000
        k(   10) = (  -0.0457292  -0.0451328   0.0000000), wk =   0.1250000

     Dense  grid:   695933 G-vectors     FFT dimensions: ( 120, 120, 108)

     Smooth grid:   176115 G-vectors     FFT dimensions: (  72,  75,  72)

     Estimated max dynamical RAM per process >      63.63 MB

     Estimated total dynamical RAM >    1018.01 MB
     Cannot read rho : file not found

     Initial potential from superposition of free atoms

     starting charge    6.99993, renormalised to    7.00000

     negative rho (up, down):  1.551E-03 0.000E+00


     %%%%%%%%%%%%%%%%%%%%%%%%%%%%%%%%%%%%%%%%%%%%%%%%%%%%%%%%%%%%%%%%%%%%%%%%
     %                                                                      %
     % You are using vdW-DF, which was implemented by the Thonhauser group. %
     % Please cite the following two papers that made this development      %
     % possible and the two reviews that describe the various versions:     %
     %                                                                      %
     %   T. Thonhauser et al., PRL 115, 136402 (2015).                      %
     %   T. Thonhauser et al., PRB 76, 125112 (2007).                       %
     %   K. Berland et al., Rep. Prog. Phys. 78, 066501 (2015).             %
     %   D.C. Langreth et al., J. Phys.: Condens. Matter 21, 084203 (2009). %
     %                                                                      %
     %                                                                      %
     % If you are calculating the stress with vdW-DF, please also cite:     %
     %                                                                      %
     %   R. Sabatini et al., J. Phys.: Condens. Matter 24, 424209 (2012).   %
     %                                                                      %
     %%%%%%%%%%%%%%%%%%%%%%%%%%%%%%%%%%%%%%%%%%%%%%%%%%%%%%%%%%%%%%%%%%%%%%%%


 
     Adding external electric field

     Computed dipole along edir(3) : 
        Dipole               -0.0000 Ry au,         -0.0001 Debye
        Dipole field         -0.0000 Ry au, 
 
        Potential amp.        0.0000 Ry
        Total length         18.4248 bohr
 
     Starting wfcs are    7 atomic +    6 random wfcs
  @ DRIVER MODE: Message from server: STATUS
  @ DRIVER MODE: Message from server: POSDATA
  @ DRIVER MODE: Reading and sharing cell 
  @ DRIVER MODE: Reading and sharing positions 
  @ DRIVER MODE: Received positions 

     total cpu time spent up to now is       15.9 secs

     Self-consistent Calculation

     iteration #  1     ecut=    29.40 Ry     beta= 0.05
     Davidson diagonalization with overlap
     c_bands:  1 eigenvalues not converged
     ethr =  1.00E-05,  avg # of iterations = 30.9

     negative rho (up, down):  1.263E-03 0.000E+00
 
     Adding external electric field

     Computed dipole along edir(3) : 
        Dipole               -0.0002 Ry au,         -0.0006 Debye
        Dipole field         -0.0000 Ry au, 
 
        Potential amp.        0.0000 Ry
        Total length         18.4248 bohr
 

     total cpu time spent up to now is       20.2 secs

     total energy              =     -15.15625269 Ry
     estimated scf accuracy    <       0.47708280 Ry

     iteration #  2     ecut=    29.40 Ry     beta= 0.05
     Davidson diagonalization with overlap
     ethr =  6.82E-03,  avg # of iterations =  1.0

     negative rho (up, down):  2.758E-03 0.000E+00
 
     Adding external electric field

     Computed dipole along edir(3) : 
        Dipole               -0.0019 Ry au,         -0.0049 Debye
        Dipole field         -0.0000 Ry au, 
 
        Potential amp.        0.0001 Ry
        Total length         18.4248 bohr
 

     total cpu time spent up to now is       21.0 secs

     total energy              =     -14.94471411 Ry
     estimated scf accuracy    <       0.39529236 Ry

     iteration #  3     ecut=    29.40 Ry     beta= 0.05
     Davidson diagonalization with overlap
     ethr =  5.65E-03,  avg # of iterations =  2.0

     negative rho (up, down):  2.051E-03 0.000E+00
 
     Adding external electric field

     Computed dipole along edir(3) : 
        Dipole               -0.0015 Ry au,         -0.0038 Debye
        Dipole field         -0.0000 Ry au, 
 
        Potential amp.        0.0001 Ry
        Total length         18.4248 bohr
 

     total cpu time spent up to now is       21.9 secs

     total energy              =     -15.01466147 Ry
     estimated scf accuracy    <       0.03196333 Ry

     iteration #  4     ecut=    29.40 Ry     beta= 0.05
     Davidson diagonalization with overlap
     ethr =  4.57E-04,  avg # of iterations =  2.0

     negative rho (up, down):  4.250E-03 0.000E+00
 
     Adding external electric field

     Computed dipole along edir(3) : 
        Dipole               -0.0022 Ry au,         -0.0055 Debye
        Dipole field         -0.0000 Ry au, 
 
        Potential amp.        0.0001 Ry
        Total length         18.4248 bohr
 

     total cpu time spent up to now is       22.8 secs

     total energy              =     -15.00173389 Ry
     estimated scf accuracy    <       0.04487438 Ry

     iteration #  5     ecut=    29.40 Ry     beta= 0.05
     Davidson diagonalization with overlap
     ethr =  4.57E-04,  avg # of iterations =  3.5

     negative rho (up, down):  3.884E-03 0.000E+00
 
     Adding external electric field

     Computed dipole along edir(3) : 
        Dipole               -0.0022 Ry au,         -0.0056 Debye
        Dipole field         -0.0000 Ry au, 
 
        Potential amp.        0.0001 Ry
        Total length         18.4248 bohr
 

     total cpu time spent up to now is       23.7 secs

     total energy              =     -15.00588246 Ry
     estimated scf accuracy    <       0.00207461 Ry

     iteration #  6     ecut=    29.40 Ry     beta= 0.05
     Davidson diagonalization with overlap
     ethr =  2.96E-05,  avg # of iterations =  9.5

     negative rho (up, down):  3.627E-03 0.000E+00
 
     Adding external electric field

     Computed dipole along edir(3) : 
        Dipole               -0.0022 Ry au,         -0.0056 Debye
        Dipole field         -0.0000 Ry au, 
 
        Potential amp.        0.0001 Ry
        Total length         18.4248 bohr
 

     total cpu time spent up to now is       25.0 secs

     total energy              =     -15.00599467 Ry
     estimated scf accuracy    <       0.00057714 Ry

     iteration #  7     ecut=    29.40 Ry     beta= 0.05
     Davidson diagonalization with overlap
     ethr =  8.24E-06,  avg # of iterations =  5.2

     negative rho (up, down):  3.682E-03 0.000E+00
 
     Adding external electric field

     Computed dipole along edir(3) : 
        Dipole               -0.0028 Ry au,         -0.0072 Debye
        Dipole field         -0.0000 Ry au, 
 
        Potential amp.        0.0002 Ry
        Total length         18.4248 bohr
 

     total cpu time spent up to now is       25.9 secs

     total energy              =     -15.00576117 Ry
     estimated scf accuracy    <       0.00061446 Ry

     iteration #  8     ecut=    29.40 Ry     beta= 0.05
     Davidson diagonalization with overlap
     ethr =  8.24E-06,  avg # of iterations =  3.3

     negative rho (up, down):  3.613E-03 0.000E+00
 
     Adding external electric field

     Computed dipole along edir(3) : 
        Dipole               -0.0033 Ry au,         -0.0083 Debye
        Dipole field         -0.0000 Ry au, 
 
        Potential amp.        0.0002 Ry
        Total length         18.4248 bohr
 

     total cpu time spent up to now is       26.8 secs

     total energy              =     -15.00576623 Ry
     estimated scf accuracy    <       0.00007015 Ry

     iteration #  9     ecut=    29.40 Ry     beta= 0.05
     Davidson diagonalization with overlap
     ethr =  1.00E-06,  avg # of iterations =  8.3

     negative rho (up, down):  3.442E-03 0.000E+00
 
     Adding external electric field

     Computed dipole along edir(3) : 
        Dipole               -0.0032 Ry au,         -0.0082 Debye
        Dipole field         -0.0000 Ry au, 
 
        Potential amp.        0.0002 Ry
        Total length         18.4248 bohr
 

     total cpu time spent up to now is       27.9 secs

     total energy              =     -15.00577028 Ry
     estimated scf accuracy    <       0.00001665 Ry

     iteration # 10     ecut=    29.40 Ry     beta= 0.05
     Davidson diagonalization with overlap
     ethr =  2.38E-07,  avg # of iterations =  2.0

     negative rho (up, down):  3.259E-03 0.000E+00
 
     Adding external electric field

     Computed dipole along edir(3) : 
        Dipole               -0.0030 Ry au,         -0.0076 Debye
        Dipole field         -0.0000 Ry au, 
 
        Potential amp.        0.0002 Ry
        Total length         18.4248 bohr
 

     total cpu time spent up to now is       28.8 secs

     total energy              =     -15.00574399 Ry
     estimated scf accuracy    <       0.00002951 Ry

     iteration # 11     ecut=    29.40 Ry     beta= 0.05
     Davidson diagonalization with overlap
     ethr =  2.38E-07,  avg # of iterations =  2.0

     negative rho (up, down):  3.128E-03 0.000E+00
 
     Adding external electric field

     Computed dipole along edir(3) : 
        Dipole               -0.0029 Ry au,         -0.0073 Debye
        Dipole field         -0.0000 Ry au, 
 
        Potential amp.        0.0002 Ry
        Total length         18.4248 bohr
 

     total cpu time spent up to now is       29.6 secs

     total energy              =     -15.00573672 Ry
     estimated scf accuracy    <       0.00000109 Ry

     iteration # 12     ecut=    29.40 Ry     beta= 0.05
     Davidson diagonalization with overlap
     ethr =  1.55E-08,  avg # of iterations =  2.0

     negative rho (up, down):  3.010E-03 0.000E+00
 
     Adding external electric field

     Computed dipole along edir(3) : 
        Dipole               -0.0028 Ry au,         -0.0072 Debye
        Dipole field         -0.0000 Ry au, 
 
        Potential amp.        0.0002 Ry
        Total length         18.4248 bohr
 

     total cpu time spent up to now is       30.5 secs

     total energy              =     -15.00572864 Ry
     estimated scf accuracy    <       0.00000047 Ry

     iteration # 13     ecut=    29.40 Ry     beta= 0.05
     Davidson diagonalization with overlap
     ethr =  6.74E-09,  avg # of iterations =  1.0

     negative rho (up, down):  2.910E-03 0.000E+00
 
     Adding external electric field

     Computed dipole along edir(3) : 
        Dipole               -0.0029 Ry au,         -0.0074 Debye
        Dipole field         -0.0000 Ry au, 
 
        Potential amp.        0.0002 Ry
        Total length         18.4248 bohr
 

     total cpu time spent up to now is       31.3 secs

     total energy              =     -15.00572094 Ry
     estimated scf accuracy    <       0.00000043 Ry

     iteration # 14     ecut=    29.40 Ry     beta= 0.05
     Davidson diagonalization with overlap
     ethr =  6.18E-09,  avg # of iterations =  2.0

     negative rho (up, down):  2.826E-03 0.000E+00
 
     Adding external electric field

     Computed dipole along edir(3) : 
        Dipole               -0.0029 Ry au,         -0.0074 Debye
        Dipole field         -0.0000 Ry au, 
 
        Potential amp.        0.0002 Ry
        Total length         18.4248 bohr
 

     total cpu time spent up to now is       32.8 secs

     total energy              =     -15.00571532 Ry
     estimated scf accuracy    <       0.00000017 Ry

     iteration # 15     ecut=    29.40 Ry     beta= 0.05
     Davidson diagonalization with overlap
     ethr =  2.40E-09,  avg # of iterations =  2.0

     negative rho (up, down):  4.037E-03 0.000E+00
 
     Adding external electric field

     Computed dipole along edir(3) : 
        Dipole               -0.0029 Ry au,         -0.0073 Debye
        Dipole field         -0.0000 Ry au, 
 
        Potential amp.        0.0002 Ry
        Total length         18.4248 bohr
 

     total cpu time spent up to now is       33.7 secs

     End of self-consistent calculation

          k = 0.0000 0.0000 0.0000 ( 22011 PWs)   bands (ev):

   -16.8950 -10.5278 -10.5275  -4.6117  -0.8887   0.4112   0.4264   0.4419
     0.6768   0.8182   0.8517   1.4278   1.7151

          k = 0.0000 0.0226 0.0000 ( 21984 PWs)   bands (ev):

   -16.8950 -10.5278 -10.5275  -4.6117  -0.8393  -0.0023   0.4874   0.6137
     0.8486   0.9094   1.0675   1.1658   1.4085

          k = 0.0000-0.0451 0.0000 ( 22016 PWs)   bands (ev):

   -16.8949 -10.5278 -10.5276  -4.6117  -0.7719  -0.2096   0.5523   0.7541
     0.9412   0.9779   0.9869   1.0119   1.3549

          k = 0.0229 0.0000 0.0000 ( 22012 PWs)   bands (ev):

   -16.8950 -10.5278 -10.5276  -4.6117  -0.8368   0.0107   0.4619   0.6010
     0.8463   0.9115   1.0662   1.1763   1.4149

          k = 0.0229 0.0226 0.0000 ( 22012 PWs)   bands (ev):

   -16.8949 -10.5278 -10.5276  -4.6117  -0.7890   0.0252   0.1242   0.7250
     0.8445   0.9677   1.1696   1.2248   1.6079

          k = 0.0229-0.0451 0.0000 ( 22006 PWs)   bands (ev):

   -16.8949 -10.5278 -10.5276  -4.6117  -0.7246  -0.1419   0.1885   0.5015
     0.9363   1.0653   1.2740   1.3088   1.3409

          k = 0.0229-0.0226 0.0000 ( 22012 PWs)   bands (ev):

   -16.8949 -10.5278 -10.5276  -4.6117  -0.7890   0.0252   0.1242   0.7250
     0.8445   0.9677   1.1696   1.2248   1.6075

          k =-0.0457 0.0000 0.0000 ( 22036 PWs)   bands (ev):

   -16.8950 -10.5278 -10.5276  -4.6117  -0.7651  -0.2043   0.5349   0.7480
     0.9228   0.9449   0.9926   1.0189   1.3600

          k =-0.0457 0.0226 0.0000 ( 22026 PWs)   bands (ev):

   -16.8950 -10.5278 -10.5276  -4.6117  -0.7205  -0.1389   0.1837   0.4919
     0.9393   1.0703   1.2587   1.2993   1.3426

          k =-0.0457-0.0451 0.0000 ( 22032 PWs)   bands (ev):

   -16.8949 -10.5278 -10.5276  -4.6117  -0.6627  -0.0164  -0.0119   0.2296
     1.0227   1.1550   1.4387   1.4471   1.6203

     the Fermi energy is    -4.6117 ev

!    total energy              =     -15.00567031 Ry
     estimated scf accuracy    <       0.00000001 Ry
     smearing contrib. (-TS)   =      -0.01018908 Ry
     internal energy E=F+TS    =     -14.99548123 Ry

     The total energy is F=E-TS. E is the sum of the following terms:
     one-electron contribution =     -33.27628419 Ry
     hartree contribution      =      17.36471433 Ry
     xc contribution           =      -5.74854418 Ry
     ewald contribution        =       6.66463279 Ry
     electric field correction =       0.00000001 Ry

     convergence has been achieved in  15 iterations

     Forces acting on atoms (cartesian axes, Ry/au):

     atom    1 type  1   force =     0.00005494   -0.00005168   -0.00047844
     atom    2 type  2   force =     0.00000039    0.00000746    0.00015939
     atom    3 type  2   force =    -0.00004911    0.00003787    0.00015985
     atom    4 type  2   force =    -0.00000622    0.00000635    0.00015919

     Total force =     0.000561     Total SCF correction =     0.000148
     SCF correction compared to forces is large: reduce conv_thr to get better values
  @ DRIVER MODE: Message from server: STATUS
  @ DRIVER MODE: Message from server: GETFORCE
  @ DRIVER MODE: Returning v,forces,stress,ensemble 

     Writing output data file ./calc.save/
  @ DRIVER MODE: Message from server: EXIT
  @ DRIVE MODE: Exiting  
 
     init_run     :     10.97s CPU     13.40s WALL (       1 calls)
     electrons    :     16.84s CPU     17.81s WALL (       1 calls)
     forces       :      1.36s CPU      1.36s WALL (       1 calls)

     Called by init_run:
     wfcinit      :      4.33s CPU      4.36s WALL (       1 calls)
     potinit      :      5.81s CPU      7.52s WALL (       1 calls)
     hinit0       :      0.23s CPU      0.36s WALL (       1 calls)

     Called by electrons:
     c_bands      :      8.48s CPU      8.60s WALL (      15 calls)
     sum_band     :      1.35s CPU      1.36s WALL (      15 calls)
     v_of_rho     :     11.69s CPU     13.99s WALL (      16 calls)
     newd         :      0.51s CPU      0.70s WALL (      16 calls)
     mix_rho      :      0.25s CPU      0.25s WALL (      15 calls)
     vdW_kernel   :      4.45s CPU      6.12s WALL (       1 calls)

     Called by c_bands:
     init_us_2    :      0.06s CPU      0.07s WALL (     320 calls)
     cegterg      :      8.38s CPU      8.45s WALL (     160 calls)

     Called by *egterg:
     cdiaghg      :      3.06s CPU      3.08s WALL (     917 calls)
     h_psi        :      6.81s CPU      6.87s WALL (     937 calls)
     s_psi        :      0.03s CPU      0.03s WALL (     937 calls)
     g_psi        :      0.03s CPU      0.03s WALL (     767 calls)

     Called by h_psi:
     h_psi:calbec :      0.21s CPU      0.21s WALL (     937 calls)
     vloc_psi     :      6.53s CPU      6.58s WALL (     937 calls)
     add_vuspsi   :      0.04s CPU      0.04s WALL (     937 calls)

     General routines
     calbec       :      1.26s CPU      1.26s WALL (    1127 calls)
     fft          :      4.78s CPU      5.01s WALL (    1008 calls)
     ffts         :      0.03s CPU      0.03s WALL (      31 calls)
     fftw         :      6.92s CPU      6.98s WALL (   16220 calls)
     interpolate  :      0.11s CPU      0.12s WALL (      16 calls)
     davcio       :      0.00s CPU      0.01s WALL (      10 calls)
 
     Parallel routines
 
     PWSCF        :     30.49s CPU     35.18s WALL

 
   This run was terminated on:  10: 4: 2   4Aug2021            

=------------------------------------------------------------------------------=
   JOB DONE.
=------------------------------------------------------------------------------=
