
     Program PWSCF v.6.7GPU starts on  2Aug2021 at 14:47:35 

     This program is part of the open-source Quantum ESPRESSO suite
     for quantum simulation of materials; please cite
         "P. Giannozzi et al., J. Phys.:Condens. Matter 21 395502 (2009);
         "P. Giannozzi et al., J. Phys.:Condens. Matter 29 465901 (2017);
         "P. Giannozzi et al., J. Chem. Phys. 152 154105 (2020);
          URL http://www.quantum-espresso.org", 
     in publications or presentations arising from this work. More details at
     http://www.quantum-espresso.org/quote

     Parallel version (MPI), running on    16 processors

     MPI processes distributed on     1 nodes
     R & G space division:  proc/nbgrp/npool/nimage =      16
     Reading input from /storage/home/hcoda1/3/ntian30/research/carbon/02Aug_vib_paired/ads_slab/CH3NH_a/out_0011/pw.inp
Warning: card &CELL ignored
Warning: card   CELL_DYNAMICS='IPI', ignored
Warning: card / ignored

     Current dimensions of program PWSCF are:
     Max number of different atomic species (ntypx) = 10
     Max number of k-points (npk) =  40000
     Max angular momentum in pseudopotentials (lmaxx) =  3
     Presently no symmetry can be used with electric field

     Message from routine cell_base_init:
     DEPRECATED: use true lattice parameter, not A to a.u. conversion factor

     **************************************************************************
     Initializing libbeef V0.1.2 with the BEEF-vdW functional.
     Citation: Wellendorff et al., PRB 85, 235149 (2012).
     **************************************************************************


     IMPORTANT: XC functional enforced from input :
     Exchange-correlation= BEEF-VDW
                           (   1   4  43  14   2   0   0)
     Any further DFT definition will be discarded
     Please, verify this is what you really want


     Subspace diagonalization in iterative solution of the eigenvalue problem:
     one sub-group per band group will be used
     scalapack distributed-memory algorithm (size of sub-group:  4*  4 procs)

  @ DRIVER MODE: Connecting to 
 qe_1139763_2482540.sched-torque.pace.gatech.edunn7le1a5_scratch
  using UNIX socket
  @ DRIVER MODE: Message from server: STATUS
  @ DRIVER MODE: Message from server: INIT
  @ DRIVER MODE: Receiving replica           0          -1
  @ DRIVER MODE: Receiving encoded integer          25
  @ DRIVER MODE:  SCF:  T  FORCE:  T  STRESS:  F  VC:  F  ENSEMBLE:  F
  @ DRIVER MODE:  SCF:  T  FORCE:  T  STRESS:  F  VC:  F  ENSEMBLE:  F
 
     Parallelization info
     --------------------
     sticks:   dense  smooth     PW     G-vecs:    dense   smooth      PW
     Min         204      82     23                35422     8962    1367
     Max         205      84     24                35435     8968    1382
     Sum        3275    1317    379               566857   143421   21985
 
     Using Slab Decomposition
 


     bravais-lattice index     =            0
     lattice parameter (alat)  =       1.8897  a.u.
     unit-cell volume          =    6658.9804 (a.u.)^3
     number of atoms/cell      =           53
     number of atomic types    =            5
     number of electrons       =       391.00
     number of Kohn-Sham states=          205
     kinetic-energy cutoff     =      29.3995  Ry
     charge density cutoff     =     293.9946  Ry
     scf convergence threshold =      7.3E-08
     mixing beta               =       0.0500
     number of iterations used =            8  plain     mixing
     Exchange-correlation= BEEF-VDW
                           (   1   4  43  14   2   0   0)

     celldm(1)=   1.889726  celldm(2)=   0.000000  celldm(3)=   0.000000
     celldm(4)=   0.000000  celldm(5)=   0.000000  celldm(6)=   0.000000

     crystal axes: (cart. coord. in units of alat)
               a(1) = (   6.579727   0.000000   0.000000 )  
               a(2) = (  -0.000775   5.961596   0.000000 )  
               a(3) = (   0.000000   0.000000  25.155947 )  

     reciprocal axes: (cart. coord. in units 2 pi/alat)
               b(1) = (  0.151982  0.000020  0.000000 )  
               b(2) = (  0.000000  0.167740  0.000000 )  
               b(3) = (  0.000000  0.000000  0.039752 )  


     PseudoPot. # 1 for Ti read from file:
     /storage/coda1/p-amedford6/0/shared/rich_project_chbe-medford/medford-share/data/pseudos_module/espresso/nninc/pbe/van/Ti.UPF
     MD5 check sum: 8e4df49b7f0d34bbd5052bf3f5ea0213
     Pseudo is Ultrasoft, Zval = 12.0
     Generated by new atomic code, or converted to UPF format
     Using radial grid of  851 points,  6 beta functions with: 
                l(1) =   0
                l(2) =   0
                l(3) =   1
                l(4) =   1
                l(5) =   2
                l(6) =   2
     Q(r) pseudized with  8 coefficients,  rinner =    1.000   1.000   1.000
                                                       1.000   1.000

     PseudoPot. # 2 for O  read from file:
     /storage/coda1/p-amedford6/0/shared/rich_project_chbe-medford/medford-share/data/pseudos_module/espresso/nninc/pbe/van/O.UPF
     MD5 check sum: 78c19812648e8988a0fe644b0f25305e
     Pseudo is Ultrasoft, Zval =  6.0
     Generated by new atomic code, or converted to UPF format
     Using radial grid of  737 points,  4 beta functions with: 
                l(1) =   0
                l(2) =   0
                l(3) =   1
                l(4) =   1
     Q(r) pseudized with  8 coefficients,  rinner =    0.800   0.800   0.800


     PseudoPot. # 3 for H  read from file:
     /storage/coda1/p-amedford6/0/shared/rich_project_chbe-medford/medford-share/data/pseudos_module/espresso/nninc/pbe/van/H.UPF
     MD5 check sum: b5ee9d7bfd3a09ee7748110bda690ff7
     Pseudo is Ultrasoft, Zval =  1.0
     Generated by new atomic code, or converted to UPF format
     Using radial grid of  615 points,  1 beta functions with: 
                l(1) =   0
     Q(r) pseudized with  8 coefficients,  rinner =    0.800

     PseudoPot. # 4 for N  read from file:
     /storage/coda1/p-amedford6/0/shared/rich_project_chbe-medford/medford-share/data/pseudos_module/espresso/nninc/pbe/van/N.UPF
     MD5 check sum: 90d10febe142ad51ac9d5be1deb811c4
     Pseudo is Ultrasoft, Zval =  5.0
     Generated by new atomic code, or converted to UPF format
     Using radial grid of  729 points,  4 beta functions with: 
                l(1) =   0
                l(2) =   0
                l(3) =   1
                l(4) =   1
     Q(r) pseudized with  8 coefficients,  rinner =    0.800   0.800   0.800


     PseudoPot. # 5 for C  read from file:
     /storage/coda1/p-amedford6/0/shared/rich_project_chbe-medford/medford-share/data/pseudos_module/espresso/nninc/pbe/van/C.UPF
     MD5 check sum: 1a69bf6b8db32088f5b2163dbdb77a27
     Pseudo is Ultrasoft, Zval =  4.0
     Generated by new atomic code, or converted to UPF format
     Using radial grid of  721 points,  4 beta functions with: 
                l(1) =   0
                l(2) =   0
                l(3) =   1
                l(4) =   1
     Q(r) pseudized with  8 coefficients,  rinner =    0.800   0.800   0.800


     atomic species   valence    mass     pseudopotential
        Ti1           12.00    47.86700     Ti( 1.00)
        O1             6.00    15.99900     O ( 1.00)
        H1             1.00     1.00800     H ( 1.00)
        N1             5.00    14.00700     N ( 1.00)
        C1             4.00    12.01100     C ( 1.00)

     No symmetry found



   Cartesian axes

     site n.     atom                  positions (alat units)
         1           Ti1 tau(   1) = (   0.0004258   2.9801865   6.0000000  )
         2           Ti1 tau(   2) = (   3.2906075   1.4906267   6.0002472  )
         3           O1  tau(   3) = (   0.0006271   0.0005054   7.9858123  )
         4           O1  tau(   4) = (   3.2906025   0.0005020   7.3038282  )
         5           O1  tau(   5) = (   4.5942328   1.4918067   9.2879030  )
         6           O1  tau(   6) = (   1.9868534   1.4903216   9.2879459  )
         7           Ti1 tau(   7) = (   3.2907910   2.8959150   9.1758416  )
         8           Ti1 tau(   8) = (   0.0015273   1.4827037   9.2680791  )
         9           O1  tau(   9) = (   3.2884659   0.0075485  11.3235732  )
        10           O1  tau(  10) = (   0.0116148   5.9584955  10.6183126  )
        11           O1  tau(  11) = (   1.3171120   1.5008813  12.6157184  )
        12           O1  tau(  12) = (   5.2946386   1.4924346  12.6071097  )
        13           Ti1 tau(  13) = (   6.5241923   2.9548932  12.6217359  )
        14           Ti1 tau(  14) = (   3.2094326   1.4975571  12.4685497  )
        15           O1  tau(  15) = (   6.5712017   0.0435206  14.6415704  )
        16           O1  tau(  16) = (   3.3105969   0.0188825  13.9167609  )
        17           O1  tau(  17) = (   4.5276945   1.5520673  16.0775932  )
        18           O1  tau(  18) = (   2.0451199   1.5488911  16.0433559  )
        19           Ti1 tau(  19) = (   3.3056363   3.0248959  15.6834923  )
        20           Ti1 tau(  20) = (   0.0598299   1.5678558  15.8702049  )
        21           O1  tau(  21) = (   3.2904802   0.0005063   4.7018136  )
        22           O1  tau(  22) = (   0.0261329   0.0581799  17.1997403  )
        23           O1  tau(  23) = (   1.3043587   1.4918075   6.0039043  )
        24           O1  tau(  24) = (   5.2767064   1.4903225   6.0039473  )
        25           Ti1 tau(  25) = (   0.0000382   5.9609847   6.0000000  )
        26           Ti1 tau(  26) = (   3.2902200   4.4714249   6.0002472  )
        27           O1  tau(  27) = (   0.0002396   2.9813036   7.9858123  )
        28           O1  tau(  28) = (   3.2902150   2.9813002   7.3038282  )
        29           O1  tau(  29) = (   4.5938453   4.4726049   9.2879030  )
        30           O1  tau(  30) = (   1.9864658   4.4711199   9.2879459  )
        31           Ti1 tau(  31) = (   3.2891106   5.8743827   9.1763621  )
        32           Ti1 tau(  32) = (   0.0006254   4.4649316   9.2693709  )
        33           O1  tau(  33) = (   3.2900467   2.9919642  11.3219399  )
        34           O1  tau(  34) = (   0.0092240   2.9805883  10.6323155  )
        35           O1  tau(  35) = (   1.3109590   4.4888342  12.6262493  )
        36           O1  tau(  36) = (   5.2962169   4.4808628  12.6191006  )
        37           Ti1 tau(  37) = (   6.5213093   5.9327278  12.5667326  )
        38           Ti1 tau(  38) = (   3.2063601   4.4772876  12.4706241  )
        39           O1  tau(  39) = (   6.5765807   2.9606619  14.6437028  )
        40           O1  tau(  40) = (   3.3047873   3.0036736  13.8926904  )
        41           O1  tau(  41) = (   4.5386289   4.5058657  16.0833063  )
        42           O1  tau(  42) = (   2.0584685   4.5123608  16.0729366  )
        43           Ti1 tau(  43) = (   3.3398093   0.0384087  15.7085799  )
        44           Ti1 tau(  44) = (   0.0478225   4.6849499  16.0879628  )
        45           O1  tau(  45) = (   3.2900926   2.9813045   4.7018136  )
        46           O1  tau(  46) = (   1.3039711   4.4726057   6.0039043  )
        47           O1  tau(  47) = (   5.2763189   4.4711207   6.0039473  )
        48           H1  tau(  48) = (   5.6109407   2.9912845  17.7881963  )
        49           N1  tau(  49) = (   6.5652763   3.0051276  17.4331066  )
        50           C1  tau(  50) = (   0.8863280   2.9891452  18.6126320  )
        51           H1  tau(  51) = (   1.3596840   3.9617220  18.7724638  )
        52           H1  tau(  52) = (   0.3315535   2.7344040  19.5171108  )
        53           H1  tau(  53) = (   1.6705027   2.2407838  18.4910999  )

     number of k points=    10  Fermi-Dirac smearing, width (Ry)=  0.0073
                       cart. coord. in units 2pi/alat
        k(    1) = (   0.0000000   0.0000000   0.0000000), wk =   0.1250000
        k(    2) = (   0.0000000   0.0419351   0.0000000), wk =   0.2500000
        k(    3) = (   0.0000000  -0.0838702   0.0000000), wk =   0.1250000
        k(    4) = (   0.0379955   0.0000049   0.0000000), wk =   0.2500000
        k(    5) = (   0.0379955   0.0419400   0.0000000), wk =   0.2500000
        k(    6) = (   0.0379955  -0.0838652   0.0000000), wk =   0.2500000
        k(    7) = (   0.0379955  -0.0419301   0.0000000), wk =   0.2500000
        k(    8) = (  -0.0759910  -0.0000099   0.0000000), wk =   0.1250000
        k(    9) = (  -0.0759910   0.0419252   0.0000000), wk =   0.2500000
        k(   10) = (  -0.0759910  -0.0838800   0.0000000), wk =   0.1250000

     Dense  grid:   566857 G-vectors     FFT dimensions: (  72,  64, 270)

     Smooth grid:   143421 G-vectors     FFT dimensions: (  45,  40, 180)

     Estimated max dynamical RAM per process >     229.32 MB

     Estimated total dynamical RAM >       3.58 GB
     Cannot read rho : file not found

     Initial potential from superposition of free atoms

     starting charge  374.99916, renormalised to  391.00000

     negative rho (up, down):  1.779E-02 0.000E+00


     %%%%%%%%%%%%%%%%%%%%%%%%%%%%%%%%%%%%%%%%%%%%%%%%%%%%%%%%%%%%%%%%%%%%%%%%
     %                                                                      %
     % You are using vdW-DF, which was implemented by the Thonhauser group. %
     % Please cite the following two papers that made this development      %
     % possible and the two reviews that describe the various versions:     %
     %                                                                      %
     %   T. Thonhauser et al., PRL 115, 136402 (2015).                      %
     %   T. Thonhauser et al., PRB 76, 125112 (2007).                       %
     %   K. Berland et al., Rep. Prog. Phys. 78, 066501 (2015).             %
     %   D.C. Langreth et al., J. Phys.: Condens. Matter 21, 084203 (2009). %
     %                                                                      %
     %                                                                      %
     % If you are calculating the stress with vdW-DF, please also cite:     %
     %                                                                      %
     %   R. Sabatini et al., J. Phys.: Condens. Matter 24, 424209 (2012).   %
     %                                                                      %
     %%%%%%%%%%%%%%%%%%%%%%%%%%%%%%%%%%%%%%%%%%%%%%%%%%%%%%%%%%%%%%%%%%%%%%%%


 
     Adding external electric field

     Computed dipole along edir(3) : 
        Dipole               -5.8044 Ry au,        -14.7532 Debye
        Dipole field         -0.0110 Ry au, 
 
        Potential amp.        1.0154 Ry
        Total length         46.3494 bohr
 
     Starting wfcs are  296 atomic wfcs
  @ DRIVER MODE: Message from server: STATUS
  @ DRIVER MODE: Message from server: POSDATA
  @ DRIVER MODE: Reading and sharing cell 
  @ DRIVER MODE: Reading and sharing positions 
  @ DRIVER MODE: Received positions 

     total cpu time spent up to now is       15.6 secs

     Self-consistent Calculation

     iteration #  1     ecut=    29.40 Ry     beta= 0.05
     Davidson diagonalization with overlap
     c_bands:  3 eigenvalues not converged
     c_bands:  1 eigenvalues not converged
     c_bands:  1 eigenvalues not converged
     c_bands:  2 eigenvalues not converged
     c_bands:  4 eigenvalues not converged
     c_bands:  2 eigenvalues not converged
     c_bands:  1 eigenvalues not converged
     c_bands:  1 eigenvalues not converged
     c_bands:  2 eigenvalues not converged
     ethr =  1.00E-05,  avg # of iterations = 19.6

     negative rho (up, down):  1.706E-02 0.000E+00
 
     Adding external electric field

     Computed dipole along edir(3) : 
        Dipole               25.9827 Ry au,         66.0415 Debye
        Dipole field          0.0490 Ry au, 
 
        Potential amp.       -4.5453 Ry
        Total length         46.3494 bohr
 

     total cpu time spent up to now is       43.8 secs

     total energy              =   -2770.95845060 Ry
     estimated scf accuracy    <    1638.11810827 Ry

     iteration #  2     ecut=    29.40 Ry     beta= 0.05
     Davidson diagonalization with overlap
     ethr =  1.00E-02,  avg # of iterations = 18.6

     negative rho (up, down):  6.653E-03 0.000E+00
 
     Adding external electric field

     Computed dipole along edir(3) : 
        Dipole               -2.4075 Ry au,         -6.1192 Debye
        Dipole field         -0.0045 Ry au, 
 
        Potential amp.        0.4212 Ry
        Total length         46.3494 bohr
 

     total cpu time spent up to now is       76.4 secs

     total energy              =   -2641.05837563 Ry
     estimated scf accuracy    <   36921.48122258 Ry

     iteration #  3     ecut=    29.40 Ry     beta= 0.05
     Davidson diagonalization with overlap
     ethr =  1.00E-02,  avg # of iterations = 15.1

     negative rho (up, down):  6.707E-03 0.000E+00
 
     Adding external electric field

     Computed dipole along edir(3) : 
        Dipole               -3.5672 Ry au,         -9.0668 Debye
        Dipole field         -0.0067 Ry au, 
 
        Potential amp.        0.6240 Ry
        Total length         46.3494 bohr
 

     total cpu time spent up to now is      103.7 secs

     total energy              =   -2907.74692299 Ry
     estimated scf accuracy    <    1417.50731156 Ry

     iteration #  4     ecut=    29.40 Ry     beta= 0.05
     Davidson diagonalization with overlap
     ethr =  1.00E-02,  avg # of iterations =  7.5

     negative rho (up, down):  6.814E-03 0.000E+00
 
     Adding external electric field

     Computed dipole along edir(3) : 
        Dipole               -4.5806 Ry au,        -11.6426 Debye
        Dipole field         -0.0086 Ry au, 
 
        Potential amp.        0.8013 Ry
        Total length         46.3494 bohr
 

     total cpu time spent up to now is      112.6 secs

     total energy              =   -2902.26751499 Ry
     estimated scf accuracy    <     911.25535556 Ry

     iteration #  5     ecut=    29.40 Ry     beta= 0.05
     Davidson diagonalization with overlap
     ethr =  1.00E-02,  avg # of iterations = 10.0

     negative rho (up, down):  6.646E-03 0.000E+00
 
     Adding external electric field

     Computed dipole along edir(3) : 
        Dipole               -4.2954 Ry au,        -10.9178 Debye
        Dipole field         -0.0081 Ry au, 
 
        Potential amp.        0.7514 Ry
        Total length         46.3494 bohr
 

     total cpu time spent up to now is      125.7 secs

     total energy              =   -2922.69205391 Ry
     estimated scf accuracy    <      12.89709427 Ry

     iteration #  6     ecut=    29.40 Ry     beta= 0.05
     Davidson diagonalization with overlap
     ethr =  3.30E-03,  avg # of iterations =  2.8

     negative rho (up, down):  7.044E-03 0.000E+00
 
     Adding external electric field

     Computed dipole along edir(3) : 
        Dipole               -1.7855 Ry au,         -4.5383 Debye
        Dipole field         -0.0034 Ry au, 
 
        Potential amp.        0.3123 Ry
        Total length         46.3494 bohr
 

     total cpu time spent up to now is      143.4 secs

     total energy              =   -2918.60759647 Ry
     estimated scf accuracy    <      11.79525006 Ry

     iteration #  7     ecut=    29.40 Ry     beta= 0.05
     Davidson diagonalization with overlap
     ethr =  3.02E-03,  avg # of iterations = 14.1

     negative rho (up, down):  7.080E-03 0.000E+00
 
     Adding external electric field

     Computed dipole along edir(3) : 
        Dipole               -1.5271 Ry au,         -3.8814 Debye
        Dipole field         -0.0029 Ry au, 
 
        Potential amp.        0.2671 Ry
        Total length         46.3494 bohr
 

     total cpu time spent up to now is      156.4 secs

     total energy              =   -2924.80379334 Ry
     estimated scf accuracy    <     246.33860587 Ry

     iteration #  8     ecut=    29.40 Ry     beta= 0.05
     Davidson diagonalization with overlap
     ethr =  3.02E-03,  avg # of iterations =  1.9

     negative rho (up, down):  6.924E-03 0.000E+00
 
     Adding external electric field

     Computed dipole along edir(3) : 
        Dipole               -2.3797 Ry au,         -6.0486 Debye
        Dipole field         -0.0045 Ry au, 
 
        Potential amp.        0.4163 Ry
        Total length         46.3494 bohr
 

     total cpu time spent up to now is      163.7 secs

     total energy              =   -2919.09893459 Ry
     estimated scf accuracy    <     379.25653466 Ry

     iteration #  9     ecut=    29.40 Ry     beta= 0.05
     Davidson diagonalization with overlap
     ethr =  3.02E-03,  avg # of iterations =  3.2

     negative rho (up, down):  6.744E-03 0.000E+00
 
     Adding external electric field

     Computed dipole along edir(3) : 
        Dipole               -3.4703 Ry au,         -8.8206 Debye
        Dipole field         -0.0065 Ry au, 
 
        Potential amp.        0.6071 Ry
        Total length         46.3494 bohr
 

     total cpu time spent up to now is      171.2 secs

     total energy              =   -2915.18002364 Ry
     estimated scf accuracy    <     166.63005518 Ry

     iteration # 10     ecut=    29.40 Ry     beta= 0.05
     Davidson diagonalization with overlap
     c_bands:  1 eigenvalues not converged
     ethr =  3.02E-03,  avg # of iterations = 14.7

     negative rho (up, down):  6.778E-03 0.000E+00
 
     Adding external electric field

     Computed dipole along edir(3) : 
        Dipole               -3.1067 Ry au,         -7.8964 Debye
        Dipole field         -0.0059 Ry au, 
 
        Potential amp.        0.5435 Ry
        Total length         46.3494 bohr
 

     total cpu time spent up to now is      185.7 secs

     total energy              =   -2920.57665018 Ry
     estimated scf accuracy    <       2.96361014 Ry

     iteration # 11     ecut=    29.40 Ry     beta= 0.05
     Davidson diagonalization with overlap
     ethr =  7.58E-04,  avg # of iterations =  4.9

     negative rho (up, down):  6.877E-03 0.000E+00
 
     Adding external electric field

     Computed dipole along edir(3) : 
        Dipole               -2.3106 Ry au,         -5.8731 Debye
        Dipole field         -0.0044 Ry au, 
 
        Potential amp.        0.4042 Ry
        Total length         46.3494 bohr
 

     total cpu time spent up to now is      193.7 secs

     total energy              =   -2920.38157055 Ry
     estimated scf accuracy    <       2.53550602 Ry

     iteration # 12     ecut=    29.40 Ry     beta= 0.05
     Davidson diagonalization with overlap
     ethr =  6.48E-04,  avg # of iterations =  5.5

     negative rho (up, down):  6.877E-03 0.000E+00
 
     Adding external electric field

     Computed dipole along edir(3) : 
        Dipole               -1.8762 Ry au,         -4.7689 Debye
        Dipole field         -0.0035 Ry au, 
 
        Potential amp.        0.3282 Ry
        Total length         46.3494 bohr
 

     total cpu time spent up to now is      202.1 secs

     total energy              =   -2920.49507660 Ry
     estimated scf accuracy    <       0.85495171 Ry

     iteration # 13     ecut=    29.40 Ry     beta= 0.05
     Davidson diagonalization with overlap
     c_bands:  2 eigenvalues not converged
     c_bands:  1 eigenvalues not converged
     c_bands:  2 eigenvalues not converged
     c_bands:  5 eigenvalues not converged
     c_bands:  4 eigenvalues not converged
     c_bands:  3 eigenvalues not converged
     ethr =  2.19E-04,  avg # of iterations = 19.4

     negative rho (up, down):  6.860E-03 0.000E+00
 
     Adding external electric field

     Computed dipole along edir(3) : 
        Dipole               -1.7004 Ry au,         -4.3220 Debye
        Dipole field         -0.0032 Ry au, 
 
        Potential amp.        0.2975 Ry
        Total length         46.3494 bohr
 

     total cpu time spent up to now is      216.7 secs

     total energy              =   -2920.65356286 Ry
     estimated scf accuracy    <       1.75271019 Ry

     iteration # 14     ecut=    29.40 Ry     beta= 0.05
     Davidson diagonalization with overlap
     ethr =  2.19E-04,  avg # of iterations =  3.9

     negative rho (up, down):  6.825E-03 0.000E+00
 
     Adding external electric field

     Computed dipole along edir(3) : 
        Dipole               -1.6744 Ry au,         -4.2559 Debye
        Dipole field         -0.0032 Ry au, 
 
        Potential amp.        0.2929 Ry
        Total length         46.3494 bohr
 

     total cpu time spent up to now is      224.4 secs

     total energy              =   -2920.66313744 Ry
     estimated scf accuracy    <       6.65756258 Ry

     iteration # 15     ecut=    29.40 Ry     beta= 0.05
     Davidson diagonalization with overlap
     ethr =  2.19E-04,  avg # of iterations =  2.3

     negative rho (up, down):  6.706E-03 0.000E+00
 
     Adding external electric field

     Computed dipole along edir(3) : 
        Dipole               -2.1701 Ry au,         -5.5159 Debye
        Dipole field         -0.0041 Ry au, 
 
        Potential amp.        0.3796 Ry
        Total length         46.3494 bohr
 

     total cpu time spent up to now is      231.8 secs

     total energy              =   -2920.15393209 Ry
     estimated scf accuracy    <       5.87201705 Ry

     iteration # 16     ecut=    29.40 Ry     beta= 0.05
     Davidson diagonalization with overlap
     c_bands:  1 eigenvalues not converged
     c_bands:  1 eigenvalues not converged
     ethr =  2.19E-04,  avg # of iterations = 12.9

     negative rho (up, down):  6.765E-03 0.000E+00
 
     Adding external electric field

     Computed dipole along edir(3) : 
        Dipole               -1.6416 Ry au,         -4.1726 Debye
        Dipole field         -0.0031 Ry au, 
 
        Potential amp.        0.2872 Ry
        Total length         46.3494 bohr
 

     total cpu time spent up to now is      247.1 secs

     total energy              =   -2920.43602485 Ry
     estimated scf accuracy    <       0.58097595 Ry

     iteration # 17     ecut=    29.40 Ry     beta= 0.05
     Davidson diagonalization with overlap
     ethr =  1.49E-04,  avg # of iterations =  4.7

     negative rho (up, down):  7.251E-03 0.000E+00
 
     Adding external electric field

     Computed dipole along edir(3) : 
        Dipole               -0.0031 Ry au,         -0.0080 Debye
        Dipole field         -0.0000 Ry au, 
 
        Potential amp.        0.0006 Ry
        Total length         46.3494 bohr
 

     total cpu time spent up to now is      255.1 secs

     total energy              =   -2920.36554517 Ry
     estimated scf accuracy    <       0.41186160 Ry

     iteration # 18     ecut=    29.40 Ry     beta= 0.05
     Davidson diagonalization with overlap
     c_bands:  1 eigenvalues not converged
     c_bands:  2 eigenvalues not converged
     c_bands:  2 eigenvalues not converged
     ethr =  1.05E-04,  avg # of iterations = 17.1

     negative rho (up, down):  7.236E-03 0.000E+00
 
     Adding external electric field

     Computed dipole along edir(3) : 
        Dipole                0.0530 Ry au,          0.1347 Debye
        Dipole field          0.0001 Ry au, 
 
        Potential amp.       -0.0093 Ry
        Total length         46.3494 bohr
 

     total cpu time spent up to now is      273.9 secs

     total energy              =   -2920.43719254 Ry
     estimated scf accuracy    <       0.49761923 Ry

     iteration # 19     ecut=    29.40 Ry     beta= 0.05
     Davidson diagonalization with overlap
     ethr =  1.05E-04,  avg # of iterations =  1.6

     negative rho (up, down):  7.221E-03 0.000E+00
 
     Adding external electric field

     Computed dipole along edir(3) : 
        Dipole                0.0249 Ry au,          0.0632 Debye
        Dipole field          0.0000 Ry au, 
 
        Potential amp.       -0.0044 Ry
        Total length         46.3494 bohr
 

     total cpu time spent up to now is      281.0 secs

     total energy              =   -2920.42936825 Ry
     estimated scf accuracy    <       0.52188371 Ry

     iteration # 20     ecut=    29.40 Ry     beta= 0.05
     Davidson diagonalization with overlap
     ethr =  1.05E-04,  avg # of iterations =  3.4

     negative rho (up, down):  7.783E-03 0.000E+00
 
     Adding external electric field

     Computed dipole along edir(3) : 
        Dipole                0.6193 Ry au,          1.5742 Debye
        Dipole field          0.0012 Ry au, 
 
        Potential amp.       -0.1083 Ry
        Total length         46.3494 bohr
 

     total cpu time spent up to now is      290.0 secs

     total energy              =   -2920.41056825 Ry
     estimated scf accuracy    <       0.40919254 Ry

     iteration # 21     ecut=    29.40 Ry     beta= 0.05
     Davidson diagonalization with overlap
     ethr =  1.05E-04,  avg # of iterations =  8.4

     negative rho (up, down):  8.049E-03 0.000E+00
 
     Adding external electric field

     Computed dipole along edir(3) : 
        Dipole                0.6971 Ry au,          1.7719 Debye
        Dipole field          0.0013 Ry au, 
 
        Potential amp.       -0.1219 Ry
        Total length         46.3494 bohr
 

     total cpu time spent up to now is      299.0 secs

     total energy              =   -2920.42118708 Ry
     estimated scf accuracy    <       0.17419623 Ry

     iteration # 22     ecut=    29.40 Ry     beta= 0.05
     Davidson diagonalization with overlap
     c_bands:  3 eigenvalues not converged
     ethr =  4.46E-05,  avg # of iterations = 10.8

     negative rho (up, down):  8.093E-03 0.000E+00
 
     Adding external electric field

     Computed dipole along edir(3) : 
        Dipole                0.5780 Ry au,          1.4692 Debye
        Dipole field          0.0011 Ry au, 
 
        Potential amp.       -0.1011 Ry
        Total length         46.3494 bohr
 

     total cpu time spent up to now is      308.4 secs

     total energy              =   -2920.42127415 Ry
     estimated scf accuracy    <       0.18987971 Ry

     iteration # 23     ecut=    29.40 Ry     beta= 0.05
     Davidson diagonalization with overlap
     c_bands:  1 eigenvalues not converged
     c_bands:  1 eigenvalues not converged
     ethr =  4.46E-05,  avg # of iterations =  7.8

     negative rho (up, down):  8.422E-03 0.000E+00
 
     Adding external electric field

     Computed dipole along edir(3) : 
        Dipole                0.5048 Ry au,          1.2831 Debye
        Dipole field          0.0010 Ry au, 
 
        Potential amp.       -0.0883 Ry
        Total length         46.3494 bohr
 

     total cpu time spent up to now is      317.1 secs

     total energy              =   -2920.42039529 Ry
     estimated scf accuracy    <       0.15733669 Ry

     iteration # 24     ecut=    29.40 Ry     beta= 0.05
     Davidson diagonalization with overlap
     c_bands:  1 eigenvalues not converged
     c_bands:  1 eigenvalues not converged
     ethr =  4.02E-05,  avg # of iterations = 10.4

     negative rho (up, down):  9.896E-03 0.000E+00
 
     Adding external electric field

     Computed dipole along edir(3) : 
        Dipole                0.6136 Ry au,          1.5597 Debye
        Dipole field          0.0012 Ry au, 
 
        Potential amp.       -0.1073 Ry
        Total length         46.3494 bohr
 

     total cpu time spent up to now is      326.7 secs

     total energy              =   -2920.40501364 Ry
     estimated scf accuracy    <       0.13678392 Ry

     iteration # 25     ecut=    29.40 Ry     beta= 0.05
     Davidson diagonalization with overlap
     c_bands:  1 eigenvalues not converged
     ethr =  3.50E-05,  avg # of iterations = 12.4

     negative rho (up, down):  1.036E-02 0.000E+00
 
     Adding external electric field

     Computed dipole along edir(3) : 
        Dipole                0.6686 Ry au,          1.6995 Debye
        Dipole field          0.0013 Ry au, 
 
        Potential amp.       -0.1170 Ry
        Total length         46.3494 bohr
 

     total cpu time spent up to now is      337.0 secs

     total energy              =   -2920.41596304 Ry
     estimated scf accuracy    <       0.02112078 Ry

     iteration # 26     ecut=    29.40 Ry     beta= 0.05
     Davidson diagonalization with overlap
     c_bands:  1 eigenvalues not converged
     c_bands:  1 eigenvalues not converged
     c_bands:  5 eigenvalues not converged
     c_bands:  3 eigenvalues not converged
     c_bands:  3 eigenvalues not converged
     c_bands:  3 eigenvalues not converged
     c_bands:  2 eigenvalues not converged
     c_bands:  2 eigenvalues not converged
     ethr =  5.40E-06,  avg # of iterations = 18.7

     negative rho (up, down):  1.038E-02 0.000E+00
 
     Adding external electric field

     Computed dipole along edir(3) : 
        Dipole                0.6234 Ry au,          1.5845 Debye
        Dipole field          0.0012 Ry au, 
 
        Potential amp.       -0.1091 Ry
        Total length         46.3494 bohr
 

     total cpu time spent up to now is      354.7 secs

     total energy              =   -2920.41780396 Ry
     estimated scf accuracy    <       0.02365045 Ry

     iteration # 27     ecut=    29.40 Ry     beta= 0.05
     Davidson diagonalization with overlap
     c_bands:  1 eigenvalues not converged
     ethr =  5.40E-06,  avg # of iterations =  7.7

     negative rho (up, down):  1.166E-02 0.000E+00
 
     Adding external electric field

     Computed dipole along edir(3) : 
        Dipole                0.6712 Ry au,          1.7060 Debye
        Dipole field          0.0013 Ry au, 
 
        Potential amp.       -0.1174 Ry
        Total length         46.3494 bohr
 

     total cpu time spent up to now is      377.5 secs

     total energy              =   -2920.41470236 Ry
     estimated scf accuracy    <       0.01773786 Ry

     iteration # 28     ecut=    29.40 Ry     beta= 0.05
     Davidson diagonalization with overlap
     c_bands:  3 eigenvalues not converged
     c_bands:  1 eigenvalues not converged
     c_bands:  1 eigenvalues not converged
     c_bands:  3 eigenvalues not converged
     c_bands:  1 eigenvalues not converged
     c_bands:  5 eigenvalues not converged
     c_bands:  4 eigenvalues not converged
     c_bands:  1 eigenvalues not converged
     c_bands:  2 eigenvalues not converged
     ethr =  4.54E-06,  avg # of iterations = 21.7

     negative rho (up, down):  1.163E-02 0.000E+00
 
     Adding external electric field

     Computed dipole along edir(3) : 
        Dipole                0.6924 Ry au,          1.7598 Debye
        Dipole field          0.0013 Ry au, 
 
        Potential amp.       -0.1211 Ry
        Total length         46.3494 bohr
 

     total cpu time spent up to now is      397.8 secs

     total energy              =   -2920.41190393 Ry
     estimated scf accuracy    <       0.13524901 Ry

     iteration # 29     ecut=    29.40 Ry     beta= 0.05
     Davidson diagonalization with overlap
     c_bands:  1 eigenvalues not converged
     c_bands:  1 eigenvalues not converged
     ethr =  4.54E-06,  avg # of iterations = 14.1

     negative rho (up, down):  1.258E-02 0.000E+00
 
     Adding external electric field

     Computed dipole along edir(3) : 
        Dipole                0.6322 Ry au,          1.6069 Debye
        Dipole field          0.0012 Ry au, 
 
        Potential amp.       -0.1106 Ry
        Total length         46.3494 bohr
 

     total cpu time spent up to now is      412.4 secs

     total energy              =   -2920.41861433 Ry
     estimated scf accuracy    <       0.00954119 Ry

     iteration # 30     ecut=    29.40 Ry     beta= 0.05
     Davidson diagonalization with overlap
     ethr =  2.44E-06,  avg # of iterations =  6.8

     negative rho (up, down):  1.313E-02 0.000E+00
 
     Adding external electric field

     Computed dipole along edir(3) : 
        Dipole                0.5805 Ry au,          1.4755 Debye
        Dipole field          0.0011 Ry au, 
 
        Potential amp.       -0.1016 Ry
        Total length         46.3494 bohr
 

     total cpu time spent up to now is      421.7 secs

     total energy              =   -2920.41683583 Ry
     estimated scf accuracy    <       0.01630667 Ry

     iteration # 31     ecut=    29.40 Ry     beta= 0.05
     Davidson diagonalization with overlap
     c_bands:  2 eigenvalues not converged
     c_bands:  2 eigenvalues not converged
     c_bands:  3 eigenvalues not converged
     c_bands:  1 eigenvalues not converged
     c_bands:  1 eigenvalues not converged
     ethr =  2.44E-06,  avg # of iterations = 17.5

     negative rho (up, down):  1.280E-02 0.000E+00
 
     Adding external electric field

     Computed dipole along edir(3) : 
        Dipole                0.6042 Ry au,          1.5356 Debye
        Dipole field          0.0011 Ry au, 
 
        Potential amp.       -0.1057 Ry
        Total length         46.3494 bohr
 

     total cpu time spent up to now is      436.8 secs

     total energy              =   -2920.41824866 Ry
     estimated scf accuracy    <       0.00439861 Ry

     iteration # 32     ecut=    29.40 Ry     beta= 0.05
     Davidson diagonalization with overlap
     ethr =  1.12E-06,  avg # of iterations =  5.8

     negative rho (up, down):  1.286E-02 0.000E+00
 
     Adding external electric field

     Computed dipole along edir(3) : 
        Dipole                0.6107 Ry au,          1.5523 Debye
        Dipole field          0.0012 Ry au, 
 
        Potential amp.       -0.1068 Ry
        Total length         46.3494 bohr
 

     total cpu time spent up to now is      450.8 secs

     total energy              =   -2920.41831970 Ry
     estimated scf accuracy    <       0.00233334 Ry

     iteration # 33     ecut=    29.40 Ry     beta= 0.05
     Davidson diagonalization with overlap
     c_bands:  1 eigenvalues not converged
     c_bands:  1 eigenvalues not converged
     ethr =  5.97E-07,  avg # of iterations = 13.7

     negative rho (up, down):  1.349E-02 0.000E+00
 
     Adding external electric field

     Computed dipole along edir(3) : 
        Dipole                0.6048 Ry au,          1.5371 Debye
        Dipole field          0.0011 Ry au, 
 
        Potential amp.       -0.1058 Ry
        Total length         46.3494 bohr
 

     total cpu time spent up to now is      463.1 secs

     total energy              =   -2920.41874199 Ry
     estimated scf accuracy    <       0.00132166 Ry

     iteration # 34     ecut=    29.40 Ry     beta= 0.05
     Davidson diagonalization with overlap
     c_bands:  1 eigenvalues not converged
     ethr =  3.38E-07,  avg # of iterations = 11.1

     negative rho (up, down):  1.667E-02 0.000E+00
 
     Adding external electric field

     Computed dipole along edir(3) : 
        Dipole                0.6495 Ry au,          1.6509 Debye
        Dipole field          0.0012 Ry au, 
 
        Potential amp.       -0.1136 Ry
        Total length         46.3494 bohr
 

     total cpu time spent up to now is      476.0 secs

     total energy              =   -2920.41955216 Ry
     estimated scf accuracy    <       0.00191929 Ry

     iteration # 35     ecut=    29.40 Ry     beta= 0.05
     Davidson diagonalization with overlap
     c_bands:  2 eigenvalues not converged
     c_bands:  3 eigenvalues not converged
     c_bands:  1 eigenvalues not converged
     ethr =  3.38E-07,  avg # of iterations = 16.0

     negative rho (up, down):  1.736E-02 0.000E+00
 
     Adding external electric field

     Computed dipole along edir(3) : 
        Dipole                0.6954 Ry au,          1.7675 Debye
        Dipole field          0.0013 Ry au, 
 
        Potential amp.       -0.1216 Ry
        Total length         46.3494 bohr
 

     total cpu time spent up to now is      490.9 secs

     total energy              =   -2920.41894030 Ry
     estimated scf accuracy    <       0.00775034 Ry

     iteration # 36     ecut=    29.40 Ry     beta= 0.05
     Davidson diagonalization with overlap
     c_bands:  1 eigenvalues not converged
     c_bands:  1 eigenvalues not converged
     ethr =  3.38E-07,  avg # of iterations = 14.2

     negative rho (up, down):  1.783E-02 0.000E+00
 
     Adding external electric field

     Computed dipole along edir(3) : 
        Dipole                0.7115 Ry au,          1.8086 Debye
        Dipole field          0.0013 Ry au, 
 
        Potential amp.       -0.1245 Ry
        Total length         46.3494 bohr
 

     total cpu time spent up to now is      505.7 secs

     total energy              =   -2920.41926336 Ry
     estimated scf accuracy    <       0.00124161 Ry

     iteration # 37     ecut=    29.40 Ry     beta= 0.05
     Davidson diagonalization with overlap
     c_bands:  2 eigenvalues not converged
     ethr =  3.18E-07,  avg # of iterations = 12.3

     negative rho (up, down):  1.786E-02 0.000E+00
 
     Adding external electric field

     Computed dipole along edir(3) : 
        Dipole                0.7023 Ry au,          1.7850 Debye
        Dipole field          0.0013 Ry au, 
 
        Potential amp.       -0.1228 Ry
        Total length         46.3494 bohr
 

     total cpu time spent up to now is      525.5 secs

     total energy              =   -2920.41932305 Ry
     estimated scf accuracy    <       0.00029705 Ry

     iteration # 38     ecut=    29.40 Ry     beta= 0.05
     Davidson diagonalization with overlap
     ethr =  7.60E-08,  avg # of iterations =  9.2

     negative rho (up, down):  1.812E-02 0.000E+00
 
     Adding external electric field

     Computed dipole along edir(3) : 
        Dipole                0.7123 Ry au,          1.8104 Debye
        Dipole field          0.0013 Ry au, 
 
        Potential amp.       -0.1246 Ry
        Total length         46.3494 bohr
 

     total cpu time spent up to now is      538.4 secs

     total energy              =   -2920.41943473 Ry
     estimated scf accuracy    <       0.00016656 Ry

     iteration # 39     ecut=    29.40 Ry     beta= 0.05
     Davidson diagonalization with overlap
     ethr =  4.26E-08,  avg # of iterations =  7.8

     negative rho (up, down):  1.808E-02 0.000E+00
 
     Adding external electric field

     Computed dipole along edir(3) : 
        Dipole                0.7011 Ry au,          1.7820 Debye
        Dipole field          0.0013 Ry au, 
 
        Potential amp.       -0.1226 Ry
        Total length         46.3494 bohr
 

     total cpu time spent up to now is      555.4 secs

     total energy              =   -2920.41946617 Ry
     estimated scf accuracy    <       0.00012622 Ry

     iteration # 40     ecut=    29.40 Ry     beta= 0.05
     Davidson diagonalization with overlap
     c_bands:  2 eigenvalues not converged
     ethr =  3.23E-08,  avg # of iterations = 14.1

     negative rho (up, down):  1.838E-02 0.000E+00
 
     Adding external electric field

     Computed dipole along edir(3) : 
        Dipole                0.7027 Ry au,          1.7861 Debye
        Dipole field          0.0013 Ry au, 
 
        Potential amp.       -0.1229 Ry
        Total length         46.3494 bohr
 

     total cpu time spent up to now is      568.0 secs

     total energy              =   -2920.41951302 Ry
     estimated scf accuracy    <       0.00008400 Ry

     iteration # 41     ecut=    29.40 Ry     beta= 0.05
     Davidson diagonalization with overlap
     ethr =  2.15E-08,  avg # of iterations = 10.0

     negative rho (up, down):  1.835E-02 0.000E+00
 
     Adding external electric field

     Computed dipole along edir(3) : 
        Dipole                0.7044 Ry au,          1.7905 Debye
        Dipole field          0.0013 Ry au, 
 
        Potential amp.       -0.1232 Ry
        Total length         46.3494 bohr
 

     total cpu time spent up to now is      579.3 secs

     total energy              =   -2920.41954683 Ry
     estimated scf accuracy    <       0.00005822 Ry

     iteration # 42     ecut=    29.40 Ry     beta= 0.05
     Davidson diagonalization with overlap
     ethr =  1.49E-08,  avg # of iterations =  5.1

     negative rho (up, down):  1.826E-02 0.000E+00
 
     Adding external electric field

     Computed dipole along edir(3) : 
        Dipole                0.7072 Ry au,          1.7976 Debye
        Dipole field          0.0013 Ry au, 
 
        Potential amp.       -0.1237 Ry
        Total length         46.3494 bohr
 

     total cpu time spent up to now is      594.7 secs

     total energy              =   -2920.41956899 Ry
     estimated scf accuracy    <       0.00004858 Ry

     iteration # 43     ecut=    29.40 Ry     beta= 0.05
     Davidson diagonalization with overlap
     ethr =  1.24E-08,  avg # of iterations = 12.5

     negative rho (up, down):  1.832E-02 0.000E+00
 
     Adding external electric field

     Computed dipole along edir(3) : 
        Dipole                0.7054 Ry au,          1.7930 Debye
        Dipole field          0.0013 Ry au, 
 
        Potential amp.       -0.1234 Ry
        Total length         46.3494 bohr
 

     total cpu time spent up to now is      614.7 secs

     total energy              =   -2920.41958889 Ry
     estimated scf accuracy    <       0.00005632 Ry

     iteration # 44     ecut=    29.40 Ry     beta= 0.05
     Davidson diagonalization with overlap
     ethr =  1.24E-08,  avg # of iterations =  7.6

     negative rho (up, down):  1.840E-02 0.000E+00
 
     Adding external electric field

     Computed dipole along edir(3) : 
        Dipole                0.7064 Ry au,          1.7955 Debye
        Dipole field          0.0013 Ry au, 
 
        Potential amp.       -0.1236 Ry
        Total length         46.3494 bohr
 

     total cpu time spent up to now is      624.7 secs

     total energy              =   -2920.41961600 Ry
     estimated scf accuracy    <       0.00000541 Ry

     iteration # 45     ecut=    29.40 Ry     beta= 0.05
     Davidson diagonalization with overlap
     c_bands:  2 eigenvalues not converged
     c_bands:  1 eigenvalues not converged
     ethr =  1.38E-09,  avg # of iterations = 15.4

     negative rho (up, down):  1.837E-02 0.000E+00
 
     Adding external electric field

     Computed dipole along edir(3) : 
        Dipole                0.7071 Ry au,          1.7973 Debye
        Dipole field          0.0013 Ry au, 
 
        Potential amp.       -0.1237 Ry
        Total length         46.3494 bohr
 

     total cpu time spent up to now is      642.4 secs

     total energy              =   -2920.41963636 Ry
     estimated scf accuracy    <       0.00000652 Ry

     iteration # 46     ecut=    29.40 Ry     beta= 0.05
     Davidson diagonalization with overlap
     ethr =  1.38E-09,  avg # of iterations =  4.2

     negative rho (up, down):  1.831E-02 0.000E+00
 
     Adding external electric field

     Computed dipole along edir(3) : 
        Dipole                0.7078 Ry au,          1.7990 Debye
        Dipole field          0.0013 Ry au, 
 
        Potential amp.       -0.1238 Ry
        Total length         46.3494 bohr
 

     total cpu time spent up to now is      650.2 secs

     total energy              =   -2920.41965213 Ry
     estimated scf accuracy    <       0.00000444 Ry

     iteration # 47     ecut=    29.40 Ry     beta= 0.05
     Davidson diagonalization with overlap
     c_bands:  1 eigenvalues not converged
     c_bands:  2 eigenvalues not converged
     c_bands:  1 eigenvalues not converged
     ethr =  1.14E-09,  avg # of iterations = 17.3

     negative rho (up, down):  1.834E-02 0.000E+00
 
     Adding external electric field

     Computed dipole along edir(3) : 
        Dipole                0.7073 Ry au,          1.7979 Debye
        Dipole field          0.0013 Ry au, 
 
        Potential amp.       -0.1237 Ry
        Total length         46.3494 bohr
 

     total cpu time spent up to now is      666.4 secs

     total energy              =   -2920.41966721 Ry
     estimated scf accuracy    <       0.00000744 Ry

     iteration # 48     ecut=    29.40 Ry     beta= 0.05
     Davidson diagonalization with overlap
     c_bands:  1 eigenvalues not converged
     c_bands:  3 eigenvalues not converged
     ethr =  1.14E-09,  avg # of iterations = 15.1

     negative rho (up, down):  1.832E-02 0.000E+00
 
     Adding external electric field

     Computed dipole along edir(3) : 
        Dipole                0.7072 Ry au,          1.7974 Debye
        Dipole field          0.0013 Ry au, 
 
        Potential amp.       -0.1237 Ry
        Total length         46.3494 bohr
 

     total cpu time spent up to now is      681.8 secs

     total energy              =   -2920.41968264 Ry
     estimated scf accuracy    <       0.00000288 Ry

     iteration # 49     ecut=    29.40 Ry     beta= 0.05
     Davidson diagonalization with overlap
     ethr =  7.36E-10,  avg # of iterations =  2.3

     negative rho (up, down):  1.826E-02 0.000E+00
 
     Adding external electric field

     Computed dipole along edir(3) : 
        Dipole                0.7063 Ry au,          1.7951 Debye
        Dipole field          0.0013 Ry au, 
 
        Potential amp.       -0.1235 Ry
        Total length         46.3494 bohr
 

     total cpu time spent up to now is      688.9 secs

     total energy              =   -2920.41969472 Ry
     estimated scf accuracy    <       0.00000235 Ry

     iteration # 50     ecut=    29.40 Ry     beta= 0.05
     Davidson diagonalization with overlap
     c_bands:  1 eigenvalues not converged
     ethr =  6.00E-10,  avg # of iterations = 14.2

     negative rho (up, down):  1.826E-02 0.000E+00
 
     Adding external electric field

     Computed dipole along edir(3) : 
        Dipole                0.7055 Ry au,          1.7932 Debye
        Dipole field          0.0013 Ry au, 
 
        Potential amp.       -0.1234 Ry
        Total length         46.3494 bohr
 

     total cpu time spent up to now is      701.9 secs

     total energy              =   -2920.41970627 Ry
     estimated scf accuracy    <       0.00000056 Ry

     iteration # 51     ecut=    29.40 Ry     beta= 0.05
     Davidson diagonalization with overlap
     c_bands:  1 eigenvalues not converged
     ethr =  1.44E-10,  avg # of iterations = 13.0

     negative rho (up, down):  1.826E-02 0.000E+00
 
     Adding external electric field

     Computed dipole along edir(3) : 
        Dipole                0.7056 Ry au,          1.7934 Debye
        Dipole field          0.0013 Ry au, 
 
        Potential amp.       -0.1234 Ry
        Total length         46.3494 bohr
 

     total cpu time spent up to now is      714.3 secs

     total energy              =   -2920.41971643 Ry
     estimated scf accuracy    <       0.00000036 Ry

     iteration # 52     ecut=    29.40 Ry     beta= 0.05
     Davidson diagonalization with overlap
     ethr =  9.30E-11,  avg # of iterations =  8.0

     negative rho (up, down):  1.826E-02 0.000E+00
 
     Adding external electric field

     Computed dipole along edir(3) : 
        Dipole                0.7056 Ry au,          1.7935 Debye
        Dipole field          0.0013 Ry au, 
 
        Potential amp.       -0.1234 Ry
        Total length         46.3494 bohr
 

     total cpu time spent up to now is      723.6 secs

     total energy              =   -2920.41972560 Ry
     estimated scf accuracy    <       0.00000022 Ry

     iteration # 53     ecut=    29.40 Ry     beta= 0.05
     Davidson diagonalization with overlap
     c_bands:  1 eigenvalues not converged
     ethr =  5.55E-11,  avg # of iterations = 14.6

     negative rho (up, down):  1.825E-02 0.000E+00
 
     Adding external electric field

     Computed dipole along edir(3) : 
        Dipole                0.7052 Ry au,          1.7925 Debye
        Dipole field          0.0013 Ry au, 
 
        Potential amp.       -0.1234 Ry
        Total length         46.3494 bohr
 

     total cpu time spent up to now is      739.4 secs

     total energy              =   -2920.41973393 Ry
     estimated scf accuracy    <       0.00000043 Ry

     iteration # 54     ecut=    29.40 Ry     beta= 0.05
     Davidson diagonalization with overlap
     ethr =  5.55E-11,  avg # of iterations = 12.1

     negative rho (up, down):  1.825E-02 0.000E+00
 
     Adding external electric field

     Computed dipole along edir(3) : 
        Dipole                0.7052 Ry au,          1.7926 Debye
        Dipole field          0.0013 Ry au, 
 
        Potential amp.       -0.1234 Ry
        Total length         46.3494 bohr
 

     total cpu time spent up to now is      757.5 secs

     total energy              =   -2920.41974137 Ry
     estimated scf accuracy    <       0.00000019 Ry

     iteration # 55     ecut=    29.40 Ry     beta= 0.05
     Davidson diagonalization with overlap
     ethr =  4.90E-11,  avg # of iterations =  4.8

     negative rho (up, down):  1.825E-02 0.000E+00
 
     Adding external electric field

     Computed dipole along edir(3) : 
        Dipole                0.7053 Ry au,          1.7926 Debye
        Dipole field          0.0013 Ry au, 
 
        Potential amp.       -0.1234 Ry
        Total length         46.3494 bohr
 

     total cpu time spent up to now is      770.4 secs

     total energy              =   -2920.41974807 Ry
     estimated scf accuracy    <       0.00000011 Ry

     iteration # 56     ecut=    29.40 Ry     beta= 0.05
     Davidson diagonalization with overlap
     c_bands:  1 eigenvalues not converged
     ethr =  2.72E-11,  avg # of iterations = 12.7

     negative rho (up, down):  1.823E-02 0.000E+00
 
     Adding external electric field

     Computed dipole along edir(3) : 
        Dipole                0.7050 Ry au,          1.7921 Debye
        Dipole field          0.0013 Ry au, 
 
        Potential amp.       -0.1233 Ry
        Total length         46.3494 bohr
 

     total cpu time spent up to now is      783.0 secs

     total energy              =   -2920.41975418 Ry
     estimated scf accuracy    <       0.00000008 Ry

     iteration # 57     ecut=    29.40 Ry     beta= 0.05
     Davidson diagonalization with overlap
     c_bands:  1 eigenvalues not converged
     ethr =  1.99E-11,  avg # of iterations =  9.9

     negative rho (up, down):  1.824E-02 0.000E+00
 
     Adding external electric field

     Computed dipole along edir(3) : 
        Dipole                0.7046 Ry au,          1.7909 Debye
        Dipole field          0.0013 Ry au, 
 
        Potential amp.       -0.1233 Ry
        Total length         46.3494 bohr
 

     total cpu time spent up to now is      795.1 secs

     End of self-consistent calculation

          k = 0.0000 0.0000 0.0000 ( 18029 PWs)   bands (ev):

   -55.9754 -55.9669 -55.9413 -55.9308 -55.8789 -55.8183 -55.8131 -55.7806
   -55.7785 -55.7466 -55.7396 -55.7059 -55.5484 -55.2691 -54.9475 -54.9134
   -32.5269 -32.4569 -32.3281 -32.3144 -32.2943 -32.2797 -32.2685 -32.2307
   -32.2169 -32.2144 -32.1900 -32.1831 -32.1501 -32.1275 -32.1186 -32.1119
   -32.1099 -32.0788 -32.0585 -32.0325 -32.0244 -32.0203 -32.0049 -31.9833
   -31.9733 -31.9713 -31.9669 -31.9565 -31.9430 -31.9366 -31.9340 -31.9286
   -31.9167 -31.9108 -31.8929 -31.8874 -31.8523 -31.8130 -31.7189 -31.5437
   -31.5370 -31.4666 -31.3544 -31.2667 -31.2442 -31.1712 -31.0847 -30.9736
   -16.7365 -16.4530 -16.2746 -16.1306 -16.0974 -16.0126 -15.8120 -15.6868
   -15.6739 -15.5708 -15.5332 -15.5098 -15.5029 -15.4762 -15.4720 -15.4129
   -15.4102 -15.3975 -15.3852 -15.3292 -15.3054 -15.2652 -15.1723 -15.1469
   -15.1320 -15.1051 -15.0244 -15.0170 -14.5786 -14.0675 -13.4505 -13.3341
    -8.9480  -4.3606  -4.1071  -3.9300  -3.8905  -3.8777  -3.8294  -3.5778
    -3.5618  -3.3102  -3.1856  -3.1699  -3.1613  -3.1451  -3.1312  -3.1114
    -2.8747  -2.8045  -2.7903  -2.7683  -2.7613  -2.7578  -2.7460  -2.7413
    -2.6992  -2.6397  -2.5232  -2.5088  -2.4026  -2.3551  -2.3279  -2.2848
    -2.2416  -2.2350  -2.2221  -2.2051  -2.1878  -2.1715  -2.1537  -2.0188
    -1.9557  -1.8302  -1.7801  -1.7743  -1.5759  -1.5349  -1.4426  -1.4185
    -1.4024  -1.3945  -1.3621  -1.2820  -1.1929  -1.1334  -1.1207  -1.0670
    -0.9911  -0.9790  -0.8707  -0.8650  -0.8179  -0.7445  -0.7352  -0.7256
    -0.6818  -0.6213  -0.5383  -0.4599  -0.4111  -0.3900  -0.3626  -0.2837
    -0.2530  -0.1574  -0.1396  -0.0938  -0.0880  -0.0391   0.0029   0.0126
     0.0194   0.0337   0.0517   0.2001   0.3072   0.3630   0.3961   0.4071
     0.5637   0.5987   0.6880   0.7752   1.0009   1.0741   1.1677   1.2669
     1.2994   1.6449   1.6902   3.1677   3.2467   3.2998   3.3083   3.4094
     3.4121   3.6175   3.6299   3.6404   3.7086

          k = 0.0000 0.0419 0.0000 ( 17933 PWs)   bands (ev):

   -55.9703 -55.9615 -55.9462 -55.9360 -55.8763 -55.8207 -55.8081 -55.7835
   -55.7755 -55.7515 -55.7346 -55.7107 -55.5479 -55.2695 -54.9424 -54.9183
   -32.4693 -32.4029 -32.2821 -32.2742 -32.2639 -32.2599 -32.2548 -32.2220
   -32.2023 -32.1936 -32.1781 -32.1762 -32.1559 -32.1517 -32.1355 -32.1277
   -32.1137 -32.1000 -32.0464 -32.0453 -32.0198 -32.0177 -32.0103 -31.9932
   -31.9853 -31.9812 -31.9800 -31.9689 -31.9667 -31.9565 -31.9466 -31.9387
   -31.9242 -31.9129 -31.9121 -31.9082 -31.8959 -31.8121 -31.7159 -31.5691
   -31.5372 -31.4814 -31.3003 -31.2632 -31.2472 -31.1586 -31.0973 -31.0308
   -16.6008 -16.3335 -16.1642 -16.0231 -15.9988 -15.9746 -15.8623 -15.7577
   -15.7265 -15.5921 -15.5864 -15.5099 -15.4910 -15.4783 -15.4520 -15.4460
   -15.4287 -15.4250 -15.3540 -15.3532 -15.3109 -15.2369 -15.2229 -15.1869
   -15.1640 -15.1633 -15.0809 -15.0319 -14.6516 -14.0806 -13.4546 -13.3737
    -8.9480  -4.3671  -3.9165  -3.7653  -3.7234  -3.7017  -3.6703  -3.4188
    -3.3515  -3.2622  -3.2341  -3.1614  -3.0908  -3.0518  -3.0274  -3.0077
    -2.9510  -2.9414  -2.9182  -2.8586  -2.8397  -2.8207  -2.7689  -2.7232
    -2.7087  -2.6606  -2.6479  -2.6327  -2.6020  -2.4755  -2.4642  -2.4306
    -2.3902  -2.3374  -2.2448  -2.2210  -2.2015  -2.1228  -2.0529  -1.9516
    -1.8996  -1.7518  -1.7151  -1.6475  -1.6219  -1.5719  -1.4496  -1.3429
    -1.3096  -1.2886  -1.2129  -1.1873  -1.0872  -1.0286  -1.0001  -0.9250
    -0.9156  -0.8984  -0.8695  -0.8625  -0.8249  -0.7845  -0.7321  -0.7031
    -0.6666  -0.6392  -0.5631  -0.5340  -0.4782  -0.4669  -0.4416  -0.4289
    -0.2764  -0.2409  -0.2167  -0.1832  -0.1541  -0.1239  -0.1035  -0.0631
    -0.0065   0.0495   0.0744   0.1411   0.2161   0.2822   0.3059   0.3639
     0.3777   0.4116   0.5513   0.6933   0.7072   1.0381   1.2231   1.2635
     1.3480   1.5988   1.6023   3.3575   3.3831   3.4177   3.4627   3.5171
     3.5661   3.6102   3.6382   3.6971   3.7146

          k = 0.0000-0.0839 0.0000 ( 17884 PWs)   bands (ev):

   -55.9586 -55.9579 -55.9497 -55.9478 -55.8735 -55.8235 -55.7978 -55.7937
   -55.7644 -55.7625 -55.7233 -55.7220 -55.5474 -55.2700 -54.9304 -54.9303
   -32.3306 -32.3279 -32.2709 -32.2704 -32.2596 -32.2542 -32.2534 -32.2391
   -32.1763 -32.1746 -32.1534 -32.1501 -32.1410 -32.1284 -32.1235 -32.1114
   -32.0823 -32.0804 -32.0803 -32.0797 -32.0748 -32.0451 -32.0422 -32.0349
   -32.0133 -32.0131 -32.0014 -31.9958 -31.9880 -31.9788 -31.9567 -31.9556
   -31.9356 -31.9340 -31.9041 -31.9038 -31.8823 -31.8111 -31.7141 -31.6072
   -31.5371 -31.4924 -31.2550 -31.2549 -31.1674 -31.1672 -31.1280 -31.1279
   -16.2632 -16.2501 -16.0574 -16.0512 -15.9178 -15.9053 -15.8074 -15.7891
   -15.7615 -15.7353 -15.6972 -15.6951 -15.5348 -15.5304 -15.3623 -15.3562
   -15.3518 -15.3468 -15.3285 -15.3159 -15.3139 -15.3065 -15.3033 -15.2248
   -15.2232 -15.2112 -15.1773 -15.0150 -14.7571 -14.0929 -13.4365 -13.4363
    -8.9481  -4.3752  -3.4880  -3.4535  -3.3702  -3.3649  -3.3573  -3.3519
    -3.3442  -3.3237  -3.2635  -3.2633  -3.1994  -3.0963  -3.0929  -3.0815
    -3.0597  -3.0268  -2.9952  -2.9343  -2.9198  -2.9151  -2.8142  -2.7793
    -2.7710  -2.7221  -2.6995  -2.6352  -2.6094  -2.5674  -2.5366  -2.4305
    -2.3577  -2.3473  -2.3299  -2.2971  -2.0352  -1.9825  -1.8750  -1.8367
    -1.8066  -1.6932  -1.6669  -1.6144  -1.5696  -1.4823  -1.4102  -1.4045
    -1.3673  -1.3532  -1.3251  -1.2944  -1.1954  -1.1649  -1.1594  -1.1085
    -1.0629  -0.8447  -0.7842  -0.6970  -0.6609  -0.6305  -0.6097  -0.6045
    -0.5809  -0.5596  -0.5366  -0.5047  -0.4579  -0.4211  -0.4057  -0.3941
    -0.3578  -0.3338  -0.2899  -0.2565  -0.2426  -0.2251  -0.1752  -0.1575
    -0.1242  -0.1079  -0.0741   0.0070   0.0308   0.1067   0.2721   0.2741
     0.2798   0.3045   0.6195   0.6619   0.7259   0.7654   1.2059   1.4070
     1.4073   1.5359   1.5365   3.4428   3.4689   3.5010   3.5217   3.5970
     3.6066   3.6779   3.7114   3.7573   3.7638

          k = 0.0380 0.0000 0.0000 ( 17913 PWs)   bands (ev):

   -55.9753 -55.9667 -55.9412 -55.9307 -55.8788 -55.8182 -55.8131 -55.7803
   -55.7784 -55.7465 -55.7396 -55.7058 -55.5483 -55.2690 -54.9474 -54.9133
   -32.5270 -32.4577 -32.3296 -32.3207 -32.2941 -32.2799 -32.2683 -32.2354
   -32.2169 -32.2142 -32.1864 -32.1707 -32.1501 -32.1246 -32.1113 -32.1095
   -32.1070 -32.0785 -32.0408 -32.0379 -32.0324 -32.0202 -32.0082 -31.9794
   -31.9726 -31.9709 -31.9600 -31.9567 -31.9429 -31.9376 -31.9362 -31.9335
   -31.9284 -31.9107 -31.8931 -31.8865 -31.8524 -31.8155 -31.7187 -31.5436
   -31.5374 -31.4664 -31.3540 -31.2700 -31.2422 -31.1710 -31.0846 -30.9734
   -16.6685 -16.3665 -16.1941 -16.1088 -16.0279 -16.0113 -15.8560 -15.6842
   -15.6749 -15.6709 -15.6643 -15.6322 -15.5859 -15.5657 -15.5172 -15.4909
   -15.3560 -15.3313 -15.2842 -15.2371 -15.2218 -15.2176 -15.1755 -15.1661
   -15.1570 -15.1460 -15.1024 -15.0047 -14.5760 -14.0630 -13.4472 -13.3338
    -8.9509  -4.4125  -4.0415  -3.7174  -3.6654  -3.6059  -3.5970  -3.5470
    -3.5068  -3.4477  -3.3082  -3.2112  -3.2076  -3.1744  -3.0908  -3.0496
    -2.9872  -2.9413  -2.8462  -2.7554  -2.7487  -2.7016  -2.6873  -2.6066
    -2.5780  -2.5548  -2.5060  -2.4784  -2.4303  -2.3627  -2.3134  -2.3087
    -2.2451  -2.2018  -2.1806  -2.1432  -2.0207  -1.9924  -1.9584  -1.9077
    -1.8644  -1.8465  -1.7907  -1.7606  -1.6556  -1.5724  -1.5446  -1.5274
    -1.4331  -1.4071  -1.3805  -1.2783  -1.2614  -1.2500  -1.2152  -1.1541
    -1.1083  -1.0019  -0.8801  -0.8485  -0.8365  -0.8055  -0.7781  -0.7391
    -0.7025  -0.6326  -0.5561  -0.4982  -0.4448  -0.4037  -0.3540  -0.3235
    -0.2618  -0.2416  -0.2124  -0.1786  -0.1587  -0.1245  -0.1136  -0.0953
    -0.0816  -0.0507   0.1027   0.1578   0.2126   0.2348   0.3274   0.3869
     0.4324   0.4829   0.6591   0.7214   1.0041   1.0330   1.0859   1.2366
     1.2965   1.5334   1.6073   3.2056   3.2219   3.5049   3.5235   3.5432
     3.5767   3.5921   3.6172   3.6423   3.6713

          k = 0.0380 0.0419 0.0000 ( 17878 PWs)   bands (ev):

   -55.9702 -55.9614 -55.9462 -55.9359 -55.8762 -55.8207 -55.8080 -55.7835
   -55.7753 -55.7514 -55.7346 -55.7107 -55.5479 -55.2695 -54.9423 -54.9183
   -32.4695 -32.4037 -32.2820 -32.2756 -32.2676 -32.2637 -32.2550 -32.2220
   -32.2022 -32.1939 -32.1829 -32.1640 -32.1557 -32.1520 -32.1356 -32.1170
   -32.1112 -32.0959 -32.0461 -32.0342 -32.0279 -32.0173 -32.0100 -31.9938
   -31.9845 -31.9822 -31.9694 -31.9684 -31.9664 -31.9566 -31.9466 -31.9394
   -31.9341 -31.9237 -31.9117 -31.9039 -31.9004 -31.8143 -31.7159 -31.5690
   -31.5379 -31.4813 -31.3000 -31.2658 -31.2462 -31.1584 -31.0973 -31.0306
   -16.5396 -16.2537 -16.0904 -16.0034 -15.9757 -15.9256 -15.8623 -15.7916
   -15.7278 -15.6296 -15.6276 -15.5905 -15.5847 -15.5534 -15.4646 -15.4514
   -15.4245 -15.3874 -15.3545 -15.2980 -15.2834 -15.2544 -15.2186 -15.2149
   -15.1979 -15.1708 -15.1323 -15.0221 -14.6496 -14.0772 -13.4523 -13.3740
    -8.9503  -4.3925  -3.8649  -3.5491  -3.5045  -3.4558  -3.4262  -3.3539
    -3.3475  -3.2885  -3.2540  -3.1610  -3.0892  -3.0633  -3.0068  -2.9881
    -2.9543  -2.8645  -2.8574  -2.8377  -2.7808  -2.7573  -2.7277  -2.6965
    -2.6825  -2.6805  -2.6229  -2.5980  -2.5888  -2.5169  -2.4578  -2.4327
    -2.3328  -2.2802  -2.2515  -2.1751  -2.1165  -2.0416  -1.9810  -1.9586
    -1.9307  -1.7495  -1.7117  -1.6742  -1.5831  -1.5205  -1.4293  -1.4173
    -1.3927  -1.3033  -1.2801  -1.2539  -1.2223  -1.1421  -1.1077  -1.0942
    -1.0391  -0.9677  -0.9326  -0.9048  -0.8664  -0.8153  -0.7790  -0.7361
    -0.6929  -0.6710  -0.6532  -0.6380  -0.5954  -0.5563  -0.5389  -0.4756
    -0.4362  -0.3959  -0.3019  -0.2788  -0.2682  -0.2190  -0.1684  -0.0784
    -0.0394  -0.0102   0.1054   0.1630   0.2154   0.2627   0.3381   0.3871
     0.4187   0.4552   0.4782   0.6161   0.6816   0.9759   1.2317   1.2744
     1.3525   1.5213   1.5830   3.3465   3.4155   3.4493   3.5234   3.5861
     3.6082   3.6744   3.7024   3.7304   3.7540

          k = 0.0380-0.0839 0.0000 ( 17916 PWs)   bands (ev):

   -55.9586 -55.9579 -55.9497 -55.9478 -55.8735 -55.8235 -55.7978 -55.7937
   -55.7643 -55.7625 -55.7234 -55.7221 -55.5474 -55.2700 -54.9304 -54.9303
   -32.3309 -32.3281 -32.2717 -32.2711 -32.2597 -32.2542 -32.2535 -32.2392
   -32.1766 -32.1753 -32.1634 -32.1597 -32.1419 -32.1131 -32.1105 -32.1064
   -32.0810 -32.0797 -32.0793 -32.0786 -32.0755 -32.0562 -32.0537 -32.0323
   -32.0090 -32.0034 -31.9904 -31.9896 -31.9877 -31.9789 -31.9567 -31.9555
   -31.9356 -31.9340 -31.9158 -31.9156 -31.8821 -31.8134 -31.7141 -31.6071
   -31.5381 -31.4924 -31.2560 -31.2559 -31.1673 -31.1672 -31.1280 -31.1279
   -16.2280 -16.2074 -16.0065 -16.0000 -15.8812 -15.8729 -15.7723 -15.7625
   -15.7442 -15.7279 -15.6689 -15.6618 -15.5490 -15.5442 -15.4498 -15.4331
   -15.3986 -15.3929 -15.3825 -15.3791 -15.3343 -15.3256 -15.2870 -15.2708
   -15.2620 -15.2070 -15.1529 -15.0090 -14.7535 -14.0907 -13.4362 -13.4361
    -8.9499  -4.3737  -3.4832  -3.4445  -3.2981  -3.2306  -3.2257  -3.2069
    -3.1563  -3.1432  -3.1033  -3.0742  -3.0522  -3.0405  -3.0249  -2.9833
    -2.9722  -2.9434  -2.9125  -2.8678  -2.8143  -2.8072  -2.7968  -2.7774
    -2.7353  -2.6908  -2.6840  -2.6594  -2.6188  -2.5873  -2.5574  -2.5017
    -2.4444  -2.2722  -2.0941  -2.0695  -2.0590  -1.9531  -1.8890  -1.8692
    -1.8224  -1.8108  -1.7611  -1.7300  -1.7080  -1.6748  -1.6256  -1.6053
    -1.5539  -1.4738  -1.4412  -1.4037  -1.2531  -1.1878  -1.1454  -1.1032
    -1.0008  -0.9786  -0.9208  -0.8990  -0.8273  -0.7712  -0.7408  -0.7285
    -0.7105  -0.6881  -0.6650  -0.6247  -0.5867  -0.5742  -0.5472  -0.5229
    -0.5129  -0.4341  -0.4024  -0.3444  -0.3223  -0.2558  -0.1420  -0.1206
    -0.0199   0.0407   0.1196   0.1268   0.1667   0.1819   0.2007   0.2456
     0.3829   0.4076   0.5658   0.5828   0.7080   0.7664   1.2280   1.4202
     1.4206   1.5249   1.5256   3.4206   3.4344   3.5149   3.5366   3.5817
     3.5904   3.7333   3.7645   3.7895   3.7935

          k = 0.0380-0.0419 0.0000 ( 17876 PWs)   bands (ev):

   -55.9702 -55.9614 -55.9462 -55.9359 -55.8762 -55.8207 -55.8080 -55.7835
   -55.7753 -55.7514 -55.7346 -55.7107 -55.5479 -55.2695 -54.9423 -54.9183
   -32.4695 -32.4037 -32.2819 -32.2755 -32.2676 -32.2637 -32.2550 -32.2219
   -32.2022 -32.1939 -32.1829 -32.1645 -32.1553 -32.1520 -32.1355 -32.1171
   -32.1112 -32.0959 -32.0461 -32.0338 -32.0279 -32.0176 -32.0100 -31.9936
   -31.9844 -31.9825 -31.9695 -31.9682 -31.9664 -31.9566 -31.9466 -31.9392
   -31.9343 -31.9236 -31.9116 -31.9039 -31.9004 -31.8144 -31.7159 -31.5690
   -31.5380 -31.4813 -31.2999 -31.2658 -31.2462 -31.1584 -31.0973 -31.0306
   -16.5394 -16.2536 -16.0907 -16.0026 -15.9760 -15.9250 -15.8635 -15.7915
   -15.7284 -15.6281 -15.6261 -15.5908 -15.5856 -15.5536 -15.4649 -15.4512
   -15.4279 -15.3855 -15.3541 -15.2976 -15.2851 -15.2530 -15.2187 -15.2139
   -15.1979 -15.1711 -15.1325 -15.0221 -14.6495 -14.0774 -13.4523 -13.3740
    -8.9504  -4.3905  -3.8656  -3.5470  -3.5040  -3.4559  -3.4255  -3.3530
    -3.3442  -3.2944  -3.2563  -3.1601  -3.0927  -3.0626  -3.0120  -2.9896
    -2.9529  -2.8651  -2.8548  -2.8191  -2.7891  -2.7608  -2.7160  -2.6965
    -2.6818  -2.6741  -2.6243  -2.6086  -2.5729  -2.5163  -2.4583  -2.4318
    -2.3439  -2.2913  -2.2297  -2.1722  -2.1107  -2.0298  -1.9760  -1.9653
    -1.9242  -1.7795  -1.7229  -1.6771  -1.5992  -1.5287  -1.4339  -1.4112
    -1.3922  -1.3058  -1.2910  -1.2578  -1.2088  -1.1383  -1.1076  -1.0957
    -1.0438  -0.9816  -0.9385  -0.9032  -0.8723  -0.8238  -0.7797  -0.7606
    -0.6998  -0.6791  -0.6548  -0.6256  -0.6017  -0.5699  -0.5083  -0.4678
    -0.4220  -0.3865  -0.3030  -0.2799  -0.2679  -0.2136  -0.1705  -0.0485
    -0.0345  -0.0064   0.1307   0.1558   0.2104   0.2645   0.3430   0.3770
     0.4240   0.4475   0.4804   0.6189   0.6829   0.9775   1.2347   1.2744
     1.3523   1.5210   1.5836   3.3472   3.4144   3.4450   3.5421   3.5682
     3.5921   3.6618   3.7088   3.7226   3.7507

          k =-0.0760-0.0000 0.0000 ( 17886 PWs)   bands (ev):

   -55.9752 -55.9666 -55.9412 -55.9306 -55.8788 -55.8181 -55.8131 -55.7801
   -55.7784 -55.7465 -55.7397 -55.7058 -55.5483 -55.2690 -54.9473 -54.9133
   -32.5272 -32.4586 -32.3311 -32.3266 -32.2939 -32.2800 -32.2682 -32.2400
   -32.2170 -32.2141 -32.1860 -32.1501 -32.1496 -32.1218 -32.1094 -32.1049
   -32.1021 -32.0785 -32.0624 -32.0327 -32.0200 -32.0110 -31.9940 -31.9830
   -31.9766 -31.9725 -31.9701 -31.9569 -31.9538 -31.9428 -31.9361 -31.9331
   -31.9284 -31.9106 -31.8939 -31.8858 -31.8530 -31.8184 -31.7187 -31.5437
   -31.5381 -31.4664 -31.3536 -31.2732 -31.2409 -31.1709 -31.0845 -30.9735
   -16.5837 -16.2696 -16.1150 -16.0588 -16.0134 -15.9658 -15.8251 -15.7551
   -15.7474 -15.6902 -15.6808 -15.6697 -15.6684 -15.6533 -15.6244 -15.5409
   -15.3338 -15.3141 -15.3018 -15.2884 -15.2462 -15.2185 -15.1698 -15.1447
   -15.1282 -15.1244 -15.0580 -15.0017 -14.5739 -14.0588 -13.4442 -13.3335
    -8.9539  -4.4469  -4.0229  -3.6448  -3.5773  -3.5326  -3.3686  -3.3625
    -3.3082  -3.3008  -3.2499  -3.2329  -3.2183  -3.1896  -3.1787  -3.0066
    -2.9677  -2.8541  -2.7753  -2.7354  -2.7284  -2.6138  -2.6010  -2.5398
    -2.5371  -2.4749  -2.4687  -2.3992  -2.3525  -2.3027  -2.2788  -2.2674
    -2.2319  -2.2026  -2.2015  -2.1485  -2.1275  -2.1030  -2.0645  -1.9885
    -1.7930  -1.7816  -1.7727  -1.6290  -1.6149  -1.5883  -1.5661  -1.5558
    -1.5436  -1.4575  -1.4369  -1.3554  -1.3328  -1.3044  -1.2500  -1.2015
    -1.1775  -1.1307  -1.1271  -1.0551  -0.8524  -0.8228  -0.8095  -0.7215
    -0.6712  -0.6500  -0.6247  -0.5903  -0.5220  -0.4896  -0.4673  -0.4049
    -0.3767  -0.2929  -0.2514  -0.2337  -0.2093  -0.1696  -0.1575  -0.1217
    -0.0726   0.0048   0.0421   0.0858   0.1373   0.2802   0.2882   0.3319
     0.5130   0.5255   0.6459   0.7218   0.7703   1.0159   1.1071   1.2123
     1.2915   1.4041   1.5517   3.2054   3.2123   3.3286   3.4474   3.4962
     3.5809   3.6165   3.6714   3.6913   3.6986

          k =-0.0760 0.0419 0.0000 ( 17914 PWs)   bands (ev):

   -55.9703 -55.9614 -55.9462 -55.9359 -55.8763 -55.8207 -55.8081 -55.7835
   -55.7752 -55.7514 -55.7348 -55.7108 -55.5479 -55.2695 -54.9424 -54.9183
   -32.4698 -32.4047 -32.2821 -32.2771 -32.2748 -32.2637 -32.2552 -32.2219
   -32.2022 -32.1941 -32.1879 -32.1565 -32.1525 -32.1477 -32.1358 -32.1091
   -32.1072 -32.0921 -32.0509 -32.0460 -32.0175 -32.0100 -31.9955 -31.9944
   -31.9857 -31.9832 -31.9729 -31.9677 -31.9657 -31.9571 -31.9550 -31.9465
   -31.9368 -31.9231 -31.9114 -31.9069 -31.9038 -31.8170 -31.7159 -31.5690
   -31.5389 -31.4813 -31.2997 -31.2686 -31.2455 -31.1584 -31.0973 -31.0307
   -16.4642 -16.1565 -16.0264 -15.9741 -15.9521 -15.8766 -15.8636 -15.7284
   -15.7212 -15.7090 -15.6587 -15.6372 -15.6276 -15.6012 -15.5791 -15.5346
   -15.4066 -15.3833 -15.3672 -15.3531 -15.2997 -15.2556 -15.2380 -15.2219
   -15.1721 -15.1492 -15.1285 -15.0189 -14.6479 -14.0742 -13.4502 -13.3743
    -8.9528  -4.4086  -3.8524  -3.4814  -3.3531  -3.3063  -3.2666  -3.2123
    -3.1613  -3.1256  -3.0893  -3.0682  -3.0468  -3.0183  -2.9765  -2.9598
    -2.9369  -2.9166  -2.8392  -2.7824  -2.7500  -2.7296  -2.6928  -2.6726
    -2.6610  -2.6274  -2.5753  -2.5551  -2.4609  -2.4499  -2.4451  -2.4283
    -2.3317  -2.2202  -2.1870  -2.1049  -2.0978  -2.0614  -2.0123  -1.9444
    -1.9253  -1.7596  -1.7376  -1.6238  -1.5823  -1.5348  -1.5273  -1.4629
    -1.4524  -1.4072  -1.3805  -1.3027  -1.2873  -1.2577  -1.2096  -1.1975
    -1.1860  -1.1370  -1.1132  -1.0770  -1.0208  -0.9936  -0.9670  -0.9107
    -0.8202  -0.7804  -0.7399  -0.7089  -0.6971  -0.6608  -0.6018  -0.5665
    -0.5249  -0.4893  -0.3860  -0.3144  -0.2797  -0.2598  -0.1392  -0.0681
     0.0201   0.0628   0.1061   0.2183   0.2601   0.3316   0.3741   0.4149
     0.4770   0.4878   0.5508   0.6007   0.6259   0.8242   1.2415   1.2893
     1.3558   1.4447   1.5723   3.3332   3.3902   3.4128   3.4813   3.4965
     3.5250   3.6502   3.6851   3.7370   3.7923

          k =-0.0760-0.0839 0.0000 ( 17948 PWs)   bands (ev):

   -55.9587 -55.9579 -55.9497 -55.9478 -55.8735 -55.8235 -55.7979 -55.7938
   -55.7643 -55.7624 -55.7234 -55.7222 -55.5474 -55.2700 -54.9305 -54.9303
   -32.3312 -32.3284 -32.2724 -32.2719 -32.2598 -32.2543 -32.2535 -32.2394
   -32.1770 -32.1760 -32.1693 -32.1655 -32.1426 -32.1144 -32.0955 -32.0914
   -32.0810 -32.0781 -32.0775 -32.0774 -32.0754 -32.0634 -32.0610 -32.0297
   -32.0184 -32.0127 -31.9883 -31.9789 -31.9610 -31.9605 -31.9564 -31.9552
   -31.9384 -31.9377 -31.9357 -31.9339 -31.8818 -31.8157 -31.7141 -31.6070
   -31.5391 -31.4924 -31.2569 -31.2569 -31.1673 -31.1671 -31.1280 -31.1280
   -16.1885 -16.1550 -15.9195 -15.9097 -15.9011 -15.8847 -15.7399 -15.6885
   -15.6799 -15.6731 -15.6491 -15.6258 -15.5744 -15.5441 -15.5095 -15.5029
   -15.4962 -15.4909 -15.4346 -15.4281 -15.4058 -15.3984 -15.2848 -15.2806
   -15.2788 -15.2023 -15.1384 -15.0048 -14.7503 -14.0885 -13.4360 -13.4359
    -8.9518  -4.3716  -3.4829  -3.4447  -3.2756  -3.1817  -3.1591  -3.1460
    -3.1244  -3.0443  -2.8857  -2.8711  -2.8528  -2.8396  -2.7996  -2.7943
    -2.7828  -2.7688  -2.7615  -2.7444  -2.7104  -2.6704  -2.6410  -2.6339
    -2.6250  -2.6002  -2.5881  -2.5617  -2.5564  -2.5236  -2.5152  -2.4957
    -2.4725  -2.2077  -2.1902  -2.1743  -2.1057  -2.0989  -2.0641  -2.0563
    -2.0368  -2.0234  -1.9720  -1.8718  -1.7077  -1.6742  -1.6707  -1.6483
    -1.5822  -1.5609  -1.4105  -1.3821  -1.3653  -1.3262  -1.2781  -1.2460
    -1.2095  -1.1723  -1.1324  -1.0735  -1.0662  -0.9856  -0.9353  -0.9342
    -0.9090  -0.8384  -0.7581  -0.7412  -0.7290  -0.6889  -0.6764  -0.5934
    -0.5709  -0.4721  -0.4596  -0.3993  -0.3626  -0.2941  -0.0968   0.0094
     0.0680   0.0924   0.1452   0.2424   0.2956   0.3092   0.3440   0.3490
     0.4090   0.4482   0.5641   0.5716   0.6402   0.7439   1.2470   1.4384
     1.4390   1.5100   1.5101   3.4294   3.4350   3.4847   3.5156   3.6673
     3.6716   3.6945   3.6956   3.8167   3.8353

     the Fermi energy is     3.1608 ev

!    total energy              =   -2920.41981001 Ry
     estimated scf accuracy    <       0.00000007 Ry
     smearing contrib. (-TS)   =      -0.02203496 Ry
     internal energy E=F+TS    =   -2920.39777505 Ry

     The total energy is F=E-TS. E is the sum of the following terms:
     one-electron contribution =  -24730.42106386 Ry
     hartree contribution      =   12449.93254097 Ry
     xc contribution           =    -480.87109739 Ry
     ewald contribution        =    9840.96090831 Ry
     electric field correction =       0.00093691 Ry

     convergence has been achieved in  57 iterations

     Forces acting on atoms (cartesian axes, Ry/au):

     atom    1 type  1   force =     0.00011660   -0.00017582    0.09684784
     atom    2 type  1   force =     0.00004493   -0.00046647   -0.17503292
     atom    3 type  2   force =     0.00012849    0.00000817   -0.02533927
     atom    4 type  2   force =    -0.00003478   -0.00128030    0.05235357
     atom    5 type  2   force =    -0.01223909   -0.00000874    0.00298530
     atom    6 type  2   force =     0.01367625    0.00058513    0.00231849
     atom    7 type  1   force =     0.00057196    0.00035309   -0.01302023
     atom    8 type  1   force =     0.00045991    0.00730906    0.03072091
     atom    9 type  2   force =     0.00056033    0.00003363   -0.00020625
     atom   10 type  2   force =    -0.00267565    0.00211161   -0.01741042
     atom   11 type  2   force =    -0.00012868    0.00006970   -0.00003806
     atom   12 type  2   force =     0.00046386    0.00033488    0.00017174
     atom   13 type  1   force =    -0.00009733   -0.00053792   -0.00009626
     atom   14 type  1   force =    -0.00044705    0.00002955    0.00078360
     atom   15 type  2   force =    -0.00004770   -0.00098892    0.00052612
     atom   16 type  2   force =     0.00025298    0.00062723   -0.00042970
     atom   17 type  2   force =     0.00045513   -0.00004642    0.00061970
     atom   18 type  2   force =    -0.00001526   -0.00010640    0.00009120
     atom   19 type  1   force =     0.00005127    0.00044306   -0.00044531
     atom   20 type  1   force =    -0.00014981   -0.00132136   -0.00159753
     atom   21 type  2   force =     0.00006292   -0.00002624    0.10310195
     atom   22 type  2   force =     0.00009272   -0.00074155    0.00132761
     atom   23 type  2   force =    -0.07163670   -0.00015625   -0.02781427
     atom   24 type  2   force =     0.07153320    0.00034062   -0.02787354
     atom   25 type  1   force =     0.00007417   -0.00013604    0.09657998
     atom   26 type  1   force =     0.00008936   -0.00019742   -0.17515785
     atom   27 type  2   force =     0.00011750   -0.00011410   -0.02439794
     atom   28 type  2   force =     0.00004452   -0.00104082    0.05226934
     atom   29 type  2   force =    -0.01243889    0.00063836    0.00277833
     atom   30 type  2   force =     0.01374584    0.00098070    0.00212555
     atom   31 type  1   force =     0.00044903    0.00316830   -0.01358487
     atom   32 type  1   force =     0.00032360   -0.00952408    0.03109285
     atom   33 type  2   force =    -0.00007121    0.00030934   -0.00059609
     atom   34 type  2   force =    -0.00206062    0.00181975   -0.02541645
     atom   35 type  2   force =    -0.00017016   -0.00029347    0.00036146
     atom   36 type  2   force =     0.00025511   -0.00078501    0.00038766
     atom   37 type  1   force =     0.00004271    0.00026470    0.00112864
     atom   38 type  1   force =    -0.00023123    0.00039232    0.00075947
     atom   39 type  2   force =    -0.00004915   -0.00022518   -0.00117295
     atom   40 type  2   force =     0.00042039    0.00007121    0.00063812
     atom   41 type  2   force =     0.00012298   -0.00012403   -0.00004788
     atom   42 type  2   force =    -0.00045025   -0.00037958   -0.00028776
     atom   43 type  1   force =    -0.00072191   -0.00018352    0.00023225
     atom   44 type  1   force =    -0.00031855    0.00007668   -0.00073652
     atom   45 type  2   force =     0.00004150   -0.00005067    0.10311296
     atom   46 type  2   force =    -0.07162978   -0.00006826   -0.02780948
     atom   47 type  2   force =     0.07154930    0.00035047   -0.02788093
     atom   48 type  3   force =     0.00418296   -0.00029915   -0.00352704
     atom   49 type  4   force =    -0.00164763   -0.00018948    0.01340545
     atom   50 type  5   force =    -0.00054600   -0.00047275   -0.00472610
     atom   51 type  3   force =    -0.00129794    0.00014324   -0.00017305
     atom   52 type  3   force =    -0.00077631   -0.00060875   -0.00146511
     atom   53 type  3   force =    -0.00004785    0.00008794   -0.00043628

     Total force =     0.368722     Total SCF correction =     0.000510
  @ DRIVER MODE: Message from server: STATUS
  @ DRIVER MODE: Message from server: GETFORCE
  @ DRIVER MODE: Returning v,forces,stress,ensemble 

     Writing output data file ./calc.save/
  @ DRIVER MODE: Message from server: EXIT
  @ DRIVE MODE: Exiting  
 
     init_run     :      8.36s CPU     13.11s WALL (       1 calls)
     electrons    :    756.28s CPU    779.46s WALL (       1 calls)
     forces       :      1.62s CPU      1.67s WALL (       1 calls)

     Called by init_run:
     wfcinit      :      3.23s CPU      3.28s WALL (       1 calls)
     potinit      :      4.04s CPU      7.95s WALL (       1 calls)
     hinit0       :      0.44s CPU      0.91s WALL (       1 calls)

     Called by electrons:
     c_bands      :    647.56s CPU    666.40s WALL (      57 calls)
     sum_band     :     78.75s CPU     80.48s WALL (      57 calls)
     v_of_rho     :     21.38s CPU     25.65s WALL (      58 calls)
     newd         :      8.53s CPU     10.43s WALL (      58 calls)
     mix_rho      :      3.25s CPU      3.29s WALL (      57 calls)
     vdW_kernel   :      3.49s CPU      7.00s WALL (       1 calls)

     Called by c_bands:
     init_us_2    :      3.33s CPU      3.36s WALL (    1160 calls)
     cegterg      :    637.12s CPU    655.64s WALL (     571 calls)

     Called by *egterg:
     cdiaghg      :    160.31s CPU    166.27s WALL (    6596 calls)
     h_psi        :    299.41s CPU    309.52s WALL (    6606 calls)
     s_psi        :     36.28s CPU     36.44s WALL (    6606 calls)
     g_psi        :      0.90s CPU      0.91s WALL (    6025 calls)

     Called by h_psi:
     h_psi:calbec :     35.91s CPU     36.27s WALL (    6606 calls)
     vloc_psi     :    225.09s CPU    234.65s WALL (    6606 calls)
     add_vuspsi   :     36.91s CPU     37.09s WALL (    6606 calls)

     General routines
     calbec       :     47.34s CPU     47.76s WALL (    7216 calls)
     fft          :     10.68s CPU     10.89s WALL (    3654 calls)
     ffts         :      0.10s CPU      0.10s WALL (     115 calls)
     fftw         :    268.08s CPU    277.93s WALL (  773536 calls)
     interpolate  :      0.26s CPU      0.26s WALL (      58 calls)
     davcio       :      0.00s CPU      0.14s WALL (      10 calls)
 
     Parallel routines
 
     PWSCF        :  12m48.47s CPU  13m18.09s WALL

 
   This run was terminated on:  15: 0:53   2Aug2021            

=------------------------------------------------------------------------------=
   JOB DONE.
=------------------------------------------------------------------------------=
