
     Program PWSCF v.6.7GPU starts on 30Jun2021 at 16: 1:29 

     This program is part of the open-source Quantum ESPRESSO suite
     for quantum simulation of materials; please cite
         "P. Giannozzi et al., J. Phys.:Condens. Matter 21 395502 (2009);
         "P. Giannozzi et al., J. Phys.:Condens. Matter 29 465901 (2017);
         "P. Giannozzi et al., J. Chem. Phys. 152 154105 (2020);
          URL http://www.quantum-espresso.org", 
     in publications or presentations arising from this work. More details at
     http://www.quantum-espresso.org/quote

     Parallel version (MPI), running on    16 processors

     MPI processes distributed on     1 nodes
     R & G space division:  proc/nbgrp/npool/nimage =      16
     Reading input from /storage/home/hcoda1/3/ntian30/research/carbon/30Jun_spin_polarized/ads_slab/CH3NH_a/30Jun.log/pw.inp
Warning: card &CELL ignored
Warning: card   CELL_DYNAMICS='IPI', ignored
Warning: card / ignored

     Current dimensions of program PWSCF are:
     Max number of different atomic species (ntypx) = 10
     Max number of k-points (npk) =  40000
     Max angular momentum in pseudopotentials (lmaxx) =  3
     Presently no symmetry can be used with electric field

     Message from routine cell_base_init:
     DEPRECATED: use true lattice parameter, not A to a.u. conversion factor

     **************************************************************************
     Initializing libbeef V0.1.2 with the BEEF-vdW functional.
     Citation: Wellendorff et al., PRB 85, 235149 (2012).
     **************************************************************************


     IMPORTANT: XC functional enforced from input :
     Exchange-correlation= BEEF-VDW
                           (   1   4  43  14   2   0   0)
     Any further DFT definition will be discarded
     Please, verify this is what you really want


     Subspace diagonalization in iterative solution of the eigenvalue problem:
     one sub-group per band group will be used
     scalapack distributed-memory algorithm (size of sub-group:  4*  4 procs)

  @ DRIVER MODE: Connecting to 
 qe_1139763_2240214.sched-torque.pace.gatech.edu3cq2uzzl_scratch
  using UNIX socket
  @ DRIVER MODE: Message from server: STATUS
  @ DRIVER MODE: Message from server: INIT
  @ DRIVER MODE: Receiving replica           0          -1
  @ DRIVER MODE: Receiving encoded integer          25
  @ DRIVER MODE:  SCF:  T  FORCE:  T  STRESS:  F  VC:  F  ENSEMBLE:  F
  @ DRIVER MODE:  SCF:  T  FORCE:  T  STRESS:  F  VC:  F  ENSEMBLE:  F
 
     Parallelization info
     --------------------
     sticks:   dense  smooth     PW     G-vecs:    dense   smooth      PW
     Min         204      82     23                35422     8962    1367
     Max         205      84     24                35435     8968    1382
     Sum        3275    1317    379               566857   143421   21985
 
     Using Slab Decomposition
 


     bravais-lattice index     =            0
     lattice parameter (alat)  =       1.8897  a.u.
     unit-cell volume          =    6658.9804 (a.u.)^3
     number of atoms/cell      =           53
     number of atomic types    =            5
     number of electrons       =       391.00
     number of Kohn-Sham states=          205
     kinetic-energy cutoff     =      29.3995  Ry
     charge density cutoff     =     293.9946  Ry
     scf convergence threshold =      7.3E-08
     mixing beta               =       0.0500
     number of iterations used =            8  plain     mixing
     Exchange-correlation= BEEF-VDW
                           (   1   4  43  14   2   0   0)

     celldm(1)=   1.889726  celldm(2)=   0.000000  celldm(3)=   0.000000
     celldm(4)=   0.000000  celldm(5)=   0.000000  celldm(6)=   0.000000

     crystal axes: (cart. coord. in units of alat)
               a(1) = (   6.579727   0.000000   0.000000 )  
               a(2) = (  -0.000775   5.961596   0.000000 )  
               a(3) = (   0.000000   0.000000  25.155947 )  

     reciprocal axes: (cart. coord. in units 2 pi/alat)
               b(1) = (  0.151982  0.000020  0.000000 )  
               b(2) = (  0.000000  0.167740  0.000000 )  
               b(3) = (  0.000000  0.000000  0.039752 )  


     PseudoPot. # 1 for Ti read from file:
     /storage/coda1/p-amedford6/0/shared/rich_project_chbe-medford/medford-share/data/pseudos_module/espresso/nninc/pbe/van/Ti.UPF
     MD5 check sum: 8e4df49b7f0d34bbd5052bf3f5ea0213
     Pseudo is Ultrasoft, Zval = 12.0
     Generated by new atomic code, or converted to UPF format
     Using radial grid of  851 points,  6 beta functions with: 
                l(1) =   0
                l(2) =   0
                l(3) =   1
                l(4) =   1
                l(5) =   2
                l(6) =   2
     Q(r) pseudized with  8 coefficients,  rinner =    1.000   1.000   1.000
                                                       1.000   1.000

     PseudoPot. # 2 for O  read from file:
     /storage/coda1/p-amedford6/0/shared/rich_project_chbe-medford/medford-share/data/pseudos_module/espresso/nninc/pbe/van/O.UPF
     MD5 check sum: 78c19812648e8988a0fe644b0f25305e
     Pseudo is Ultrasoft, Zval =  6.0
     Generated by new atomic code, or converted to UPF format
     Using radial grid of  737 points,  4 beta functions with: 
                l(1) =   0
                l(2) =   0
                l(3) =   1
                l(4) =   1
     Q(r) pseudized with  8 coefficients,  rinner =    0.800   0.800   0.800


     PseudoPot. # 3 for H  read from file:
     /storage/coda1/p-amedford6/0/shared/rich_project_chbe-medford/medford-share/data/pseudos_module/espresso/nninc/pbe/van/H.UPF
     MD5 check sum: b5ee9d7bfd3a09ee7748110bda690ff7
     Pseudo is Ultrasoft, Zval =  1.0
     Generated by new atomic code, or converted to UPF format
     Using radial grid of  615 points,  1 beta functions with: 
                l(1) =   0
     Q(r) pseudized with  8 coefficients,  rinner =    0.800

     PseudoPot. # 4 for N  read from file:
     /storage/coda1/p-amedford6/0/shared/rich_project_chbe-medford/medford-share/data/pseudos_module/espresso/nninc/pbe/van/N.UPF
     MD5 check sum: 90d10febe142ad51ac9d5be1deb811c4
     Pseudo is Ultrasoft, Zval =  5.0
     Generated by new atomic code, or converted to UPF format
     Using radial grid of  729 points,  4 beta functions with: 
                l(1) =   0
                l(2) =   0
                l(3) =   1
                l(4) =   1
     Q(r) pseudized with  8 coefficients,  rinner =    0.800   0.800   0.800


     PseudoPot. # 5 for C  read from file:
     /storage/coda1/p-amedford6/0/shared/rich_project_chbe-medford/medford-share/data/pseudos_module/espresso/nninc/pbe/van/C.UPF
     MD5 check sum: 1a69bf6b8db32088f5b2163dbdb77a27
     Pseudo is Ultrasoft, Zval =  4.0
     Generated by new atomic code, or converted to UPF format
     Using radial grid of  721 points,  4 beta functions with: 
                l(1) =   0
                l(2) =   0
                l(3) =   1
                l(4) =   1
     Q(r) pseudized with  8 coefficients,  rinner =    0.800   0.800   0.800


     atomic species   valence    mass     pseudopotential
        Ti1           12.00    47.86700     Ti( 1.00)
        O1             6.00    15.99900     O ( 1.00)
        H1             1.00     1.00800     H ( 1.00)
        N1             5.00    14.00700     N ( 1.00)
        C1             4.00    12.01100     C ( 1.00)

     Starting magnetic structure 
     atomic species   magnetization
        Ti1          0.000
        O1           0.000
        H1           0.000
        N1           0.000
        C1           0.025

     No symmetry found



   Cartesian axes

     site n.     atom                  positions (alat units)
         1           Ti1 tau(   1) = (   0.0004258   2.9801865   6.0000000  )
         2           Ti1 tau(   2) = (   3.2906075   1.4906267   6.0002472  )
         3           O1  tau(   3) = (   0.0006271   0.0005054   7.9858123  )
         4           O1  tau(   4) = (   3.2906025   0.0005020   7.3038282  )
         5           O1  tau(   5) = (   4.5942328   1.4918067   9.2879030  )
         6           O1  tau(   6) = (   1.9868534   1.4903216   9.2879459  )
         7           Ti1 tau(   7) = (   3.2907910   2.8959150   9.1758416  )
         8           Ti1 tau(   8) = (   0.0015273   1.4827037   9.2680791  )
         9           O1  tau(   9) = (   3.2884659   0.0075485  11.3235732  )
        10           O1  tau(  10) = (   0.0116148   5.9584955  10.6183126  )
        11           O1  tau(  11) = (   1.3171120   1.5008813  12.6157184  )
        12           O1  tau(  12) = (   5.2946386   1.4924346  12.6071097  )
        13           Ti1 tau(  13) = (   6.5241923   2.9548932  12.6217359  )
        14           Ti1 tau(  14) = (   3.2094326   1.4975571  12.4685497  )
        15           O1  tau(  15) = (   6.5712017   0.0435206  14.6415704  )
        16           O1  tau(  16) = (   3.3105969   0.0188825  13.9167609  )
        17           O1  tau(  17) = (   4.5276945   1.5520673  16.0775932  )
        18           O1  tau(  18) = (   2.0451199   1.5488911  16.0433559  )
        19           Ti1 tau(  19) = (   3.3056363   3.0248959  15.6834923  )
        20           Ti1 tau(  20) = (   0.0598299   1.5678558  15.8702049  )
        21           O1  tau(  21) = (   3.2904802   0.0005063   4.7018136  )
        22           O1  tau(  22) = (   0.0261329   0.0581799  17.1997403  )
        23           O1  tau(  23) = (   1.3043587   1.4918075   6.0039043  )
        24           O1  tau(  24) = (   5.2767064   1.4903225   6.0039473  )
        25           Ti1 tau(  25) = (   0.0000382   5.9609847   6.0000000  )
        26           Ti1 tau(  26) = (   3.2902200   4.4714249   6.0002472  )
        27           O1  tau(  27) = (   0.0002396   2.9813036   7.9858123  )
        28           O1  tau(  28) = (   3.2902150   2.9813002   7.3038282  )
        29           O1  tau(  29) = (   4.5938453   4.4726049   9.2879030  )
        30           O1  tau(  30) = (   1.9864658   4.4711199   9.2879459  )
        31           Ti1 tau(  31) = (   3.2891106   5.8743827   9.1763621  )
        32           Ti1 tau(  32) = (   0.0006254   4.4649316   9.2693709  )
        33           O1  tau(  33) = (   3.2900467   2.9919642  11.3219399  )
        34           O1  tau(  34) = (   0.0092240   2.9805883  10.6323155  )
        35           O1  tau(  35) = (   1.3109590   4.4888342  12.6262493  )
        36           O1  tau(  36) = (   5.2962169   4.4808628  12.6191006  )
        37           Ti1 tau(  37) = (   6.5213093   5.9327278  12.5667326  )
        38           Ti1 tau(  38) = (   3.2063601   4.4772876  12.4706241  )
        39           O1  tau(  39) = (   6.5765807   2.9606619  14.6437028  )
        40           O1  tau(  40) = (   3.3047873   3.0036736  13.8926904  )
        41           O1  tau(  41) = (   4.5386289   4.5058657  16.0833063  )
        42           O1  tau(  42) = (   2.0584685   4.5123608  16.0729366  )
        43           Ti1 tau(  43) = (   3.3398093   0.0384087  15.7085799  )
        44           Ti1 tau(  44) = (   0.0478225   4.6849499  16.0879628  )
        45           O1  tau(  45) = (   3.2900926   2.9813045   4.7018136  )
        46           O1  tau(  46) = (   1.3039711   4.4726057   6.0039043  )
        47           O1  tau(  47) = (   5.2763189   4.4711207   6.0039473  )
        48           H1  tau(  48) = (   5.6109407   2.9912845  17.7881963  )
        49           N1  tau(  49) = (   6.5652763   3.0051276  17.4431066  )
        50           C1  tau(  50) = (   0.8863280   2.9891452  18.6126320  )
        51           H1  tau(  51) = (   1.3596840   3.9617220  18.7724638  )
        52           H1  tau(  52) = (   0.3315535   2.7344040  19.5171108  )
        53           H1  tau(  53) = (   1.6705027   2.2407838  18.4910999  )

     number of k points=    10  Fermi-Dirac smearing, width (Ry)=  0.0073
                       cart. coord. in units 2pi/alat
        k(    1) = (   0.0000000   0.0000000   0.0000000), wk =   0.0625000
        k(    2) = (   0.0000000   0.0419351   0.0000000), wk =   0.1250000
        k(    3) = (   0.0000000  -0.0838702   0.0000000), wk =   0.0625000
        k(    4) = (   0.0379955   0.0000049   0.0000000), wk =   0.1250000
        k(    5) = (   0.0379955   0.0419400   0.0000000), wk =   0.1250000
        k(    6) = (   0.0379955  -0.0838652   0.0000000), wk =   0.1250000
        k(    7) = (   0.0379955  -0.0419301   0.0000000), wk =   0.1250000
        k(    8) = (  -0.0759910  -0.0000099   0.0000000), wk =   0.0625000
        k(    9) = (  -0.0759910   0.0419252   0.0000000), wk =   0.1250000
        k(   10) = (  -0.0759910  -0.0838800   0.0000000), wk =   0.0625000

     Dense  grid:   566857 G-vectors     FFT dimensions: (  72,  64, 270)

     Smooth grid:   143421 G-vectors     FFT dimensions: (  45,  40, 180)

     Estimated max dynamical RAM per process >     278.55 MB

     Estimated total dynamical RAM >       4.35 GB
     Generating pointlists ...
     new r_m :   0.7166 (alat units)  1.3543 (a.u.) for type    1
     new r_m :   0.7166 (alat units)  1.3543 (a.u.) for type    2
     new r_m :   0.4186 (alat units)  0.7911 (a.u.) for type    3
     new r_m :   0.4186 (alat units)  0.7911 (a.u.) for type    4
     new r_m :   0.4499 (alat units)  0.8503 (a.u.) for type    5

     Initial potential from superposition of free atoms

     starting charge  374.99916, renormalised to  391.00000

     negative rho (up, down):  8.890E-03 8.897E-03


     %%%%%%%%%%%%%%%%%%%%%%%%%%%%%%%%%%%%%%%%%%%%%%%%%%%%%%%%%%%%%%%%%%%%%%%%
     %                                                                      %
     % You are using vdW-DF, which was implemented by the Thonhauser group. %
     % Please cite the following two papers that made this development      %
     % possible and the two reviews that describe the various versions:     %
     %                                                                      %
     %   T. Thonhauser et al., PRL 115, 136402 (2015).                      %
     %   T. Thonhauser et al., PRB 76, 125112 (2007).                       %
     %   K. Berland et al., Rep. Prog. Phys. 78, 066501 (2015).             %
     %   D.C. Langreth et al., J. Phys.: Condens. Matter 21, 084203 (2009). %
     %                                                                      %
     %                                                                      %
     % If you are calculating the stress with vdW-DF, please also cite:     %
     %                                                                      %
     %   R. Sabatini et al., J. Phys.: Condens. Matter 24, 424209 (2012).   %
     %                                                                      %
     %%%%%%%%%%%%%%%%%%%%%%%%%%%%%%%%%%%%%%%%%%%%%%%%%%%%%%%%%%%%%%%%%%%%%%%%


 
     Adding external electric field

     Computed dipole along edir(3) : 
        Dipole               -5.8084 Ry au,        -14.7635 Debye
        Dipole field         -0.0110 Ry au, 
 
        Potential amp.        1.0161 Ry
        Total length         46.3494 bohr
 
 
     Adding external electric field

     Computed dipole along edir(3) : 
        Dipole               -5.8084 Ry au,        -14.7635 Debye
        Dipole field         -0.0110 Ry au, 
 
        Potential amp.        1.0161 Ry
        Total length         46.3494 bohr
 
     Starting wfcs are  296 atomic wfcs
  @ DRIVER MODE: Message from server: STATUS
  @ DRIVER MODE: Message from server: POSDATA
  @ DRIVER MODE: Reading and sharing cell 
  @ DRIVER MODE: Reading and sharing positions 
  @ DRIVER MODE: Received positions 

     total cpu time spent up to now is       17.9 secs

     Self-consistent Calculation

     iteration #  1     ecut=    29.40 Ry     beta= 0.05
     Davidson diagonalization with overlap
     ethr =  1.00E-02,  avg # of iterations =  2.2

     negative rho (up, down):  8.823E-03 8.830E-03
 
     Adding external electric field

     Computed dipole along edir(3) : 
        Dipole               25.5716 Ry au,         64.9965 Debye
        Dipole field          0.0483 Ry au, 
 
        Potential amp.       -4.4734 Ry
        Total length         46.3494 bohr
 
 
     Adding external electric field

     Computed dipole along edir(3) : 
        Dipole               25.5716 Ry au,         64.9965 Debye
        Dipole field          0.0483 Ry au, 
 
        Potential amp.       -4.4734 Ry
        Total length         46.3494 bohr
 

     total cpu time spent up to now is       33.2 secs

     total energy              =   -2773.36966653 Ry
     estimated scf accuracy    <    1609.05200197 Ry

     total magnetization       =     0.01 Bohr mag/cell
     absolute magnetization    =     0.03 Bohr mag/cell

     iteration #  2     ecut=    29.40 Ry     beta= 0.05
     Davidson diagonalization with overlap
     ethr =  1.00E-02,  avg # of iterations = 18.9

     negative rho (up, down):  3.615E-03 3.615E-03
 
     Adding external electric field

     Computed dipole along edir(3) : 
        Dipole               -2.6043 Ry au,         -6.6195 Debye
        Dipole field         -0.0049 Ry au, 
 
        Potential amp.        0.4556 Ry
        Total length         46.3494 bohr
 
 
     Adding external electric field

     Computed dipole along edir(3) : 
        Dipole               -2.6043 Ry au,         -6.6195 Debye
        Dipole field         -0.0049 Ry au, 
 
        Potential amp.        0.4556 Ry
        Total length         46.3494 bohr
 

     total cpu time spent up to now is      104.0 secs

     total energy              =   -2639.09633077 Ry
     estimated scf accuracy    <   36909.10409029 Ry

     total magnetization       =     0.03 Bohr mag/cell
     absolute magnetization    =     0.29 Bohr mag/cell

     iteration #  3     ecut=    29.40 Ry     beta= 0.05
     Davidson diagonalization with overlap
     ethr =  1.00E-02,  avg # of iterations = 15.3

     negative rho (up, down):  3.639E-03 3.638E-03
 
     Adding external electric field

     Computed dipole along edir(3) : 
        Dipole               -3.7442 Ry au,         -9.5167 Debye
        Dipole field         -0.0071 Ry au, 
 
        Potential amp.        0.6550 Ry
        Total length         46.3494 bohr
 
 
     Adding external electric field

     Computed dipole along edir(3) : 
        Dipole               -3.7442 Ry au,         -9.5167 Debye
        Dipole field         -0.0071 Ry au, 
 
        Potential amp.        0.6550 Ry
        Total length         46.3494 bohr
 

     total cpu time spent up to now is      163.1 secs

     total energy              =   -2907.43755443 Ry
     estimated scf accuracy    <    1374.15446053 Ry

     total magnetization       =    -0.39 Bohr mag/cell
     absolute magnetization    =     0.69 Bohr mag/cell

     iteration #  4     ecut=    29.40 Ry     beta= 0.05
     Davidson diagonalization with overlap
     ethr =  1.00E-02,  avg # of iterations =  8.2

     negative rho (up, down):  3.676E-03 3.678E-03
 
     Adding external electric field

     Computed dipole along edir(3) : 
        Dipole               -4.7044 Ry au,        -11.9574 Debye
        Dipole field         -0.0089 Ry au, 
 
        Potential amp.        0.8230 Ry
        Total length         46.3494 bohr
 
 
     Adding external electric field

     Computed dipole along edir(3) : 
        Dipole               -4.7044 Ry au,        -11.9574 Debye
        Dipole field         -0.0089 Ry au, 
 
        Potential amp.        0.8230 Ry
        Total length         46.3494 bohr
 

     total cpu time spent up to now is      181.7 secs

     total energy              =   -2904.59528513 Ry
     estimated scf accuracy    <     733.79770215 Ry

     total magnetization       =     1.05 Bohr mag/cell
     absolute magnetization    =     1.38 Bohr mag/cell

     iteration #  5     ecut=    29.40 Ry     beta= 0.05
     Davidson diagonalization with overlap
     ethr =  1.00E-02,  avg # of iterations =  8.8

     negative rho (up, down):  3.546E-03 3.561E-03
 
     Adding external electric field

     Computed dipole along edir(3) : 
        Dipole               -4.3857 Ry au,        -11.1472 Debye
        Dipole field         -0.0083 Ry au, 
 
        Potential amp.        0.7672 Ry
        Total length         46.3494 bohr
 
 
     Adding external electric field

     Computed dipole along edir(3) : 
        Dipole               -4.3857 Ry au,        -11.1472 Debye
        Dipole field         -0.0083 Ry au, 
 
        Potential amp.        0.7672 Ry
        Total length         46.3494 bohr
 

     total cpu time spent up to now is      217.7 secs

     total energy              =   -2922.66926293 Ry
     estimated scf accuracy    <      12.71608813 Ry

     total magnetization       =     0.02 Bohr mag/cell
     absolute magnetization    =     0.25 Bohr mag/cell

     iteration #  6     ecut=    29.40 Ry     beta= 0.05
     Davidson diagonalization with overlap
     ethr =  3.25E-03,  avg # of iterations =  2.0

     negative rho (up, down):  3.756E-03 3.732E-03
 
     Adding external electric field

     Computed dipole along edir(3) : 
        Dipole               -2.2522 Ry au,         -5.7245 Debye
        Dipole field         -0.0043 Ry au, 
 
        Potential amp.        0.3940 Ry
        Total length         46.3494 bohr
 
 
     Adding external electric field

     Computed dipole along edir(3) : 
        Dipole               -2.2522 Ry au,         -5.7245 Debye
        Dipole field         -0.0043 Ry au, 
 
        Potential amp.        0.3940 Ry
        Total length         46.3494 bohr
 

     total cpu time spent up to now is      234.2 secs

     total energy              =   -2919.46452663 Ry
     estimated scf accuracy    <      11.56135620 Ry

     total magnetization       =     0.05 Bohr mag/cell
     absolute magnetization    =     0.16 Bohr mag/cell

     iteration #  7     ecut=    29.40 Ry     beta= 0.05
     Davidson diagonalization with overlap
     ethr =  2.96E-03,  avg # of iterations =  5.5

     negative rho (up, down):  3.759E-03 3.731E-03
 
     Adding external electric field

     Computed dipole along edir(3) : 
        Dipole               -2.0798 Ry au,         -5.2863 Debye
        Dipole field         -0.0039 Ry au, 
 
        Potential amp.        0.3638 Ry
        Total length         46.3494 bohr
 
 
     Adding external electric field

     Computed dipole along edir(3) : 
        Dipole               -2.0798 Ry au,         -5.2863 Debye
        Dipole field         -0.0039 Ry au, 
 
        Potential amp.        0.3638 Ry
        Total length         46.3494 bohr
 

     total cpu time spent up to now is      253.1 secs

     total energy              =   -2922.52604659 Ry
     estimated scf accuracy    <     187.12229497 Ry

     total magnetization       =     0.17 Bohr mag/cell
     absolute magnetization    =     0.46 Bohr mag/cell

     iteration #  8     ecut=    29.40 Ry     beta= 0.05
     Davidson diagonalization with overlap
     ethr =  2.96E-03,  avg # of iterations =  2.4

     negative rho (up, down):  3.768E-03 3.745E-03
 
     Adding external electric field

     Computed dipole along edir(3) : 
        Dipole               -1.8380 Ry au,         -4.6717 Debye
        Dipole field         -0.0035 Ry au, 
 
        Potential amp.        0.3215 Ry
        Total length         46.3494 bohr
 
 
     Adding external electric field

     Computed dipole along edir(3) : 
        Dipole               -1.8380 Ry au,         -4.6717 Debye
        Dipole field         -0.0035 Ry au, 
 
        Potential amp.        0.3215 Ry
        Total length         46.3494 bohr
 

     total cpu time spent up to now is      268.3 secs

     total energy              =   -2922.41055813 Ry
     estimated scf accuracy    <     200.11353064 Ry

     total magnetization       =     0.23 Bohr mag/cell
     absolute magnetization    =     0.52 Bohr mag/cell

     iteration #  9     ecut=    29.40 Ry     beta= 0.05
     Davidson diagonalization with overlap
     ethr =  2.96E-03,  avg # of iterations =  2.0

     negative rho (up, down):  3.591E-03 3.606E-03
 
     Adding external electric field

     Computed dipole along edir(3) : 
        Dipole               -2.6638 Ry au,         -6.7707 Debye
        Dipole field         -0.0050 Ry au, 
 
        Potential amp.        0.4660 Ry
        Total length         46.3494 bohr
 
 
     Adding external electric field

     Computed dipole along edir(3) : 
        Dipole               -2.6638 Ry au,         -6.7707 Debye
        Dipole field         -0.0050 Ry au, 
 
        Potential amp.        0.4660 Ry
        Total length         46.3494 bohr
 

     total cpu time spent up to now is      282.9 secs

     total energy              =   -2917.09167750 Ry
     estimated scf accuracy    <     210.94951931 Ry

     total magnetization       =     0.17 Bohr mag/cell
     absolute magnetization    =     0.54 Bohr mag/cell

     iteration # 10     ecut=    29.40 Ry     beta= 0.05
     Davidson diagonalization with overlap
     ethr =  2.96E-03,  avg # of iterations =  3.0

     negative rho (up, down):  3.600E-03 3.613E-03
 
     Adding external electric field

     Computed dipole along edir(3) : 
        Dipole               -2.3515 Ry au,         -5.9770 Debye
        Dipole field         -0.0044 Ry au, 
 
        Potential amp.        0.4114 Ry
        Total length         46.3494 bohr
 
 
     Adding external electric field

     Computed dipole along edir(3) : 
        Dipole               -2.3515 Ry au,         -5.9770 Debye
        Dipole field         -0.0044 Ry au, 
 
        Potential amp.        0.4114 Ry
        Total length         46.3494 bohr
 

     total cpu time spent up to now is      305.7 secs

     total energy              =   -2920.45410709 Ry
     estimated scf accuracy    <       3.12552010 Ry

     total magnetization       =     0.18 Bohr mag/cell
     absolute magnetization    =     0.35 Bohr mag/cell

     iteration # 11     ecut=    29.40 Ry     beta= 0.05
     Davidson diagonalization with overlap
     ethr =  7.99E-04,  avg # of iterations =  8.9

     negative rho (up, down):  3.555E-03 3.568E-03
 
     Adding external electric field

     Computed dipole along edir(3) : 
        Dipole               -2.3356 Ry au,         -5.9366 Debye
        Dipole field         -0.0044 Ry au, 
 
        Potential amp.        0.4086 Ry
        Total length         46.3494 bohr
 
 
     Adding external electric field

     Computed dipole along edir(3) : 
        Dipole               -2.3356 Ry au,         -5.9366 Debye
        Dipole field         -0.0044 Ry au, 
 
        Potential amp.        0.4086 Ry
        Total length         46.3494 bohr
 

     total cpu time spent up to now is      333.1 secs

     total energy              =   -2920.59641169 Ry
     estimated scf accuracy    <       3.67576168 Ry

     total magnetization       =    -0.06 Bohr mag/cell
     absolute magnetization    =     0.27 Bohr mag/cell

     iteration # 12     ecut=    29.40 Ry     beta= 0.05
     Davidson diagonalization with overlap
     ethr =  7.99E-04,  avg # of iterations =  1.4

     negative rho (up, down):  3.568E-03 3.579E-03
 
     Adding external electric field

     Computed dipole along edir(3) : 
        Dipole               -1.9697 Ry au,         -5.0066 Debye
        Dipole field         -0.0037 Ry au, 
 
        Potential amp.        0.3446 Ry
        Total length         46.3494 bohr
 
 
     Adding external electric field

     Computed dipole along edir(3) : 
        Dipole               -1.9697 Ry au,         -5.0066 Debye
        Dipole field         -0.0037 Ry au, 
 
        Potential amp.        0.3446 Ry
        Total length         46.3494 bohr
 

     total cpu time spent up to now is      346.8 secs

     total energy              =   -2920.19332714 Ry
     estimated scf accuracy    <       2.23598813 Ry

     total magnetization       =    -0.03 Bohr mag/cell
     absolute magnetization    =     0.19 Bohr mag/cell

     iteration # 13     ecut=    29.40 Ry     beta= 0.05
     Davidson diagonalization with overlap
     c_bands:  1 eigenvalues not converged
     ethr =  5.72E-04,  avg # of iterations = 13.7

     negative rho (up, down):  3.662E-03 3.668E-03
 
     Adding external electric field

     Computed dipole along edir(3) : 
        Dipole               -1.2219 Ry au,         -3.1058 Debye
        Dipole field         -0.0023 Ry au, 
 
        Potential amp.        0.2138 Ry
        Total length         46.3494 bohr
 
 
     Adding external electric field

     Computed dipole along edir(3) : 
        Dipole               -1.2219 Ry au,         -3.1058 Debye
        Dipole field         -0.0023 Ry au, 
 
        Potential amp.        0.2138 Ry
        Total length         46.3494 bohr
 

     total cpu time spent up to now is      373.5 secs

     total energy              =   -2920.35869374 Ry
     estimated scf accuracy    <       1.58530399 Ry

     total magnetization       =    -0.05 Bohr mag/cell
     absolute magnetization    =     0.20 Bohr mag/cell

     iteration # 14     ecut=    29.40 Ry     beta= 0.05
     Davidson diagonalization with overlap
     ethr =  4.05E-04,  avg # of iterations =  3.1

     negative rho (up, down):  4.030E-03 4.019E-03
 
     Adding external electric field

     Computed dipole along edir(3) : 
        Dipole                0.1296 Ry au,          0.3295 Debye
        Dipole field          0.0002 Ry au, 
 
        Potential amp.       -0.0227 Ry
        Total length         46.3494 bohr
 
 
     Adding external electric field

     Computed dipole along edir(3) : 
        Dipole                0.1296 Ry au,          0.3295 Debye
        Dipole field          0.0002 Ry au, 
 
        Potential amp.       -0.0227 Ry
        Total length         46.3494 bohr
 

     total cpu time spent up to now is      389.6 secs

     total energy              =   -2920.17321090 Ry
     estimated scf accuracy    <       0.67013892 Ry

     total magnetization       =    -0.02 Bohr mag/cell
     absolute magnetization    =     0.15 Bohr mag/cell

     iteration # 15     ecut=    29.40 Ry     beta= 0.05
     Davidson diagonalization with overlap
     c_bands:  1 eigenvalues not converged
     c_bands:  1 eigenvalues not converged
     c_bands:  2 eigenvalues not converged
     c_bands:  2 eigenvalues not converged
     ethr =  1.71E-04,  avg # of iterations = 15.5

     negative rho (up, down):  3.910E-03 3.904E-03
 
     Adding external electric field

     Computed dipole along edir(3) : 
        Dipole               -0.1129 Ry au,         -0.2869 Debye
        Dipole field         -0.0002 Ry au, 
 
        Potential amp.        0.0197 Ry
        Total length         46.3494 bohr
 
 
     Adding external electric field

     Computed dipole along edir(3) : 
        Dipole               -0.1129 Ry au,         -0.2869 Debye
        Dipole field         -0.0002 Ry au, 
 
        Potential amp.        0.0197 Ry
        Total length         46.3494 bohr
 

     total cpu time spent up to now is      441.5 secs

     total energy              =   -2920.72491477 Ry
     estimated scf accuracy    <      28.57709758 Ry

     total magnetization       =     0.00 Bohr mag/cell
     absolute magnetization    =     0.17 Bohr mag/cell

     iteration # 16     ecut=    29.40 Ry     beta= 0.05
     Davidson diagonalization with overlap
     ethr =  1.71E-04,  avg # of iterations =  6.5

     negative rho (up, down):  3.889E-03 3.883E-03
 
     Adding external electric field

     Computed dipole along edir(3) : 
        Dipole               -0.0620 Ry au,         -0.1577 Debye
        Dipole field         -0.0001 Ry au, 
 
        Potential amp.        0.0109 Ry
        Total length         46.3494 bohr
 
 
     Adding external electric field

     Computed dipole along edir(3) : 
        Dipole               -0.0620 Ry au,         -0.1577 Debye
        Dipole field         -0.0001 Ry au, 
 
        Potential amp.        0.0109 Ry
        Total length         46.3494 bohr
 

     total cpu time spent up to now is      460.2 secs

     total energy              =   -2920.96968097 Ry
     estimated scf accuracy    <       5.71336050 Ry

     total magnetization       =     0.01 Bohr mag/cell
     absolute magnetization    =     0.09 Bohr mag/cell

     iteration # 17     ecut=    29.40 Ry     beta= 0.05
     Davidson diagonalization with overlap
     ethr =  1.71E-04,  avg # of iterations =  1.2

     negative rho (up, down):  3.816E-03 3.817E-03
 
     Adding external electric field

     Computed dipole along edir(3) : 
        Dipole               -0.2968 Ry au,         -0.7543 Debye
        Dipole field         -0.0006 Ry au, 
 
        Potential amp.        0.0519 Ry
        Total length         46.3494 bohr
 
 
     Adding external electric field

     Computed dipole along edir(3) : 
        Dipole               -0.2968 Ry au,         -0.7543 Debye
        Dipole field         -0.0006 Ry au, 
 
        Potential amp.        0.0519 Ry
        Total length         46.3494 bohr
 

     total cpu time spent up to now is      473.6 secs

     total energy              =   -2920.74550019 Ry
     estimated scf accuracy    <       8.98068785 Ry

     total magnetization       =     0.01 Bohr mag/cell
     absolute magnetization    =     0.10 Bohr mag/cell

     iteration # 18     ecut=    29.40 Ry     beta= 0.05
     Davidson diagonalization with overlap
     c_bands:  1 eigenvalues not converged
     ethr =  1.71E-04,  avg # of iterations =  7.5

     negative rho (up, down):  3.770E-03 3.772E-03
 
     Adding external electric field

     Computed dipole along edir(3) : 
        Dipole               -0.4113 Ry au,         -1.0455 Debye
        Dipole field         -0.0008 Ry au, 
 
        Potential amp.        0.0720 Ry
        Total length         46.3494 bohr
 
 
     Adding external electric field

     Computed dipole along edir(3) : 
        Dipole               -0.4113 Ry au,         -1.0455 Debye
        Dipole field         -0.0008 Ry au, 
 
        Potential amp.        0.0720 Ry
        Total length         46.3494 bohr
 

     total cpu time spent up to now is      491.0 secs

     total energy              =   -2920.78793183 Ry
     estimated scf accuracy    <       3.94584963 Ry

     total magnetization       =     0.03 Bohr mag/cell
     absolute magnetization    =     0.09 Bohr mag/cell

     iteration # 19     ecut=    29.40 Ry     beta= 0.05
     Davidson diagonalization with overlap
     ethr =  1.71E-04,  avg # of iterations =  3.0

     negative rho (up, down):  3.747E-03 3.754E-03
 
     Adding external electric field

     Computed dipole along edir(3) : 
        Dipole               -0.7464 Ry au,         -1.8973 Debye
        Dipole field         -0.0014 Ry au, 
 
        Potential amp.        0.1306 Ry
        Total length         46.3494 bohr
 
 
     Adding external electric field

     Computed dipole along edir(3) : 
        Dipole               -0.7464 Ry au,         -1.8973 Debye
        Dipole field         -0.0014 Ry au, 
 
        Potential amp.        0.1306 Ry
        Total length         46.3494 bohr
 

     total cpu time spent up to now is      505.9 secs

     total energy              =   -2920.34562207 Ry
     estimated scf accuracy    <       3.71969480 Ry

     total magnetization       =     0.04 Bohr mag/cell
     absolute magnetization    =     0.09 Bohr mag/cell

     iteration # 20     ecut=    29.40 Ry     beta= 0.05
     Davidson diagonalization with overlap
     ethr =  1.71E-04,  avg # of iterations = 15.2

     negative rho (up, down):  3.743E-03 3.750E-03
 
     Adding external electric field

     Computed dipole along edir(3) : 
        Dipole               -0.7288 Ry au,         -1.8525 Debye
        Dipole field         -0.0014 Ry au, 
 
        Potential amp.        0.1275 Ry
        Total length         46.3494 bohr
 
 
     Adding external electric field

     Computed dipole along edir(3) : 
        Dipole               -0.7288 Ry au,         -1.8525 Debye
        Dipole field         -0.0014 Ry au, 
 
        Potential amp.        0.1275 Ry
        Total length         46.3494 bohr
 

     total cpu time spent up to now is      538.6 secs

     total energy              =   -2920.52892826 Ry
     estimated scf accuracy    <       1.51840093 Ry

     total magnetization       =    -0.00 Bohr mag/cell
     absolute magnetization    =     0.07 Bohr mag/cell

     iteration # 21     ecut=    29.40 Ry     beta= 0.05
     Davidson diagonalization with overlap
     ethr =  1.71E-04,  avg # of iterations =  1.0

     negative rho (up, down):  3.839E-03 3.847E-03
 
     Adding external electric field

     Computed dipole along edir(3) : 
        Dipole               -0.6272 Ry au,         -1.5943 Debye
        Dipole field         -0.0012 Ry au, 
 
        Potential amp.        0.1097 Ry
        Total length         46.3494 bohr
 
 
     Adding external electric field

     Computed dipole along edir(3) : 
        Dipole               -0.6272 Ry au,         -1.5943 Debye
        Dipole field         -0.0012 Ry au, 
 
        Potential amp.        0.1097 Ry
        Total length         46.3494 bohr
 

     total cpu time spent up to now is      551.8 secs

     total energy              =   -2920.61320236 Ry
     estimated scf accuracy    <       1.43495546 Ry

     total magnetization       =    -0.00 Bohr mag/cell
     absolute magnetization    =     0.07 Bohr mag/cell

     iteration # 22     ecut=    29.40 Ry     beta= 0.05
     Davidson diagonalization with overlap
     ethr =  1.71E-04,  avg # of iterations =  1.4

     negative rho (up, down):  3.656E-03 3.671E-03
 
     Adding external electric field

     Computed dipole along edir(3) : 
        Dipole               -1.3422 Ry au,         -3.4114 Debye
        Dipole field         -0.0025 Ry au, 
 
        Potential amp.        0.2348 Ry
        Total length         46.3494 bohr
 
 
     Adding external electric field

     Computed dipole along edir(3) : 
        Dipole               -1.3422 Ry au,         -3.4114 Debye
        Dipole field         -0.0025 Ry au, 
 
        Potential amp.        0.2348 Ry
        Total length         46.3494 bohr
 

     total cpu time spent up to now is      565.4 secs

     total energy              =   -2920.44978293 Ry
     estimated scf accuracy    <       2.04665982 Ry

     total magnetization       =    -0.00 Bohr mag/cell
     absolute magnetization    =     0.07 Bohr mag/cell

     iteration # 23     ecut=    29.40 Ry     beta= 0.05
     Davidson diagonalization with overlap
     c_bands:  2 eigenvalues not converged
     c_bands:  2 eigenvalues not converged
     c_bands:  2 eigenvalues not converged
     ethr =  1.71E-04,  avg # of iterations =  9.6

     negative rho (up, down):  3.693E-03 3.714E-03
 
     Adding external electric field

     Computed dipole along edir(3) : 
        Dipole               -1.6983 Ry au,         -4.3167 Debye
        Dipole field         -0.0032 Ry au, 
 
        Potential amp.        0.2971 Ry
        Total length         46.3494 bohr
 
 
     Adding external electric field

     Computed dipole along edir(3) : 
        Dipole               -1.6983 Ry au,         -4.3167 Debye
        Dipole field         -0.0032 Ry au, 
 
        Potential amp.        0.2971 Ry
        Total length         46.3494 bohr
 

     total cpu time spent up to now is      585.2 secs

     total energy              =   -2920.53066007 Ry
     estimated scf accuracy    <       1.69579809 Ry

     total magnetization       =     0.01 Bohr mag/cell
     absolute magnetization    =     0.07 Bohr mag/cell

     iteration # 24     ecut=    29.40 Ry     beta= 0.05
     Davidson diagonalization with overlap
     ethr =  1.71E-04,  avg # of iterations = 10.9

     negative rho (up, down):  3.683E-03 3.695E-03
 
     Adding external electric field

     Computed dipole along edir(3) : 
        Dipole               -1.1762 Ry au,         -2.9895 Debye
        Dipole field         -0.0022 Ry au, 
 
        Potential amp.        0.2058 Ry
        Total length         46.3494 bohr
 
 
     Adding external electric field

     Computed dipole along edir(3) : 
        Dipole               -1.1762 Ry au,         -2.9895 Debye
        Dipole field         -0.0022 Ry au, 
 
        Potential amp.        0.2058 Ry
        Total length         46.3494 bohr
 

     total cpu time spent up to now is      612.2 secs

     total energy              =   -2920.39608350 Ry
     estimated scf accuracy    <      14.32282837 Ry

     total magnetization       =     0.02 Bohr mag/cell
     absolute magnetization    =     0.09 Bohr mag/cell

     iteration # 25     ecut=    29.40 Ry     beta= 0.05
     Davidson diagonalization with overlap
     ethr =  1.71E-04,  avg # of iterations =  9.3

     negative rho (up, down):  3.712E-03 3.717E-03
 
     Adding external electric field

     Computed dipole along edir(3) : 
        Dipole               -0.7501 Ry au,         -1.9067 Debye
        Dipole field         -0.0014 Ry au, 
 
        Potential amp.        0.1312 Ry
        Total length         46.3494 bohr
 
 
     Adding external electric field

     Computed dipole along edir(3) : 
        Dipole               -0.7501 Ry au,         -1.9067 Debye
        Dipole field         -0.0014 Ry au, 
 
        Potential amp.        0.1312 Ry
        Total length         46.3494 bohr
 

     total cpu time spent up to now is      630.7 secs

     total energy              =   -2920.41512505 Ry
     estimated scf accuracy    <       1.46750324 Ry

     total magnetization       =    -0.00 Bohr mag/cell
     absolute magnetization    =     0.06 Bohr mag/cell

     iteration # 26     ecut=    29.40 Ry     beta= 0.05
     Davidson diagonalization with overlap
     ethr =  1.71E-04,  avg # of iterations = 11.8

     negative rho (up, down):  3.771E-03 3.765E-03
 
     Adding external electric field

     Computed dipole along edir(3) : 
        Dipole               -0.1098 Ry au,         -0.2790 Debye
        Dipole field         -0.0002 Ry au, 
 
        Potential amp.        0.0192 Ry
        Total length         46.3494 bohr
 
 
     Adding external electric field

     Computed dipole along edir(3) : 
        Dipole               -0.1098 Ry au,         -0.2790 Debye
        Dipole field         -0.0002 Ry au, 
 
        Potential amp.        0.0192 Ry
        Total length         46.3494 bohr
 

     total cpu time spent up to now is      656.5 secs

     total energy              =   -2920.34417858 Ry
     estimated scf accuracy    <       0.67660147 Ry

     total magnetization       =    -0.01 Bohr mag/cell
     absolute magnetization    =     0.07 Bohr mag/cell

     iteration # 27     ecut=    29.40 Ry     beta= 0.05
     Davidson diagonalization with overlap
     c_bands:  3 eigenvalues not converged
     c_bands:  3 eigenvalues not converged
     c_bands:  2 eigenvalues not converged
     c_bands:  5 eigenvalues not converged
     c_bands:  4 eigenvalues not converged
     c_bands:  2 eigenvalues not converged
     c_bands:  1 eigenvalues not converged
     c_bands:  3 eigenvalues not converged
     c_bands:  2 eigenvalues not converged
     c_bands:  4 eigenvalues not converged
     c_bands:  5 eigenvalues not converged
     c_bands:  3 eigenvalues not converged
     c_bands:  2 eigenvalues not converged
     c_bands:  5 eigenvalues not converged
     c_bands:  1 eigenvalues not converged
     c_bands:  2 eigenvalues not converged
     ethr =  1.71E-04,  avg # of iterations = 20.4

     negative rho (up, down):  4.056E-03 4.058E-03
 
     Adding external electric field

     Computed dipole along edir(3) : 
        Dipole               -0.2393 Ry au,         -0.6082 Debye
        Dipole field         -0.0005 Ry au, 
 
        Potential amp.        0.0419 Ry
        Total length         46.3494 bohr
 
 
     Adding external electric field

     Computed dipole along edir(3) : 
        Dipole               -0.2393 Ry au,         -0.6082 Debye
        Dipole field         -0.0005 Ry au, 
 
        Potential amp.        0.0419 Ry
        Total length         46.3494 bohr
 

     total cpu time spent up to now is      692.2 secs

     total energy              =   -2920.37300697 Ry
     estimated scf accuracy    <       0.47426476 Ry

     total magnetization       =     0.01 Bohr mag/cell
     absolute magnetization    =     0.05 Bohr mag/cell

     iteration # 28     ecut=    29.40 Ry     beta= 0.05
     Davidson diagonalization with overlap
     c_bands:  2 eigenvalues not converged
     c_bands:  1 eigenvalues not converged
     c_bands:  4 eigenvalues not converged
     c_bands:  1 eigenvalues not converged
     c_bands:  4 eigenvalues not converged
     c_bands:  3 eigenvalues not converged
     c_bands:  4 eigenvalues not converged
     c_bands:  1 eigenvalues not converged
     c_bands:  1 eigenvalues not converged
     c_bands:  5 eigenvalues not converged
     c_bands:  2 eigenvalues not converged
     c_bands:  3 eigenvalues not converged
     c_bands:  3 eigenvalues not converged
     c_bands:  4 eigenvalues not converged
     c_bands:  1 eigenvalues not converged
     ethr =  1.21E-04,  avg # of iterations = 18.8

     negative rho (up, down):  4.365E-03 4.373E-03
 
     Adding external electric field

     Computed dipole along edir(3) : 
        Dipole               -0.4115 Ry au,         -1.0459 Debye
        Dipole field         -0.0008 Ry au, 
 
        Potential amp.        0.0720 Ry
        Total length         46.3494 bohr
 
 
     Adding external electric field

     Computed dipole along edir(3) : 
        Dipole               -0.4115 Ry au,         -1.0459 Debye
        Dipole field         -0.0008 Ry au, 
 
        Potential amp.        0.0720 Ry
        Total length         46.3494 bohr
 

     total cpu time spent up to now is      723.0 secs

     total energy              =   -2920.45829208 Ry
     estimated scf accuracy    <       0.41876327 Ry

     total magnetization       =    -0.01 Bohr mag/cell
     absolute magnetization    =     0.06 Bohr mag/cell

     iteration # 29     ecut=    29.40 Ry     beta= 0.05
     Davidson diagonalization with overlap
     c_bands:  1 eigenvalues not converged
     c_bands:  2 eigenvalues not converged
     ethr =  1.07E-04,  avg # of iterations =  8.0

     negative rho (up, down):  4.627E-03 4.634E-03
 
     Adding external electric field

     Computed dipole along edir(3) : 
        Dipole               -0.3786 Ry au,         -0.9624 Debye
        Dipole field         -0.0007 Ry au, 
 
        Potential amp.        0.0662 Ry
        Total length         46.3494 bohr
 
 
     Adding external electric field

     Computed dipole along edir(3) : 
        Dipole               -0.3786 Ry au,         -0.9624 Debye
        Dipole field         -0.0007 Ry au, 
 
        Potential amp.        0.0662 Ry
        Total length         46.3494 bohr
 

     total cpu time spent up to now is      741.2 secs

     total energy              =   -2920.45961078 Ry
     estimated scf accuracy    <       0.79104797 Ry

     total magnetization       =    -0.01 Bohr mag/cell
     absolute magnetization    =     0.06 Bohr mag/cell

     iteration # 30     ecut=    29.40 Ry     beta= 0.05
     Davidson diagonalization with overlap
     ethr =  1.07E-04,  avg # of iterations =  2.4

     negative rho (up, down):  5.379E-03 5.382E-03
 
     Adding external electric field

     Computed dipole along edir(3) : 
        Dipole                0.0684 Ry au,          0.1740 Debye
        Dipole field          0.0001 Ry au, 
 
        Potential amp.       -0.0120 Ry
        Total length         46.3494 bohr
 
 
     Adding external electric field

     Computed dipole along edir(3) : 
        Dipole                0.0684 Ry au,          0.1740 Debye
        Dipole field          0.0001 Ry au, 
 
        Potential amp.       -0.0120 Ry
        Total length         46.3494 bohr
 

     total cpu time spent up to now is      756.1 secs

     total energy              =   -2920.42230587 Ry
     estimated scf accuracy    <       0.54908098 Ry

     total magnetization       =    -0.01 Bohr mag/cell
     absolute magnetization    =     0.06 Bohr mag/cell

     iteration # 31     ecut=    29.40 Ry     beta= 0.05
     Davidson diagonalization with overlap
     c_bands:  1 eigenvalues not converged
     ethr =  1.07E-04,  avg # of iterations =  2.4

     negative rho (up, down):  5.894E-03 5.898E-03
 
     Adding external electric field

     Computed dipole along edir(3) : 
        Dipole                0.0830 Ry au,          0.2109 Debye
        Dipole field          0.0002 Ry au, 
 
        Potential amp.       -0.0145 Ry
        Total length         46.3494 bohr
 
 
     Adding external electric field

     Computed dipole along edir(3) : 
        Dipole                0.0830 Ry au,          0.2109 Debye
        Dipole field          0.0002 Ry au, 
 
        Potential amp.       -0.0145 Ry
        Total length         46.3494 bohr
 

     total cpu time spent up to now is      770.6 secs

     total energy              =   -2920.43352555 Ry
     estimated scf accuracy    <       0.28214410 Ry

     total magnetization       =    -0.01 Bohr mag/cell
     absolute magnetization    =     0.05 Bohr mag/cell

     iteration # 32     ecut=    29.40 Ry     beta= 0.05
     Davidson diagonalization with overlap
     ethr =  7.22E-05,  avg # of iterations =  4.1

     negative rho (up, down):  5.909E-03 5.912E-03
 
     Adding external electric field

     Computed dipole along edir(3) : 
        Dipole                0.1700 Ry au,          0.4322 Debye
        Dipole field          0.0003 Ry au, 
 
        Potential amp.       -0.0297 Ry
        Total length         46.3494 bohr
 
 
     Adding external electric field

     Computed dipole along edir(3) : 
        Dipole                0.1700 Ry au,          0.4322 Debye
        Dipole field          0.0003 Ry au, 
 
        Potential amp.       -0.0297 Ry
        Total length         46.3494 bohr
 

     total cpu time spent up to now is      785.7 secs

     total energy              =   -2920.42512122 Ry
     estimated scf accuracy    <       0.31005303 Ry

     total magnetization       =    -0.01 Bohr mag/cell
     absolute magnetization    =     0.05 Bohr mag/cell

     iteration # 33     ecut=    29.40 Ry     beta= 0.05
     Davidson diagonalization with overlap
     c_bands:  1 eigenvalues not converged
     ethr =  7.22E-05,  avg # of iterations =  4.1

     negative rho (up, down):  5.370E-03 5.372E-03
 
     Adding external electric field

     Computed dipole along edir(3) : 
        Dipole                0.3186 Ry au,          0.8097 Debye
        Dipole field          0.0006 Ry au, 
 
        Potential amp.       -0.0557 Ry
        Total length         46.3494 bohr
 
 
     Adding external electric field

     Computed dipole along edir(3) : 
        Dipole                0.3186 Ry au,          0.8097 Debye
        Dipole field          0.0006 Ry au, 
 
        Potential amp.       -0.0557 Ry
        Total length         46.3494 bohr
 

     total cpu time spent up to now is      805.7 secs

     total energy              =   -2920.40485184 Ry
     estimated scf accuracy    <       0.25923482 Ry

     total magnetization       =    -0.01 Bohr mag/cell
     absolute magnetization    =     0.05 Bohr mag/cell

     iteration # 34     ecut=    29.40 Ry     beta= 0.05
     Davidson diagonalization with overlap
     c_bands:  3 eigenvalues not converged
     c_bands:  4 eigenvalues not converged
     c_bands:  5 eigenvalues not converged
     c_bands:  5 eigenvalues not converged
     c_bands:  3 eigenvalues not converged
     c_bands:  4 eigenvalues not converged
     c_bands:  2 eigenvalues not converged
     c_bands:  4 eigenvalues not converged
     c_bands:  2 eigenvalues not converged
     c_bands:  3 eigenvalues not converged
     c_bands:  3 eigenvalues not converged
     c_bands:  4 eigenvalues not converged
     c_bands:  2 eigenvalues not converged
     c_bands:  4 eigenvalues not converged
     c_bands:  2 eigenvalues not converged
     c_bands:  3 eigenvalues not converged
     ethr =  6.63E-05,  avg # of iterations = 22.2

     negative rho (up, down):  5.252E-03 5.254E-03
 
     Adding external electric field

     Computed dipole along edir(3) : 
        Dipole                0.3050 Ry au,          0.7753 Debye
        Dipole field          0.0006 Ry au, 
 
        Potential amp.       -0.0534 Ry
        Total length         46.3494 bohr
 
 
     Adding external electric field

     Computed dipole along edir(3) : 
        Dipole                0.3050 Ry au,          0.7753 Debye
        Dipole field          0.0006 Ry au, 
 
        Potential amp.       -0.0534 Ry
        Total length         46.3494 bohr
 

     total cpu time spent up to now is      837.9 secs

     total energy              =   -2920.42739598 Ry
     estimated scf accuracy    <       0.26828226 Ry

     total magnetization       =    -0.01 Bohr mag/cell
     absolute magnetization    =     0.04 Bohr mag/cell

     iteration # 35     ecut=    29.40 Ry     beta= 0.05
     Davidson diagonalization with overlap
     ethr =  6.63E-05,  avg # of iterations =  5.2

     negative rho (up, down):  4.906E-03 4.906E-03
 
     Adding external electric field

     Computed dipole along edir(3) : 
        Dipole                0.3168 Ry au,          0.8053 Debye
        Dipole field          0.0006 Ry au, 
 
        Potential amp.       -0.0554 Ry
        Total length         46.3494 bohr
 
 
     Adding external electric field

     Computed dipole along edir(3) : 
        Dipole                0.3168 Ry au,          0.8053 Debye
        Dipole field          0.0006 Ry au, 
 
        Potential amp.       -0.0554 Ry
        Total length         46.3494 bohr
 

     total cpu time spent up to now is      858.1 secs

     total energy              =   -2920.43447068 Ry
     estimated scf accuracy    <       0.21380573 Ry

     total magnetization       =    -0.01 Bohr mag/cell
     absolute magnetization    =     0.03 Bohr mag/cell

     iteration # 36     ecut=    29.40 Ry     beta= 0.05
     Davidson diagonalization with overlap
     c_bands:  2 eigenvalues not converged
     ethr =  5.47E-05,  avg # of iterations =  5.2

     negative rho (up, down):  6.297E-03 6.299E-03
 
     Adding external electric field

     Computed dipole along edir(3) : 
        Dipole                0.3557 Ry au,          0.9042 Debye
        Dipole field          0.0007 Ry au, 
 
        Potential amp.       -0.0622 Ry
        Total length         46.3494 bohr
 
 
     Adding external electric field

     Computed dipole along edir(3) : 
        Dipole                0.3557 Ry au,          0.9042 Debye
        Dipole field          0.0007 Ry au, 
 
        Potential amp.       -0.0622 Ry
        Total length         46.3494 bohr
 

     total cpu time spent up to now is      873.6 secs

     total energy              =   -2920.42624994 Ry
     estimated scf accuracy    <       0.39432393 Ry

     total magnetization       =    -0.00 Bohr mag/cell
     absolute magnetization    =     0.03 Bohr mag/cell

     iteration # 37     ecut=    29.40 Ry     beta= 0.05
     Davidson diagonalization with overlap
     ethr =  5.47E-05,  avg # of iterations =  1.1

     negative rho (up, down):  6.625E-03 6.627E-03
 
     Adding external electric field

     Computed dipole along edir(3) : 
        Dipole                0.3677 Ry au,          0.9346 Debye
        Dipole field          0.0007 Ry au, 
 
        Potential amp.       -0.0643 Ry
        Total length         46.3494 bohr
 
 
     Adding external electric field

     Computed dipole along edir(3) : 
        Dipole                0.3677 Ry au,          0.9346 Debye
        Dipole field          0.0007 Ry au, 
 
        Potential amp.       -0.0643 Ry
        Total length         46.3494 bohr
 

     total cpu time spent up to now is      887.1 secs

     total energy              =   -2920.42071554 Ry
     estimated scf accuracy    <       0.16702233 Ry

     total magnetization       =    -0.01 Bohr mag/cell
     absolute magnetization    =     0.03 Bohr mag/cell

     iteration # 38     ecut=    29.40 Ry     beta= 0.05
     Davidson diagonalization with overlap
     ethr =  4.27E-05,  avg # of iterations =  4.7

     negative rho (up, down):  6.523E-03 6.523E-03
 
     Adding external electric field

     Computed dipole along edir(3) : 
        Dipole                0.7402 Ry au,          1.8814 Debye
        Dipole field          0.0014 Ry au, 
 
        Potential amp.       -0.1295 Ry
        Total length         46.3494 bohr
 
 
     Adding external electric field

     Computed dipole along edir(3) : 
        Dipole                0.7402 Ry au,          1.8814 Debye
        Dipole field          0.0014 Ry au, 
 
        Potential amp.       -0.1295 Ry
        Total length         46.3494 bohr
 

     total cpu time spent up to now is      906.3 secs

     total energy              =   -2920.42512193 Ry
     estimated scf accuracy    <       0.02973851 Ry

     total magnetization       =    -0.01 Bohr mag/cell
     absolute magnetization    =     0.03 Bohr mag/cell

     iteration # 39     ecut=    29.40 Ry     beta= 0.05
     Davidson diagonalization with overlap
     c_bands:  3 eigenvalues not converged
     c_bands:  3 eigenvalues not converged
     c_bands:  4 eigenvalues not converged
     c_bands:  4 eigenvalues not converged
     c_bands:  4 eigenvalues not converged
     c_bands:  2 eigenvalues not converged
     c_bands:  2 eigenvalues not converged
     c_bands:  4 eigenvalues not converged
     c_bands:  1 eigenvalues not converged
     c_bands:  1 eigenvalues not converged
     c_bands:  4 eigenvalues not converged
     c_bands:  3 eigenvalues not converged
     c_bands:  4 eigenvalues not converged
     c_bands:  1 eigenvalues not converged
     c_bands:  5 eigenvalues not converged
     c_bands:  2 eigenvalues not converged
     c_bands:  4 eigenvalues not converged
     c_bands:  3 eigenvalues not converged
     c_bands:  2 eigenvalues not converged
     ethr =  7.61E-06,  avg # of iterations = 19.9

     negative rho (up, down):  8.526E-03 8.525E-03
 
     Adding external electric field

     Computed dipole along edir(3) : 
        Dipole                0.6639 Ry au,          1.6874 Debye
        Dipole field          0.0013 Ry au, 
 
        Potential amp.       -0.1161 Ry
        Total length         46.3494 bohr
 
 
     Adding external electric field

     Computed dipole along edir(3) : 
        Dipole                0.6639 Ry au,          1.6874 Debye
        Dipole field          0.0013 Ry au, 
 
        Potential amp.       -0.1161 Ry
        Total length         46.3494 bohr
 

     total cpu time spent up to now is      940.5 secs

     total energy              =   -2920.40701916 Ry
     estimated scf accuracy    <       0.61718170 Ry

     total magnetization       =    -0.00 Bohr mag/cell
     absolute magnetization    =     0.02 Bohr mag/cell

     iteration # 40     ecut=    29.40 Ry     beta= 0.05
     Davidson diagonalization with overlap
     c_bands:  1 eigenvalues not converged
     c_bands:  2 eigenvalues not converged
     c_bands:  5 eigenvalues not converged
     c_bands:  5 eigenvalues not converged
     c_bands:  2 eigenvalues not converged
     c_bands:  3 eigenvalues not converged
     c_bands:  1 eigenvalues not converged
     c_bands:  1 eigenvalues not converged
     c_bands:  1 eigenvalues not converged
     c_bands:  2 eigenvalues not converged
     c_bands:  1 eigenvalues not converged
     c_bands:  3 eigenvalues not converged
     c_bands:  4 eigenvalues not converged
     c_bands:  5 eigenvalues not converged
     c_bands:  2 eigenvalues not converged
     c_bands:  3 eigenvalues not converged
     c_bands:  1 eigenvalues not converged
     c_bands:  2 eigenvalues not converged
     c_bands:  1 eigenvalues not converged
     c_bands:  3 eigenvalues not converged
     ethr =  7.61E-06,  avg # of iterations = 20.0

     negative rho (up, down):  8.961E-03 8.959E-03
 
     Adding external electric field

     Computed dipole along edir(3) : 
        Dipole                0.6826 Ry au,          1.7349 Debye
        Dipole field          0.0013 Ry au, 
 
        Potential amp.       -0.1194 Ry
        Total length         46.3494 bohr
 
 
     Adding external electric field

     Computed dipole along edir(3) : 
        Dipole                0.6826 Ry au,          1.7349 Debye
        Dipole field          0.0013 Ry au, 
 
        Potential amp.       -0.1194 Ry
        Total length         46.3494 bohr
 

     total cpu time spent up to now is      975.5 secs

     total energy              =   -2920.41984559 Ry
     estimated scf accuracy    <       0.03491551 Ry

     total magnetization       =    -0.01 Bohr mag/cell
     absolute magnetization    =     0.03 Bohr mag/cell

     iteration # 41     ecut=    29.40 Ry     beta= 0.05
     Davidson diagonalization with overlap
     c_bands:  1 eigenvalues not converged
     c_bands:  1 eigenvalues not converged
     c_bands:  4 eigenvalues not converged
     c_bands:  2 eigenvalues not converged
     c_bands:  2 eigenvalues not converged
     c_bands:  1 eigenvalues not converged
     c_bands:  2 eigenvalues not converged
     c_bands:  1 eigenvalues not converged
     c_bands:  1 eigenvalues not converged
     c_bands:  1 eigenvalues not converged
     c_bands:  2 eigenvalues not converged
     c_bands:  1 eigenvalues not converged
     c_bands:  1 eigenvalues not converged
     ethr =  7.61E-06,  avg # of iterations = 17.3

     negative rho (up, down):  8.626E-03 8.625E-03
 
     Adding external electric field

     Computed dipole along edir(3) : 
        Dipole                0.6565 Ry au,          1.6687 Debye
        Dipole field          0.0012 Ry au, 
 
        Potential amp.       -0.1148 Ry
        Total length         46.3494 bohr
 
 
     Adding external electric field

     Computed dipole along edir(3) : 
        Dipole                0.6565 Ry au,          1.6687 Debye
        Dipole field          0.0012 Ry au, 
 
        Potential amp.       -0.1148 Ry
        Total length         46.3494 bohr
 

     total cpu time spent up to now is      998.4 secs

     total energy              =   -2920.41960496 Ry
     estimated scf accuracy    <       0.01687010 Ry

     total magnetization       =    -0.01 Bohr mag/cell
     absolute magnetization    =     0.03 Bohr mag/cell

     iteration # 42     ecut=    29.40 Ry     beta= 0.05
     Davidson diagonalization with overlap
     c_bands:  1 eigenvalues not converged
     c_bands:  1 eigenvalues not converged
     c_bands:  1 eigenvalues not converged
     c_bands:  4 eigenvalues not converged
     c_bands:  1 eigenvalues not converged
     c_bands:  1 eigenvalues not converged
     c_bands:  2 eigenvalues not converged
     c_bands:  1 eigenvalues not converged
     c_bands:  3 eigenvalues not converged
     c_bands:  1 eigenvalues not converged
     c_bands:  3 eigenvalues not converged
     c_bands:  1 eigenvalues not converged
     c_bands:  2 eigenvalues not converged
     ethr =  4.31E-06,  avg # of iterations = 16.9

     negative rho (up, down):  8.741E-03 8.741E-03
 
     Adding external electric field

     Computed dipole along edir(3) : 
        Dipole                0.6112 Ry au,          1.5535 Debye
        Dipole field          0.0012 Ry au, 
 
        Potential amp.       -0.1069 Ry
        Total length         46.3494 bohr
 
 
     Adding external electric field

     Computed dipole along edir(3) : 
        Dipole                0.6112 Ry au,          1.5535 Debye
        Dipole field          0.0012 Ry au, 
 
        Potential amp.       -0.1069 Ry
        Total length         46.3494 bohr
 

     total cpu time spent up to now is     1027.5 secs

     total energy              =   -2920.41968431 Ry
     estimated scf accuracy    <       0.00329297 Ry

     total magnetization       =    -0.01 Bohr mag/cell
     absolute magnetization    =     0.03 Bohr mag/cell

     iteration # 43     ecut=    29.40 Ry     beta= 0.05
     Davidson diagonalization with overlap
     c_bands:  3 eigenvalues not converged
     c_bands:  1 eigenvalues not converged
     c_bands:  4 eigenvalues not converged
     c_bands:  3 eigenvalues not converged
     c_bands:  1 eigenvalues not converged
     c_bands:  1 eigenvalues not converged
     c_bands:  1 eigenvalues not converged
     c_bands:  3 eigenvalues not converged
     c_bands:  1 eigenvalues not converged
     c_bands:  5 eigenvalues not converged
     c_bands:  2 eigenvalues not converged
     c_bands:  1 eigenvalues not converged
     c_bands:  1 eigenvalues not converged
     c_bands:  1 eigenvalues not converged
     ethr =  8.42E-07,  avg # of iterations = 19.3

     negative rho (up, down):  8.289E-03 8.288E-03
 
     Adding external electric field

     Computed dipole along edir(3) : 
        Dipole                0.6424 Ry au,          1.6328 Debye
        Dipole field          0.0012 Ry au, 
 
        Potential amp.       -0.1124 Ry
        Total length         46.3494 bohr
 
 
     Adding external electric field

     Computed dipole along edir(3) : 
        Dipole                0.6424 Ry au,          1.6328 Debye
        Dipole field          0.0012 Ry au, 
 
        Potential amp.       -0.1124 Ry
        Total length         46.3494 bohr
 

     total cpu time spent up to now is     1062.4 secs

     total energy              =   -2920.41963352 Ry
     estimated scf accuracy    <       0.01750518 Ry

     total magnetization       =    -0.01 Bohr mag/cell
     absolute magnetization    =     0.03 Bohr mag/cell

     iteration # 44     ecut=    29.40 Ry     beta= 0.05
     Davidson diagonalization with overlap
     c_bands:  1 eigenvalues not converged
     c_bands:  1 eigenvalues not converged
     c_bands:  2 eigenvalues not converged
     c_bands:  3 eigenvalues not converged
     c_bands:  2 eigenvalues not converged
     c_bands:  1 eigenvalues not converged
     c_bands:  1 eigenvalues not converged
     c_bands:  2 eigenvalues not converged
     c_bands:  3 eigenvalues not converged
     c_bands:  1 eigenvalues not converged
     ethr =  8.42E-07,  avg # of iterations = 16.6

     negative rho (up, down):  8.495E-03 8.495E-03
 
     Adding external electric field

     Computed dipole along edir(3) : 
        Dipole                0.6526 Ry au,          1.6586 Debye
        Dipole field          0.0012 Ry au, 
 
        Potential amp.       -0.1142 Ry
        Total length         46.3494 bohr
 
 
     Adding external electric field

     Computed dipole along edir(3) : 
        Dipole                0.6526 Ry au,          1.6586 Debye
        Dipole field          0.0012 Ry au, 
 
        Potential amp.       -0.1142 Ry
        Total length         46.3494 bohr
 

     total cpu time spent up to now is     1086.7 secs

     total energy              =   -2920.42017538 Ry
     estimated scf accuracy    <       0.00159383 Ry

     total magnetization       =    -0.01 Bohr mag/cell
     absolute magnetization    =     0.03 Bohr mag/cell

     iteration # 45     ecut=    29.40 Ry     beta= 0.05
     Davidson diagonalization with overlap
     ethr =  4.08E-07,  avg # of iterations =  6.8

     negative rho (up, down):  9.075E-03 9.074E-03
 
     Adding external electric field

     Computed dipole along edir(3) : 
        Dipole                0.6900 Ry au,          1.7539 Debye
        Dipole field          0.0013 Ry au, 
 
        Potential amp.       -0.1207 Ry
        Total length         46.3494 bohr
 
 
     Adding external electric field

     Computed dipole along edir(3) : 
        Dipole                0.6900 Ry au,          1.7539 Debye
        Dipole field          0.0013 Ry au, 
 
        Potential amp.       -0.1207 Ry
        Total length         46.3494 bohr
 

     total cpu time spent up to now is     1103.5 secs

     total energy              =   -2920.42016796 Ry
     estimated scf accuracy    <       0.00071687 Ry

     total magnetization       =    -0.01 Bohr mag/cell
     absolute magnetization    =     0.03 Bohr mag/cell

     iteration # 46     ecut=    29.40 Ry     beta= 0.05
     Davidson diagonalization with overlap
     c_bands:  1 eigenvalues not converged
     c_bands:  1 eigenvalues not converged
     c_bands:  1 eigenvalues not converged
     c_bands:  1 eigenvalues not converged
     ethr =  1.83E-07,  avg # of iterations = 14.3

     negative rho (up, down):  9.122E-03 9.121E-03
 
     Adding external electric field

     Computed dipole along edir(3) : 
        Dipole                0.6973 Ry au,          1.7724 Debye
        Dipole field          0.0013 Ry au, 
 
        Potential amp.       -0.1220 Ry
        Total length         46.3494 bohr
 
 
     Adding external electric field

     Computed dipole along edir(3) : 
        Dipole                0.6973 Ry au,          1.7724 Debye
        Dipole field          0.0013 Ry au, 
 
        Potential amp.       -0.1220 Ry
        Total length         46.3494 bohr
 

     total cpu time spent up to now is     1135.4 secs

     total energy              =   -2920.42035933 Ry
     estimated scf accuracy    <       0.00176671 Ry

     total magnetization       =    -0.01 Bohr mag/cell
     absolute magnetization    =     0.02 Bohr mag/cell

     iteration # 47     ecut=    29.40 Ry     beta= 0.05
     Davidson diagonalization with overlap
     ethr =  1.83E-07,  avg # of iterations =  1.1

     negative rho (up, down):  8.815E-03 8.815E-03
 
     Adding external electric field

     Computed dipole along edir(3) : 
        Dipole                0.6901 Ry au,          1.7541 Debye
        Dipole field          0.0013 Ry au, 
 
        Potential amp.       -0.1207 Ry
        Total length         46.3494 bohr
 
 
     Adding external electric field

     Computed dipole along edir(3) : 
        Dipole                0.6901 Ry au,          1.7541 Debye
        Dipole field          0.0013 Ry au, 
 
        Potential amp.       -0.1207 Ry
        Total length         46.3494 bohr
 

     total cpu time spent up to now is     1148.7 secs

     total energy              =   -2920.42035416 Ry
     estimated scf accuracy    <       0.00105674 Ry

     total magnetization       =    -0.01 Bohr mag/cell
     absolute magnetization    =     0.02 Bohr mag/cell

     iteration # 48     ecut=    29.40 Ry     beta= 0.05
     Davidson diagonalization with overlap
     c_bands:  1 eigenvalues not converged
     ethr =  1.83E-07,  avg # of iterations =  5.6

     negative rho (up, down):  8.750E-03 8.749E-03
 
     Adding external electric field

     Computed dipole along edir(3) : 
        Dipole                0.6895 Ry au,          1.7525 Debye
        Dipole field          0.0013 Ry au, 
 
        Potential amp.       -0.1206 Ry
        Total length         46.3494 bohr
 
 
     Adding external electric field

     Computed dipole along edir(3) : 
        Dipole                0.6895 Ry au,          1.7525 Debye
        Dipole field          0.0013 Ry au, 
 
        Potential amp.       -0.1206 Ry
        Total length         46.3494 bohr
 

     total cpu time spent up to now is     1164.9 secs

     total energy              =   -2920.42039888 Ry
     estimated scf accuracy    <       0.00072028 Ry

     total magnetization       =    -0.01 Bohr mag/cell
     absolute magnetization    =     0.02 Bohr mag/cell

     iteration # 49     ecut=    29.40 Ry     beta= 0.05
     Davidson diagonalization with overlap
     ethr =  1.83E-07,  avg # of iterations =  1.8

     negative rho (up, down):  8.849E-03 8.848E-03
 
     Adding external electric field

     Computed dipole along edir(3) : 
        Dipole                0.6895 Ry au,          1.7525 Debye
        Dipole field          0.0013 Ry au, 
 
        Potential amp.       -0.1206 Ry
        Total length         46.3494 bohr
 
 
     Adding external electric field

     Computed dipole along edir(3) : 
        Dipole                0.6895 Ry au,          1.7525 Debye
        Dipole field          0.0013 Ry au, 
 
        Potential amp.       -0.1206 Ry
        Total length         46.3494 bohr
 

     total cpu time spent up to now is     1179.1 secs

     total energy              =   -2920.42036207 Ry
     estimated scf accuracy    <       0.00080214 Ry

     total magnetization       =    -0.01 Bohr mag/cell
     absolute magnetization    =     0.02 Bohr mag/cell

     iteration # 50     ecut=    29.40 Ry     beta= 0.05
     Davidson diagonalization with overlap
     ethr =  1.83E-07,  avg # of iterations =  4.0

     negative rho (up, down):  8.771E-03 8.771E-03
 
     Adding external electric field

     Computed dipole along edir(3) : 
        Dipole                0.6984 Ry au,          1.7751 Debye
        Dipole field          0.0013 Ry au, 
 
        Potential amp.       -0.1222 Ry
        Total length         46.3494 bohr
 
 
     Adding external electric field

     Computed dipole along edir(3) : 
        Dipole                0.6984 Ry au,          1.7751 Debye
        Dipole field          0.0013 Ry au, 
 
        Potential amp.       -0.1222 Ry
        Total length         46.3494 bohr
 

     total cpu time spent up to now is     1195.5 secs

     total energy              =   -2920.42045462 Ry
     estimated scf accuracy    <       0.00063649 Ry

     total magnetization       =    -0.01 Bohr mag/cell
     absolute magnetization    =     0.02 Bohr mag/cell

     iteration # 51     ecut=    29.40 Ry     beta= 0.05
     Davidson diagonalization with overlap
     ethr =  1.63E-07,  avg # of iterations =  3.2

     negative rho (up, down):  8.776E-03 8.776E-03
 
     Adding external electric field

     Computed dipole along edir(3) : 
        Dipole                0.6987 Ry au,          1.7760 Debye
        Dipole field          0.0013 Ry au, 
 
        Potential amp.       -0.1222 Ry
        Total length         46.3494 bohr
 
 
     Adding external electric field

     Computed dipole along edir(3) : 
        Dipole                0.6987 Ry au,          1.7760 Debye
        Dipole field          0.0013 Ry au, 
 
        Potential amp.       -0.1222 Ry
        Total length         46.3494 bohr
 

     total cpu time spent up to now is     1210.9 secs

     total energy              =   -2920.42049372 Ry
     estimated scf accuracy    <       0.00090158 Ry

     total magnetization       =    -0.01 Bohr mag/cell
     absolute magnetization    =     0.02 Bohr mag/cell

     iteration # 52     ecut=    29.40 Ry     beta= 0.05
     Davidson diagonalization with overlap
     ethr =  1.63E-07,  avg # of iterations =  3.5

     negative rho (up, down):  8.844E-03 8.844E-03
 
     Adding external electric field

     Computed dipole along edir(3) : 
        Dipole                0.6946 Ry au,          1.7654 Debye
        Dipole field          0.0013 Ry au, 
 
        Potential amp.       -0.1215 Ry
        Total length         46.3494 bohr
 
 
     Adding external electric field

     Computed dipole along edir(3) : 
        Dipole                0.6946 Ry au,          1.7654 Debye
        Dipole field          0.0013 Ry au, 
 
        Potential amp.       -0.1215 Ry
        Total length         46.3494 bohr
 

     total cpu time spent up to now is     1235.2 secs

     total energy              =   -2920.42039135 Ry
     estimated scf accuracy    <       0.00099882 Ry

     total magnetization       =    -0.01 Bohr mag/cell
     absolute magnetization    =     0.02 Bohr mag/cell

     iteration # 53     ecut=    29.40 Ry     beta= 0.05
     Davidson diagonalization with overlap
     ethr =  1.63E-07,  avg # of iterations =  7.2

     negative rho (up, down):  8.962E-03 8.962E-03
 
     Adding external electric field

     Computed dipole along edir(3) : 
        Dipole                0.6967 Ry au,          1.7709 Debye
        Dipole field          0.0013 Ry au, 
 
        Potential amp.       -0.1219 Ry
        Total length         46.3494 bohr
 
 
     Adding external electric field

     Computed dipole along edir(3) : 
        Dipole                0.6967 Ry au,          1.7709 Debye
        Dipole field          0.0013 Ry au, 
 
        Potential amp.       -0.1219 Ry
        Total length         46.3494 bohr
 

     total cpu time spent up to now is     1252.4 secs

     total energy              =   -2920.42036024 Ry
     estimated scf accuracy    <       0.00059735 Ry

     total magnetization       =    -0.01 Bohr mag/cell
     absolute magnetization    =     0.02 Bohr mag/cell

     iteration # 54     ecut=    29.40 Ry     beta= 0.05
     Davidson diagonalization with overlap
     ethr =  1.53E-07,  avg # of iterations = 11.9

     negative rho (up, down):  9.275E-03 9.274E-03
 
     Adding external electric field

     Computed dipole along edir(3) : 
        Dipole                0.7101 Ry au,          1.8050 Debye
        Dipole field          0.0013 Ry au, 
 
        Potential amp.       -0.1242 Ry
        Total length         46.3494 bohr
 
 
     Adding external electric field

     Computed dipole along edir(3) : 
        Dipole                0.7101 Ry au,          1.8050 Debye
        Dipole field          0.0013 Ry au, 
 
        Potential amp.       -0.1242 Ry
        Total length         46.3494 bohr
 

     total cpu time spent up to now is     1274.1 secs

     total energy              =   -2920.42044635 Ry
     estimated scf accuracy    <       0.00034242 Ry

     total magnetization       =    -0.01 Bohr mag/cell
     absolute magnetization    =     0.02 Bohr mag/cell

     iteration # 55     ecut=    29.40 Ry     beta= 0.05
     Davidson diagonalization with overlap
     ethr =  8.76E-08,  avg # of iterations =  8.2

     negative rho (up, down):  9.322E-03 9.322E-03
 
     Adding external electric field

     Computed dipole along edir(3) : 
        Dipole                0.7120 Ry au,          1.8097 Debye
        Dipole field          0.0013 Ry au, 
 
        Potential amp.       -0.1246 Ry
        Total length         46.3494 bohr
 
 
     Adding external electric field

     Computed dipole along edir(3) : 
        Dipole                0.7120 Ry au,          1.8097 Debye
        Dipole field          0.0013 Ry au, 
 
        Potential amp.       -0.1246 Ry
        Total length         46.3494 bohr
 

     total cpu time spent up to now is     1293.3 secs

     total energy              =   -2920.42047663 Ry
     estimated scf accuracy    <       0.00039136 Ry

     total magnetization       =    -0.01 Bohr mag/cell
     absolute magnetization    =     0.02 Bohr mag/cell

     iteration # 56     ecut=    29.40 Ry     beta= 0.05
     Davidson diagonalization with overlap
     ethr =  8.76E-08,  avg # of iterations =  1.0

     negative rho (up, down):  9.126E-03 9.125E-03
 
     Adding external electric field

     Computed dipole along edir(3) : 
        Dipole                0.6968 Ry au,          1.7711 Debye
        Dipole field          0.0013 Ry au, 
 
        Potential amp.       -0.1219 Ry
        Total length         46.3494 bohr
 
 
     Adding external electric field

     Computed dipole along edir(3) : 
        Dipole                0.6968 Ry au,          1.7711 Debye
        Dipole field          0.0013 Ry au, 
 
        Potential amp.       -0.1219 Ry
        Total length         46.3494 bohr
 

     total cpu time spent up to now is     1306.6 secs

     total energy              =   -2920.42049047 Ry
     estimated scf accuracy    <       0.00038608 Ry

[...]
             -0.312629334084523E+02
              0.142834418395038E+02
              0.242370739959457E+02
              0.309033145280420E+02
             -0.361486733262217E+01
              0.259031270834123E+01
             -0.550880308392104E+01
             -0.264843290388509E+02
             -0.380113044742408E+02
              0.435027846236328E+02
             -0.423149759735303E+01
             -0.302416100061619E+02
              0.299992923305197E+01
             -0.141749317122666E+02
              0.497118367113074E+02
             -0.128032654110292E+02
             -0.196353626537098E+02
              0.190558459501647E+02
             -0.898956309203368E+01
              0.243686733232973E+02
              0.733603161566720E+00
              0.532043280417969E+02
              0.289082173627589E+02
              0.220197257966953E+01
             -0.203805404858039E+02
              0.150254205530094E+02
             -0.294884900775482E+02
             -0.479193635329017E+01
              0.335310064033367E+02
             -0.153093347177217E+02
             -0.245760837142553E+02
             -0.132898462202778E+02
              0.273834954331745E+02
              0.691497600105874E+01
             -0.453446505867976E+02
              0.181781338923104E+02
              0.505913871649625E+01
              0.504255331403247E+01
             -0.275765418642280E+02
              0.157824617953966E+01
              0.184860419619008E+02
              0.261871177048896E+02
              0.360902471693812E+02
              0.157965965653797E+02
              0.213800299356014E+01
             -0.296150932978362E+02
             -0.256123775082327E+02
             -0.377731235874089E+02
             -0.720183410180556E+01
              0.173530025819587E+02
             -0.133939094380538E+01
              0.280927543712519E+02
             -0.178934130230175E+02
              0.899811526053998E+01
             -0.953085622826181E+01
             -0.163636521310707E+02
              0.334962019885384E+02
              0.388030520800581E+01
              0.344458666310245E+02
              0.259042191328035E+01
              0.121802884835865E+02
             -0.986452597082882E+01
              0.332553809387880E+02
             -0.911931592228574E+01
              0.358260984236704E+00
             -0.427744690276600E+02
             -0.525161269588671E+01
              0.391607993636752E+02
              0.349756834907345E+02
              0.147738033390468E+02
             -0.910830010148628E+01
              0.307864119537901E+01
             -0.115010573472395E+02
             -0.762057910570549E+01
              0.506695788785693E+02
              0.277612259334666E+01
             -0.143630824666940E+02
             -0.593688170987781E+02
             -0.260136858898171E+02
             -0.210608560621708E+02
             -0.351252159235444E+02
             -0.318231644300109E+02
             -0.379040567323528E+02
             -0.251635633605369E+02
             -0.174494032496968E+02
             -0.271362939563020E+02
              0.257290903309035E+02
             -0.114079647486091E+02
             -0.484123228556593E+02
              0.220130668639517E+02
             -0.166916562168681E+02
             -0.445602741571259E+02
              0.532730195992577E+02
             -0.142866949625941E+02
              0.941480264826265E+01
              0.219737759947513E+02
              0.493939466662349E+01
              0.146529277917961E+02
              0.178710254957433E+01
              0.109763695556895E+00
             -0.815743794622551E+01
             -0.414095959892153E+02
              0.652505047054617E+01
             -0.684386966166675E+02
              0.390056533339232E+02
             -0.234014816571079E+02
             -0.974347827246640E+01
             -0.100512804619357E+02
              0.822396695158082E+01
             -0.938410300832912E+01
              0.148205614752012E+02
             -0.303795373875521E+02
              0.196690468730412E+02
              0.237221654586155E+02
              0.573048706631687E+01
              0.630360270151840E+01
              0.118773277695290E+02
              0.501065299143605E+01
              0.151665894743706E+02
             -0.435324882453858E+01
             -0.386888715334967E+02
              0.525964476402140E+01
             -0.136334380665858E+02
             -0.298186745647712E+01
              0.304379465873707E+02
             -0.442082901064626E+02
              0.769125308382570E+00
              0.116991092926526E+01
              0.505580526232052E+01
              0.172551403413012E+02
             -0.669988117513745E+01
              0.457897434261568E+02
              0.242509436065790E+02
             -0.845740485276501E+01
             -0.414319141842131E+01
              0.208403691171239E+01
              0.424207240478533E+02
             -0.292099533311368E+02
             -0.568007375880596E+02
              0.170014425003252E+02
             -0.676616846501453E+01
             -0.922276964643564E+01
              0.912406498925117E+01
              0.419126100560659E+02
              0.244761648595031E+02
             -0.884869191325959E+01
             -0.290355880052891E+02
             -0.471865339924074E+01
              0.155903344168069E+02
             -0.844881027192702E+01
             -0.412500712717954E+02
             -0.337004270304692E+01
             -0.527448557452769E+02
             -0.280948960784721E+02
              0.454319471158630E+02
             -0.288520744150154E+02
             -0.377978118514003E+02
             -0.285185001499785E+02
             -0.204635896587593E+02
              0.200568636138606E+02
              0.467056684322415E+02
             -0.368608735389768E+01
              0.143404062263143E+02
             -0.118025617918359E+02
             -0.385802298879907E+02
              0.260289844324741E+02
             -0.261800878445039E+02
              0.144618422700759E+02
              0.177260270465129E+02
             -0.588023396570506E+01
              0.209232782796747E+02
              0.228757633913660E+02
              0.630902483509043E+02
             -0.659410512247695E+01
             -0.288062728905756E+02
             -0.349590869547700E+02
             -0.955003926674129E+01
             -0.186324165977137E+02
              0.525489045007475E+02
             -0.243832888421637E+02
              0.644045423626888E+01
              0.272076789379597E+01
             -0.122526153818706E+02
             -0.472656920366522E+02
             -0.347960240468896E+01
              0.548705128349752E+02
              0.967390034274962E+01
              0.416973357194672E+01
             -0.322125968981454E+02
             -0.320580009913959E+02
             -0.785535652216313E+01
              0.256166598348133E+02
             -0.141385437996074E+02
              0.572745984890074E+02
             -0.269946118906264E+02
              0.104699639940386E+02
             -0.761616893478151E+01
             -0.361580187625988E+02
              0.239807323766348E+01
             -0.285651814637200E+02
             -0.411802474022994E+02
              0.619316586115491E+01
              0.106881230540270E+01
              0.291432175484026E+02
              0.131499434951329E+02
             -0.187204947593391E+02
              0.119547943997794E+02
             -0.487780883431609E+02
             -0.266748680695578E+02
              0.496946692642767E+02
              0.459975791342807E+01
             -0.591828639593888E+01
             -0.165901227955895E+02
             -0.245210410340241E+01
             -0.554440443050015E+01
              0.496176597953367E+02
              0.231988253707761E+02
             -0.659235299040563E+01
             -0.194001547833818E+01
             -0.219086595881737E+02
             -0.872364311589257E+01
             -0.351030701463544E+02
              0.275037155977716E+02
              0.389508042725595E+01
              0.575287245340235E+01
              0.100198462136127E+02
             -0.446233007666877E+01
             -0.114635894206964E+02
              0.306792134934008E+01
             -0.603304127837299E+02
             -0.863163842215636E+01
             -0.573511396677108E+01
             -0.431922007718501E+01
              0.268250545703852E+02
              0.362496226074703E+02
              0.967259157838680E+01
             -0.530651562415910E+02
              0.346726956732272E+02
             -0.119099661339784E+02
             -0.208642166620338E+02
             -0.485797700271042E+02
             -0.167363670026258E+02
              0.346570487454445E+02
              0.169947866301092E+02
              0.555003095399280E+01
              0.187647804874804E+02
             -0.325485519158607E+02
             -0.259407001184931E+02
              0.314111351234510E+02
              0.216658443526204E+02
              0.267627163015182E+02
              0.277992389350514E+01
              0.468827923241670E+01
              0.303979232182237E+02
              0.537648255083899E+02
             -0.116220750042332E+02
              0.214449695473221E+02
             -0.144759745032300E+02
             -0.244083869978649E+02
             -0.193061720273077E+02
             -0.194313821945113E+02
             -0.809713261855998E+01
             -0.265004865420994E+02
             -0.108988971858292E+02
             -0.756132127000747E+02
              0.189022622618074E+02
              0.123313632085786E+02
             -0.266163112845472E+01
             -0.216161163703035E+02
             -0.102789372763487E+02
             -0.306044736785129E+02
              0.545564950103463E+01
              0.448742460275524E+02
             -0.123335100365814E+02
             -0.938994340923246E+01
              0.116946401129654E+02
             -0.284584547180158E+02
              0.471018599044385E+02
              0.816064563344986E+01
              0.779250849463625E+01
              0.275341453203485E+02
             -0.138142998804869E+01
              0.311654736689762E+02
              0.105358135694240E+02
             -0.217551919704273E+01
              0.455963900568688E+01
             -0.350567821041659E+01
              0.368304308635064E+02
              0.476919864013900E+01
              0.101061285556968E+02
             -0.646385826529780E+01
              0.782673863023103E+01
             -0.513349724553765E+02
             -0.195379832856230E+02
             -0.271602536011296E+02
              0.263452895372494E+02
             -0.177947751903420E+02
             -0.333917711343110E+02
              0.321731268434908E+02
             -0.675837768369348E+01
              0.225189268199659E+02
             -0.500693492147495E+02
              0.102825357758712E+02
              0.288474292762527E+01
              0.344701471342592E+01
             -0.650225011738877E+01
             -0.404199407981372E+01
              0.282167726233058E+02
              0.998841797734570E+00
             -0.282471824828926E+02
             -0.104113295705999E+02
              0.122211058644189E+02
             -0.638942344431061E+02
             -0.488620977082493E+02
              0.718647245212708E+00
              0.781495105612022E+01
             -0.261178603090615E+02
             -0.104690610068684E+01
              0.584133524065324E+02
              0.155000118587847E+02
             -0.298951195051934E+02
              0.519828722064149E+01
             -0.516049033938576E+01
              0.693655888583838E+01
             -0.197778444433795E+02
              0.122286703018933E+02
              0.146178305425092E+02
             -0.384817444185416E+01
              0.619354648213728E+02
             -0.438426172291979E+01
             -0.175024855292572E+02
              0.131959563599463E+02
              0.238169640707388E+02
             -0.187031826472477E+02
             -0.101658843885803E+01
              0.542873771166612E+02
             -0.156054005288104E+01
              0.326076587720544E+02
              0.808795765687680E+01
             -0.386573288517939E+01
             -0.126177313920327E+02
              0.289309841647836E+02
             -0.309661315770219E+02
             -0.562336233287027E+00
             -0.100865085912471E+02
             -0.219840366191119E+02
              0.833813077591734E+01
              0.147446658640057E+02
              0.239096673226268E+01
             -0.198636341594295E+00
             -0.220739179871346E+02
              0.897740551297521E+01
             -0.182535513134559E+01
             -0.125602889094077E+02
             -0.111600692308099E+02
              0.912651764905286E+01
             -0.203393319537793E+01
             -0.209552053270591E+02
             -0.604125893178925E+02
              0.583431043169874E+01
              0.106610229182733E+02
             -0.268973863445099E+02
             -0.132540357398950E+02
              0.458284040192578E+02
              0.623475253208467E+01
              0.218581658521936E+02
              0.480014722400973E+01
              0.220892198499440E+02
              0.317242869057421E+01
             -0.215735357306974E+02
             -0.606094588585422E+01
              0.301421247917756E+01
              0.174582089961851E+02
              0.417676257854654E+02
              0.272888578747150E+02
              0.168051633136545E+01
              0.947542370106584E+01
              0.335781079427028E+02
              0.146504761945092E+02
             -0.384047350190550E+02
             -0.152883554171055E+02
              0.615276628711032E+01
              0.473406865909450E+01
              0.136716625523851E+02
             -0.287043588855915E+02
              0.391623650571223E+01
              0.239893430727546E+02
              0.265235191211392E+02
             -0.238397210476805E+02
              0.226136900305107E-01
             -0.122848259157391E+01
             -0.941866780037867E+01
             -0.157552289952894E+02
             -0.857835399690836E+01
             -0.490777606902540E+01
              0.561129357939600E+01
              0.234587917420131E+02
             -0.171390454728524E+02
              0.448746448178504E+02
              0.181721351606922E+02
              0.148702265062334E+02
              0.196296784845922E+02
              0.150082899824615E+02
              0.201872545714285E+02
              0.303446050435911E+02
             -0.252354705316111E+02
              0.345367005475608E+02
             -0.632737748976145E+02
              0.175593611713687E+02
             -0.593035730066641E+02
              0.463101381150443E+02
              0.417752433316346E+02
             -0.522617056222063E+01
             -0.267116942914899E+02
             -0.235554964896062E+02
             -0.305002401776957E+02
             -0.351460049140492E+02
              0.313910705283422E+02
              0.233306894899928E+02
              0.132626946055873E+02
              0.156863538215189E+02
              0.248274143554626E+02
             -0.217417844675232E+02
             -0.985481858247269E+01
              0.305883392755250E+02
             -0.723998374980363E+01
              0.296334789284395E+02
              0.413309937064291E+02
             -0.322052096419435E+01
             -0.406270542184247E+02
              0.277754328234903E+01
             -0.146897432472063E+01
             -0.565793182985215E+01
              0.533631939902364E-01
             -0.361657991185465E+02
             -0.697123833473978E+01
              0.489490574990070E+01
              0.739111110512528E+01
              0.271084822173905E+02
             -0.237072221089499E+02
              0.308781038877416E+02
             -0.221286275077493E+02
              0.142300531885645E+02
              0.224011354015755E+02
 
 BEEF-vdW xc energy contributions
           1 :   -407.462112958541     
           2 :    355.074799741305     
           3 :   -270.439751507848     
           4 :    181.968967824972     
           5 :   -112.421980999069     
           6 :    70.8963107275801     
           7 :   -53.6842856713737     
           8 :    50.7004055786254     
           9 :   -52.4698629928000     
          10 :    53.7447336602450     
          11 :   -53.3172962718533     
          12 :    51.7549829147721     
          13 :   -49.5034240465926     
          14 :    46.3341215839653     
          15 :   -41.9179350561621     
          16 :    36.4704497439681     
          17 :   -30.9040285695979     
          18 :    26.3719940973428     
          19 :   -23.6891835701643     
          20 :    22.9731274186252     
          21 :   -23.7370713783479     
          22 :    25.2188693295153     
          23 :   -26.7249704845507     
          24 :    27.7535552349657     
          25 :   -27.9826695191674     
          26 :    27.2159441618846     
          27 :   -25.4236085946126     
          28 :    22.8086309240944     
          29 :   -19.8425449668659     
          30 :    17.1518635561366     
          31 :   -47.8821516850943     
          32 :   -32.5269049648789     
  @ DRIVER MODE: Message from server: STATUS
  @ DRIVER MODE: Message from server: GETFORCE
  @ DRIVER MODE: Returning v,forces,stress,ensemble 
  @ DRIVE MODE: Returning Ensemble Energies  

     Writing output data file ./calc.save/
  @ DRIVER MODE: Message from server: EXIT
  @ DRIVE MODE: Exiting  
 
     init_run     :     14.85s CPU     15.06s WALL (       1 calls)
     electrons    :   1789.49s CPU   1823.44s WALL (       1 calls)
     update_pot   :      1.11s CPU      1.13s WALL (       1 calls)
     forces       :      2.94s CPU      3.01s WALL (       1 calls)

     Called by init_run:
     wfcinit      :      9.19s CPU      9.30s WALL (       1 calls)
     potinit      :      5.03s CPU      5.09s WALL (       1 calls)
     hinit0       :      0.30s CPU      0.31s WALL (       1 calls)

     Called by electrons:
     c_bands      :   1542.39s CPU   1568.55s WALL (      78 calls)
     sum_band     :    188.59s CPU    192.12s WALL (      78 calls)
     v_of_rho     :     43.07s CPU     43.90s WALL (      80 calls)
     newd         :     14.98s CPU     17.55s WALL (      80 calls)
     mix_rho      :      4.70s CPU      5.45s WALL (      78 calls)
     vdW_kernel   :      4.18s CPU      4.19s WALL (       1 calls)

     Called by c_bands:
     init_us_2    :     10.33s CPU     10.37s WALL (    3160 calls)
     cegterg      :   1513.81s CPU   1539.34s WALL (    1567 calls)

     Called by *egterg:
     cdiaghg      :    366.68s CPU    375.08s WALL (   14812 calls)
     h_psi        :    723.13s CPU    736.52s WALL (   14832 calls)
     s_psi        :     87.78s CPU     88.10s WALL (   14832 calls)
     g_psi        :      2.13s CPU      2.15s WALL (   13245 calls)

     Called by h_psi:
     h_psi:calbec :     89.32s CPU     89.77s WALL (   14832 calls)
     vloc_psi     :    539.20s CPU    551.79s WALL (   14832 calls)
     add_vuspsi   :     90.30s CPU     90.64s WALL (   14832 calls)

     General routines
     calbec       :    121.01s CPU    121.56s WALL (   16472 calls)
     fft          :     33.23s CPU     33.42s WALL (    9767 calls)
     ffts         :      0.25s CPU      0.26s WALL (     316 calls)
     fftw         :    632.70s CPU    646.65s WALL ( 1949368 calls)
     interpolate  :      0.65s CPU      0.65s WALL (     160 calls)
     davcio       :      0.00s CPU      0.24s WALL (      20 calls)
 
     Parallel routines
 
     PWSCF        :  30m25.46s CPU  31m 2.26s WALL

 
   This run was terminated on:  16:32:31  30Jun2021            

=------------------------------------------------------------------------------=
   JOB DONE.
=------------------------------------------------------------------------------=
