
     Program PWSCF v.6.7GPU starts on 23Sep2021 at 14:42: 2 

     This program is part of the open-source Quantum ESPRESSO suite
     for quantum simulation of materials; please cite
         "P. Giannozzi et al., J. Phys.:Condens. Matter 21 395502 (2009);
         "P. Giannozzi et al., J. Phys.:Condens. Matter 29 465901 (2017);
         "P. Giannozzi et al., J. Chem. Phys. 152 154105 (2020);
          URL http://www.quantum-espresso.org", 
     in publications or presentations arising from this work. More details at
     http://www.quantum-espresso.org/quote

     Parallel version (MPI), running on     8 processors

     MPI processes distributed on     1 nodes
     R & G space division:  proc/nbgrp/npool/nimage =       8
     Reading input from /storage/home/hcoda1/3/ntian30/research/carbon/CxH_vib/H2O_calc/ads_slab/CH2NHHO_a/out_0042/pw.inp
Warning: card &CELL ignored
Warning: card   CELL_DYNAMICS='IPI', ignored
Warning: card / ignored

     Current dimensions of program PWSCF are:
     Max number of different atomic species (ntypx) = 10
     Max number of k-points (npk) =  40000
     Max angular momentum in pseudopotentials (lmaxx) =  3
     Presently no symmetry can be used with electric field

     Message from routine cell_base_init:
     DEPRECATED: use true lattice parameter, not A to a.u. conversion factor

     **************************************************************************
     Initializing libbeef V0.1.2 with the BEEF-vdW functional.
     Citation: Wellendorff et al., PRB 85, 235149 (2012).
     **************************************************************************


     IMPORTANT: XC functional enforced from input :
     Exchange-correlation= BEEF-VDW
                           (   1   4  43  14   2   0   0)
     Any further DFT definition will be discarded
     Please, verify this is what you really want


     Subspace diagonalization in iterative solution of the eigenvalue problem:
     one sub-group per band group will be used
     scalapack distributed-memory algorithm (size of sub-group:  2*  2 procs)

  @ DRIVER MODE: Connecting to 
 qe_1139763_2941012.sched-torque.pace.gatech.eduivrpz735_scratch
  using UNIX socket
  @ DRIVER MODE: Message from server: STATUS
  @ DRIVER MODE: Message from server: INIT
  @ DRIVER MODE: Receiving replica           0          -1
  @ DRIVER MODE: Receiving encoded integer          25
  @ DRIVER MODE:  SCF:  T  FORCE:  T  STRESS:  F  VC:  F  ENSEMBLE:  F
  @ DRIVER MODE:  SCF:  T  FORCE:  T  STRESS:  F  VC:  F  ENSEMBLE:  F
 
     Parallelization info
     --------------------
     sticks:   dense  smooth     PW     G-vecs:    dense   smooth      PW
     Min         409     164     47                70857    17926    2743
     Max         411     165     48                70858    17931    2751
     Sum        3275    1317    379               566857   143421   21985
 
     Using Slab Decomposition
 


     bravais-lattice index     =            0
     lattice parameter (alat)  =       1.8897  a.u.
     unit-cell volume          =    6658.9804 (a.u.)^3
     number of atoms/cell      =           54
     number of atomic types    =            5
     number of electrons       =       397.00
     number of Kohn-Sham states=          208
     kinetic-energy cutoff     =      29.3995  Ry
     charge density cutoff     =     293.9946  Ry
     scf convergence threshold =      7.3E-08
     mixing beta               =       0.0500
     number of iterations used =            8  plain     mixing
     Exchange-correlation= BEEF-VDW
                           (   1   4  43  14   2   0   0)

     celldm(1)=   1.889726  celldm(2)=   0.000000  celldm(3)=   0.000000
     celldm(4)=   0.000000  celldm(5)=   0.000000  celldm(6)=   0.000000

     crystal axes: (cart. coord. in units of alat)
               a(1) = (   6.579727   0.000000   0.000000 )  
               a(2) = (  -0.000775   5.961596   0.000000 )  
               a(3) = (   0.000000   0.000000  25.155947 )  

     reciprocal axes: (cart. coord. in units 2 pi/alat)
               b(1) = (  0.151982  0.000020  0.000000 )  
               b(2) = (  0.000000  0.167740  0.000000 )  
               b(3) = (  0.000000  0.000000  0.039752 )  


     PseudoPot. # 1 for Ti read from file:
     /storage/coda1/p-amedford6/0/shared/rich_project_chbe-medford/medford-share/data/pseudos_module/espresso/nninc/pbe/van/Ti.UPF
     MD5 check sum: 8e4df49b7f0d34bbd5052bf3f5ea0213
     Pseudo is Ultrasoft, Zval = 12.0
     Generated by new atomic code, or converted to UPF format
     Using radial grid of  851 points,  6 beta functions with: 
                l(1) =   0
                l(2) =   0
                l(3) =   1
                l(4) =   1
                l(5) =   2
                l(6) =   2
     Q(r) pseudized with  8 coefficients,  rinner =    1.000   1.000   1.000
                                                       1.000   1.000

     PseudoPot. # 2 for O  read from file:
     /storage/coda1/p-amedford6/0/shared/rich_project_chbe-medford/medford-share/data/pseudos_module/espresso/nninc/pbe/van/O.UPF
     MD5 check sum: 78c19812648e8988a0fe644b0f25305e
     Pseudo is Ultrasoft, Zval =  6.0
     Generated by new atomic code, or converted to UPF format
     Using radial grid of  737 points,  4 beta functions with: 
                l(1) =   0
                l(2) =   0
                l(3) =   1
                l(4) =   1
     Q(r) pseudized with  8 coefficients,  rinner =    0.800   0.800   0.800


     PseudoPot. # 3 for N  read from file:
     /storage/coda1/p-amedford6/0/shared/rich_project_chbe-medford/medford-share/data/pseudos_module/espresso/nninc/pbe/van/N.UPF
     MD5 check sum: 90d10febe142ad51ac9d5be1deb811c4
     Pseudo is Ultrasoft, Zval =  5.0
     Generated by new atomic code, or converted to UPF format
     Using radial grid of  729 points,  4 beta functions with: 
                l(1) =   0
                l(2) =   0
                l(3) =   1
                l(4) =   1
     Q(r) pseudized with  8 coefficients,  rinner =    0.800   0.800   0.800


     PseudoPot. # 4 for C  read from file:
     /storage/coda1/p-amedford6/0/shared/rich_project_chbe-medford/medford-share/data/pseudos_module/espresso/nninc/pbe/van/C.UPF
     MD5 check sum: 1a69bf6b8db32088f5b2163dbdb77a27
     Pseudo is Ultrasoft, Zval =  4.0
     Generated by new atomic code, or converted to UPF format
     Using radial grid of  721 points,  4 beta functions with: 
                l(1) =   0
                l(2) =   0
                l(3) =   1
                l(4) =   1
     Q(r) pseudized with  8 coefficients,  rinner =    0.800   0.800   0.800


     PseudoPot. # 5 for H  read from file:
     /storage/coda1/p-amedford6/0/shared/rich_project_chbe-medford/medford-share/data/pseudos_module/espresso/nninc/pbe/van/H.UPF
     MD5 check sum: b5ee9d7bfd3a09ee7748110bda690ff7
     Pseudo is Ultrasoft, Zval =  1.0
     Generated by new atomic code, or converted to UPF format
     Using radial grid of  615 points,  1 beta functions with: 
                l(1) =   0
     Q(r) pseudized with  8 coefficients,  rinner =    0.800

     atomic species   valence    mass     pseudopotential
        Ti1           12.00    47.86700     Ti( 1.00)
        O1             6.00    15.99900     O ( 1.00)
        N1             5.00    14.00700     N ( 1.00)
        C1             4.00    12.01100     C ( 1.00)
        H1             1.00     1.00800     H ( 1.00)

     No symmetry found



   Cartesian axes

     site n.     atom                  positions (alat units)
         1           Ti1 tau(   1) = (   0.0004258   2.9801865   6.0000000  )
         2           Ti1 tau(   2) = (   3.2906075   1.4906267   6.0002472  )
         3           O1  tau(   3) = (   0.0006271   0.0005054   7.9858123  )
         4           O1  tau(   4) = (   3.2906025   0.0005020   7.3038282  )
         5           O1  tau(   5) = (   4.5942328   1.4918067   9.2879030  )
         6           O1  tau(   6) = (   1.9868534   1.4903216   9.2879459  )
         7           Ti1 tau(   7) = (   3.2907910   2.8959150   9.1758416  )
         8           Ti1 tau(   8) = (   0.0015273   1.4827037   9.2680791  )
         9           O1  tau(   9) = (   3.2872377   5.9372537  11.3619719  )
        10           O1  tau(  10) = (   0.0116148   5.9584955  10.6183126  )
        11           O1  tau(  11) = (   1.2678424   1.4880610  12.6451974  )
        12           O1  tau(  12) = (   5.2928823   1.5036634  12.6399001  )
        13           Ti1 tau(  13) = (   6.5521701   2.9315368  12.5404127  )
        14           Ti1 tau(  14) = (   3.2895327   1.2997526  12.7137971  )
        15           O1  tau(  15) = (   6.5477037   0.0845492  14.6505624  )
        16           O1  tau(  16) = (   3.2827468   0.0880329  14.0175491  )
        17           O1  tau(  17) = (   4.5427558   1.5765460  16.1196870  )
        18           O1  tau(  18) = (   1.9971221   1.5491956  16.2097298  )
        19           Ti1 tau(  19) = (   3.2670693   3.0250103  15.6873951  )
        20           Ti1 tau(  20) = (   6.4806419   1.4532933  16.0069425  )
        21           O1  tau(  21) = (   3.2904802   0.0005063   4.7018136  )
        22           O1  tau(  22) = (   6.5100566   5.8635464  17.1664964  )
        23           O1  tau(  23) = (   1.3043587   1.4918075   6.0039043  )
        24           O1  tau(  24) = (   5.2767064   1.4903225   6.0039473  )
        25           Ti1 tau(  25) = (   0.0000382   5.9609847   6.0000000  )
        26           Ti1 tau(  26) = (   3.2902200   4.4714249   6.0002472  )
        27           O1  tau(  27) = (   0.0002396   2.9813036   7.9858123  )
        28           O1  tau(  28) = (   3.2902150   2.9813002   7.3038282  )
        29           O1  tau(  29) = (   4.5938453   4.4726049   9.2879030  )
        30           O1  tau(  30) = (   1.9864658   4.4711199   9.2879459  )
        31           Ti1 tau(  31) = (   3.2891106   5.8743827   9.1763621  )
        32           Ti1 tau(  32) = (   0.0006254   4.4649316   9.2693709  )
        33           O1  tau(  33) = (   3.2826969   3.0075535  11.3127327  )
        34           O1  tau(  34) = (   0.0092240   2.9805883  10.6323155  )
        35           O1  tau(  35) = (   1.2713698   4.4757098  12.6731835  )
        36           O1  tau(  36) = (   5.2977781   4.4601507  12.6712348  )
        37           Ti1 tau(  37) = (   0.0330522   5.9225719  12.5042524  )
        38           Ti1 tau(  38) = (   3.2990360   4.3766664  12.4405836  )
        39           O1  tau(  39) = (   0.0150134   2.9421642  14.8567636  )
        40           O1  tau(  40) = (   3.2596324   2.9836344  13.9148061  )
        41           O1  tau(  41) = (   4.5490916   4.3969069  16.0525170  )
        42           O1  tau(  42) = (   1.9960638   4.4622821  16.0939853  )
        43           Ti1 tau(  43) = (   3.1777156   0.0378257  16.2738330  )
        44           Ti1 tau(  44) = (   6.5243348   4.6462111  15.7996153  )
        45           O1  tau(  45) = (   3.2900926   2.9813045   4.7018136  )
        46           O1  tau(  46) = (   1.3039711   4.4726057   6.0039043  )
        47           O1  tau(  47) = (   5.2763189   4.4711207   6.0039473  )
        48           N1  tau(  48) = (   6.4646383   2.7559932  17.9272311  )
        49           C1  tau(  49) = (   0.7552072   2.7164238  18.8602713  )
        50           H1  tau(  50) = (   0.5916026   3.1878006  19.8266510  )
        51           H1  tau(  51) = (   1.6887153   2.1901376  18.6919226  )
        52           H1  tau(  52) = (   5.6107037   3.2511282  18.1874541  )
        53           O1  tau(  53) = (   3.4589997   5.9358250  18.1144358  )
        54           H1  tau(  54) = (   4.3999295   5.9567086  18.3689960  )

     number of k points=    10  Fermi-Dirac smearing, width (Ry)=  0.0073
                       cart. coord. in units 2pi/alat
        k(    1) = (   0.0000000   0.0000000   0.0000000), wk =   0.1250000
        k(    2) = (   0.0000000   0.0419351   0.0000000), wk =   0.2500000
        k(    3) = (   0.0000000  -0.0838702   0.0000000), wk =   0.1250000
        k(    4) = (   0.0379955   0.0000049   0.0000000), wk =   0.2500000
        k(    5) = (   0.0379955   0.0419400   0.0000000), wk =   0.2500000
        k(    6) = (   0.0379955  -0.0838652   0.0000000), wk =   0.2500000
        k(    7) = (   0.0379955  -0.0419301   0.0000000), wk =   0.2500000
        k(    8) = (  -0.0759910  -0.0000099   0.0000000), wk =   0.1250000
        k(    9) = (  -0.0759910   0.0419252   0.0000000), wk =   0.2500000
        k(   10) = (  -0.0759910  -0.0838800   0.0000000), wk =   0.1250000

     Dense  grid:   566857 G-vectors     FFT dimensions: (  72,  64, 270)

     Smooth grid:   143421 G-vectors     FFT dimensions: (  45,  40, 180)

     Estimated max dynamical RAM per process >     456.23 MB

     Estimated total dynamical RAM >       3.56 GB
     Cannot read rho : file not found

     Initial potential from superposition of free atoms

     starting charge  380.99916, renormalised to  397.00000

     negative rho (up, down):  1.653E-02 0.000E+00


     %%%%%%%%%%%%%%%%%%%%%%%%%%%%%%%%%%%%%%%%%%%%%%%%%%%%%%%%%%%%%%%%%%%%%%%%
     %                                                                      %
     % You are using vdW-DF, which was implemented by the Thonhauser group. %
     % Please cite the following two papers that made this development      %
     % possible and the two reviews that describe the various versions:     %
     %                                                                      %
     %   T. Thonhauser et al., PRL 115, 136402 (2015).                      %
     %   T. Thonhauser et al., PRB 76, 125112 (2007).                       %
     %   K. Berland et al., Rep. Prog. Phys. 78, 066501 (2015).             %
     %   D.C. Langreth et al., J. Phys.: Condens. Matter 21, 084203 (2009). %
     %                                                                      %
     %                                                                      %
     % If you are calculating the stress with vdW-DF, please also cite:     %
     %                                                                      %
     %   R. Sabatini et al., J. Phys.: Condens. Matter 24, 424209 (2012).   %
     %                                                                      %
     %%%%%%%%%%%%%%%%%%%%%%%%%%%%%%%%%%%%%%%%%%%%%%%%%%%%%%%%%%%%%%%%%%%%%%%%


 
     Adding external electric field

     Computed dipole along edir(3) : 
        Dipole               -9.3006 Ry au,        -23.6398 Debye
        Dipole field         -0.0176 Ry au, 
 
        Potential amp.        1.6270 Ry
        Total length         46.3494 bohr
 
     Starting wfcs are  300 atomic wfcs
  @ DRIVER MODE: Message from server: STATUS
  @ DRIVER MODE: Message from server: POSDATA
  @ DRIVER MODE: Reading and sharing cell 
  @ DRIVER MODE: Reading and sharing positions 
  @ DRIVER MODE: Received positions 

     total cpu time spent up to now is       14.0 secs

     Self-consistent Calculation

     iteration #  1     ecut=    29.40 Ry     beta= 0.05
     Davidson diagonalization with overlap
     c_bands:  1 eigenvalues not converged
     c_bands:  1 eigenvalues not converged
     c_bands:  2 eigenvalues not converged
     c_bands:  1 eigenvalues not converged
     c_bands:  1 eigenvalues not converged
     c_bands:  2 eigenvalues not converged
     c_bands:  1 eigenvalues not converged
     c_bands:  1 eigenvalues not converged
     c_bands:  3 eigenvalues not converged
     ethr =  1.00E-05,  avg # of iterations = 19.6

     negative rho (up, down):  1.282E-02 0.000E+00
 
     Adding external electric field

     Computed dipole along edir(3) : 
        Dipole               43.6877 Ry au,        111.0431 Debye
        Dipole field          0.0824 Ry au, 
 
        Potential amp.       -7.6425 Ry
        Total length         46.3494 bohr
 

     total cpu time spent up to now is       66.2 secs

     total energy              =   -2534.83785994 Ry
     estimated scf accuracy    <    4639.03184944 Ry

     iteration #  2     ecut=    29.40 Ry     beta= 0.05
     Davidson diagonalization with overlap
     ethr =  1.00E-02,  avg # of iterations = 24.6

     negative rho (up, down):  3.077E-03 0.000E+00
 
     Adding external electric field

     Computed dipole along edir(3) : 
        Dipole               -2.0604 Ry au,         -5.2371 Debye
        Dipole field         -0.0039 Ry au, 
 
        Potential amp.        0.3604 Ry
        Total length         46.3494 bohr
 

     total cpu time spent up to now is      157.1 secs

     total energy              =   -2481.92798374 Ry
     estimated scf accuracy    <   66485.18002704 Ry

     iteration #  3     ecut=    29.40 Ry     beta= 0.05
     Davidson diagonalization with overlap
     ethr =  1.00E-02,  avg # of iterations = 14.1

     negative rho (up, down):  3.157E-03 0.000E+00
 
     Adding external electric field

     Computed dipole along edir(3) : 
        Dipole               -4.4153 Ry au,        -11.2227 Debye
        Dipole field         -0.0083 Ry au, 
 
        Potential amp.        0.7724 Ry
        Total length         46.3494 bohr
 

     total cpu time spent up to now is      215.3 secs

     total energy              =   -2934.65361746 Ry
     estimated scf accuracy    <    4508.85153764 Ry

     iteration #  4     ecut=    29.40 Ry     beta= 0.05
     Davidson diagonalization with overlap
     c_bands:  4 eigenvalues not converged
     ethr =  1.00E-02,  avg # of iterations = 13.7

     negative rho (up, down):  3.206E-03 0.000E+00
 
     Adding external electric field

     Computed dipole along edir(3) : 
        Dipole               -5.8882 Ry au,        -14.9664 Debye
        Dipole field         -0.0111 Ry au, 
 
        Potential amp.        1.0301 Ry
        Total length         46.3494 bohr
 

     total cpu time spent up to now is      239.8 secs

     total energy              =   -2939.13406843 Ry
     estimated scf accuracy    <    1512.65051994 Ry

     iteration #  5     ecut=    29.40 Ry     beta= 0.05
     Davidson diagonalization with overlap
     c_bands:  2 eigenvalues not converged
     c_bands:  4 eigenvalues not converged
     ethr =  1.00E-02,  avg # of iterations = 14.6

     negative rho (up, down):  3.227E-03 0.000E+00
 
     Adding external electric field

     Computed dipole along edir(3) : 
        Dipole               -5.6422 Ry au,        -14.3411 Debye
        Dipole field         -0.0106 Ry au, 
 
        Potential amp.        0.9870 Ry
        Total length         46.3494 bohr
 

     total cpu time spent up to now is      262.5 secs

     total energy              =   -2953.25322480 Ry
     estimated scf accuracy    <      85.02069279 Ry

     iteration #  6     ecut=    29.40 Ry     beta= 0.05
     Davidson diagonalization with overlap
     ethr =  1.00E-02,  avg # of iterations =  1.6

     negative rho (up, down):  3.294E-03 0.000E+00
 
     Adding external electric field

     Computed dipole along edir(3) : 
        Dipole               -5.1483 Ry au,        -13.0857 Debye
        Dipole field         -0.0097 Ry au, 
 
        Potential amp.        0.9006 Ry
        Total length         46.3494 bohr
 

     total cpu time spent up to now is      275.2 secs

     total energy              =   -2952.73594396 Ry
     estimated scf accuracy    <      85.30920985 Ry

     iteration #  7     ecut=    29.40 Ry     beta= 0.05
     Davidson diagonalization with overlap
     ethr =  1.00E-02,  avg # of iterations =  1.0

     negative rho (up, down):  3.544E-03 0.000E+00
 
     Adding external electric field

     Computed dipole along edir(3) : 
        Dipole               -4.2216 Ry au,        -10.7301 Debye
        Dipole field         -0.0080 Ry au, 
 
        Potential amp.        0.7385 Ry
        Total length         46.3494 bohr
 

     total cpu time spent up to now is      287.6 secs

     total energy              =   -2951.03983971 Ry
     estimated scf accuracy    <      70.89959286 Ry

     iteration #  8     ecut=    29.40 Ry     beta= 0.05
     Davidson diagonalization with overlap
     ethr =  1.00E-02,  avg # of iterations =  1.0

     negative rho (up, down):  3.828E-03 0.000E+00
 
     Adding external electric field

     Computed dipole along edir(3) : 
        Dipole               -3.6643 Ry au,         -9.3136 Debye
        Dipole field         -0.0069 Ry au, 
 
        Potential amp.        0.6410 Ry
        Total length         46.3494 bohr
 

     total cpu time spent up to now is      300.0 secs

     total energy              =   -2950.34150514 Ry
     estimated scf accuracy    <      70.94436485 Ry

     iteration #  9     ecut=    29.40 Ry     beta= 0.05
     Davidson diagonalization with overlap
     ethr =  1.00E-02,  avg # of iterations =  1.8

     negative rho (up, down):  4.072E-03 0.000E+00
 
     Adding external electric field

     Computed dipole along edir(3) : 
        Dipole               -3.5763 Ry au,         -9.0901 Debye
        Dipole field         -0.0067 Ry au, 
 
        Potential amp.        0.6256 Ry
        Total length         46.3494 bohr
 

     total cpu time spent up to now is      312.7 secs

     total energy              =   -2949.85535852 Ry
     estimated scf accuracy    <      62.79436910 Ry

     iteration # 10     ecut=    29.40 Ry     beta= 0.05
     Davidson diagonalization with overlap
     ethr =  1.00E-02,  avg # of iterations =  1.0

     negative rho (up, down):  4.458E-03 0.000E+00
 
     Adding external electric field

     Computed dipole along edir(3) : 
        Dipole               -3.9951 Ry au,        -10.1545 Debye
        Dipole field         -0.0075 Ry au, 
 
        Potential amp.        0.6989 Ry
        Total length         46.3494 bohr
 

     total cpu time spent up to now is      325.1 secs

     total energy              =   -2948.21344869 Ry
     estimated scf accuracy    <      59.97734739 Ry

     iteration # 11     ecut=    29.40 Ry     beta= 0.05
     Davidson diagonalization with overlap
     ethr =  1.00E-02,  avg # of iterations =  7.5

     negative rho (up, down):  4.383E-03 0.000E+00
 
     Adding external electric field

     Computed dipole along edir(3) : 
        Dipole               -4.1591 Ry au,        -10.5714 Debye
        Dipole field         -0.0078 Ry au, 
 
        Potential amp.        0.7276 Ry
        Total length         46.3494 bohr
 

     total cpu time spent up to now is      342.7 secs

     total energy              =   -2953.90999251 Ry
     estimated scf accuracy    <      56.55132459 Ry

     iteration # 12     ecut=    29.40 Ry     beta= 0.05
     Davidson diagonalization with overlap
     ethr =  1.00E-02,  avg # of iterations =  1.7

     negative rho (up, down):  4.094E-03 0.000E+00
 
     Adding external electric field

     Computed dipole along edir(3) : 
        Dipole               -3.6322 Ry au,         -9.2321 Debye
        Dipole field         -0.0069 Ry au, 
 
        Potential amp.        0.6354 Ry
        Total length         46.3494 bohr
 

     total cpu time spent up to now is      355.8 secs

     total energy              =   -2952.68442140 Ry
     estimated scf accuracy    <      71.49194523 Ry

     iteration # 13     ecut=    29.40 Ry     beta= 0.05
     Davidson diagonalization with overlap
     ethr =  1.00E-02,  avg # of iterations =  1.3

     negative rho (up, down):  3.939E-03 0.000E+00
 
     Adding external electric field

     Computed dipole along edir(3) : 
        Dipole               -4.1562 Ry au,        -10.5641 Debye
        Dipole field         -0.0078 Ry au, 
 
        Potential amp.        0.7271 Ry
        Total length         46.3494 bohr
 

     total cpu time spent up to now is      368.4 secs

     total energy              =   -2953.16864486 Ry
     estimated scf accuracy    <       7.26385596 Ry

     iteration # 14     ecut=    29.40 Ry     beta= 0.05
     Davidson diagonalization with overlap
     ethr =  1.83E-03,  avg # of iterations =  8.7

     negative rho (up, down):  4.042E-03 0.000E+00
 
     Adding external electric field

     Computed dipole along edir(3) : 
        Dipole               -4.2738 Ry au,        -10.8628 Debye
        Dipole field         -0.0081 Ry au, 
 
        Potential amp.        0.7476 Ry
        Total length         46.3494 bohr
 

     total cpu time spent up to now is      384.5 secs

     total energy              =   -2953.64096489 Ry
     estimated scf accuracy    <       9.72996334 Ry

     iteration # 15     ecut=    29.40 Ry     beta= 0.05
     Davidson diagonalization with overlap
     c_bands:  1 eigenvalues not converged
     c_bands:  1 eigenvalues not converged
     ethr =  1.83E-03,  avg # of iterations = 12.1

     negative rho (up, down):  4.078E-03 0.000E+00
 
     Adding external electric field

     Computed dipole along edir(3) : 
        Dipole               -4.4127 Ry au,        -11.2161 Debye
        Dipole field         -0.0083 Ry au, 
 
        Potential amp.        0.7719 Ry
        Total length         46.3494 bohr
 

     total cpu time spent up to now is      402.7 secs

     total energy              =   -2954.57267178 Ry
     estimated scf accuracy    <     122.27727340 Ry

     iteration # 16     ecut=    29.40 Ry     beta= 0.05
     Davidson diagonalization with overlap
     ethr =  1.83E-03,  avg # of iterations =  5.8

     negative rho (up, down):  4.201E-03 0.000E+00
 
     Adding external electric field

     Computed dipole along edir(3) : 
        Dipole               -4.4759 Ry au,        -11.3766 Debye
        Dipole field         -0.0084 Ry au, 
 
        Potential amp.        0.7830 Ry
        Total length         46.3494 bohr
 

     total cpu time spent up to now is      417.4 secs

     total energy              =   -2954.88984463 Ry
     estimated scf accuracy    <     270.47101746 Ry

     iteration # 17     ecut=    29.40 Ry     beta= 0.05
     Davidson diagonalization with overlap
     ethr =  1.83E-03,  avg # of iterations =  2.0

     negative rho (up, down):  4.379E-03 0.000E+00
 
     Adding external electric field

     Computed dipole along edir(3) : 
        Dipole               -4.5069 Ry au,        -11.4553 Debye
        Dipole field         -0.0085 Ry au, 
 
        Potential amp.        0.7884 Ry
        Total length         46.3494 bohr
 

     total cpu time spent up to now is      430.5 secs

     total energy              =   -2954.85630750 Ry
     estimated scf accuracy    <     311.76681318 Ry

     iteration # 18     ecut=    29.40 Ry     beta= 0.05
     Davidson diagonalization with overlap
     ethr =  1.83E-03,  avg # of iterations =  2.2

     negative rho (up, down):  4.824E-03 0.000E+00
 
     Adding external electric field

     Computed dipole along edir(3) : 
        Dipole               -4.1366 Ry au,        -10.5143 Debye
        Dipole field         -0.0078 Ry au, 
 
        Potential amp.        0.7236 Ry
        Total length         46.3494 bohr
 

     total cpu time spent up to now is      443.3 secs

     total energy              =   -2952.66766888 Ry
     estimated scf accuracy    <     315.91485059 Ry

     iteration # 19     ecut=    29.40 Ry     beta= 0.05
     Davidson diagonalization with overlap
     ethr =  1.83E-03,  avg # of iterations =  3.8

     negative rho (up, down):  4.895E-03 0.000E+00
 
     Adding external electric field

     Computed dipole along edir(3) : 
        Dipole               -3.4101 Ry au,         -8.6677 Debye
        Dipole field         -0.0064 Ry au, 
 
        Potential amp.        0.5966 Ry
        Total length         46.3494 bohr
 

     total cpu time spent up to now is      456.9 secs

     total energy              =   -2953.08781617 Ry
     estimated scf accuracy    <      16.16827363 Ry

     iteration # 20     ecut=    29.40 Ry     beta= 0.05
     Davidson diagonalization with overlap
     ethr =  1.83E-03,  avg # of iterations =  3.1

     negative rho (up, down):  4.150E-03 0.000E+00
 
     Adding external electric field

     Computed dipole along edir(3) : 
        Dipole               -3.5512 Ry au,         -9.0263 Debye
        Dipole field         -0.0067 Ry au, 
 
        Potential amp.        0.6212 Ry
        Total length         46.3494 bohr
 

     total cpu time spent up to now is      470.6 secs

     total energy              =   -2952.84108197 Ry
     estimated scf accuracy    <       5.13201020 Ry

     iteration # 21     ecut=    29.40 Ry     beta= 0.05
     Davidson diagonalization with overlap
     ethr =  1.29E-03,  avg # of iterations =  2.7

     negative rho (up, down):  4.547E-03 0.000E+00
 
     Adding external electric field

     Computed dipole along edir(3) : 
        Dipole               -2.5917 Ry au,         -6.5875 Debye
        Dipole field         -0.0049 Ry au, 
 
        Potential amp.        0.4534 Ry
        Total length         46.3494 bohr
 

     total cpu time spent up to now is      484.9 secs

     total energy              =   -2952.44105338 Ry
     estimated scf accuracy    <      28.69411725 Ry

     iteration # 22     ecut=    29.40 Ry     beta= 0.05
     Davidson diagonalization with overlap
     ethr =  1.29E-03,  avg # of iterations =  3.1

     negative rho (up, down):  4.905E-03 0.000E+00
 
     Adding external electric field

     Computed dipole along edir(3) : 
        Dipole               -2.5186 Ry au,         -6.4016 Debye
        Dipole field         -0.0048 Ry au, 
 
        Potential amp.        0.4406 Ry
        Total length         46.3494 bohr
 

     total cpu time spent up to now is      498.8 secs

     total energy              =   -2952.86756931 Ry
     estimated scf accuracy    <       2.12764701 Ry

     iteration # 23     ecut=    29.40 Ry     beta= 0.05
     Davidson diagonalization with overlap
     ethr =  5.36E-04,  avg # of iterations =  2.6

     negative rho (up, down):  6.023E-03 0.000E+00
 
     Adding external electric field

     Computed dipole along edir(3) : 
        Dipole               -2.2183 Ry au,         -5.6383 Debye
        Dipole field         -0.0042 Ry au, 
 
        Potential amp.        0.3881 Ry
        Total length         46.3494 bohr
 

     total cpu time spent up to now is      512.2 secs

     total energy              =   -2952.76349006 Ry
     estimated scf accuracy    <       1.44002855 Ry

     iteration # 24     ecut=    29.40 Ry     beta= 0.05
     Davidson diagonalization with overlap
     c_bands:  3 eigenvalues not converged
     ethr =  3.63E-04,  avg # of iterations = 18.2

     negative rho (up, down):  5.398E-03 0.000E+00
 
     Adding external electric field

     Computed dipole along edir(3) : 
        Dipole               -2.1745 Ry au,         -5.5270 Debye
        Dipole field         -0.0041 Ry au, 
 
        Potential amp.        0.3804 Ry
        Total length         46.3494 bohr
 

     total cpu time spent up to now is      534.6 secs

     total energy              =   -2952.83584429 Ry
     estimated scf accuracy    <       0.85095993 Ry

     iteration # 25     ecut=    29.40 Ry     beta= 0.05
     Davidson diagonalization with overlap
     ethr =  2.14E-04,  avg # of iterations =  3.2

     negative rho (up, down):  5.310E-03 0.000E+00
 
     Adding external electric field

     Computed dipole along edir(3) : 
        Dipole               -1.6259 Ry au,         -4.1327 Debye
        Dipole field         -0.0031 Ry au, 
 
        Potential amp.        0.2844 Ry
        Total length         46.3494 bohr
 

     total cpu time spent up to now is      548.3 secs

     total energy              =   -2952.79695536 Ry
     estimated scf accuracy    <       0.77947966 Ry

     iteration # 26     ecut=    29.40 Ry     beta= 0.05
     Davidson diagonalization with overlap
     c_bands:  2 eigenvalues not converged
     ethr =  1.96E-04,  avg # of iterations = 12.8

     negative rho (up, down):  8.174E-03 0.000E+00
 
     Adding external electric field

     Computed dipole along edir(3) : 
        Dipole               -0.5565 Ry au,         -1.4144 Debye
        Dipole field         -0.0011 Ry au, 
 
        Potential amp.        0.0973 Ry
        Total length         46.3494 bohr
 

     total cpu time spent up to now is      566.9 secs

     total energy              =   -2952.68270736 Ry
     estimated scf accuracy    <       0.96197180 Ry

     iteration # 27     ecut=    29.40 Ry     beta= 0.05
     Davidson diagonalization with overlap
     ethr =  1.96E-04,  avg # of iterations =  6.7

     negative rho (up, down):  8.545E-03 0.000E+00
 
     Adding external electric field

     Computed dipole along edir(3) : 
        Dipole               -0.3969 Ry au,         -1.0089 Debye
        Dipole field         -0.0007 Ry au, 
 
        Potential amp.        0.0694 Ry
        Total length         46.3494 bohr
 

     total cpu time spent up to now is      584.9 secs

     total energy              =   -2952.77809507 Ry
     estimated scf accuracy    <       0.52730923 Ry

     iteration # 28     ecut=    29.40 Ry     beta= 0.05
     Davidson diagonalization with overlap
     c_bands:  1 eigenvalues not converged
     c_bands:  1 eigenvalues not converged
     c_bands:  1 eigenvalues not converged
     ethr =  1.33E-04,  avg # of iterations = 12.8

     negative rho (up, down):  8.679E-03 0.000E+00
 
     Adding external electric field

     Computed dipole along edir(3) : 
        Dipole               -0.4152 Ry au,         -1.0553 Debye
        Dipole field         -0.0008 Ry au, 
 
        Potential amp.        0.0726 Ry
        Total length         46.3494 bohr
 

     total cpu time spent up to now is      602.9 secs

     total energy              =   -2952.81292528 Ry
     estimated scf accuracy    <       0.42524548 Ry

     iteration # 29     ecut=    29.40 Ry     beta= 0.05
     Davidson diagonalization with overlap
     ethr =  1.07E-04,  avg # of iterations =  2.0

     negative rho (up, down):  8.284E-03 0.000E+00
 
     Adding external electric field

     Computed dipole along edir(3) : 
        Dipole               -0.4541 Ry au,         -1.1541 Debye
        Dipole field         -0.0009 Ry au, 
 
        Potential amp.        0.0794 Ry
        Total length         46.3494 bohr
 

     total cpu time spent up to now is      616.1 secs

     total energy              =   -2952.81842448 Ry
     estimated scf accuracy    <       0.48299360 Ry

     iteration # 30     ecut=    29.40 Ry     beta= 0.05
     Davidson diagonalization with overlap
     ethr =  1.07E-04,  avg # of iterations =  1.4

     negative rho (up, down):  9.335E-03 0.000E+00
 
     Adding external electric field

     Computed dipole along edir(3) : 
        Dipole               -0.0843 Ry au,         -0.2144 Debye
        Dipole field         -0.0002 Ry au, 
 
        Potential amp.        0.0148 Ry
        Total length         46.3494 bohr
 

     total cpu time spent up to now is      628.9 secs

     total energy              =   -2952.81477569 Ry
     estimated scf accuracy    <       0.49870630 Ry

     iteration # 31     ecut=    29.40 Ry     beta= 0.05
     Davidson diagonalization with overlap
     c_bands:  2 eigenvalues not converged
     ethr =  1.07E-04,  avg # of iterations =  4.0

     negative rho (up, down):  7.700E-03 0.000E+00
 
     Adding external electric field

     Computed dipole along edir(3) : 
        Dipole                0.5863 Ry au,          1.4902 Debye
        Dipole field          0.0011 Ry au, 
 
        Potential amp.       -0.1026 Ry
        Total length         46.3494 bohr
 

     total cpu time spent up to now is      642.6 secs

     total energy              =   -2952.74650922 Ry
     estimated scf accuracy    <       0.52212875 Ry

     iteration # 32     ecut=    29.40 Ry     beta= 0.05
     Davidson diagonalization with overlap
     c_bands:  2 eigenvalues not converged
     c_bands:  5 eigenvalues not converged
     c_bands:  5 eigenvalues not converged
     c_bands:  3 eigenvalues not converged
     c_bands:  4 eigenvalues not converged
     ethr =  1.07E-04,  avg # of iterations = 25.3

     negative rho (up, down):  7.046E-03 0.000E+00
 
     Adding external electric field

     Computed dipole along edir(3) : 
        Dipole               -0.0091 Ry au,         -0.0231 Debye
        Dipole field         -0.0000 Ry au, 
 
        Potential amp.        0.0016 Ry
        Total length         46.3494 bohr
 

     total cpu time spent up to now is      677.5 secs

     total energy              =   -2952.75449415 Ry
     estimated scf accuracy    <       1.85694669 Ry

     iteration # 33     ecut=    29.40 Ry     beta= 0.05
     Davidson diagonalization with overlap
     ethr =  1.07E-04,  avg # of iterations =  5.5

     negative rho (up, down):  6.582E-03 0.000E+00
 
     Adding external electric field

     Computed dipole along edir(3) : 
        Dipole               -0.2718 Ry au,         -0.6908 Debye
        Dipole field         -0.0005 Ry au, 
 
        Potential amp.        0.0475 Ry
        Total length         46.3494 bohr
 

     total cpu time spent up to now is      692.0 secs

     total energy              =   -2952.73910776 Ry
     estimated scf accuracy    <       0.99113027 Ry

     iteration # 34     ecut=    29.40 Ry     beta= 0.05
     Davidson diagonalization with overlap
     c_bands:  1 eigenvalues not converged
     c_bands:  1 eigenvalues not converged
     c_bands:  1 eigenvalues not converged
     c_bands:  1 eigenvalues not converged
     c_bands:  2 eigenvalues not converged
     ethr =  1.07E-04,  avg # of iterations = 17.3

     negative rho (up, down):  6.899E-03 0.000E+00
 
     Adding external electric field

     Computed dipole along edir(3) : 
        Dipole                0.0971 Ry au,          0.2468 Debye
        Dipole field          0.0002 Ry au, 
 
        Potential amp.       -0.0170 Ry
        Total length         46.3494 bohr
 

     total cpu time spent up to now is      712.9 secs

     total energy              =   -2952.75021210 Ry
     estimated scf accuracy    <       0.27357120 Ry

     iteration # 35     ecut=    29.40 Ry     beta= 0.05
     Davidson diagonalization with overlap
     c_bands:  3 eigenvalues not converged
     c_bands:  2 eigenvalues not converged
     ethr =  6.89E-05,  avg # of iterations = 15.3

     negative rho (up, down):  8.006E-03 0.000E+00
 
     Adding external electric field

     Computed dipole along edir(3) : 
        Dipole                0.5956 Ry au,          1.5139 Debye
        Dipole field          0.0011 Ry au, 
 
        Potential amp.       -0.1042 Ry
        Total length         46.3494 bohr
 

     total cpu time spent up to now is      733.1 secs

     total energy              =   -2952.74653255 Ry
     estimated scf accuracy    <       0.59425484 Ry

     iteration # 36     ecut=    29.40 Ry     beta= 0.05
     Davidson diagonalization with overlap
     c_bands:  2 eigenvalues not converged
     ethr =  6.89E-05,  avg # of iterations = 12.2

     negative rho (up, down):  7.543E-03 0.000E+00
 
     Adding external electric field

     Computed dipole along edir(3) : 
        Dipole                0.3260 Ry au,          0.8287 Debye
        Dipole field          0.0006 Ry au, 
 
        Potential amp.       -0.0570 Ry
        Total length         46.3494 bohr
 

     total cpu time spent up to now is      750.7 secs

     total energy              =   -2952.72392828 Ry
     estimated scf accuracy    <       0.19200687 Ry

     iteration # 37     ecut=    29.40 Ry     beta= 0.05
     Davidson diagonalization with overlap
     c_bands:  2 eigenvalues not converged
     c_bands:  4 eigenvalues not converged
     c_bands:  2 eigenvalues not converged
     c_bands:  5 eigenvalues not converged
     c_bands:  3 eigenvalues not converged
     c_bands:  2 eigenvalues not converged
     c_bands:  3 eigenvalues not converged
     c_bands:  2 eigenvalues not converged
     ethr =  4.84E-05,  avg # of iterations = 19.8

     negative rho (up, down):  7.363E-03 0.000E+00
 
     Adding external electric field

     Computed dipole along edir(3) : 
        Dipole                0.2765 Ry au,          0.7029 Debye
        Dipole field          0.0005 Ry au, 
 
        Potential amp.       -0.0484 Ry
        Total length         46.3494 bohr
 

     total cpu time spent up to now is      775.0 secs

     total energy              =   -2952.75038423 Ry
     estimated scf accuracy    <       0.14363031 Ry

     iteration # 38     ecut=    29.40 Ry     beta= 0.05
     Davidson diagonalization with overlap
     ethr =  3.62E-05,  avg # of iterations =  7.9

     negative rho (up, down):  7.463E-03 0.000E+00
 
     Adding external electric field

     Computed dipole along edir(3) : 
        Dipole                0.3620 Ry au,          0.9202 Debye
        Dipole field          0.0007 Ry au, 
 
        Potential amp.       -0.0633 Ry
        Total length         46.3494 bohr
 

     total cpu time spent up to now is      790.2 secs

     total energy              =   -2952.75189133 Ry
     estimated scf accuracy    <       0.14998017 Ry

     iteration # 39     ecut=    29.40 Ry     beta= 0.05
     Davidson diagonalization with overlap
     ethr =  3.62E-05,  avg # of iterations =  1.7

     negative rho (up, down):  7.515E-03 0.000E+00
 
     Adding external electric field

     Computed dipole along edir(3) : 
        Dipole                0.2855 Ry au,          0.7257 Debye
        Dipole field          0.0005 Ry au, 
 
        Potential amp.       -0.0499 Ry
        Total length         46.3494 bohr
 

     total cpu time spent up to now is      803.3 secs

     total energy              =   -2952.75864910 Ry
     estimated scf accuracy    <       0.14685447 Ry

     iteration # 40     ecut=    29.40 Ry     beta= 0.05
     Davidson diagonalization with overlap
     ethr =  3.62E-05,  avg # of iterations =  1.1

     negative rho (up, down):  7.473E-03 0.000E+00
 
     Adding external electric field

     Computed dipole along edir(3) : 
        Dipole                0.3525 Ry au,          0.8961 Debye
        Dipole field          0.0007 Ry au, 
 
        Potential amp.       -0.0617 Ry
        Total length         46.3494 bohr
 

     total cpu time spent up to now is      815.8 secs

     total energy              =   -2952.75941178 Ry
     estimated scf accuracy    <       0.18070504 Ry

     iteration # 41     ecut=    29.40 Ry     beta= 0.05
     Davidson diagonalization with overlap
     ethr =  3.62E-05,  avg # of iterations =  1.0

     negative rho (up, down):  7.644E-03 0.000E+00
 
     Adding external electric field

     Computed dipole along edir(3) : 
        Dipole                0.3904 Ry au,          0.9922 Debye
        Dipole field          0.0007 Ry au, 
 
        Potential amp.       -0.0683 Ry
        Total length         46.3494 bohr
 

     total cpu time spent up to now is      828.2 secs

     total energy              =   -2952.75687515 Ry
     estimated scf accuracy    <       0.17928465 Ry

     iteration # 42     ecut=    29.40 Ry     beta= 0.05
     Davidson diagonalization with overlap
     ethr =  3.62E-05,  avg # of iterations =  5.8

     negative rho (up, down):  7.698E-03 0.000E+00
 
     Adding external electric field

     Computed dipole along edir(3) : 
        Dipole                0.6103 Ry au,          1.5513 Debye
        Dipole field          0.0012 Ry au, 
 
        Potential amp.       -0.1068 Ry
        Total length         46.3494 bohr
 

     total cpu time spent up to now is      843.1 secs

     total energy              =   -2952.73323277 Ry
     estimated scf accuracy    <       0.17927785 Ry

     iteration # 43     ecut=    29.40 Ry     beta= 0.05
     Davidson diagonalization with overlap
     c_bands:  2 eigenvalues not converged
     c_bands:  1 eigenvalues not converged
     c_bands:  1 eigenvalues not converged
     c_bands:  1 eigenvalues not converged
     ethr =  3.62E-05,  avg # of iterations = 14.6

     negative rho (up, down):  7.839E-03 0.000E+00
 
     Adding external electric field

     Computed dipole along edir(3) : 
        Dipole                0.5385 Ry au,          1.3688 Debye
        Dipole field          0.0010 Ry au, 
 
        Potential amp.       -0.0942 Ry
        Total length         46.3494 bohr
 

     total cpu time spent up to now is      862.5 secs

     total energy              =   -2952.74199053 Ry
     estimated scf accuracy    <       0.13037479 Ry

     iteration # 44     ecut=    29.40 Ry     beta= 0.05
     Davidson diagonalization with overlap
     ethr =  3.28E-05,  avg # of iterations =  4.8

     negative rho (up, down):  7.746E-03 0.000E+00
 
     Adding external electric field

     Computed dipole along edir(3) : 
        Dipole                0.5461 Ry au,          1.3882 Debye
        Dipole field          0.0010 Ry au, 
 
        Potential amp.       -0.0955 Ry
        Total length         46.3494 bohr
 

     total cpu time spent up to now is      877.1 secs

     total energy              =   -2952.74431593 Ry
     estimated scf accuracy    <       0.03860214 Ry

     iteration # 45     ecut=    29.40 Ry     beta= 0.05
     Davidson diagonalization with overlap
     c_bands:  2 eigenvalues not converged
     c_bands:  1 eigenvalues not converged
     ethr =  9.72E-06,  avg # of iterations = 15.1

     negative rho (up, down):  7.671E-03 0.000E+00
 
     Adding external electric field

     Computed dipole along edir(3) : 
        Dipole                0.5391 Ry au,          1.3702 Debye
        Dipole field          0.0010 Ry au, 
 
        Potential amp.       -0.0943 Ry
        Total length         46.3494 bohr
 

     total cpu time spent up to now is      896.9 secs

     total energy              =   -2952.74202649 Ry
     estimated scf accuracy    <       0.04121317 Ry

     iteration # 46     ecut=    29.40 Ry     beta= 0.05
     Davidson diagonalization with overlap
     ethr =  9.72E-06,  avg # of iterations =  7.1

     negative rho (up, down):  8.090E-03 0.000E+00
 
     Adding external electric field

     Computed dipole along edir(3) : 
        Dipole                0.7158 Ry au,          1.8193 Debye
        Dipole field          0.0014 Ry au, 
 
        Potential amp.       -0.1252 Ry
        Total length         46.3494 bohr
 

     total cpu time spent up to now is      912.6 secs

     total energy              =   -2952.74744923 Ry
     estimated scf accuracy    <       0.01877103 Ry

     iteration # 47     ecut=    29.40 Ry     beta= 0.05
     Davidson diagonalization with overlap
     c_bands:  2 eigenvalues not converged
     c_bands:  1 eigenvalues not converged
     c_bands:  1 eigenvalues not converged
     c_bands:  2 eigenvalues not converged
     c_bands:  3 eigenvalues not converged
     c_bands:  2 eigenvalues not converged
     c_bands:  1 eigenvalues not converged
     c_bands:  3 eigenvalues not converged
     c_bands:  1 eigenvalues not converged
     ethr =  4.73E-06,  avg # of iterations = 19.8

     negative rho (up, down):  8.637E-03 0.000E+00
 
     Adding external electric field

     Computed dipole along edir(3) : 
        Dipole                0.8828 Ry au,          2.2438 Debye
        Dipole field          0.0017 Ry au, 
 
        Potential amp.       -0.1544 Ry
        Total length         46.3494 bohr
 

     total cpu time spent up to now is      941.6 secs

     total energy              =   -2952.73766536 Ry
     estimated scf accuracy    <       0.08922807 Ry

     iteration # 48     ecut=    29.40 Ry     beta= 0.05
     Davidson diagonalization with overlap
     c_bands:  1 eigenvalues not converged
     c_bands:  1 eigenvalues not converged
     c_bands:  2 eigenvalues not converged
     ethr =  4.73E-06,  avg # of iterations = 18.1

     negative rho (up, down):  8.850E-03 0.000E+00
 
     Adding external electric field

     Computed dipole along edir(3) : 
        Dipole                0.8773 Ry au,          2.2299 Debye
        Dipole field          0.0017 Ry au, 
 
        Potential amp.       -0.1535 Ry
        Total length         46.3494 bohr
 

     total cpu time spent up to now is      968.8 secs

     total energy              =   -2952.74577685 Ry
     estimated scf accuracy    <       0.02505912 Ry

     iteration # 49     ecut=    29.40 Ry     beta= 0.05
     Davidson diagonalization with overlap
     ethr =  4.73E-06,  avg # of iterations =  2.7

     negative rho (up, down):  1.054E-02 0.000E+00
 
     Adding external electric field

     Computed dipole along edir(3) : 
        Dipole                1.0444 Ry au,          2.6546 Debye
        Dipole field          0.0020 Ry au, 
 
        Potential amp.       -0.1827 Ry
        Total length         46.3494 bohr
 

     total cpu time spent up to now is      983.1 secs

     total energy              =   -2952.74603387 Ry
     estimated scf accuracy    <       0.00672083 Ry

     iteration # 50     ecut=    29.40 Ry     beta= 0.05
     Davidson diagonalization with overlap
     c_bands:  1 eigenvalues not converged
     ethr =  1.69E-06,  avg # of iterations =  9.9

     negative rho (up, down):  1.220E-02 0.000E+00
 
     Adding external electric field

     Computed dipole along edir(3) : 
        Dipole                1.0403 Ry au,          2.6441 Debye
        Dipole field          0.0020 Ry au, 
 
        Potential amp.       -0.1820 Ry
        Total length         46.3494 bohr
 

     total cpu time spent up to now is     1002.6 secs

     total energy              =   -2952.74677745 Ry
     estimated scf accuracy    <       0.01780151 Ry

     iteration # 51     ecut=    29.40 Ry     beta= 0.05
     Davidson diagonalization with overlap
     ethr =  1.69E-06,  avg # of iterations = 12.8

     negative rho (up, down):  1.318E-02 0.000E+00
 
     Adding external electric field

     Computed dipole along edir(3) : 
        Dipole                1.0532 Ry au,          2.6770 Debye
        Dipole field          0.0020 Ry au, 
 
        Potential amp.       -0.1842 Ry
        Total length         46.3494 bohr
 

     total cpu time spent up to now is     1022.3 secs

     total energy              =   -2952.74606195 Ry
     estimated scf accuracy    <       0.01056676 Ry

     iteration # 52     ecut=    29.40 Ry     beta= 0.05
     Davidson diagonalization with overlap
     ethr =  1.69E-06,  avg # of iterations =  7.6

     negative rho (up, down):  1.371E-02 0.000E+00
 
     Adding external electric field

     Computed dipole along edir(3) : 
        Dipole                1.0401 Ry au,          2.6438 Debye
        Dipole field          0.0020 Ry au, 
 
        Potential amp.       -0.1820 Ry
        Total length         46.3494 bohr
 

     total cpu time spent up to now is     1038.4 secs

     total energy              =   -2952.74666343 Ry
     estimated scf accuracy    <       0.00139422 Ry

     iteration # 53     ecut=    29.40 Ry     beta= 0.05
     Davidson diagonalization with overlap
     ethr =  3.51E-07,  avg # of iterations = 13.3

     negative rho (up, down):  1.397E-02 0.000E+00
 
     Adding external electric field

     Computed dipole along edir(3) : 
        Dipole                1.0385 Ry au,          2.6396 Debye
        Dipole field          0.0020 Ry au, 
 
        Potential amp.       -0.1817 Ry
        Total length         46.3494 bohr
 

     total cpu time spent up to now is     1062.3 secs

     total energy              =   -2952.74689980 Ry
     estimated scf accuracy    <       0.00095908 Ry

     iteration # 54     ecut=    29.40 Ry     beta= 0.05
     Davidson diagonalization with overlap
     ethr =  2.42E-07,  avg # of iterations =  6.1

     negative rho (up, down):  1.427E-02 0.000E+00
 
     Adding external electric field

     Computed dipole along edir(3) : 
        Dipole                1.0446 Ry au,          2.6551 Debye
        Dipole field          0.0020 Ry au, 
 
        Potential amp.       -0.1827 Ry
        Total length         46.3494 bohr
 

     total cpu time spent up to now is     1077.2 secs

     total energy              =   -2952.74690213 Ry
     estimated scf accuracy    <       0.00072177 Ry

     iteration # 55     ecut=    29.40 Ry     beta= 0.05
     Davidson diagonalization with overlap
     ethr =  1.82E-07,  avg # of iterations =  8.6

     negative rho (up, down):  1.451E-02 0.000E+00
 
     Adding external electric field

     Computed dipole along edir(3) : 
        Dipole                1.0496 Ry au,          2.6679 Debye
        Dipole field          0.0020 Ry au, 
 
        Potential amp.       -0.1836 Ry
        Total length         46.3494 bohr
 

     total cpu time spent up to now is     1093.4 secs

     total energy              =   -2952.74687415 Ry
     estimated scf accuracy    <       0.00071784 Ry

     iteration # 56     ecut=    29.40 Ry     beta= 0.05
     Davidson diagonalization with overlap
     ethr =  1.81E-07,  avg # of iterations =  1.9

     negative rho (up, down):  1.478E-02 0.000E+00
 
     Adding external electric field

     Computed dipole along edir(3) : 
        Dipole                1.0568 Ry au,          2.6862 Debye
        Dipole field          0.0020 Ry au, 
 
        Potential amp.       -0.1849 Ry
        Total length         46.3494 bohr
 

     total cpu time spent up to now is     1106.7 secs

     total energy              =   -2952.74686787 Ry
     estimated scf accuracy    <       0.00035167 Ry

     iteration # 57     ecut=    29.40 Ry     beta= 0.05
     Davidson diagonalization with overlap
     ethr =  8.86E-08,  avg # of iterations = 10.1

     negative rho (up, down):  1.490E-02 0.000E+00
 
     Adding external electric field

     Computed dipole along edir(3) : 
        Dipole                1.0573 Ry au,          2.6875 Debye
        Dipole field          0.0020 Ry au, 
 
        Potential amp.       -0.1850 Ry
        Total length         46.3494 bohr
 

     total cpu time spent up to now is     1124.2 secs

     total energy              =   -2952.74688529 Ry
     estimated scf accuracy    <       0.00015901 Ry

     iteration # 58     ecut=    29.40 Ry     beta= 0.05
     Davidson diagonalization with overlap
     ethr =  4.01E-08,  avg # of iterations =  8.8

     negative rho (up, down):  1.501E-02 0.000E+00
 
     Adding external electric field

     Computed dipole along edir(3) : 
        Dipole                1.0571 Ry au,          2.6868 Debye
        Dipole field          0.0020 Ry au, 
 
        Potential amp.       -0.1849 Ry
        Total length         46.3494 bohr
 

     total cpu time spent up to now is     1140.4 secs

     total energy              =   -2952.74688959 Ry
     estimated scf accuracy    <       0.00009007 Ry

     iteration # 59     ecut=    29.40 Ry     beta= 0.05
     Davidson diagonalization with overlap
     ethr =  2.27E-08,  avg # of iterations =  8.8

     negative rho (up, down):  1.507E-02 0.000E+00
 
     Adding external electric field

     Computed dipole along edir(3) : 
        Dipole                1.0603 Ry au,          2.6949 Debye
        Dipole field          0.0020 Ry au, 
 
        Potential amp.       -0.1855 Ry
        Total length         46.3494 bohr
 

     total cpu time spent up to now is     1157.0 secs

     total energy              =   -2952.74689854 Ry
     estimated scf accuracy    <       0.00004725 Ry

     iteration # 60     ecut=    29.40 Ry     beta= 0.05
     Davidson diagonalization with overlap
     ethr =  1.19E-08,  avg # of iterations = 10.1

     negative rho (up, down):  1.522E-02 0.000E+00
 
     Adding external electric field

     Computed dipole along edir(3) : 
        Dipole                1.0648 Ry au,          2.7064 Debye
        Dipole field          0.0020 Ry au, 
 
        Potential amp.       -0.1863 Ry
        Total length         46.3494 bohr
 

     total cpu time spent up to now is     1173.7 secs

     total energy              =   -2952.74690556 Ry
     estimated scf accuracy    <       0.00003459 Ry

     iteration # 61     ecut=    29.40 Ry     beta= 0.05
     Davidson diagonalization with overlap
     ethr =  8.71E-09,  avg # of iterations =  2.0

     negative rho (up, down):  1.572E-02 0.000E+00
 
     Adding external electric field

     Computed dipole along edir(3) : 
        Dipole                1.0749 Ry au,          2.7320 Debye
        Dipole field          0.0020 Ry au, 
 
        Potential amp.       -0.1880 Ry
        Total length         46.3494 bohr
 

     total cpu time spent up to now is     1187.3 secs

     total energy              =   -2952.74691367 Ry
     estimated scf accuracy    <       0.00002560 Ry

     iteration # 62     ecut=    29.40 Ry     beta= 0.05
     Davidson diagonalization with overlap
     ethr =  6.45E-09,  avg # of iterations =  6.4

     negative rho (up, down):  1.611E-02 0.000E+00
 
     Adding external electric field

     Computed dipole along edir(3) : 
        Dipole                1.0798 Ry au,          2.7445 Debye
        Dipole field          0.0020 Ry au, 
 
        Potential amp.       -0.1889 Ry
        Total length         46.3494 bohr
 

     total cpu time spent up to now is     1203.0 secs

     total energy              =   -2952.74691925 Ry
     estimated scf accuracy    <       0.00001412 Ry

     iteration # 63     ecut=    29.40 Ry     beta= 0.05
     Davidson diagonalization with overlap
     ethr =  3.56E-09,  avg # of iterations =  9.9

     negative rho (up, down):  1.617E-02 0.000E+00
 
     Adding external electric field

     Computed dipole along edir(3) : 
        Dipole                1.0800 Ry au,          2.7451 Debye
        Dipole field          0.0020 Ry au, 
 
        Potential amp.       -0.1889 Ry
        Total length         46.3494 bohr
 

     total cpu time spent up to now is     1222.1 secs

     total energy              =   -2952.74692450 Ry
     estimated scf accuracy    <       0.00000629 Ry

     iteration # 64     ecut=    29.40 Ry     beta= 0.05
     Davidson diagonalization with overlap
     ethr =  1.58E-09,  avg # of iterations =  6.0

     negative rho (up, down):  1.636E-02 0.000E+00
 
     Adding external electric field

     Computed dipole along edir(3) : 
        Dipole                1.0839 Ry au,          2.7550 Debye
        Dipole field          0.0020 Ry au, 
 
        Potential amp.       -0.1896 Ry
        Total length         46.3494 bohr
 

     total cpu time spent up to now is     1237.1 secs

     total energy              =   -2952.74692736 Ry
     estimated scf accuracy    <       0.00000574 Ry

     iteration # 65     ecut=    29.40 Ry     beta= 0.05
     Davidson diagonalization with overlap
     ethr =  1.45E-09,  avg # of iterations = 12.2

     negative rho (up, down):  1.654E-02 0.000E+00
 
     Adding external electric field

     Computed dipole along edir(3) : 
        Dipole                1.0863 Ry au,          2.7611 Debye
        Dipole field          0.0021 Ry au, 
 
        Potential amp.       -0.1900 Ry
        Total length         46.3494 bohr
 

     total cpu time spent up to now is     1259.3 secs

     total energy              =   -2952.74693105 Ry
     estimated scf accuracy    <       0.00000362 Ry

     iteration # 66     ecut=    29.40 Ry     beta= 0.05
     Davidson diagonalization with overlap
     ethr =  9.11E-10,  avg # of iterations =  9.4

     negative rho (up, down):  1.657E-02 0.000E+00
 
     Adding external electric field

     Computed dipole along edir(3) : 
        Dipole                1.0866 Ry au,          2.7619 Debye
        Dipole field          0.0021 Ry au, 
 
        Potential amp.       -0.1901 Ry
        Total length         46.3494 bohr
 

     total cpu time spent up to now is     1276.1 secs

     total energy              =   -2952.74693365 Ry
     estimated scf accuracy    <       0.00000205 Ry

     iteration # 67     ecut=    29.40 Ry     beta= 0.05
     Davidson diagonalization with overlap
     ethr =  5.15E-10,  avg # of iterations = 10.6

     negative rho (up, down):  1.658E-02 0.000E+00
 
     Adding external electric field

     Computed dipole along edir(3) : 
        Dipole                1.0870 Ry au,          2.7630 Debye
        Dipole field          0.0021 Ry au, 
 
        Potential amp.       -0.1902 Ry
        Total length         46.3494 bohr
 

     total cpu time spent up to now is     1298.8 secs

     total energy              =   -2952.74693626 Ry
     estimated scf accuracy    <       0.00000221 Ry

     iteration # 68     ecut=    29.40 Ry     beta= 0.05
     Davidson diagonalization with overlap
     ethr =  5.15E-10,  avg # of iterations =  1.9

     negative rho (up, down):  1.664E-02 0.000E+00
 
     Adding external electric field

     Computed dipole along edir(3) : 
        Dipole                1.0889 Ry au,          2.7676 Debye
        Dipole field          0.0021 Ry au, 
 
        Potential amp.       -0.1905 Ry
        Total length         46.3494 bohr
 

     total cpu time spent up to now is     1312.3 secs

     total energy              =   -2952.74693805 Ry
     estimated scf accuracy    <       0.00000125 Ry

     iteration # 69     ecut=    29.40 Ry     beta= 0.05
     Davidson diagonalization with overlap
     c_bands:  1 eigenvalues not converged
     c_bands:  1 eigenvalues not converged
     ethr =  3.16E-10,  avg # of iterations = 15.4

     negative rho (up, down):  1.666E-02 0.000E+00
 
     Adding external electric field

     Computed dipole along edir(3) : 
        Dipole                1.0885 Ry au,          2.7668 Debye
        Dipole field          0.0021 Ry au, 
 
        Potential amp.       -0.1904 Ry
        Total length         46.3494 bohr
 

     total cpu time spent up to now is     1341.1 secs

     total energy              =   -2952.74694014 Ry
     estimated scf accuracy    <       0.00000300 Ry

     iteration # 70     ecut=    29.40 Ry     beta= 0.05
     Davidson diagonalization with overlap
     ethr =  3.16E-10,  avg # of iterations =  9.0

     negative rho (up, down):  1.667E-02 0.000E+00
 
     Adding external electric field

     Computed dipole along edir(3) : 
        Dipole                1.0886 Ry au,          2.7669 Debye
        Dipole field          0.0021 Ry au, 
 
        Potential amp.       -0.1904 Ry
        Total length         46.3494 bohr
 

     total cpu time spent up to now is     1361.0 secs

     total energy              =   -2952.74694215 Ry
     estimated scf accuracy    <       0.00000036 Ry

     iteration # 71     ecut=    29.40 Ry     beta= 0.05
     Davidson diagonalization with overlap
     ethr =  9.17E-11,  avg # of iterations =  7.2

     negative rho (up, down):  1.667E-02 0.000E+00
 
     Adding external electric field

     Computed dipole along edir(3) : 
        Dipole                1.0885 Ry au,          2.7667 Debye
        Dipole field          0.0021 Ry au, 
 
        Potential amp.       -0.1904 Ry
        Total length         46.3494 bohr
 

     total cpu time spent up to now is     1380.6 secs

     total energy              =   -2952.74694385 Ry
     estimated scf accuracy    <       0.00000012 Ry

     iteration # 72     ecut=    29.40 Ry     beta= 0.05
     Davidson diagonalization with overlap
     ethr =  2.98E-11,  avg # of iterations =  9.1

     negative rho (up, down):  1.671E-02 0.000E+00
 
     Adding external electric field

     Computed dipole along edir(3) : 
        Dipole                1.0880 Ry au,          2.7653 Debye
        Dipole field          0.0021 Ry au, 
 
        Potential amp.       -0.1903 Ry
        Total length         46.3494 bohr
 

     total cpu time spent up to now is     1398.3 secs

     End of self-consistent calculation

          k = 0.0000 0.0000 0.0000 ( 18029 PWs)   bands (ev):

   -55.6614 -55.6384 -55.6044 -55.4674 -55.4600 -55.4323 -55.4322 -55.4266
   -55.4091 -55.3982 -55.3489 -55.2408 -55.2234 -55.1731 -54.6038 -54.5698
   -32.1220 -31.9894 -31.9632 -31.9559 -31.9505 -31.9301 -31.9296 -31.8837
   -31.8818 -31.8666 -31.8330 -31.7908 -31.7530 -31.7440 -31.7347 -31.7323
   -31.7141 -31.6959 -31.6758 -31.6647 -31.6621 -31.6554 -31.6344 -31.6234
   -31.6157 -31.6087 -31.5986 -31.5897 -31.5888 -31.5761 -31.5745 -31.5694
   -31.5648 -31.5450 -31.5197 -31.5045 -31.4366 -31.4288 -31.4157 -31.3858
   -31.3787 -31.3778 -31.0093 -30.9241 -30.9016 -30.8270 -30.7407 -30.6288
   -16.7161 -16.4202 -16.2540 -16.0801 -15.8665 -15.7926 -15.7552 -15.5586
   -15.4724 -15.4079 -15.1755 -15.1705 -15.1591 -15.1372 -15.1104 -15.1000
   -15.0901 -15.0554 -15.0534 -15.0313 -15.0054 -14.9721 -14.9635 -14.9160
   -14.8667 -14.8492 -14.7689 -14.6960 -14.6494 -14.4480 -14.3213 -13.1022
   -12.9860  -9.3284  -6.3442  -4.7345  -3.9552  -3.6236  -3.5377  -3.5034
    -3.4276  -3.3779  -3.1420  -3.0059  -2.9580  -2.8739  -2.7610  -2.7359
    -2.6744  -2.6188  -2.5510  -2.5281  -2.4850  -2.4294  -2.4067  -2.3762
    -2.3673  -2.3351  -2.2841  -2.2212  -2.1602  -2.1351  -2.0763  -1.9997
    -1.9518  -1.9473  -1.9407  -1.9197  -1.8956  -1.8733  -1.8504  -1.8394
    -1.7360  -1.6822  -1.6641  -1.6104  -1.5641  -1.3086  -1.2324  -1.2208
    -1.1515  -1.1012  -1.0694  -1.0512  -1.0224  -0.9766  -0.9248  -0.8912
    -0.8104  -0.7564  -0.6971  -0.6842  -0.6382  -0.5598  -0.4790  -0.4202
    -0.4043  -0.3468  -0.3384  -0.3117  -0.1905  -0.1526  -0.1427  -0.0875
    -0.0600   0.0421   0.0860   0.1248   0.1563   0.2450   0.2668   0.3080
     0.3136   0.3438   0.3503   0.4403   0.4496   0.4757   0.5382   0.5646
     0.6421   0.7136   0.7210   0.8767   0.9249   1.0155   1.0471   1.1370
     1.3734   1.4227   1.4806   1.6165   1.9890   2.0339   3.4550   3.6001
     3.6175   3.7095   3.7146   3.8203   3.9294   3.9843   4.0214   4.1322

          k = 0.0000 0.0419 0.0000 ( 17933 PWs)   bands (ev):

   -55.6609 -55.6334 -55.6093 -55.4622 -55.4550 -55.4373 -55.4315 -55.4314
   -55.4094 -55.3950 -55.3519 -55.2387 -55.2240 -55.1751 -54.5988 -54.5747
   -32.0681 -31.9584 -31.9273 -31.9258 -31.9248 -31.9142 -31.9009 -31.8725
   -31.8664 -31.8285 -31.8196 -31.8007 -31.7770 -31.7237 -31.7228 -31.7173
   -31.7098 -31.6992 -31.6775 -31.6697 -31.6662 -31.6558 -31.6500 -31.6395
   -31.6274 -31.6217 -31.6200 -31.6181 -31.6008 -31.5952 -31.5856 -31.5849
   -31.5721 -31.5601 -31.5497 -31.5137 -31.4437 -31.4360 -31.4276 -31.4155
   -31.4133 -31.3784 -30.9553 -30.9206 -30.9046 -30.8145 -30.7532 -30.6859
   -16.7064 -16.4117 -16.1295 -15.9748 -15.7680 -15.7417 -15.6612 -15.4908
   -15.4265 -15.4138 -15.3147 -15.2414 -15.1463 -15.1184 -15.1114 -15.1080
   -15.0843 -15.0805 -15.0410 -15.0329 -14.9981 -14.9947 -14.9708 -14.9482
   -14.8973 -14.8278 -14.8270 -14.7529 -14.7097 -14.5024 -14.4357 -13.1064
   -13.0256  -9.3282  -6.3419  -4.7364  -3.9559  -3.4364  -3.3625  -3.3416
    -3.2956  -3.2271  -3.0147  -2.8559  -2.7873  -2.7594  -2.6846  -2.6688
    -2.6395  -2.6065  -2.5747  -2.5455  -2.5116  -2.4875  -2.4626  -2.4529
    -2.4096  -2.3396  -2.3188  -2.3024  -2.2767  -2.2330  -2.1813  -2.1629
    -2.1331  -2.0979  -2.0714  -2.0444  -2.0328  -1.9106  -1.8506  -1.8111
    -1.7510  -1.6412  -1.5792  -1.4592  -1.3783  -1.3169  -1.2943  -1.2321
    -1.1575  -1.0382  -1.0171  -0.8766  -0.8654  -0.8246  -0.8009  -0.7952
    -0.6897  -0.6281  -0.6040  -0.5852  -0.5586  -0.5391  -0.4536  -0.4395
    -0.4089  -0.3706  -0.3479  -0.3199  -0.2683  -0.2498  -0.1722  -0.1522
    -0.1325  -0.0974   0.0150   0.0439   0.1212   0.1408   0.1830   0.2016
     0.2127   0.2493   0.2657   0.3555   0.3940   0.4841   0.5183   0.5529
     0.5967   0.6539   0.6825   0.7360   0.7620   0.8258   0.8918   1.0077
     1.0419   1.3664   1.6124   1.7076   1.9442   1.9462   3.6656   3.7009
     3.7925   3.8455   3.8877   3.9093   3.9710   4.0091   4.0560   4.0740

          k = 0.0000-0.0839 0.0000 ( 17884 PWs)   bands (ev):

   -55.6605 -55.6217 -55.6209 -55.4512 -55.4483 -55.4435 -55.4428 -55.4307
   -55.4097 -55.3914 -55.3555 -55.2365 -55.2247 -55.1772 -54.5871 -54.5862
   -31.9360 -31.9356 -31.9271 -31.9153 -31.9147 -31.9147 -31.8730 -31.8692
   -31.8032 -31.7731 -31.7717 -31.7638 -31.7572 -31.7438 -31.7430 -31.7117
   -31.7045 -31.6998 -31.6978 -31.6901 -31.6809 -31.6799 -31.6746 -31.6654
   -31.6590 -31.6515 -31.6388 -31.6177 -31.6117 -31.6087 -31.6054 -31.5991
   -31.5802 -31.5757 -31.5557 -31.5212 -31.5039 -31.4586 -31.4351 -31.4265
   -31.4243 -31.3781 -30.9127 -30.9121 -30.8230 -30.8217 -30.7842 -30.7835
   -16.6978 -16.4053 -15.8737 -15.8042 -15.7265 -15.7085 -15.5036 -15.4983
   -15.4451 -15.4300 -15.3602 -15.3164 -15.2858 -15.2653 -15.1899 -15.0792
   -15.0503 -15.0180 -14.9933 -14.9887 -14.9825 -14.9702 -14.9680 -14.8982
   -14.8910 -14.8583 -14.8469 -14.8318 -14.7611 -14.6569 -14.5663 -13.0886
   -13.0880  -9.3281  -6.3399  -4.7385  -3.9573  -3.0566  -3.0304  -3.0284
    -2.9541  -2.9329  -2.9249  -2.9195  -2.8919  -2.8549  -2.7847  -2.7318
    -2.6473  -2.6369  -2.6311  -2.6169  -2.5869  -2.5735  -2.5490  -2.5395
    -2.4896  -2.4506  -2.4075  -2.3830  -2.3192  -2.3089  -2.2613  -2.1981
    -2.1726  -2.1176  -1.9763  -1.8951  -1.8768  -1.8294  -1.7228  -1.6778
    -1.6345  -1.5876  -1.5726  -1.3861  -1.3410  -1.2849  -1.2223  -1.1679
    -1.1111  -1.0686  -1.0158  -1.0012  -0.9931  -0.9748  -0.9456  -0.9004
    -0.8552  -0.7592  -0.7235  -0.7044  -0.6506  -0.5432  -0.3131  -0.2937
    -0.2449  -0.2404  -0.2281  -0.1942  -0.1651  -0.1545  -0.1267  -0.0901
    -0.0776  -0.0756  -0.0393  -0.0299   0.0229   0.0590   0.1190   0.1386
     0.1537   0.1858   0.2415   0.2445   0.2834   0.2894   0.3728   0.4065
     0.4473   0.5602   0.6285   0.6378   0.6513   0.6948   0.8221   0.9117
     1.1061   1.1494   1.7545   1.7630   1.8797   1.8809   3.7141   3.9285
     3.9371   3.9665   3.9956   4.0385   4.0500   4.0564   4.0806   4.1905

          k = 0.0380 0.0000 0.0000 ( 17913 PWs)   bands (ev):

   -55.6613 -55.6383 -55.6043 -55.4673 -55.4598 -55.4322 -55.4321 -55.4265
   -55.4090 -55.3981 -55.3488 -55.2407 -55.2233 -55.1730 -54.6037 -54.5697
   -32.1228 -31.9915 -31.9634 -31.9578 -31.9516 -31.9294 -31.9254 -31.8874
   -31.8836 -31.8661 -31.8332 -31.7880 -31.7537 -31.7437 -31.7321 -31.7159
   -31.7063 -31.6957 -31.6732 -31.6636 -31.6618 -31.6480 -31.6341 -31.6236
   -31.6155 -31.6084 -31.6073 -31.6009 -31.5886 -31.5759 -31.5738 -31.5692
   -31.5645 -31.5459 -31.5196 -31.5044 -31.4379 -31.4333 -31.4155 -31.3858
   -31.3790 -31.3777 -31.0089 -30.9274 -30.8996 -30.8268 -30.7406 -30.6285
   -16.7105 -16.4139 -16.1723 -16.0009 -15.8265 -15.7678 -15.6753 -15.5947
   -15.4700 -15.4088 -15.3259 -15.2929 -15.2373 -15.2127 -15.2045 -15.1784
   -15.1056 -15.0459 -15.0274 -14.9939 -14.9691 -14.8880 -14.8791 -14.8645
   -14.8265 -14.8020 -14.7903 -14.7721 -14.7043 -14.4460 -14.3208 -13.0990
   -12.9857  -9.3307  -6.3449  -4.7234  -3.9449  -3.4812  -3.3227  -3.2626
    -3.2442  -3.2027  -3.1044  -3.0009  -2.9733  -2.9356  -2.8854  -2.8628
    -2.7846  -2.7117  -2.6882  -2.6153  -2.5502  -2.3955  -2.3744  -2.2842
    -2.2601  -2.2220  -2.1682  -2.1499  -2.1005  -2.0460  -2.0030  -1.9861
    -1.9657  -1.9399  -1.9224  -1.9071  -1.9015  -1.8288  -1.7908  -1.7590
    -1.6650  -1.5565  -1.5015  -1.4793  -1.3790  -1.3710  -1.2919  -1.2585
    -1.2251  -1.1705  -1.1132  -1.0694  -1.0529  -0.9848  -0.9551  -0.9259
    -0.9052  -0.8387  -0.8257  -0.7464  -0.7194  -0.7029  -0.5752  -0.4725
    -0.4300  -0.3682  -0.2970  -0.2446  -0.1991  -0.1543  -0.1251  -0.0658
    -0.0286  -0.0063   0.0712   0.0982   0.1145   0.1435   0.1702   0.2010
     0.2415   0.2708   0.2961   0.3314   0.3549   0.4382   0.4929   0.5535
     0.6192   0.6600   0.6914   0.7527   0.8032   0.8363   0.9991   1.0726
     1.3432   1.3861   1.4345   1.5863   1.8780   1.9521   3.4709   3.5603
     3.7991   3.8517   3.9032   3.9319   3.9482   3.9553   3.9743   4.0443

          k = 0.0380 0.0419 0.0000 ( 17878 PWs)   bands (ev):

   -55.6609 -55.6333 -55.6093 -55.4621 -55.4549 -55.4372 -55.4314 -55.4313
   -55.4093 -55.3950 -55.3519 -55.2387 -55.2240 -55.1750 -54.5987 -54.5747
   -32.0689 -31.9602 -31.9271 -31.9256 -31.9246 -31.9120 -31.9028 -31.8727
   -31.8659 -31.8351 -31.8198 -31.8008 -31.7746 -31.7235 -31.7186 -31.7094
   -31.7071 -31.6927 -31.6793 -31.6698 -31.6560 -31.6553 -31.6439 -31.6393
   -31.6259 -31.6215 -31.6201 -31.6175 -31.6040 -31.6028 -31.5951 -31.5843
   -31.5721 -31.5581 -31.5536 -31.5137 -31.4437 -31.4379 -31.4310 -31.4153
   -31.4133 -31.3798 -30.9549 -30.9232 -30.9036 -30.8143 -30.7533 -30.6857
   -16.7036 -16.4072 -16.0553 -15.9026 -15.7753 -15.6676 -15.5818 -15.5186
   -15.4223 -15.4091 -15.3264 -15.2960 -15.2823 -15.2038 -15.1414 -15.1264
   -15.0951 -15.0840 -15.0548 -15.0366 -15.0097 -14.9633 -14.9003 -14.8887
   -14.8756 -14.8636 -14.8455 -14.8189 -14.7442 -14.4990 -14.4366 -13.1042
   -13.0259  -9.3308  -6.3424  -4.7252  -3.9441  -3.3144  -3.1775  -3.0920
    -3.0841  -3.0687  -2.9639  -2.8594  -2.8089  -2.7743  -2.7445  -2.6992
    -2.6330  -2.6009  -2.5233  -2.5078  -2.4798  -2.4601  -2.4394  -2.3845
    -2.3469  -2.3291  -2.3063  -2.2706  -2.2491  -2.2322  -2.2082  -2.1593
    -2.1136  -2.0622  -2.0523  -1.9760  -1.9340  -1.8555  -1.8324  -1.7267
    -1.6914  -1.6141  -1.5842  -1.5186  -1.3705  -1.3052  -1.2569  -1.2411
    -1.1570  -1.0817  -1.0077  -0.9858  -0.9395  -0.8938  -0.8864  -0.8284
    -0.8044  -0.7620  -0.7071  -0.6721  -0.6130  -0.5816  -0.5685  -0.5011
    -0.4814  -0.4093  -0.3828  -0.3425  -0.3275  -0.2927  -0.2608  -0.2288
    -0.2032  -0.1820  -0.0994  -0.0349  -0.0099   0.0103   0.0874   0.1174
     0.1518   0.1993   0.2585   0.3161   0.4111   0.4511   0.5011   0.5508
     0.6114   0.6464   0.6982   0.7472   0.7728   0.8163   0.9150   0.9706
     1.0214   1.3008   1.6225   1.7109   1.8669   1.9267   3.6624   3.6865
     3.8316   3.8638   3.9458   3.9773   4.0294   4.0454   4.0650   4.0819

          k = 0.0380-0.0839 0.0000 ( 17916 PWs)   bands (ev):

   -55.6605 -55.6217 -55.6210 -55.4512 -55.4483 -55.4434 -55.4428 -55.4307
   -55.4097 -55.3914 -55.3556 -55.2366 -55.2248 -55.1772 -54.5872 -54.5862
   -31.9368 -31.9363 -31.9259 -31.9158 -31.9154 -31.9148 -31.8737 -31.8678
   -31.8034 -31.7740 -31.7732 -31.7645 -31.7587 -31.7427 -31.7419 -31.7268
   -31.7110 -31.7080 -31.6999 -31.6801 -31.6677 -31.6675 -31.6639 -31.6581
   -31.6556 -31.6468 -31.6385 -31.6177 -31.6116 -31.6106 -31.6086 -31.5965
   -31.5907 -31.5758 -31.5653 -31.5206 -31.5039 -31.4583 -31.4375 -31.4294
   -31.4243 -31.3805 -30.9137 -30.9130 -30.8229 -30.8216 -30.7842 -30.7835
   -16.6968 -16.4023 -15.8475 -15.7615 -15.6769 -15.6582 -15.4472 -15.4394
   -15.4109 -15.4020 -15.3707 -15.3129 -15.2804 -15.2488 -15.2072 -15.1015
   -15.0918 -15.0629 -15.0451 -15.0428 -15.0365 -14.9732 -14.9689 -14.9441
   -14.9315 -14.9166 -14.9001 -14.8067 -14.7485 -14.6441 -14.5649 -13.0884
   -13.0878  -9.3307  -6.3401  -4.7290  -3.9475  -3.0301  -2.9586  -2.8264
    -2.8197  -2.7610  -2.7363  -2.7264  -2.7124  -2.6995  -2.6801  -2.6608
    -2.6283  -2.6013  -2.5509  -2.5448  -2.5134  -2.5011  -2.4855  -2.4707
    -2.4509  -2.4278  -2.3654  -2.3385  -2.3084  -2.2777  -2.2492  -2.2135
    -2.1925  -2.1623  -1.9593  -1.8773  -1.7946  -1.7475  -1.7391  -1.6575
    -1.6132  -1.5526  -1.5154  -1.4674  -1.4122  -1.3934  -1.3582  -1.3290
    -1.3114  -1.2924  -1.2558  -1.2450  -1.1163  -1.1011  -0.9633  -0.8989
    -0.8123  -0.7905  -0.7671  -0.7400  -0.7059  -0.6004  -0.4855  -0.4505
    -0.4323  -0.3944  -0.3390  -0.3193  -0.3021  -0.2793  -0.2442  -0.2262
    -0.2165  -0.1854  -0.1773  -0.1319  -0.0619  -0.0267   0.0214   0.1003
     0.1367   0.2090   0.2664   0.3390   0.3907   0.4514   0.4700   0.5102
     0.5290   0.5537   0.6610   0.6725   0.7226   0.7423   0.8611   0.9067
     1.0880   1.1030   1.7675   1.7755   1.8690   1.8703   3.7203   3.8860
     3.9213   3.9234   3.9735   4.0115   4.0802   4.0873   4.1027   4.1405

          k = 0.0380-0.0419 0.0000 ( 17876 PWs)   bands (ev):

   -55.6609 -55.6333 -55.6093 -55.4621 -55.4549 -55.4372 -55.4314 -55.4313
   -55.4093 -55.3950 -55.3519 -55.2387 -55.2240 -55.1750 -54.5987 -54.5746
   -32.0688 -31.9604 -31.9269 -31.9255 -31.9246 -31.9121 -31.9028 -31.8726
   -31.8661 -31.8351 -31.8199 -31.8007 -31.7746 -31.7234 -31.7185 -31.7094
   -31.7071 -31.6927 -31.6746 -31.6698 -31.6563 -31.6552 -31.6489 -31.6393
   -31.6257 -31.6219 -31.6190 -31.6182 -31.6037 -31.6030 -31.5951 -31.5842
   -31.5720 -31.5581 -31.5536 -31.5137 -31.4435 -31.4377 -31.4313 -31.4153
   -31.4133 -31.3797 -30.9549 -30.9232 -30.9036 -30.8143 -30.7533 -30.6857
   -16.7031 -16.4078 -16.0550 -15.9019 -15.7769 -15.6680 -15.5843 -15.5190
   -15.4232 -15.4107 -15.3231 -15.2858 -15.2757 -15.2070 -15.1468 -15.1270
   -15.0958 -15.0805 -15.0778 -15.0256 -15.0106 -14.9629 -14.8982 -14.8814
   -14.8744 -14.8669 -14.8467 -14.8193 -14.7434 -14.4990 -14.4374 -13.1042
   -13.0259  -9.3306  -6.3424  -4.7273  -3.9471  -3.3139  -3.1775  -3.0898
    -3.0806  -3.0591  -2.9630  -2.8561  -2.8108  -2.7495  -2.7364  -2.7071
    -2.6259  -2.5995  -2.5849  -2.5143  -2.4834  -2.4654  -2.4409  -2.4066
    -2.3432  -2.3248  -2.3069  -2.2714  -2.2467  -2.2372  -2.2120  -2.1562
    -2.0838  -2.0627  -2.0452  -1.9717  -1.9259  -1.8661  -1.8217  -1.7254
    -1.6975  -1.6151  -1.5714  -1.5159  -1.3664  -1.2978  -1.2621  -1.2367
    -1.1545  -1.0871  -1.0130  -0.9825  -0.9427  -0.9016  -0.8757  -0.8339
    -0.7928  -0.7566  -0.6983  -0.6745  -0.6324  -0.5897  -0.5760  -0.5500
    -0.4831  -0.4008  -0.3733  -0.3340  -0.3174  -0.2879  -0.2628  -0.2290
    -0.2002  -0.1391  -0.1144  -0.0347  -0.0084   0.0166   0.0909   0.1358
     0.1617   0.1997   0.2359   0.2787   0.4178   0.4568   0.4907   0.5521
     0.6018   0.6456   0.7109   0.7418   0.7859   0.8139   0.9116   0.9712
     1.0199   1.2998   1.6225   1.7110   1.8667   1.9273   3.6623   3.6854
     3.7798   3.9033   3.9706   3.9884   4.0073   4.0523   4.0739   4.0829

          k =-0.0760-0.0000 0.0000 ( 17886 PWs)   bands (ev):

   -55.6612 -55.6383 -55.6043 -55.4672 -55.4596 -55.4321 -55.4321 -55.4265
   -55.4090 -55.3982 -55.3488 -55.2407 -55.2233 -55.1730 -54.6037 -54.5697
   -32.1237 -31.9937 -31.9636 -31.9597 -31.9525 -31.9293 -31.9214 -31.8927
   -31.8836 -31.8655 -31.8334 -31.7851 -31.7546 -31.7437 -31.7318 -31.6995
   -31.6961 -31.6826 -31.6709 -31.6627 -31.6611 -31.6416 -31.6411 -31.6338
   -31.6234 -31.6150 -31.6064 -31.6046 -31.5885 -31.5758 -31.5735 -31.5691
   -31.5643 -31.5469 -31.5196 -31.5046 -31.4395 -31.4390 -31.4154 -31.3859
   -31.3791 -31.3777 -31.0085 -30.9306 -30.8983 -30.8268 -30.7405 -30.6286
   -16.7055 -16.4089 -16.0267 -15.9432 -15.8546 -15.6908 -15.5830 -15.5753
   -15.4594 -15.4124 -15.4090 -15.3444 -15.3198 -15.3011 -15.2976 -15.2839
   -15.0944 -15.0742 -15.0495 -14.9730 -14.9463 -14.9100 -14.8788 -14.8734
   -14.8601 -14.7898 -14.7374 -14.7180 -14.7060 -14.4451 -14.3206 -13.0960
   -12.9854  -9.3331  -6.3456  -4.7135  -3.9330  -3.4455  -3.2359  -3.0697
    -3.0499  -3.0479  -2.9974  -2.9586  -2.9034  -2.8923  -2.8806  -2.8751
    -2.8469  -2.8423  -2.6648  -2.5539  -2.4266  -2.4022  -2.2461  -2.2160
    -2.2000  -2.1305  -2.1213  -2.0664  -2.0568  -2.0230  -1.9763  -1.9741
    -1.9419  -1.9215  -1.9019  -1.8651  -1.8512  -1.8444  -1.8311  -1.7392
    -1.7075  -1.6846  -1.5366  -1.4860  -1.4095  -1.3288  -1.2262  -1.2157
    -1.2099  -1.1703  -1.1390  -1.1267  -1.0948  -1.0593  -1.0116  -0.9526
    -0.9366  -0.8860  -0.8727  -0.8379  -0.7940  -0.7434  -0.6801  -0.6083
    -0.4690  -0.4497  -0.3698  -0.2684  -0.2157  -0.2004  -0.1546  -0.1133
    -0.0799  -0.0523  -0.0497   0.0356   0.0690   0.0861   0.1308   0.1675
     0.1810   0.2087   0.2360   0.3383   0.3576   0.4486   0.4761   0.5303
     0.5372   0.6274   0.6409   0.6655   0.7890   0.8967   1.0260   1.0667
     1.0773   1.3885   1.4554   1.5621   1.7514   1.8970   3.4729   3.5169
     3.7772   3.7918   3.8345   3.8956   3.9324   3.9448   4.0233   4.0662

          k =-0.0760 0.0419 0.0000 ( 17914 PWs)   bands (ev):

   -55.6609 -55.6333 -55.6093 -55.4621 -55.4548 -55.4373 -55.4314 -55.4313
   -55.4094 -55.3951 -55.3520 -55.2387 -55.2240 -55.1750 -54.5987 -54.5747
   -32.0699 -31.9624 -31.9272 -31.9255 -31.9247 -31.9096 -31.9048 -31.8728
   -31.8656 -31.8414 -31.8202 -31.8010 -31.7725 -31.7234 -31.7200 -31.7093
   -31.6875 -31.6818 -31.6774 -31.6698 -31.6565 -31.6444 -31.6429 -31.6399
   -31.6302 -31.6245 -31.6201 -31.6180 -31.6166 -31.6081 -31.5951 -31.5839
   -31.5721 -31.5590 -31.5566 -31.5137 -31.4436 -31.4397 -31.4355 -31.4153
   -31.4133 -31.3810 -30.9547 -30.9260 -30.9029 -30.8143 -30.7533 -30.6858
   -16.7005 -16.4038 -15.9296 -15.8501 -15.7879 -15.6012 -15.5027 -15.4871
   -15.4068 -15.3779 -15.3753 -15.3203 -15.3061 -15.2822 -15.2485 -15.2431
   -15.1206 -15.0996 -15.0824 -15.0224 -15.0121 -14.9263 -14.9204 -14.9144
   -14.8972 -14.8817 -14.8191 -14.8023 -14.7460 -14.4963 -14.4389 -13.1021
   -13.0262  -9.3333  -6.3429  -4.7168  -3.9344  -3.2896  -3.1036  -2.9007
    -2.8355  -2.8127  -2.7982  -2.7537  -2.7459  -2.6866  -2.6833  -2.6657
    -2.6190  -2.5917  -2.5692  -2.5252  -2.5059  -2.4328  -2.4169  -2.3492
    -2.3398  -2.2914  -2.2589  -2.1928  -2.1809  -2.1544  -2.1375  -2.1240
    -2.1113  -2.0823  -2.0232  -1.9986  -1.9696  -1.7493  -1.7125  -1.6792
    -1.6358  -1.5684  -1.5366  -1.5044  -1.4312  -1.4174  -1.2878  -1.2170
    -1.1836  -1.1468  -1.1035  -1.0532  -1.0234  -0.9474  -0.9190  -0.8964
    -0.8615  -0.8519  -0.8275  -0.8109  -0.7600  -0.7366  -0.6920  -0.6618
    -0.6373  -0.5838  -0.5131  -0.4700  -0.4353  -0.3817  -0.3647  -0.3377
    -0.2857  -0.2254  -0.1961  -0.1733  -0.0896   0.0255   0.0762   0.1308
     0.1886   0.2162   0.2721   0.3141   0.3391   0.3851   0.5223   0.5817
     0.6320   0.7306   0.7624   0.7854   0.8537   0.8838   0.9459   0.9640
     1.0296   1.0946   1.6358   1.7129   1.7900   1.9160   3.6602   3.6797
     3.7746   3.8277   3.8712   3.9059   3.9612   4.0092   4.0281   4.1701

          k =-0.0760-0.0839 0.0000 ( 17948 PWs)   bands (ev):

   -55.6606 -55.6217 -55.6210 -55.4512 -55.4483 -55.4434 -55.4428 -55.4307
   -55.4098 -55.3915 -55.3556 -55.2366 -55.2248 -55.1772 -54.5872 -54.5863
   -31.9375 -31.9371 -31.9250 -31.9165 -31.9154 -31.9148 -31.8742 -31.8666
   -31.8034 -31.7752 -31.7743 -31.7652 -31.7598 -31.7415 -31.7408 -31.7347
   -31.7164 -31.7138 -31.7004 -31.6802 -31.6677 -31.6554 -31.6529 -31.6453
   -31.6422 -31.6379 -31.6349 -31.6186 -31.6146 -31.6114 -31.6090 -31.6086
   -31.5953 -31.5784 -31.5758 -31.5200 -31.5038 -31.4581 -31.4399 -31.4324
   -31.4243 -31.3830 -30.9146 -30.9140 -30.8229 -30.8216 -30.7843 -30.7836
   -16.6958 -16.3993 -15.8208 -15.7123 -15.5917 -15.5831 -15.4704 -15.3977
   -15.3628 -15.3337 -15.3160 -15.3054 -15.2821 -15.2427 -15.1950 -15.1739
   -15.1422 -15.1241 -15.1119 -15.0709 -15.0557 -15.0462 -15.0271 -14.9828
   -14.9690 -14.9393 -14.9264 -14.7943 -14.7416 -14.6338 -14.5642 -13.0882
   -13.0876  -9.3334  -6.3403  -4.7196  -3.9375  -3.0251  -2.9294  -2.7992
    -2.7048  -2.6684  -2.6300  -2.6045  -2.5806  -2.5399  -2.5226  -2.4738
    -2.4295  -2.4123  -2.4009  -2.3710  -2.3670  -2.3581  -2.3264  -2.3055
    -2.2988  -2.2860  -2.2621  -2.2514  -2.2343  -2.2097  -2.1969  -2.1708
    -2.1501  -2.1039  -1.9931  -1.9409  -1.9120  -1.7833  -1.7700  -1.7490
    -1.7339  -1.7189  -1.6986  -1.6801  -1.6133  -1.5944  -1.5668  -1.3905
    -1.3719  -1.2822  -1.2504  -1.2049  -1.1403  -1.1268  -1.0768  -1.0491
    -0.9946  -0.9691  -0.8769  -0.8231  -0.7931  -0.7562  -0.6325  -0.5811
    -0.5752  -0.5649  -0.5356  -0.5153  -0.4709  -0.4504  -0.4202  -0.3548
    -0.3253  -0.3082  -0.2621  -0.2496  -0.1264  -0.0085   0.0760   0.1192
     0.1806   0.2013   0.2403   0.3474   0.4208   0.5017   0.5437   0.5620
     0.5933   0.6843   0.6999   0.8434   0.8722   0.8779   0.9136   0.9452
     0.9741   1.0191   1.7859   1.7939   1.8541   1.8544   3.7018   3.8326
     3.9625   3.9825   3.9946   4.0270   4.0312   4.0547   4.1042   4.1385

     the Fermi energy is     3.4864 ev

!    total energy              =   -2952.74695863 Ry
     estimated scf accuracy    <       0.00000006 Ry
     smearing contrib. (-TS)   =      -0.02003732 Ry
     internal energy E=F+TS    =   -2952.72692130 Ry

     The total energy is F=E-TS. E is the sum of the following terms:
     one-electron contribution =  -23991.02775191 Ry
     hartree contribution      =   12087.02461067 Ry
     xc contribution           =    -488.02655036 Ry
     ewald contribution        =    9439.30053660 Ry
     electric field correction =       0.00223369 Ry

     convergence has been achieved in  72 iterations

     Forces acting on atoms (cartesian axes, Ry/au):

     atom    1 type  1   force =     0.00015829   -0.00027323    0.09474424
     atom    2 type  1   force =    -0.00000442    0.00040385   -0.17490444
     atom    3 type  2   force =    -0.00001204   -0.00013045   -0.02195993
     atom    4 type  2   force =     0.00006339   -0.00191727    0.05340919
     atom    5 type  2   force =    -0.00734610   -0.00239702    0.00310355
     atom    6 type  2   force =     0.00861178   -0.00197428    0.00181838
     atom    7 type  1   force =    -0.00058787   -0.00348556    0.00956552
     atom    8 type  1   force =     0.00060640    0.00468620    0.00861753
     atom    9 type  2   force =     0.00009297    0.00017395   -0.00013348
     atom   10 type  2   force =    -0.00268797   -0.00030736   -0.01303845
     atom   11 type  2   force =    -0.00039252   -0.00036269   -0.00012029
     atom   12 type  2   force =     0.00017133   -0.00017844    0.00029557
     atom   13 type  1   force =     0.00039873    0.00019764   -0.00065827
     atom   14 type  1   force =    -0.00014580    0.00013406   -0.00005050
     atom   15 type  2   force =     0.00025798   -0.00026282   -0.00042585
     atom   16 type  2   force =     0.00038954    0.00011237    0.00002708
     atom   17 type  2   force =    -0.00019212    0.00004689    0.00026893
     atom   18 type  2   force =     0.00010652   -0.00090408   -0.00024919
     atom   19 type  1   force =     0.00035934    0.00047901    0.00020330
     atom   20 type  1   force =    -0.00004582   -0.00009950    0.00010717
     atom   21 type  2   force =     0.00009857    0.00007899    0.10312809
     atom   22 type  2   force =     0.00016956   -0.00046407    0.00000180
     atom   23 type  2   force =    -0.07214563   -0.00013466   -0.02737785
     atom   24 type  2   force =     0.07209938    0.00027611   -0.02740292
     atom   25 type  1   force =     0.00003460   -0.00009956    0.09451265
     atom   26 type  1   force =    -0.00007486   -0.00132532   -0.17507513
     atom   27 type  2   force =     0.00014960   -0.00020173   -0.02073047
     atom   28 type  2   force =     0.00002501   -0.00018820    0.04899848
     atom   29 type  2   force =    -0.00616851    0.00259662    0.00154526
     atom   30 type  2   force =     0.00739138    0.00321892    0.00010497
     atom   31 type  1   force =    -0.00054893    0.00715473   -0.00093037
     atom   32 type  1   force =     0.00055558   -0.00651059    0.00786818
     atom   33 type  2   force =     0.00025633   -0.00025207   -0.00031789
     atom   34 type  2   force =    -0.00212539    0.00146587   -0.01184983
     atom   35 type  2   force =    -0.00008980    0.00000900    0.00017141
     atom   36 type  2   force =    -0.00022950    0.00011390    0.00029277
     atom   37 type  1   force =     0.00054204   -0.00012088   -0.00023622
     atom   38 type  1   force =    -0.00019075   -0.00017661    0.00032624
     atom   39 type  2   force =     0.00013060    0.00037531   -0.00039307
     atom   40 type  2   force =    -0.00015586    0.00027758   -0.00052136
     atom   41 type  2   force =     0.00012953    0.00031561   -0.00027143
     atom   42 type  2   force =    -0.00009911    0.00039021    0.00025151
     atom   43 type  1   force =     0.00039621   -0.00094146    0.00006206
     atom   44 type  1   force =     0.00009890    0.00073793    0.00035593
     atom   45 type  2   force =     0.00010033   -0.00009090    0.10294262
     atom   46 type  2   force =    -0.07216177   -0.00005791   -0.02740599
     atom   47 type  2   force =     0.07216365    0.00039177   -0.02743523
     atom   48 type  3   force =     0.00010432   -0.00032996   -0.00028908
     atom   49 type  4   force =     0.00054407   -0.00035398   -0.00040912
     atom   50 type  5   force =    -0.00024259   -0.00002535    0.00006555
     atom   51 type  5   force =     0.00033162    0.00004553   -0.00036052
     atom   52 type  5   force =    -0.00000927   -0.00015942   -0.00012432
     atom   53 type  2   force =     0.00441048    0.00016802    0.00327889
     atom   54 type  5   force =    -0.00529140   -0.00012470   -0.00339567

     Total force =     0.362493     Total SCF correction =     0.000647
  @ DRIVER MODE: Message from server: STATUS
  @ DRIVER MODE: Message from server: GETFORCE
  @ DRIVER MODE: Returning v,forces,stress,ensemble 

     Writing output data file ./calc.save/
  @ DRIVER MODE: Message from server: EXIT
  @ DRIVE MODE: Exiting  
 
     init_run     :     13.20s CPU     13.57s WALL (       1 calls)
     electrons    :   1353.76s CPU   1384.37s WALL (       1 calls)
     forces       :      2.71s CPU      2.84s WALL (       1 calls)

     Called by init_run:
     wfcinit      :      5.72s CPU      5.87s WALL (       1 calls)
     potinit      :      6.75s CPU      6.83s WALL (       1 calls)
     hinit0       :      0.37s CPU      0.38s WALL (       1 calls)

     Called by electrons:
     c_bands      :   1147.77s CPU   1164.08s WALL (      72 calls)
     sum_band     :    142.82s CPU    149.55s WALL (      72 calls)
     v_of_rho     :     48.25s CPU     50.17s WALL (      73 calls)
     newd         :     18.78s CPU     24.29s WALL (      73 calls)
     mix_rho      :      1.83s CPU      1.90s WALL (      72 calls)
     vdW_kernel   :      5.84s CPU      5.86s WALL (       1 calls)

     Called by c_bands:
     init_us_2    :      7.48s CPU      7.54s WALL (    1460 calls)
     cegterg      :   1123.52s CPU   1139.40s WALL (     738 calls)

     Called by *egterg:
     cdiaghg      :    178.36s CPU    179.09s WALL (    6767 calls)
     h_psi        :    615.71s CPU    626.37s WALL (    6777 calls)
     s_psi        :     80.60s CPU     80.88s WALL (    6777 calls)
     g_psi        :      2.08s CPU      2.09s WALL (    6029 calls)

     Called by h_psi:
     h_psi:calbec :     75.59s CPU     76.63s WALL (    6777 calls)
     vloc_psi     :    456.68s CPU    461.85s WALL (    6777 calls)
     add_vuspsi   :     80.97s CPU     83.09s WALL (    6777 calls)

     General routines
     calbec       :    100.78s CPU    101.89s WALL (    7537 calls)
     fft          :     23.89s CPU     24.01s WALL (    4599 calls)
     ffts         :      0.21s CPU      0.21s WALL (     145 calls)
     fftw         :    514.06s CPU    519.76s WALL (  948888 calls)
     interpolate  :      0.55s CPU      0.55s WALL (      73 calls)
     davcio       :      0.00s CPU      0.86s WALL (      10 calls)
 
     Parallel routines
 
     PWSCF        :  22m49.96s CPU  23m37.63s WALL

 
   This run was terminated on:  15: 5:39  23Sep2021            

=------------------------------------------------------------------------------=
   JOB DONE.
=------------------------------------------------------------------------------=
