
     Program PWSCF v.6.7GPU starts on 23Sep2021 at 17:41:20 

     This program is part of the open-source Quantum ESPRESSO suite
     for quantum simulation of materials; please cite
         "P. Giannozzi et al., J. Phys.:Condens. Matter 21 395502 (2009);
         "P. Giannozzi et al., J. Phys.:Condens. Matter 29 465901 (2017);
         "P. Giannozzi et al., J. Chem. Phys. 152 154105 (2020);
          URL http://www.quantum-espresso.org", 
     in publications or presentations arising from this work. More details at
     http://www.quantum-espresso.org/quote

     Parallel version (MPI), running on     8 processors

     MPI processes distributed on     1 nodes
     R & G space division:  proc/nbgrp/npool/nimage =       8
     Reading input from /storage/home/hcoda1/3/ntian30/research/carbon/CxH_vib/H2O_calc/ads_slab/CH3N2HHO_a/out_0048/pw.inp
Warning: card &CELL ignored
Warning: card   CELL_DYNAMICS='IPI', ignored
Warning: card / ignored

     Current dimensions of program PWSCF are:
     Max number of different atomic species (ntypx) = 10
     Max number of k-points (npk) =  40000
     Max angular momentum in pseudopotentials (lmaxx) =  3
     Presently no symmetry can be used with electric field

     Message from routine cell_base_init:
     DEPRECATED: use true lattice parameter, not A to a.u. conversion factor

     **************************************************************************
     Initializing libbeef V0.1.2 with the BEEF-vdW functional.
     Citation: Wellendorff et al., PRB 85, 235149 (2012).
     **************************************************************************


     IMPORTANT: XC functional enforced from input :
     Exchange-correlation= BEEF-VDW
                           (   1   4  43  14   2   0   0)
     Any further DFT definition will be discarded
     Please, verify this is what you really want


     Subspace diagonalization in iterative solution of the eigenvalue problem:
     one sub-group per band group will be used
     scalapack distributed-memory algorithm (size of sub-group:  2*  2 procs)

  @ DRIVER MODE: Connecting to 
 qe_1139763_2941009.sched-torque.pace.gatech.eduwu597xok_scratch
  using UNIX socket
  @ DRIVER MODE: Message from server: STATUS
  @ DRIVER MODE: Message from server: INIT
  @ DRIVER MODE: Receiving replica           0          -1
  @ DRIVER MODE: Receiving encoded integer          25
  @ DRIVER MODE:  SCF:  T  FORCE:  T  STRESS:  F  VC:  F  ENSEMBLE:  F
  @ DRIVER MODE:  SCF:  T  FORCE:  T  STRESS:  F  VC:  F  ENSEMBLE:  F
 
     Parallelization info
     --------------------
     sticks:   dense  smooth     PW     G-vecs:    dense   smooth      PW
     Min         409     164     47                70857    17926    2743
     Max         411     165     48                70858    17931    2751
     Sum        3275    1317    379               566857   143421   21985
 
     Using Slab Decomposition
 


     bravais-lattice index     =            0
     lattice parameter (alat)  =       1.8897  a.u.
     unit-cell volume          =    6658.9804 (a.u.)^3
     number of atoms/cell      =           56
     number of atomic types    =            5
     number of electrons       =       403.00
     number of Kohn-Sham states=          211
     kinetic-energy cutoff     =      29.3995  Ry
     charge density cutoff     =     293.9946  Ry
     scf convergence threshold =      7.3E-08
     mixing beta               =       0.0500
     number of iterations used =            8  plain     mixing
     Exchange-correlation= BEEF-VDW
                           (   1   4  43  14   2   0   0)

     celldm(1)=   1.889726  celldm(2)=   0.000000  celldm(3)=   0.000000
     celldm(4)=   0.000000  celldm(5)=   0.000000  celldm(6)=   0.000000

     crystal axes: (cart. coord. in units of alat)
               a(1) = (   6.579727   0.000000   0.000000 )  
               a(2) = (  -0.000775   5.961596   0.000000 )  
               a(3) = (   0.000000   0.000000  25.155947 )  

     reciprocal axes: (cart. coord. in units 2 pi/alat)
               b(1) = (  0.151982  0.000020  0.000000 )  
               b(2) = (  0.000000  0.167740  0.000000 )  
               b(3) = (  0.000000  0.000000  0.039752 )  


     PseudoPot. # 1 for Ti read from file:
     /storage/coda1/p-amedford6/0/shared/rich_project_chbe-medford/medford-share/data/pseudos_module/espresso/nninc/pbe/van/Ti.UPF
     MD5 check sum: 8e4df49b7f0d34bbd5052bf3f5ea0213
     Pseudo is Ultrasoft, Zval = 12.0
     Generated by new atomic code, or converted to UPF format
     Using radial grid of  851 points,  6 beta functions with: 
                l(1) =   0
                l(2) =   0
                l(3) =   1
                l(4) =   1
                l(5) =   2
                l(6) =   2
     Q(r) pseudized with  8 coefficients,  rinner =    1.000   1.000   1.000
                                                       1.000   1.000

     PseudoPot. # 2 for O  read from file:
     /storage/coda1/p-amedford6/0/shared/rich_project_chbe-medford/medford-share/data/pseudos_module/espresso/nninc/pbe/van/O.UPF
     MD5 check sum: 78c19812648e8988a0fe644b0f25305e
     Pseudo is Ultrasoft, Zval =  6.0
     Generated by new atomic code, or converted to UPF format
     Using radial grid of  737 points,  4 beta functions with: 
                l(1) =   0
                l(2) =   0
                l(3) =   1
                l(4) =   1
     Q(r) pseudized with  8 coefficients,  rinner =    0.800   0.800   0.800


     PseudoPot. # 3 for N  read from file:
     /storage/coda1/p-amedford6/0/shared/rich_project_chbe-medford/medford-share/data/pseudos_module/espresso/nninc/pbe/van/N.UPF
     MD5 check sum: 90d10febe142ad51ac9d5be1deb811c4
     Pseudo is Ultrasoft, Zval =  5.0
     Generated by new atomic code, or converted to UPF format
     Using radial grid of  729 points,  4 beta functions with: 
                l(1) =   0
                l(2) =   0
                l(3) =   1
                l(4) =   1
     Q(r) pseudized with  8 coefficients,  rinner =    0.800   0.800   0.800


     PseudoPot. # 4 for C  read from file:
     /storage/coda1/p-amedford6/0/shared/rich_project_chbe-medford/medford-share/data/pseudos_module/espresso/nninc/pbe/van/C.UPF
     MD5 check sum: 1a69bf6b8db32088f5b2163dbdb77a27
     Pseudo is Ultrasoft, Zval =  4.0
     Generated by new atomic code, or converted to UPF format
     Using radial grid of  721 points,  4 beta functions with: 
                l(1) =   0
                l(2) =   0
                l(3) =   1
                l(4) =   1
     Q(r) pseudized with  8 coefficients,  rinner =    0.800   0.800   0.800


     PseudoPot. # 5 for H  read from file:
     /storage/coda1/p-amedford6/0/shared/rich_project_chbe-medford/medford-share/data/pseudos_module/espresso/nninc/pbe/van/H.UPF
     MD5 check sum: b5ee9d7bfd3a09ee7748110bda690ff7
     Pseudo is Ultrasoft, Zval =  1.0
     Generated by new atomic code, or converted to UPF format
     Using radial grid of  615 points,  1 beta functions with: 
                l(1) =   0
     Q(r) pseudized with  8 coefficients,  rinner =    0.800

     atomic species   valence    mass     pseudopotential
        Ti1           12.00    47.86700     Ti( 1.00)
        O1             6.00    15.99900     O ( 1.00)
        N1             5.00    14.00700     N ( 1.00)
        C1             4.00    12.01100     C ( 1.00)
        H1             1.00     1.00800     H ( 1.00)

     No symmetry found



   Cartesian axes

     site n.     atom                  positions (alat units)
         1           Ti1 tau(   1) = (   0.0004258   2.9801865   6.0000000  )
         2           Ti1 tau(   2) = (   3.2906075   1.4906267   6.0002472  )
         3           O1  tau(   3) = (   0.0006271   0.0005054   7.9858123  )
         4           O1  tau(   4) = (   3.2906025   0.0005020   7.3038282  )
         5           O1  tau(   5) = (   4.5942328   1.4918067   9.2879030  )
         6           O1  tau(   6) = (   1.9868534   1.4903216   9.2879459  )
         7           Ti1 tau(   7) = (   3.2907910   2.8959150   9.1758416  )
         8           Ti1 tau(   8) = (   0.0015273   1.4827037   9.2680791  )
         9           O1  tau(   9) = (   3.2827749   5.9542966  11.3123607  )
        10           O1  tau(  10) = (   0.0116148   5.9584955  10.6183126  )
        11           O1  tau(  11) = (   1.2790800   1.4852124  12.6463597  )
        12           O1  tau(  12) = (   5.2943908   1.4901875  12.6352807  )
        13           Ti1 tau(  13) = (   6.5507123   3.1127926  12.6266869  )
        14           Ti1 tau(  14) = (   3.2873181   1.3120036  12.6863921  )
        15           O1  tau(  15) = (   6.5656690   0.0172326  14.6855350  )
        16           O1  tau(  16) = (   3.2842416   0.0515509  13.9244022  )
        17           O1  tau(  17) = (   4.5437539   1.5966601  16.0680646  )
        18           O1  tau(  18) = (   2.0303991   1.5956099  16.0781401  )
        19           Ti1 tau(  19) = (   3.2961159   3.0594788  15.6697774  )
        20           Ti1 tau(  20) = (   6.5318457   1.5630605  15.7780207  )
        21           O1  tau(  21) = (   3.2904802   0.0005063   4.7018136  )
        22           O1  tau(  22) = (   6.5726385   0.0820865  17.2550913  )
        23           O1  tau(  23) = (   1.3043587   1.4918075   6.0039043  )
        24           O1  tau(  24) = (   5.2767064   1.4903225   6.0039473  )
        25           Ti1 tau(  25) = (   0.0000382   5.9609847   6.0000000  )
        26           Ti1 tau(  26) = (   3.2902200   4.4714249   6.0002472  )
        27           O1  tau(  27) = (   0.0002396   2.9813036   7.9858123  )
        28           O1  tau(  28) = (   3.2902150   2.9813002   7.3038282  )
        29           O1  tau(  29) = (   4.5938453   4.4726049   9.2879030  )
        30           O1  tau(  30) = (   1.9864658   4.4711199   9.2879459  )
        31           Ti1 tau(  31) = (   3.2891106   5.8743827   9.1763621  )
        32           Ti1 tau(  32) = (   0.0006254   4.4649316   9.2693709  )
        33           O1  tau(  33) = (   3.2807365   3.0201584  11.2787527  )
        34           O1  tau(  34) = (   0.0092240   2.9805883  10.6323155  )
        35           O1  tau(  35) = (   1.2751182   4.4744369  12.6357194  )
        36           O1  tau(  36) = (   5.2842299   4.4734050  12.6250694  )
        37           Ti1 tau(  37) = (   0.0094520   0.1224552  12.5707632  )
        38           Ti1 tau(  38) = (   3.2670701   4.4034752  12.4162930  )
        39           O1  tau(  39) = (   6.5622168   3.0106679  14.6773207  )
        40           O1  tau(  40) = (   3.2891587   3.0115246  13.8909557  )
        41           O1  tau(  41) = (   4.5321968   4.4927823  16.1577793  )
        42           O1  tau(  42) = (   2.0250423   4.4919485  16.1304878  )
        43           Ti1 tau(  43) = (   3.2250977   0.0853664  16.3312049  )
        44           Ti1 tau(  44) = (   6.5532039   4.7053171  16.1332850  )
        45           O1  tau(  45) = (   3.2900926   2.9813045   4.7018136  )
        46           O1  tau(  46) = (   1.3039711   4.4726057   6.0039043  )
        47           O1  tau(  47) = (   5.2763189   4.4711207   6.0039473  )
        48           N1  tau(  48) = (   0.0650423   2.5931692  18.6004617  )
        49           N1  tau(  49) = (   0.0051179   2.9528117  17.3995676  )
        50           C1  tau(  50) = (   0.1360749   3.5155665  19.7334966  )
        51           H1  tau(  51) = (   6.1082608   4.3937080  19.5213757  )
        52           H1  tau(  52) = (   6.3628389   3.0028702  20.6266755  )
        53           H1  tau(  53) = (   1.1699357   3.8405576  19.8861820  )
        54           H1  tau(  54) = (   0.1060244   1.5775976  18.7788705  )
        55           O1  tau(  55) = (   3.2396048   0.1449850  18.2104881  )
        56           H1  tau(  56) = (   3.4111690   5.2654565  18.6466900  )

     number of k points=    10  Fermi-Dirac smearing, width (Ry)=  0.0073
                       cart. coord. in units 2pi/alat
        k(    1) = (   0.0000000   0.0000000   0.0000000), wk =   0.1250000
        k(    2) = (   0.0000000   0.0419351   0.0000000), wk =   0.2500000
        k(    3) = (   0.0000000  -0.0838702   0.0000000), wk =   0.1250000
        k(    4) = (   0.0379955   0.0000049   0.0000000), wk =   0.2500000
        k(    5) = (   0.0379955   0.0419400   0.0000000), wk =   0.2500000
        k(    6) = (   0.0379955  -0.0838652   0.0000000), wk =   0.2500000
        k(    7) = (   0.0379955  -0.0419301   0.0000000), wk =   0.2500000
        k(    8) = (  -0.0759910  -0.0000099   0.0000000), wk =   0.1250000
        k(    9) = (  -0.0759910   0.0419252   0.0000000), wk =   0.2500000
        k(   10) = (  -0.0759910  -0.0838800   0.0000000), wk =   0.1250000

     Dense  grid:   566857 G-vectors     FFT dimensions: (  72,  64, 270)

     Smooth grid:   143421 G-vectors     FFT dimensions: (  45,  40, 180)

     Estimated max dynamical RAM per process >     457.66 MB

     Estimated total dynamical RAM >       3.58 GB
     Cannot read rho : file not found

     Initial potential from superposition of free atoms

     starting charge  386.99914, renormalised to  403.00000

     negative rho (up, down):  1.430E-02 0.000E+00


     %%%%%%%%%%%%%%%%%%%%%%%%%%%%%%%%%%%%%%%%%%%%%%%%%%%%%%%%%%%%%%%%%%%%%%%%
     %                                                                      %
     % You are using vdW-DF, which was implemented by the Thonhauser group. %
     % Please cite the following two papers that made this development      %
     % possible and the two reviews that describe the various versions:     %
     %                                                                      %
     %   T. Thonhauser et al., PRL 115, 136402 (2015).                      %
     %   T. Thonhauser et al., PRB 76, 125112 (2007).                       %
     %   K. Berland et al., Rep. Prog. Phys. 78, 066501 (2015).             %
     %   D.C. Langreth et al., J. Phys.: Condens. Matter 21, 084203 (2009). %
     %                                                                      %
     %                                                                      %
     % If you are calculating the stress with vdW-DF, please also cite:     %
     %                                                                      %
     %   R. Sabatini et al., J. Phys.: Condens. Matter 24, 424209 (2012).   %
     %                                                                      %
     %%%%%%%%%%%%%%%%%%%%%%%%%%%%%%%%%%%%%%%%%%%%%%%%%%%%%%%%%%%%%%%%%%%%%%%%


 
     Adding external electric field

     Computed dipole along edir(3) : 
        Dipole              -12.7266 Ry au,        -32.3477 Debye
        Dipole field         -0.0240 Ry au, 
 
        Potential amp.        2.2263 Ry
        Total length         46.3494 bohr
 
     Starting wfcs are  305 atomic wfcs
  @ DRIVER MODE: Message from server: STATUS
  @ DRIVER MODE: Message from server: POSDATA
  @ DRIVER MODE: Reading and sharing cell 
  @ DRIVER MODE: Reading and sharing positions 
  @ DRIVER MODE: Received positions 

     total cpu time spent up to now is       14.5 secs

     Self-consistent Calculation

     iteration #  1     ecut=    29.40 Ry     beta= 0.05
     Davidson diagonalization with overlap
     c_bands:  5 eigenvalues not converged
     c_bands:  4 eigenvalues not converged
     c_bands:  3 eigenvalues not converged
     c_bands:  4 eigenvalues not converged
     c_bands:  5 eigenvalues not converged
     c_bands:  4 eigenvalues not converged
     c_bands:  1 eigenvalues not converged
     c_bands:  4 eigenvalues not converged
     ethr =  1.00E-05,  avg # of iterations = 25.4

     negative rho (up, down):  8.759E-03 0.000E+00
 
     Adding external electric field

     Computed dipole along edir(3) : 
        Dipole               53.8020 Ry au,        136.7510 Debye
        Dipole field          0.1015 Ry au, 
 
        Potential amp.       -9.4118 Ry
        Total length         46.3494 bohr
 

     total cpu time spent up to now is       71.4 secs

     total energy              =   -2361.24899642 Ry
     estimated scf accuracy    <    6936.02572197 Ry

     iteration #  2     ecut=    29.40 Ry     beta= 0.05
     Davidson diagonalization with overlap
     ethr =  1.00E-02,  avg # of iterations = 23.4

     negative rho (up, down):  4.652E-04 0.000E+00
 
     Adding external electric field

     Computed dipole along edir(3) : 
        Dipole               -0.7098 Ry au,         -1.8040 Debye
        Dipole field         -0.0013 Ry au, 
 
        Potential amp.        0.1242 Ry
        Total length         46.3494 bohr
 

     total cpu time spent up to now is      173.5 secs

     total energy              =   -2472.03623084 Ry
     estimated scf accuracy    <   73157.49144247 Ry

     iteration #  3     ecut=    29.40 Ry     beta= 0.05
     Davidson diagonalization with overlap
     ethr =  1.00E-02,  avg # of iterations = 17.1

     negative rho (up, down):  5.231E-04 0.000E+00
 
     Adding external electric field

     Computed dipole along edir(3) : 
        Dipole               -3.7369 Ry au,         -9.4984 Debye
        Dipole field         -0.0071 Ry au, 
 
        Potential amp.        0.6537 Ry
        Total length         46.3494 bohr
 

     total cpu time spent up to now is      236.5 secs

     total energy              =   -2959.12285967 Ry
     estimated scf accuracy    <    6306.01731243 Ry

     iteration #  4     ecut=    29.40 Ry     beta= 0.05
     Davidson diagonalization with overlap
     ethr =  1.00E-02,  avg # of iterations = 13.1

     negative rho (up, down):  5.381E-04 0.000E+00
 
     Adding external electric field

     Computed dipole along edir(3) : 
        Dipole               -5.1275 Ry au,        -13.0327 Debye
        Dipole field         -0.0097 Ry au, 
 
        Potential amp.        0.8970 Ry
        Total length         46.3494 bohr
 

     total cpu time spent up to now is      265.1 secs

     total energy              =   -2968.03521473 Ry
     estimated scf accuracy    <    1798.63637073 Ry

     iteration #  5     ecut=    29.40 Ry     beta= 0.05
     Davidson diagonalization with overlap
     ethr =  1.00E-02,  avg # of iterations =  2.0

     negative rho (up, down):  5.867E-04 0.000E+00
 
     Adding external electric field

     Computed dipole along edir(3) : 
        Dipole               -6.9550 Ry au,        -17.6779 Debye
        Dipole field         -0.0131 Ry au, 
 
        Potential amp.        1.2167 Ry
        Total length         46.3494 bohr
 

     total cpu time spent up to now is      278.4 secs

     total energy              =   -2950.22551505 Ry
     estimated scf accuracy    <    1869.81058366 Ry

     iteration #  6     ecut=    29.40 Ry     beta= 0.05
     Davidson diagonalization with overlap
     ethr =  1.00E-02,  avg # of iterations = 11.6

     negative rho (up, down):  5.915E-04 0.000E+00
 
     Adding external electric field

     Computed dipole along edir(3) : 
        Dipole               -6.1755 Ry au,        -15.6965 Debye
        Dipole field         -0.0117 Ry au, 
 
        Potential amp.        1.0803 Ry
        Total length         46.3494 bohr
 

     total cpu time spent up to now is      306.4 secs

     total energy              =   -2978.53636166 Ry
     estimated scf accuracy    <      22.02905426 Ry

     iteration #  7     ecut=    29.40 Ry     beta= 0.05
     Davidson diagonalization with overlap
     ethr =  5.47E-03,  avg # of iterations =  1.8

     negative rho (up, down):  6.732E-04 0.000E+00
 
     Adding external electric field

     Computed dipole along edir(3) : 
        Dipole               -2.0820 Ry au,         -5.2919 Debye
        Dipole field         -0.0039 Ry au, 
 
        Potential amp.        0.3642 Ry
        Total length         46.3494 bohr
 

     total cpu time spent up to now is      319.8 secs

     total energy              =   -2974.39299609 Ry
     estimated scf accuracy    <      19.36664552 Ry

     iteration #  8     ecut=    29.40 Ry     beta= 0.05
     Davidson diagonalization with overlap
     ethr =  4.81E-03,  avg # of iterations =  2.2

     negative rho (up, down):  6.966E-04 0.000E+00
 
     Adding external electric field

     Computed dipole along edir(3) : 
        Dipole               -1.9901 Ry au,         -5.0582 Debye
        Dipole field         -0.0038 Ry au, 
 
        Potential amp.        0.3481 Ry
        Total length         46.3494 bohr
 

     total cpu time spent up to now is      333.8 secs

     total energy              =   -2979.69230396 Ry
     estimated scf accuracy    <     466.54589501 Ry

     iteration #  9     ecut=    29.40 Ry     beta= 0.05
     Davidson diagonalization with overlap
     ethr =  4.81E-03,  avg # of iterations =  1.1

     negative rho (up, down):  8.735E-04 0.000E+00
 
     Adding external electric field

     Computed dipole along edir(3) : 
        Dipole               -2.8270 Ry au,         -7.1856 Debye
        Dipole field         -0.0053 Ry au, 
 
        Potential amp.        0.4945 Ry
        Total length         46.3494 bohr
 

     total cpu time spent up to now is      346.4 secs

     total energy              =   -2971.62488561 Ry
     estimated scf accuracy    <     467.59994090 Ry

     iteration # 10     ecut=    29.40 Ry     beta= 0.05
     Davidson diagonalization with overlap
     ethr =  4.81E-03,  avg # of iterations =  2.0

     negative rho (up, down):  1.094E-03 0.000E+00
 
     Adding external electric field

     Computed dipole along edir(3) : 
        Dipole               -2.9481 Ry au,         -7.4933 Debye
        Dipole field         -0.0056 Ry au, 
 
        Potential amp.        0.5157 Ry
        Total length         46.3494 bohr
 

     total cpu time spent up to now is      360.1 secs

     total energy              =   -2972.93958106 Ry
     estimated scf accuracy    <      25.57587009 Ry

     iteration # 11     ecut=    29.40 Ry     beta= 0.05
     Davidson diagonalization with overlap
     ethr =  4.81E-03,  avg # of iterations =  2.4

     negative rho (up, down):  1.077E-03 0.000E+00
 
     Adding external electric field

     Computed dipole along edir(3) : 
        Dipole               -2.9609 Ry au,         -7.5260 Debye
        Dipole field         -0.0056 Ry au, 
 
        Potential amp.        0.5180 Ry
        Total length         46.3494 bohr
 

     total cpu time spent up to now is      374.2 secs

     total energy              =   -2974.23509980 Ry
     estimated scf accuracy    <       6.12526529 Ry

     iteration # 12     ecut=    29.40 Ry     beta= 0.05
     Davidson diagonalization with overlap
     ethr =  1.52E-03,  avg # of iterations =  7.7

     negative rho (up, down):  1.011E-03 0.000E+00
 
     Adding external electric field

     Computed dipole along edir(3) : 
        Dipole               -2.8483 Ry au,         -7.2398 Debye
        Dipole field         -0.0054 Ry au, 
 
        Potential amp.        0.4983 Ry
        Total length         46.3494 bohr
 

     total cpu time spent up to now is      391.2 secs

     total energy              =   -2974.45233307 Ry
     estimated scf accuracy    <       4.42663773 Ry

     iteration # 13     ecut=    29.40 Ry     beta= 0.05
     Davidson diagonalization with overlap
     ethr =  1.10E-03,  avg # of iterations =  3.2

     negative rho (up, down):  8.946E-04 0.000E+00
 
     Adding external electric field

     Computed dipole along edir(3) : 
        Dipole               -1.2166 Ry au,         -3.0922 Debye
        Dipole field         -0.0023 Ry au, 
 
        Potential amp.        0.2128 Ry
        Total length         46.3494 bohr
 

     total cpu time spent up to now is      405.0 secs

     total energy              =   -2973.62977624 Ry
     estimated scf accuracy    <       3.27328059 Ry

     iteration # 14     ecut=    29.40 Ry     beta= 0.05
     Davidson diagonalization with overlap
     ethr =  8.12E-04,  avg # of iterations = 10.2

     negative rho (up, down):  9.931E-04 0.000E+00
 
     Adding external electric field

     Computed dipole along edir(3) : 
        Dipole               -1.6582 Ry au,         -4.2147 Debye
        Dipole field         -0.0031 Ry au, 
 
        Potential amp.        0.2901 Ry
        Total length         46.3494 bohr
 

     total cpu time spent up to now is      428.4 secs

     total energy              =   -2973.22471980 Ry
     estimated scf accuracy    <     116.05617515 Ry

     iteration # 15     ecut=    29.40 Ry     beta= 0.05
     Davidson diagonalization with overlap
     ethr =  8.12E-04,  avg # of iterations =  5.5

     negative rho (up, down):  1.121E-03 0.000E+00
 
     Adding external electric field

     Computed dipole along edir(3) : 
        Dipole               -1.9801 Ry au,         -5.0328 Debye
        Dipole field         -0.0037 Ry au, 
 
        Potential amp.        0.3464 Ry
        Total length         46.3494 bohr
 

     total cpu time spent up to now is      443.3 secs

     total energy              =   -2973.74583913 Ry
     estimated scf accuracy    <       5.26784898 Ry

     iteration # 16     ecut=    29.40 Ry     beta= 0.05
     Davidson diagonalization with overlap
     c_bands:  4 eigenvalues not converged
     c_bands:  2 eigenvalues not converged
     c_bands:  1 eigenvalues not converged
     c_bands:  1 eigenvalues not converged
     c_bands:  1 eigenvalues not converged
     c_bands:  2 eigenvalues not converged
     ethr =  8.12E-04,  avg # of iterations = 16.0

     negative rho (up, down):  1.409E-03 0.000E+00
 
     Adding external electric field

     Computed dipole along edir(3) : 
        Dipole               -1.4707 Ry au,         -3.7381 Debye
        Dipole field         -0.0028 Ry au, 
 
        Potential amp.        0.2573 Ry
        Total length         46.3494 bohr
 

     total cpu time spent up to now is      463.1 secs

     total energy              =   -2973.92520715 Ry
     estimated scf accuracy    <       1.54183414 Ry

     iteration # 17     ecut=    29.40 Ry     beta= 0.05
     Davidson diagonalization with overlap
     ethr =  3.83E-04,  avg # of iterations = 15.6

     negative rho (up, down):  1.318E-03 0.000E+00
 
     Adding external electric field

     Computed dipole along edir(3) : 
        Dipole               -1.4813 Ry au,         -3.7651 Debye
        Dipole field         -0.0028 Ry au, 
 
        Potential amp.        0.2591 Ry
        Total length         46.3494 bohr
 

     total cpu time spent up to now is      489.4 secs

     total energy              =   -2974.10838402 Ry
     estimated scf accuracy    <       3.94147258 Ry

     iteration # 18     ecut=    29.40 Ry     beta= 0.05
     Davidson diagonalization with overlap
     ethr =  3.83E-04,  avg # of iterations =  2.2

     negative rho (up, down):  1.622E-03 0.000E+00
 
     Adding external electric field

     Computed dipole along edir(3) : 
        Dipole               -0.8884 Ry au,         -2.2580 Debye
        Dipole field         -0.0017 Ry au, 
 
        Potential amp.        0.1554 Ry
        Total length         46.3494 bohr
 

     total cpu time spent up to now is      502.6 secs

     total energy              =   -2974.11347510 Ry
     estimated scf accuracy    <       2.10351062 Ry

     iteration # 19     ecut=    29.40 Ry     beta= 0.05
     Davidson diagonalization with overlap
     ethr =  3.83E-04,  avg # of iterations =  1.0

     negative rho (up, down):  2.372E-03 0.000E+00
 
     Adding external electric field

     Computed dipole along edir(3) : 
        Dipole                0.1581 Ry au,          0.4019 Debye
        Dipole field          0.0003 Ry au, 
 
        Potential amp.       -0.0277 Ry
        Total length         46.3494 bohr
 

     total cpu time spent up to now is      515.2 secs

     total energy              =   -2973.98734927 Ry
     estimated scf accuracy    <       2.30815312 Ry

     iteration # 20     ecut=    29.40 Ry     beta= 0.05
     Davidson diagonalization with overlap
     ethr =  3.83E-04,  avg # of iterations =  5.4

     negative rho (up, down):  2.532E-03 0.000E+00
 
     Adding external electric field

     Computed dipole along edir(3) : 
        Dipole                0.2555 Ry au,          0.6493 Debye
        Dipole field          0.0005 Ry au, 
 
        Potential amp.       -0.0447 Ry
        Total length         46.3494 bohr
 

     total cpu time spent up to now is      529.8 secs

     total energy              =   -2974.01227491 Ry
     estimated scf accuracy    <       1.16406452 Ry

     iteration # 21     ecut=    29.40 Ry     beta= 0.05
     Davidson diagonalization with overlap
     ethr =  2.89E-04,  avg # of iterations =  3.1

     negative rho (up, down):  2.501E-03 0.000E+00
 
     Adding external electric field

     Computed dipole along edir(3) : 
        Dipole                0.3163 Ry au,          0.8040 Debye
        Dipole field          0.0006 Ry au, 
 
        Potential amp.       -0.0553 Ry
        Total length         46.3494 bohr
 

     total cpu time spent up to now is      543.6 secs

     total energy              =   -2974.04718031 Ry
     estimated scf accuracy    <       0.41559657 Ry

     iteration # 22     ecut=    29.40 Ry     beta= 0.05
     Davidson diagonalization with overlap
     ethr =  1.03E-04,  avg # of iterations =  5.7

     negative rho (up, down):  3.376E-03 0.000E+00
 
     Adding external electric field

     Computed dipole along edir(3) : 
        Dipole                0.7920 Ry au,          2.0130 Debye
        Dipole field          0.0015 Ry au, 
 
        Potential amp.       -0.1385 Ry
        Total length         46.3494 bohr
 

     total cpu time spent up to now is      559.2 secs

     total energy              =   -2974.12409572 Ry
     estimated scf accuracy    <       0.53986675 Ry

     iteration # 23     ecut=    29.40 Ry     beta= 0.05
     Davidson diagonalization with overlap
     c_bands:  1 eigenvalues not converged
     ethr =  1.03E-04,  avg # of iterations = 11.5

     negative rho (up, down):  3.732E-03 0.000E+00
 
     Adding external electric field

     Computed dipole along edir(3) : 
        Dipole                0.8898 Ry au,          2.2617 Debye
        Dipole field          0.0017 Ry au, 
 
        Potential amp.       -0.1557 Ry
        Total length         46.3494 bohr
 

     total cpu time spent up to now is      581.6 secs

     total energy              =   -2974.21559434 Ry
     estimated scf accuracy    <       1.27974048 Ry

     iteration # 24     ecut=    29.40 Ry     beta= 0.05
     Davidson diagonalization with overlap
     ethr =  1.03E-04,  avg # of iterations =  1.3

     negative rho (up, down):  4.042E-03 0.000E+00
 
     Adding external electric field

     Computed dipole along edir(3) : 
        Dipole                0.6484 Ry au,          1.6480 Debye
        Dipole field          0.0012 Ry au, 
 
        Potential amp.       -0.1134 Ry
        Total length         46.3494 bohr
 

     total cpu time spent up to now is      594.5 secs

     total energy              =   -2974.08253365 Ry
     estimated scf accuracy    <       1.35965278 Ry

     iteration # 25     ecut=    29.40 Ry     beta= 0.05
     Davidson diagonalization with overlap
     ethr =  1.03E-04,  avg # of iterations =  6.0

     negative rho (up, down):  3.831E-03 0.000E+00
 
     Adding external electric field

     Computed dipole along edir(3) : 
        Dipole                0.6516 Ry au,          1.6561 Debye
        Dipole field          0.0012 Ry au, 
 
        Potential amp.       -0.1140 Ry
        Total length         46.3494 bohr
 

     total cpu time spent up to now is      609.4 secs

     total energy              =   -2974.12047095 Ry
     estimated scf accuracy    <       0.96324604 Ry

     iteration # 26     ecut=    29.40 Ry     beta= 0.05
     Davidson diagonalization with overlap
     ethr =  1.03E-04,  avg # of iterations =  1.1

     negative rho (up, down):  4.094E-03 0.000E+00
 
     Adding external electric field

     Computed dipole along edir(3) : 
        Dipole                0.8037 Ry au,          2.0427 Debye
        Dipole field          0.0015 Ry au, 
 
        Potential amp.       -0.1406 Ry
        Total length         46.3494 bohr
 

     total cpu time spent up to now is      622.1 secs

     total energy              =   -2974.11143679 Ry
     estimated scf accuracy    <       1.01930339 Ry

     iteration # 27     ecut=    29.40 Ry     beta= 0.05
     Davidson diagonalization with overlap
     ethr =  1.03E-04,  avg # of iterations =  2.0

     negative rho (up, down):  7.431E-03 0.000E+00
 
     Adding external electric field

     Computed dipole along edir(3) : 
        Dipole                1.1610 Ry au,          2.9509 Debye
        Dipole field          0.0022 Ry au, 
 
        Potential amp.       -0.2031 Ry
        Total length         46.3494 bohr
 

     total cpu time spent up to now is      635.8 secs

     total energy              =   -2973.94039764 Ry
     estimated scf accuracy    <       0.88461915 Ry

     iteration # 28     ecut=    29.40 Ry     beta= 0.05
     Davidson diagonalization with overlap
     c_bands:  1 eigenvalues not converged
     c_bands:  2 eigenvalues not converged
     ethr =  1.03E-04,  avg # of iterations = 11.6

     negative rho (up, down):  5.527E-03 0.000E+00
 
     Adding external electric field

     Computed dipole along edir(3) : 
        Dipole                1.0663 Ry au,          2.7103 Debye
        Dipole field          0.0020 Ry au, 
 
        Potential amp.       -0.1865 Ry
        Total length         46.3494 bohr
 

     total cpu time spent up to now is      656.5 secs

     total energy              =   -2974.01553127 Ry
     estimated scf accuracy    <       0.31900921 Ry

     iteration # 29     ecut=    29.40 Ry     beta= 0.05
     Davidson diagonalization with overlap
     ethr =  7.92E-05,  avg # of iterations =  2.8

     negative rho (up, down):  4.366E-03 0.000E+00
 
     Adding external electric field

     Computed dipole along edir(3) : 
        Dipole                0.8894 Ry au,          2.2607 Debye
        Dipole field          0.0017 Ry au, 
 
        Potential amp.       -0.1556 Ry
        Total length         46.3494 bohr
 

     total cpu time spent up to now is      670.2 secs

     total energy              =   -2973.97877588 Ry
     estimated scf accuracy    <       0.32052580 Ry

     iteration # 30     ecut=    29.40 Ry     beta= 0.05
     Davidson diagonalization with overlap
     ethr =  7.92E-05,  avg # of iterations =  6.4

     negative rho (up, down):  4.365E-03 0.000E+00
 
     Adding external electric field

     Computed dipole along edir(3) : 
        Dipole                0.8516 Ry au,          2.1645 Debye
        Dipole field          0.0016 Ry au, 
 
        Potential amp.       -0.1490 Ry
        Total length         46.3494 bohr
 

     total cpu time spent up to now is      685.7 secs

     total energy              =   -2973.97927270 Ry
     estimated scf accuracy    <       0.12516981 Ry

     iteration # 31     ecut=    29.40 Ry     beta= 0.05
     Davidson diagonalization with overlap
     c_bands:  1 eigenvalues not converged
     c_bands:  2 eigenvalues not converged
     ethr =  3.11E-05,  avg # of iterations = 13.8

     negative rho (up, down):  4.428E-03 0.000E+00
 
     Adding external electric field

     Computed dipole along edir(3) : 
        Dipole                0.8546 Ry au,          2.1723 Debye
        Dipole field          0.0016 Ry au, 
 
        Potential amp.       -0.1495 Ry
        Total length         46.3494 bohr
 

     total cpu time spent up to now is      707.0 secs

     total energy              =   -2973.98889141 Ry
     estimated scf accuracy    <       0.05281699 Ry

     iteration # 32     ecut=    29.40 Ry     beta= 0.05
     Davidson diagonalization with overlap
     c_bands:  2 eigenvalues not converged
     ethr =  1.31E-05,  avg # of iterations = 11.6

     negative rho (up, down):  4.332E-03 0.000E+00
 
     Adding external electric field

     Computed dipole along edir(3) : 
        Dipole                0.9008 Ry au,          2.2895 Debye
        Dipole field          0.0017 Ry au, 
 
        Potential amp.       -0.1576 Ry
        Total length         46.3494 bohr
 

     total cpu time spent up to now is      725.0 secs

     total energy              =   -2973.99434798 Ry
     estimated scf accuracy    <       0.04455064 Ry

     iteration # 33     ecut=    29.40 Ry     beta= 0.05
     Davidson diagonalization with overlap
     ethr =  1.11E-05,  avg # of iterations =  6.6

     negative rho (up, down):  4.266E-03 0.000E+00
 
     Adding external electric field

     Computed dipole along edir(3) : 
        Dipole                0.8466 Ry au,          2.1519 Debye
        Dipole field          0.0016 Ry au, 
 
        Potential amp.       -0.1481 Ry
        Total length         46.3494 bohr
 

     total cpu time spent up to now is      739.9 secs

     total energy              =   -2973.99040546 Ry
     estimated scf accuracy    <       0.05247896 Ry

     iteration # 34     ecut=    29.40 Ry     beta= 0.05
     Davidson diagonalization with overlap
     ethr =  1.11E-05,  avg # of iterations =  2.2

     negative rho (up, down):  4.986E-03 0.000E+00
 
     Adding external electric field

     Computed dipole along edir(3) : 
        Dipole                0.8299 Ry au,          2.1093 Debye
        Dipole field          0.0016 Ry au, 
 
        Potential amp.       -0.1452 Ry
        Total length         46.3494 bohr
 

     total cpu time spent up to now is      753.5 secs

     total energy              =   -2973.98819041 Ry
     estimated scf accuracy    <       0.02936987 Ry

     iteration # 35     ecut=    29.40 Ry     beta= 0.05
     Davidson diagonalization with overlap
     c_bands:  1 eigenvalues not converged
     c_bands:  2 eigenvalues not converged
     ethr =  7.29E-06,  avg # of iterations = 12.9

     negative rho (up, down):  7.140E-03 0.000E+00
 
     Adding external electric field

     Computed dipole along edir(3) : 
        Dipole                1.0624 Ry au,          2.7003 Debye
        Dipole field          0.0020 Ry au, 
 
        Potential amp.       -0.1858 Ry
        Total length         46.3494 bohr
 

     total cpu time spent up to now is      778.9 secs

     total energy              =   -2973.99086222 Ry
     estimated scf accuracy    <       0.22007352 Ry

     iteration # 36     ecut=    29.40 Ry     beta= 0.05
     Davidson diagonalization with overlap
     c_bands:  2 eigenvalues not converged
     ethr =  7.29E-06,  avg # of iterations =  6.8

     negative rho (up, down):  7.467E-03 0.000E+00
 
     Adding external electric field

     Computed dipole along edir(3) : 
        Dipole                1.0805 Ry au,          2.7463 Debye
        Dipole field          0.0020 Ry au, 
 
        Potential amp.       -0.1890 Ry
        Total length         46.3494 bohr
 

     total cpu time spent up to now is      794.2 secs

     total energy              =   -2973.99396413 Ry
     estimated scf accuracy    <       0.02180142 Ry

     iteration # 37     ecut=    29.40 Ry     beta= 0.05
     Davidson diagonalization with overlap
     ethr =  5.41E-06,  avg # of iterations =  7.0

     negative rho (up, down):  7.410E-03 0.000E+00
 
     Adding external electric field

     Computed dipole along edir(3) : 
        Dipole                1.0747 Ry au,          2.7316 Debye
        Dipole field          0.0020 Ry au, 
 
        Potential amp.       -0.1880 Ry
        Total length         46.3494 bohr
 

     total cpu time spent up to now is      809.4 secs

     total energy              =   -2973.99252839 Ry
     estimated scf accuracy    <       0.01381859 Ry

     iteration # 38     ecut=    29.40 Ry     beta= 0.05
     Davidson diagonalization with overlap
     ethr =  3.43E-06,  avg # of iterations =  5.8

     negative rho (up, down):  8.121E-03 0.000E+00
 
     Adding external electric field

     Computed dipole along edir(3) : 
        Dipole                1.0736 Ry au,          2.7287 Debye
        Dipole field          0.0020 Ry au, 
 
        Potential amp.       -0.1878 Ry
        Total length         46.3494 bohr
 

     total cpu time spent up to now is      826.5 secs

     total energy              =   -2973.99348561 Ry
     estimated scf accuracy    <       0.00436397 Ry

     iteration # 39     ecut=    29.40 Ry     beta= 0.05
     Davidson diagonalization with overlap
     ethr =  1.08E-06,  avg # of iterations =  9.0

     negative rho (up, down):  9.130E-03 0.000E+00
 
     Adding external electric field

     Computed dipole along edir(3) : 
        Dipole                1.1052 Ry au,          2.8092 Debye
        Dipole field          0.0021 Ry au, 
 
        Potential amp.       -0.1933 Ry
        Total length         46.3494 bohr
 

     total cpu time spent up to now is      850.0 secs

     total energy              =   -2973.99440078 Ry
     estimated scf accuracy    <       0.00487394 Ry

     iteration # 40     ecut=    29.40 Ry     beta= 0.05
     Davidson diagonalization with overlap
     ethr =  1.08E-06,  avg # of iterations =  4.2

     negative rho (up, down):  1.065E-02 0.000E+00
 
     Adding external electric field

     Computed dipole along edir(3) : 
        Dipole                1.1386 Ry au,          2.8940 Debye
        Dipole field          0.0021 Ry au, 
 
        Potential amp.       -0.1992 Ry
        Total length         46.3494 bohr
 

     total cpu time spent up to now is      864.4 secs

     total energy              =   -2973.99446681 Ry
     estimated scf accuracy    <       0.00208364 Ry

     iteration # 41     ecut=    29.40 Ry     beta= 0.05
     Davidson diagonalization with overlap
     c_bands:  1 eigenvalues not converged
     c_bands:  2 eigenvalues not converged
     ethr =  5.17E-07,  avg # of iterations = 10.5

     negative rho (up, down):  1.200E-02 0.000E+00
 
     Adding external electric field

     Computed dipole along edir(3) : 
        Dipole                1.1560 Ry au,          2.9383 Debye
        Dipole field          0.0022 Ry au, 
 
        Potential amp.       -0.2022 Ry
        Total length         46.3494 bohr
 

     total cpu time spent up to now is      887.8 secs

     total energy              =   -2973.99448203 Ry
     estimated scf accuracy    <       0.00312441 Ry

     iteration # 42     ecut=    29.40 Ry     beta= 0.05
     Davidson diagonalization with overlap
     c_bands:  1 eigenvalues not converged
     ethr =  5.17E-07,  avg # of iterations =  8.7

     negative rho (up, down):  1.287E-02 0.000E+00
 
     Adding external electric field

     Computed dipole along edir(3) : 
        Dipole                1.1681 Ry au,          2.9691 Debye
        Dipole field          0.0022 Ry au, 
 
        Potential amp.       -0.2043 Ry
        Total length         46.3494 bohr
 

     total cpu time spent up to now is      906.7 secs

     total energy              =   -2973.99485559 Ry
     estimated scf accuracy    <       0.00055151 Ry

     iteration # 43     ecut=    29.40 Ry     beta= 0.05
     Davidson diagonalization with overlap
     ethr =  1.37E-07,  avg # of iterations =  4.9

     negative rho (up, down):  1.404E-02 0.000E+00
 
     Adding external electric field

     Computed dipole along edir(3) : 
        Dipole                1.1821 Ry au,          3.0045 Debye
        Dipole field          0.0022 Ry au, 
 
        Potential amp.       -0.2068 Ry
        Total length         46.3494 bohr
 

     total cpu time spent up to now is      922.6 secs

     total energy              =   -2973.99489528 Ry
     estimated scf accuracy    <       0.00035627 Ry

     iteration # 44     ecut=    29.40 Ry     beta= 0.05
     Davidson diagonalization with overlap
     ethr =  8.84E-08,  avg # of iterations =  7.9

     negative rho (up, down):  1.412E-02 0.000E+00
 
     Adding external electric field

     Computed dipole along edir(3) : 
        Dipole                1.1781 Ry au,          2.9945 Debye
        Dipole field          0.0022 Ry au, 
 
        Potential amp.       -0.2061 Ry
        Total length         46.3494 bohr
 

     total cpu time spent up to now is      944.6 secs

     total energy              =   -2973.99496680 Ry
     estimated scf accuracy    <       0.00023108 Ry

     iteration # 45     ecut=    29.40 Ry     beta= 0.05
     Davidson diagonalization with overlap
     ethr =  5.73E-08,  avg # of iterations =  7.3

     negative rho (up, down):  1.406E-02 0.000E+00
 
     Adding external electric field

     Computed dipole along edir(3) : 
        Dipole                1.1774 Ry au,          2.9927 Debye
        Dipole field          0.0022 Ry au, 
 
        Potential amp.       -0.2060 Ry
        Total length         46.3494 bohr
 

     total cpu time spent up to now is      966.7 secs

     total energy              =   -2973.99501775 Ry
     estimated scf accuracy    <       0.00039318 Ry

     iteration # 46     ecut=    29.40 Ry     beta= 0.05
     Davidson diagonalization with overlap
     ethr =  5.73E-08,  avg # of iterations =  2.1

     negative rho (up, down):  1.409E-02 0.000E+00
 
     Adding external electric field

     Computed dipole along edir(3) : 
        Dipole                1.1793 Ry au,          2.9975 Debye
        Dipole field          0.0022 Ry au, 
 
        Potential amp.       -0.2063 Ry
        Total length         46.3494 bohr
 

     total cpu time spent up to now is      980.2 secs

     total energy              =   -2973.99497671 Ry
     estimated scf accuracy    <       0.00027101 Ry

     iteration # 47     ecut=    29.40 Ry     beta= 0.05
     Davidson diagonalization with overlap
     ethr =  5.73E-08,  avg # of iterations =  6.8

     negative rho (up, down):  1.418E-02 0.000E+00
 
     Adding external electric field

     Computed dipole along edir(3) : 
        Dipole                1.1806 Ry au,          3.0008 Debye
        Dipole field          0.0022 Ry au, 
 
        Potential amp.       -0.2065 Ry
        Total length         46.3494 bohr
 

     total cpu time spent up to now is     1001.2 secs

     total energy              =   -2973.99504422 Ry
     estimated scf accuracy    <       0.00017547 Ry

     iteration # 48     ecut=    29.40 Ry     beta= 0.05
     Davidson diagonalization with overlap
     ethr =  4.35E-08,  avg # of iterations =  1.0

     negative rho (up, down):  1.422E-02 0.000E+00
 
     Adding external electric field

     Computed dipole along edir(3) : 
        Dipole                1.1811 Ry au,          3.0021 Debye
        Dipole field          0.0022 Ry au, 
 
        Potential amp.       -0.2066 Ry
        Total length         46.3494 bohr
 

     total cpu time spent up to now is     1013.9 secs

     total energy              =   -2973.99503807 Ry
     estimated scf accuracy    <       0.00013368 Ry

     iteration # 49     ecut=    29.40 Ry     beta= 0.05
     Davidson diagonalization with overlap
     ethr =  3.32E-08,  avg # of iterations =  5.9

     negative rho (up, down):  1.423E-02 0.000E+00
 
     Adding external electric field

     Computed dipole along edir(3) : 
        Dipole                1.1815 Ry au,          3.0032 Debye
        Dipole field          0.0022 Ry au, 
 
        Potential amp.       -0.2067 Ry
        Total length         46.3494 bohr
 

     total cpu time spent up to now is     1030.1 secs

     total energy              =   -2973.99506079 Ry
     estimated scf accuracy    <       0.00006817 Ry

     iteration # 50     ecut=    29.40 Ry     beta= 0.05
     Davidson diagonalization with overlap
     ethr =  1.69E-08,  avg # of iterations =  2.8

     negative rho (up, down):  1.435E-02 0.000E+00
 
     Adding external electric field

     Computed dipole along edir(3) : 
        Dipole                1.1830 Ry au,          3.0070 Debye
        Dipole field          0.0022 Ry au, 
 
        Potential amp.       -0.2070 Ry
        Total length         46.3494 bohr
 

     total cpu time spent up to now is     1044.2 secs

     total energy              =   -2973.99507504 Ry
     estimated scf accuracy    <       0.00004651 Ry

     iteration # 51     ecut=    29.40 Ry     beta= 0.05
     Davidson diagonalization with overlap
     ethr =  1.15E-08,  avg # of iterations =  6.3

     negative rho (up, down):  1.470E-02 0.000E+00
 
     Adding external electric field

     Computed dipole along edir(3) : 
        Dipole                1.1847 Ry au,          3.0113 Debye
        Dipole field          0.0022 Ry au, 
 
        Potential amp.       -0.2073 Ry
        Total length         46.3494 bohr
 

     total cpu time spent up to now is     1061.0 secs

     total energy              =   -2973.99508378 Ry
     estimated scf accuracy    <       0.00003451 Ry

     iteration # 52     ecut=    29.40 Ry     beta= 0.05
     Davidson diagonalization with overlap
     ethr =  8.56E-09,  avg # of iterations =  6.3

     negative rho (up, down):  1.474E-02 0.000E+00
 
     Adding external electric field

     Computed dipole along edir(3) : 
        Dipole                1.1849 Ry au,          3.0116 Debye
        Dipole field          0.0022 Ry au, 
 
        Potential amp.       -0.2073 Ry
        Total length         46.3494 bohr
 

     total cpu time spent up to now is     1080.9 secs

     total energy              =   -2973.99510097 Ry
     estimated scf accuracy    <       0.00001198 Ry

     iteration # 53     ecut=    29.40 Ry     beta= 0.05
     Davidson diagonalization with overlap
     ethr =  2.97E-09,  avg # of iterations =  2.4

     negative rho (up, down):  1.479E-02 0.000E+00
 
     Adding external electric field

     Computed dipole along edir(3) : 
        Dipole                1.1847 Ry au,          3.0113 Debye
        Dipole field          0.0022 Ry au, 
 
        Potential amp.       -0.2072 Ry
        Total length         46.3494 bohr
 

     total cpu time spent up to now is     1094.4 secs

     total energy              =   -2973.99510736 Ry
     estimated scf accuracy    <       0.00000940 Ry

     iteration # 54     ecut=    29.40 Ry     beta= 0.05
     Davidson diagonalization with overlap
     ethr =  2.33E-09,  avg # of iterations =  9.6

     negative rho (up, down):  1.479E-02 0.000E+00
 
     Adding external electric field

     Computed dipole along edir(3) : 
        Dipole                1.1847 Ry au,          3.0112 Debye
        Dipole field          0.0022 Ry au, 
 
        Potential amp.       -0.2072 Ry
        Total length         46.3494 bohr
 

     total cpu time spent up to now is     1117.8 secs

     total energy              =   -2973.99511738 Ry
     estimated scf accuracy    <       0.00000858 Ry

     iteration # 55     ecut=    29.40 Ry     beta= 0.05
     Davidson diagonalization with overlap
     ethr =  2.13E-09,  avg # of iterations =  2.7

     negative rho (up, down):  1.481E-02 0.000E+00
 
     Adding external electric field

     Computed dipole along edir(3) : 
        Dipole                1.1848 Ry au,          3.0116 Debye
        Dipole field          0.0022 Ry au, 
 
        Potential amp.       -0.2073 Ry
        Total length         46.3494 bohr
 

     total cpu time spent up to now is     1131.7 secs

     total energy              =   -2973.99512354 Ry
     estimated scf accuracy    <       0.00000418 Ry

     iteration # 56     ecut=    29.40 Ry     beta= 0.05
     Davidson diagonalization with overlap
     ethr =  1.04E-09,  avg # of iterations = 10.3

     negative rho (up, down):  1.486E-02 0.000E+00
 
     Adding external electric field

     Computed dipole along edir(3) : 
        Dipole                1.1849 Ry au,          3.0117 Debye
        Dipole field          0.0022 Ry au, 
 
        Potential amp.       -0.2073 Ry
        Total length         46.3494 bohr
 

     total cpu time spent up to now is     1158.9 secs

     total energy              =   -2973.99513127 Ry
     estimated scf accuracy    <       0.00001316 Ry

     iteration # 57     ecut=    29.40 Ry     beta= 0.05
     Davidson diagonalization with overlap
     ethr =  1.04E-09,  avg # of iterations =  6.1

     negative rho (up, down):  1.491E-02 0.000E+00
 
     Adding external electric field

     Computed dipole along edir(3) : 
        Dipole                1.1850 Ry au,          3.0119 Debye
        Dipole field          0.0022 Ry au, 
 
        Potential amp.       -0.2073 Ry
        Total length         46.3494 bohr
 

     total cpu time spent up to now is     1177.2 secs

     total energy              =   -2973.99513784 Ry
     estimated scf accuracy    <       0.00000272 Ry

     iteration # 58     ecut=    29.40 Ry     beta= 0.05
     Davidson diagonalization with overlap
     ethr =  6.76E-10,  avg # of iterations =  2.8

     negative rho (up, down):  1.494E-02 0.000E+00
 
     Adding external electric field

     Computed dipole along edir(3) : 
        Dipole                1.1849 Ry au,          3.0117 Debye
        Dipole field          0.0022 Ry au, 
 
        Potential amp.       -0.2073 Ry
        Total length         46.3494 bohr
 

     total cpu time spent up to now is     1191.3 secs

     total energy              =   -2973.99514318 Ry
     estimated scf accuracy    <       0.00000142 Ry

     iteration # 59     ecut=    29.40 Ry     beta= 0.05
     Davidson diagonalization with overlap
     c_bands:  3 eigenvalues not converged
     ethr =  3.53E-10,  avg # of iterations =  7.3

     negative rho (up, down):  1.494E-02 0.000E+00
 
     Adding external electric field

     Computed dipole along edir(3) : 
        Dipole                1.1849 Ry au,          3.0117 Debye
        Dipole field          0.0022 Ry au, 
 
        Potential amp.       -0.2073 Ry
        Total length         46.3494 bohr
 

     total cpu time spent up to now is     1212.9 secs

     total energy              =   -2973.99514845 Ry
     estimated scf accuracy    <       0.00000037 Ry

     iteration # 60     ecut=    29.40 Ry     beta= 0.05
     Davidson diagonalization with overlap
     c_bands:  1 eigenvalues not converged
     ethr =  9.25E-11,  avg # of iterations =  5.6

     negative rho (up, down):  1.495E-02 0.000E+00
 
     Adding external electric field

     Computed dipole along edir(3) : 
        Dipole                1.1850 Ry au,          3.0119 Debye
        Dipole field          0.0022 Ry au, 
 
        Potential amp.       -0.2073 Ry
        Total length         46.3494 bohr
 

     total cpu time spent up to now is     1228.3 secs

     total energy              =   -2973.99515282 Ry
     estimated scf accuracy    <       0.00000043 Ry

     iteration # 61     ecut=    29.40 Ry     beta= 0.05
     Davidson diagonalization with overlap
     ethr =  9.25E-11,  avg # of iterations =  5.9

     negative rho (up, down):  1.495E-02 0.000E+00
 
     Adding external electric field

     Computed dipole along edir(3) : 
        Dipole                1.1850 Ry au,          3.0120 Debye
        Dipole field          0.0022 Ry au, 
 
        Potential amp.       -0.2073 Ry
        Total length         46.3494 bohr
 

     total cpu time spent up to now is     1244.2 secs

     total energy              =   -2973.99515675 Ry
     estimated scf accuracy    <       0.00000044 Ry

     iteration # 62     ecut=    29.40 Ry     beta= 0.05
     Davidson diagonalization with overlap
     ethr =  9.25E-11,  avg # of iterations =  1.8

     negative rho (up, down):  1.495E-02 0.000E+00
 
     Adding external electric field

     Computed dipole along edir(3) : 
        Dipole                1.1851 Ry au,          3.0122 Debye
        Dipole field          0.0022 Ry au, 
 
        Potential amp.       -0.2073 Ry
        Total length         46.3494 bohr
 

     total cpu time spent up to now is     1257.5 secs

     total energy              =   -2973.99516027 Ry
     estimated scf accuracy    <       0.00000035 Ry

     iteration # 63     ecut=    29.40 Ry     beta= 0.05
     Davidson diagonalization with overlap
     ethr =  8.58E-11,  avg # of iterations =  5.8

     negative rho (up, down):  1.496E-02 0.000E+00
 
     Adding external electric field

     Computed dipole along edir(3) : 
        Dipole                1.1851 Ry au,          3.0121 Debye
        Dipole field          0.0022 Ry au, 
 
        Potential amp.       -0.2073 Ry
        Total length         46.3494 bohr
 

     total cpu time spent up to now is     1272.4 secs

     total energy              =   -2973.99516347 Ry
     estimated scf accuracy    <       0.00000022 Ry

     iteration # 64     ecut=    29.40 Ry     beta= 0.05
     Davidson diagonalization with overlap
     ethr =  5.53E-11,  avg # of iterations =  6.2

     negative rho (up, down):  1.495E-02 0.000E+00
 
     Adding external electric field

     Computed dipole along edir(3) : 
        Dipole                1.1851 Ry au,          3.0121 Debye
        Dipole field          0.0022 Ry au, 
 
        Potential amp.       -0.2073 Ry
        Total length         46.3494 bohr
 

     total cpu time spent up to now is     1289.9 secs

     total energy              =   -2973.99516642 Ry
     estimated scf accuracy    <       0.00000013 Ry

     iteration # 65     ecut=    29.40 Ry     beta= 0.05
     Davidson diagonalization with overlap
     ethr =  3.25E-11,  avg # of iterations =  6.8

     negative rho (up, down):  1.496E-02 0.000E+00
 
     Adding external electric field

     Computed dipole along edir(3) : 
        Dipole                1.1850 Ry au,          3.0120 Debye
        Dipole field          0.0022 Ry au, 
 
        Potential amp.       -0.2073 Ry
        Total length         46.3494 bohr
 

     total cpu time spent up to now is     1310.3 secs

     total energy              =   -2973.99516902 Ry
     estimated scf accuracy    <       0.00000013 Ry

     iteration # 66     ecut=    29.40 Ry     beta= 0.05
     Davidson diagonalization with overlap
     ethr =  3.14E-11,  avg # of iterations =  6.5

     negative rho (up, down):  1.502E-02 0.000E+00
 
     Adding external electric field

     Computed dipole along edir(3) : 
        Dipole                1.1848 Ry au,          3.0115 Debye
        Dipole field          0.0022 Ry au, 
 
        Potential amp.       -0.2073 Ry
        Total length         46.3494 bohr
 

     total cpu time spent up to now is     1327.3 secs

     End of self-consistent calculation

          k = 0.0000 0.0000 0.0000 ( 18029 PWs)   bands (ev):

   -55.7067 -55.6728 -55.3931 -55.3591 -55.2940 -55.1768 -55.1218 -55.0452
   -54.9991 -54.9695 -54.8390 -54.7441 -54.7051 -54.6316 -54.5342 -54.5002
   -32.1667 -32.0010 -31.9771 -31.8686 -31.8617 -31.7901 -31.7685 -31.6590
   -31.6222 -31.6113 -31.6004 -31.5466 -31.5454 -31.5251 -31.5085 -31.5037
   -31.4967 -31.4030 -31.3939 -31.3804 -31.3432 -31.3234 -31.3142 -31.3039
   -31.2821 -31.2788 -31.2459 -31.2084 -31.1882 -31.1832 -31.1763 -31.1558
   -31.1060 -31.0389 -30.9991 -30.9607 -30.9600 -30.9336 -30.9300 -30.9159
   -30.9028 -30.8638 -30.8457 -30.8421 -30.8405 -30.7518 -30.6667 -30.5547
   -19.0787 -16.2224 -16.0637 -15.7733 -15.6035 -15.3961 -15.3680 -15.2706
   -15.1674 -15.1532 -15.0468 -14.9824 -14.8978 -14.8289 -14.8106 -14.7599
   -14.7310 -14.7062 -14.6890 -14.6814 -14.6444 -14.6099 -14.5929 -14.5175
   -14.4723 -14.4528 -14.4260 -14.3644 -14.2658 -13.9977 -13.9385 -13.0319
   -12.9185 -12.5755  -9.3429  -6.2094  -4.7745  -4.7179  -3.7363  -3.5423
    -3.4365  -3.3377  -3.1298  -3.0805  -2.9046  -2.7805  -2.7622  -2.5405
    -2.5124  -2.4000  -2.3854  -2.3348  -2.3337  -2.2989  -2.2329  -2.2042
    -2.1326  -2.0728  -2.0452  -2.0114  -1.9572  -1.9031  -1.8995  -1.8856
    -1.8277  -1.7585  -1.7319  -1.7214  -1.6781  -1.6148  -1.6056  -1.5915
    -1.5719  -1.5485  -1.4058  -1.2998  -1.2370  -1.2003  -1.1520  -1.0934
    -1.0399  -1.0276  -0.9244  -0.8466  -0.8056  -0.6870  -0.6531  -0.6184
    -0.5318  -0.5111  -0.4622  -0.4483  -0.4079  -0.3975  -0.2964  -0.2784
    -0.2440  -0.2013  -0.0794  -0.0366  -0.0267   0.0545   0.1138   0.1937
     0.2348   0.2523   0.2754   0.3621   0.3941   0.4109   0.4151   0.4931
     0.5133   0.5547   0.6079   0.6910   0.7031   0.7416   0.7776   0.7900
     0.9226   0.9286   1.0176   1.0423   1.0528   1.1174   1.2118   1.2717
     1.3838   1.3970   1.4893   1.4911   1.5112   1.7100   1.8828   2.0433
     2.0836   3.4945   3.6137   3.6754   3.7132   3.9238   3.9356   4.1921
     4.2712   4.3667   4.4044

          k = 0.0000 0.0419 0.0000 ( 17933 PWs)   bands (ev):

   -55.7017 -55.6777 -55.3882 -55.3639 -55.2936 -55.1740 -55.1244 -55.0416
   -55.0025 -54.9697 -54.8379 -54.7429 -54.7060 -54.6326 -54.5292 -54.5051
   -32.1129 -31.9965 -31.9781 -31.8481 -31.8465 -31.8194 -31.7821 -31.6059
   -31.5993 -31.5973 -31.5919 -31.5640 -31.5537 -31.5367 -31.5061 -31.4972
   -31.4862 -31.3974 -31.3870 -31.3683 -31.3422 -31.3372 -31.3312 -31.3000
   -31.2755 -31.2536 -31.2333 -31.2243 -31.2160 -31.2119 -31.1817 -31.1787
   -31.1013 -31.0379 -30.9940 -30.9869 -30.9604 -30.9543 -30.9292 -30.9156
   -30.8798 -30.8649 -30.8602 -30.8437 -30.8427 -30.7394 -30.6790 -30.6116
   -19.0771 -16.2195 -15.9386 -15.6516 -15.4973 -15.3368 -15.3096 -15.2640
   -15.1312 -15.1089 -15.1077 -14.9886 -14.9341 -14.8388 -14.8196 -14.7959
   -14.7739 -14.7619 -14.7230 -14.6558 -14.6474 -14.6215 -14.6071 -14.5355
   -14.5075 -14.4522 -14.4115 -14.4005 -14.3270 -14.0727 -13.9965 -13.0375
   -12.9588 -12.5761  -9.3463  -6.2068  -4.7662  -4.7130  -3.7438  -3.4205
    -3.3607  -3.1617  -2.9659  -2.9154  -2.7914  -2.6636  -2.6271  -2.4644
    -2.4634  -2.4413  -2.3535  -2.3391  -2.2875  -2.2546  -2.2070  -2.1935
    -2.1629  -2.1317  -2.1105  -2.0804  -2.0720  -2.0245  -2.0065  -1.9961
    -1.9812  -1.8920  -1.8819  -1.8456  -1.7531  -1.6658  -1.6250  -1.5924
    -1.4980  -1.4614  -1.3639  -1.3285  -1.2295  -1.1167  -1.0589  -1.0379
    -0.9592  -0.9000  -0.8411  -0.7271  -0.6737  -0.6393  -0.5995  -0.5636
    -0.4829  -0.4544  -0.3824  -0.3531  -0.3313  -0.2817  -0.2575  -0.2137
    -0.1982  -0.1572  -0.1243  -0.0704  -0.0112   0.0266   0.0544   0.0892
     0.1217   0.1960   0.2245   0.2743   0.3229   0.3538   0.3760   0.4163
     0.4686   0.5077   0.5323   0.6477   0.6666   0.6828   0.7429   0.7653
     0.8120   0.8260   0.8444   0.8537   1.0044   1.0355   1.0771   1.1361
     1.2023   1.2331   1.2881   1.3781   1.6964   1.7667   1.8135   1.9975
     2.0051   3.6166   3.7248   3.7637   3.8610   4.0367   4.1381   4.2097
     4.2743   4.3488   4.4406

          k = 0.0000-0.0839 0.0000 ( 17884 PWs)   bands (ev):

   -55.6899 -55.6894 -55.3786 -55.3734 -55.2933 -55.1709 -55.1275 -55.0373
   -55.0067 -54.9699 -54.8368 -54.7418 -54.7070 -54.6337 -54.5176 -54.5166
   -31.9867 -31.9863 -31.9810 -31.9808 -31.8154 -31.8148 -31.6962 -31.6907
   -31.5738 -31.5714 -31.5708 -31.5679 -31.5650 -31.5038 -31.4990 -31.4925
   -31.4545 -31.3928 -31.3772 -31.3658 -31.3572 -31.3420 -31.3412 -31.3388
   -31.2734 -31.2523 -31.2506 -31.2455 -31.2183 -31.2024 -31.1815 -31.1639
   -31.0984 -31.0487 -31.0365 -30.9999 -30.9658 -30.9635 -30.9588 -30.9153
   -30.8802 -30.8521 -30.8514 -30.8427 -30.7482 -30.7469 -30.7097 -30.7089
   -19.0755 -16.2171 -15.6348 -15.6253 -15.3618 -15.3454 -15.2884 -15.2079
   -15.1331 -15.1259 -15.0079 -15.0050 -14.9637 -14.9636 -14.9143 -14.8722
   -14.8381 -14.7797 -14.6767 -14.6546 -14.6402 -14.6260 -14.5522 -14.5363
   -14.5111 -14.4861 -14.4604 -14.4253 -14.3261 -14.1792 -14.0792 -13.0218
   -13.0213 -12.5768  -9.3499  -6.2040  -4.7594  -4.7079  -3.7512  -3.4032
    -2.9153  -2.9152  -2.7568  -2.7129  -2.6173  -2.5683  -2.5643  -2.5237
    -2.5006  -2.4902  -2.4861  -2.4033  -2.3853  -2.3683  -2.3418  -2.3074
    -2.2690  -2.2507  -2.2275  -2.1433  -2.1310  -2.0844  -2.0129  -1.9401
    -1.9012  -1.8696  -1.8170  -1.7569  -1.7410  -1.6997  -1.5698  -1.5067
    -1.4130  -1.3396  -1.2260  -1.1897  -1.1401  -1.0914  -1.0712  -0.9462
    -0.9409  -0.8631  -0.8043  -0.7373  -0.7257  -0.7086  -0.6654  -0.6506
    -0.5662  -0.5124  -0.4794  -0.4325  -0.3675  -0.3163  -0.1928  -0.1597
    -0.1142  -0.0839  -0.0578  -0.0417  -0.0130   0.0380   0.0906   0.1111
     0.1871   0.1915   0.2067   0.2500   0.2877   0.3104   0.3687   0.4219
     0.4301   0.4523   0.4673   0.5045   0.5244   0.5422   0.6021   0.6255
     0.7213   0.7448   0.7770   0.8033   0.8200   0.8653   0.9604   1.0262
     1.1160   1.1537   1.2964   1.4987   1.5844   1.8398   1.8489   1.9361
     1.9384   3.5628   3.9554   3.9583   4.0936   4.0967   4.2210   4.2230
     4.2572   4.2961   4.3196

          k = 0.0380 0.0000 0.0000 ( 17913 PWs)   bands (ev):

   -55.7066 -55.6727 -55.3930 -55.3590 -55.2939 -55.1767 -55.1217 -55.0450
   -54.9990 -54.9694 -54.8389 -54.7440 -54.7050 -54.6315 -54.5341 -54.5001
   -32.1674 -32.0008 -31.9771 -31.8687 -31.8593 -31.7899 -31.7682 -31.6696
   -31.6232 -31.6110 -31.5883 -31.5472 -31.5345 -31.5253 -31.5066 -31.5034
   -31.4965 -31.4061 -31.4029 -31.3804 -31.3432 -31.3236 -31.3069 -31.3040
   -31.2818 -31.2792 -31.2458 -31.2050 -31.1884 -31.1835 -31.1720 -31.1561
   -31.1059 -31.0434 -30.9990 -30.9630 -30.9598 -30.9332 -30.9299 -30.9177
   -30.9027 -30.8667 -30.8456 -30.8421 -30.8386 -30.7516 -30.6665 -30.5545
   -19.0785 -16.2203 -15.9700 -15.6769 -15.5273 -15.4288 -15.3251 -15.2907
   -15.2686 -15.1902 -15.0405 -14.9991 -14.8998 -14.8757 -14.8412 -14.8240
   -14.8103 -14.8001 -14.7015 -14.6437 -14.6005 -14.5580 -14.5315 -14.5277
   -14.4927 -14.4466 -14.3865 -14.3831 -14.3071 -13.9948 -13.9369 -13.0289
   -12.9182 -12.5746  -9.3421  -6.2076  -4.7656  -4.7209  -3.7358  -3.4276
    -3.2639  -3.1724  -3.0035  -2.8892  -2.7729  -2.7545  -2.7457  -2.7217
    -2.6276  -2.5436  -2.4574  -2.3981  -2.3299  -2.2845  -2.1750  -2.1601
    -2.1069  -2.0694  -2.0404  -1.9930  -1.9340  -1.9181  -1.8834  -1.7924
    -1.7455  -1.7373  -1.7177  -1.6920  -1.6396  -1.5717  -1.5491  -1.5268
    -1.3705  -1.3366  -1.2507  -1.2398  -1.1704  -1.1444  -1.1199  -1.0956
    -1.0805  -1.0557  -1.0220  -0.8820  -0.8110  -0.7201  -0.6836  -0.6704
    -0.6213  -0.6078  -0.5324  -0.4924  -0.4737  -0.4262  -0.4222  -0.3604
    -0.2951  -0.1949  -0.1329  -0.1003  -0.0449   0.0229   0.0786   0.1151
     0.2135   0.2311   0.2753   0.2928   0.3374   0.3894   0.4090   0.4454
     0.4728   0.5406   0.5767   0.6008   0.6445   0.6672   0.6990   0.7668
     0.8364   0.8595   0.9501   0.9879   1.0357   1.1053   1.1331   1.1980
     1.2606   1.3578   1.4219   1.5029   1.5151   1.6804   1.7601   1.9355
     2.0021   3.5722   3.5782   3.6238   3.8807   3.9310   4.0479   4.1481
     4.2121   4.3424   4.3912

          k = 0.0380 0.0419 0.0000 ( 17878 PWs)   bands (ev):

   -55.7016 -55.6777 -55.3881 -55.3639 -55.2936 -55.1740 -55.1244 -55.0415
   -55.0025 -54.9696 -54.8379 -54.7429 -54.7060 -54.6326 -54.5291 -54.5051
   -32.1136 -31.9963 -31.9782 -31.8471 -31.8455 -31.8195 -31.7818 -31.6221
   -31.5990 -31.5982 -31.5826 -31.5639 -31.5369 -31.5347 -31.5046 -31.4970
   -31.4882 -31.3980 -31.3966 -31.3684 -31.3421 -31.3361 -31.3333 -31.2934
   -31.2767 -31.2536 -31.2336 -31.2209 -31.2169 -31.2115 -31.1826 -31.1739
   -31.1013 -31.0421 -30.9940 -30.9868 -30.9622 -30.9543 -30.9290 -30.9178
   -30.8795 -30.8648 -30.8625 -30.8434 -30.8427 -30.7392 -30.6791 -30.6115
   -19.0770 -16.2181 -15.8518 -15.5621 -15.4347 -15.3444 -15.3353 -15.2602
   -15.1901 -15.1331 -15.0142 -15.0020 -14.9565 -14.9108 -14.8465 -14.8330
   -14.8089 -14.7849 -14.7173 -14.6679 -14.6392 -14.6150 -14.6042 -14.5625
   -14.4968 -14.4716 -14.4338 -14.4087 -14.3361 -14.0686 -13.9961 -13.0354
   -12.9590 -12.5755  -9.3458  -6.2054  -4.7615  -4.7191  -3.7359  -3.4193
    -3.0867  -3.0042  -2.8462  -2.7314  -2.6467  -2.6236  -2.5947  -2.5819
    -2.4402  -2.3548  -2.3473  -2.3145  -2.2837  -2.2457  -2.2237  -2.1903
    -2.1620  -2.1440  -2.0855  -2.0538  -2.0302  -1.9919  -1.9525  -1.9368
    -1.9061  -1.8571  -1.8287  -1.7737  -1.7416  -1.6206  -1.6057  -1.5726
    -1.4598  -1.4004  -1.3306  -1.3131  -1.1940  -1.1422  -1.0899  -0.9885
    -0.9540  -0.8866  -0.8601  -0.7952  -0.7607  -0.7068  -0.6588  -0.5805
    -0.5393  -0.5073  -0.4914  -0.4301  -0.4179  -0.3583  -0.3341  -0.3078
    -0.2597  -0.2049  -0.1723  -0.1328  -0.1110  -0.0744  -0.0259  -0.0016
     0.0325   0.0756   0.1155   0.1349   0.2041   0.2763   0.3016   0.3281
     0.4355   0.4643   0.4895   0.5580   0.6163   0.6505   0.7096   0.7818
     0.8123   0.8365   0.8609   0.9113   1.0031   1.0378   1.1266   1.1279
     1.1723   1.2207   1.2854   1.3803   1.6944   1.7073   1.8216   1.9214
     1.9770   3.5400   3.7105   3.7909   4.0016   4.0974   4.1185   4.1741
     4.2690   4.3494   4.4605

          k = 0.0380-0.0839 0.0000 ( 17916 PWs)   bands (ev):

   -55.6899 -55.6895 -55.3787 -55.3734 -55.2933 -55.1709 -55.1275 -55.0373
   -55.0067 -54.9699 -54.8369 -54.7418 -54.7070 -54.6338 -54.5177 -54.5166
   -31.9868 -31.9864 -31.9816 -31.9814 -31.8144 -31.8139 -31.6965 -31.6910
   -31.5744 -31.5729 -31.5714 -31.5687 -31.5650 -31.5030 -31.4988 -31.4839
   -31.4490 -31.3929 -31.3835 -31.3679 -31.3573 -31.3475 -31.3414 -31.3409
   -31.2695 -31.2537 -31.2464 -31.2455 -31.2167 -31.2026 -31.1788 -31.1639
   -31.0983 -31.0490 -31.0403 -30.9996 -30.9662 -30.9636 -30.9598 -30.9181
   -30.8802 -30.8529 -30.8522 -30.8439 -30.7482 -30.7469 -30.7097 -30.7089
   -19.0754 -16.2161 -15.5748 -15.5651 -15.3101 -15.3000 -15.2718 -15.2106
   -15.1390 -15.1019 -15.0144 -15.0067 -14.9564 -14.9479 -14.9171 -14.8792
   -14.8338 -14.8076 -14.7190 -14.7004 -14.6579 -14.6326 -14.6259 -14.5811
   -14.5626 -14.5248 -14.4790 -14.4079 -14.3181 -14.1692 -14.0772 -13.0216
   -13.0211 -12.5764  -9.3497  -6.2031  -4.7598  -4.7151  -3.7404  -3.4052
    -2.7162  -2.7126  -2.6420  -2.5940  -2.5545  -2.4704  -2.4456  -2.4350
    -2.4068  -2.3781  -2.3724  -2.3343  -2.3021  -2.3001  -2.2463  -2.1808
    -2.1655  -2.1585  -2.1442  -2.1037  -2.0923  -2.0612  -2.0138  -1.9830
    -1.9391  -1.8801  -1.8229  -1.7832  -1.6205  -1.5526  -1.5129  -1.4586
    -1.4047  -1.3589  -1.3071  -1.2689  -1.2238  -1.1308  -1.0906  -1.0626
    -1.0415  -0.9833  -0.9420  -0.9339  -0.8833  -0.8517  -0.7803  -0.7438
    -0.6504  -0.5339  -0.4893  -0.4460  -0.4364  -0.4266  -0.3008  -0.2495
    -0.2261  -0.2208  -0.1674  -0.1298  -0.1026  -0.0892  -0.0556  -0.0091
     0.0011   0.0340   0.0768   0.1059   0.1548   0.1841   0.2228   0.3181
     0.3922   0.4400   0.5093   0.5259   0.5786   0.5948   0.6542   0.7030
     0.7353   0.7893   0.8027   0.8351   0.9167   1.0096   1.0450   1.0941
     1.1334   1.1829   1.2924   1.4812   1.5524   1.8515   1.8594   1.9230
     1.9250   3.4619   3.9565   3.9593   4.1258   4.1291   4.2547   4.2631
     4.2975   4.3215   4.4138

          k = 0.0380-0.0419 0.0000 ( 17876 PWs)   bands (ev):

   -55.7016 -55.6777 -55.3881 -55.3639 -55.2936 -55.1740 -55.1244 -55.0415
   -55.0025 -54.9696 -54.8378 -54.7429 -54.7060 -54.6326 -54.5291 -54.5051
   -32.1136 -31.9963 -31.9782 -31.8470 -31.8457 -31.8195 -31.7818 -31.6221
   -31.5990 -31.5982 -31.5826 -31.5638 -31.5370 -31.5346 -31.5045 -31.4971
   -31.4882 -31.3980 -31.3966 -31.3684 -31.3421 -31.3363 -31.3331 -31.2933
   -31.2768 -31.2537 -31.2337 -31.2196 -31.2165 -31.2129 -31.1827 -31.1737
   -31.1013 -31.0422 -30.9940 -30.9867 -30.9623 -30.9542 -30.9290 -30.9178
   -30.8795 -30.8648 -30.8625 -30.8433 -30.8427 -30.7392 -30.6791 -30.6115
   -19.0769 -16.2181 -15.8517 -15.5619 -15.4344 -15.3449 -15.3351 -15.2602
   -15.1890 -15.1354 -15.0143 -15.0019 -14.9560 -14.9105 -14.8468 -14.8335
   -14.8129 -14.7816 -14.7186 -14.6680 -14.6378 -14.6175 -14.5976 -14.5643
   -14.4983 -14.4715 -14.4316 -14.4083 -14.3381 -14.0692 -13.9957 -13.0354
   -12.9591 -12.5754  -9.3458  -6.2053  -4.7626  -4.7169  -3.7403  -3.4157
    -3.0862  -3.0040  -2.8458  -2.7323  -2.6513  -2.6237  -2.5960  -2.5812
    -2.4418  -2.3555  -2.3423  -2.3155  -2.2823  -2.2418  -2.2229  -2.1899
    -2.1620  -2.1447  -2.0881  -2.0528  -2.0382  -1.9858  -1.9544  -1.9381
    -1.9115  -1.8646  -1.8454  -1.7734  -1.7276  -1.6292  -1.6011  -1.5701
    -1.4609  -1.3902  -1.3252  -1.3106  -1.2012  -1.1263  -1.0770  -0.9899
    -0.9561  -0.8877  -0.8610  -0.7991  -0.7569  -0.7065  -0.6535  -0.5868
    -0.5459  -0.5082  -0.4883  -0.4313  -0.4213  -0.3603  -0.3378  -0.3123
    -0.2611  -0.2074  -0.1671  -0.1284  -0.1138  -0.0656  -0.0412   0.0062
     0.0383   0.0993   0.1256   0.1370   0.2041   0.2799   0.3028   0.3289
     0.4012   0.4660   0.4917   0.5598   0.6042   0.6325   0.7376   0.7638
     0.8116   0.8262   0.8534   0.9076   1.0154   1.0468   1.1226   1.1405
     1.1707   1.2101   1.2886   1.3894   1.6935   1.7072   1.8213   1.9212
     1.9776   3.5296   3.7107   3.7909   4.0016   4.0979   4.1163   4.1739
     4.2688   4.3488   4.4137

          k =-0.0760-0.0000 0.0000 ( 17886 PWs)   bands (ev):

   -55.7065 -55.6727 -55.3929 -55.3590 -55.2938 -55.1767 -55.1217 -55.0450
   -54.9990 -54.9693 -54.8389 -54.7440 -54.7050 -54.6315 -54.5341 -54.5001
   -32.1682 -32.0006 -31.9769 -31.8689 -31.8569 -31.7898 -31.7685 -31.6786
   -31.6242 -31.6109 -31.5743 -31.5489 -31.5260 -31.5242 -31.5050 -31.5034
   -31.4964 -31.4201 -31.4029 -31.3805 -31.3431 -31.3241 -31.3057 -31.2976
   -31.2818 -31.2797 -31.2457 -31.2023 -31.1887 -31.1836 -31.1681 -31.1568
   -31.1059 -31.0487 -30.9989 -30.9658 -30.9597 -30.9329 -30.9299 -30.9196
   -30.9026 -30.8695 -30.8457 -30.8424 -30.8374 -30.7516 -30.6664 -30.5546
   -19.0784 -16.2186 -15.8288 -15.5728 -15.4897 -15.4082 -15.3966 -15.2740
   -15.2652 -15.1873 -15.1250 -15.0799 -14.9237 -14.8987 -14.8981 -14.8661
   -14.8107 -14.7891 -14.7242 -14.6855 -14.6506 -14.5655 -14.5421 -14.4768
   -14.4669 -14.4615 -14.3932 -14.3370 -14.2997 -13.9927 -13.9362 -13.0261
   -12.9178 -12.5738  -9.3414  -6.2059  -4.7593  -4.7221  -3.7361  -3.4211
    -3.1541  -2.8754  -2.8687  -2.8508  -2.8069  -2.7165  -2.7035  -2.6107
    -2.5989  -2.5489  -2.5001  -2.4037  -2.2504  -2.1820  -2.1662  -2.1030
    -2.0938  -1.9901  -1.9774  -1.9445  -1.9105  -1.8766  -1.8379  -1.7599
    -1.7308  -1.7232  -1.6820  -1.5886  -1.5819  -1.5425  -1.5088  -1.4783
    -1.4081  -1.3516  -1.3119  -1.2855  -1.2233  -1.2030  -1.0913  -1.0852
    -1.0644  -0.9944  -0.9589  -0.9439  -0.9163  -0.8021  -0.7678  -0.7088
    -0.6751  -0.6244  -0.5632  -0.5068  -0.4907  -0.4755  -0.4612  -0.3787
    -0.3532  -0.3113  -0.2056  -0.1123  -0.0585  -0.0419   0.0022   0.0770
     0.1022   0.1096   0.1780   0.2005   0.2521   0.3045   0.3636   0.3985
     0.4188   0.4485   0.5108   0.5592   0.5748   0.5989   0.7444   0.8107
     0.8138   0.9212   0.9284   1.0073   1.0604   1.0847   1.1015   1.1477
     1.2227   1.3851   1.3953   1.5230   1.5449   1.5562   1.6594   1.8137
     1.9444   3.5449   3.5884   3.6084   3.8192   3.9290   3.9489   4.0376
     4.2955   4.3230   4.4028

          k =-0.0760 0.0419 0.0000 ( 17914 PWs)   bands (ev):

   -55.7016 -55.6777 -55.3881 -55.3639 -55.2936 -55.1740 -55.1244 -55.0415
   -55.0025 -54.9696 -54.8379 -54.7429 -54.7060 -54.6326 -54.5291 -54.5051
   -32.1145 -31.9963 -31.9782 -31.8468 -31.8443 -31.8198 -31.7817 -31.6337
   -31.5993 -31.5990 -31.5722 -31.5641 -31.5369 -31.5211 -31.5033 -31.4971
   -31.4903 -31.4087 -31.3973 -31.3685 -31.3421 -31.3359 -31.3352 -31.2871
   -31.2773 -31.2538 -31.2340 -31.2186 -31.2172 -31.2115 -31.1829 -31.1699
   -31.1014 -31.0470 -30.9940 -30.9868 -30.9645 -30.9543 -30.9290 -30.9203
   -30.8793 -30.8649 -30.8648 -30.8442 -30.8420 -30.7393 -30.6791 -30.6116
   -19.0769 -16.2167 -15.7202 -15.4735 -15.3847 -15.3666 -15.3265 -15.2980
   -15.1849 -15.1314 -15.0529 -15.0322 -14.9456 -14.8956 -14.8821 -14.8581
   -14.8287 -14.8189 -14.7616 -14.7244 -14.6773 -14.5998 -14.5913 -14.5713
   -14.5261 -14.5105 -14.4074 -14.3849 -14.3389 -14.0659 -13.9962 -13.0334
   -12.9594 -12.5749  -9.3454  -6.2040  -4.7602  -4.7212  -3.7328  -3.4162
    -2.9927  -2.7152  -2.6648  -2.5822  -2.5756  -2.5524  -2.5302  -2.4327
    -2.3771  -2.3648  -2.3055  -2.2946  -2.2656  -2.2541  -2.2316  -2.1674
    -2.1070  -2.1035  -2.0696  -2.0645  -1.9978  -1.9168  -1.9094  -1.8842
    -1.8662  -1.8037  -1.7538  -1.7017  -1.6675  -1.5886  -1.5193  -1.4446
    -1.4067  -1.3956  -1.3642  -1.3232  -1.2500  -1.2141  -1.0657  -1.0507
    -0.9459  -0.8822  -0.8795  -0.8483  -0.8021  -0.7761  -0.7423  -0.7106
    -0.6838  -0.6074  -0.5997  -0.5745  -0.4788  -0.4566  -0.4443  -0.3807
    -0.3241  -0.3069  -0.2914  -0.2471  -0.2288  -0.1909  -0.1799  -0.1215
    -0.0956  -0.0693  -0.0309   0.0587   0.1506   0.2042   0.2240   0.2838
     0.3620   0.3867   0.4612   0.5840   0.6490   0.6648   0.6872   0.8067
     0.8469   0.8585   0.9171   0.9877   1.0151   1.0802   1.0953   1.1473
     1.2312   1.2379   1.3990   1.4542   1.4734   1.7164   1.8242   1.8472
     1.9654   3.4691   3.7071   3.7928   3.8991   4.0178   4.0718   4.2388
     4.3502   4.3717   4.4103

          k =-0.0760-0.0839 0.0000 ( 17948 PWs)   bands (ev):

   -55.6899 -55.6895 -55.3787 -55.3734 -55.2934 -55.1710 -55.1275 -55.0373
   -55.0067 -54.9699 -54.8369 -54.7418 -54.7070 -54.6338 -54.5177 -54.5166
   -31.9869 -31.9865 -31.9822 -31.9821 -31.8135 -31.8129 -31.6968 -31.6913
   -31.5770 -31.5728 -31.5713 -31.5696 -31.5650 -31.5023 -31.4984 -31.4749
   -31.4420 -31.3930 -31.3912 -31.3699 -31.3573 -31.3535 -31.3428 -31.3415
   -31.2663 -31.2550 -31.2457 -31.2418 -31.2146 -31.2027 -31.1761 -31.1638
   -31.0982 -31.0492 -31.0443 -30.9994 -30.9666 -30.9637 -30.9609 -30.9209
   -30.8802 -30.8537 -30.8530 -30.8451 -30.7482 -30.7469 -30.7098 -30.7089
   -19.0754 -16.2151 -15.4783 -15.4681 -15.3241 -15.3147 -15.2401 -15.1476
   -15.1291 -15.1013 -15.0530 -15.0301 -14.9496 -14.8933 -14.8758 -14.8493
   -14.8319 -14.8167 -14.7575 -14.7549 -14.7385 -14.7277 -14.6602 -14.6218
   -14.5915 -14.5851 -14.4760 -14.3975 -14.3129 -14.1613 -14.0756 -13.0214
   -13.0209 -12.5760  -9.3495  -6.2022  -4.7616  -4.7208  -3.7295  -3.4082
    -2.6572  -2.6138  -2.5244  -2.4449  -2.4358  -2.3911  -2.3904  -2.3089
    -2.2571  -2.1984  -2.1737  -2.1670  -2.1650  -2.1348  -2.1261  -2.0712
    -2.0661  -2.0493  -2.0460  -1.9907  -1.9654  -1.9514  -1.8994  -1.8443
    -1.7944  -1.7580  -1.7358  -1.6965  -1.6739  -1.6711  -1.5867  -1.5732
    -1.5449  -1.5176  -1.4729  -1.4418  -1.3885  -1.3663  -1.3101  -1.1829
    -1.1085  -1.0245  -0.9170  -0.8980  -0.8651  -0.8311  -0.8191  -0.7941
    -0.7641  -0.6487  -0.6380  -0.5854  -0.5536  -0.5275  -0.5122  -0.4810
    -0.4560  -0.3507  -0.3094  -0.2836  -0.2474  -0.2144  -0.1853  -0.1525
    -0.0986  -0.0610  -0.0480  -0.0205   0.0144   0.0274   0.1810   0.2610
     0.3923   0.4229   0.5105   0.5586   0.5920   0.6212   0.6615   0.7676
     0.8148   0.8369   0.8738   0.8945   0.9934   1.0901   1.1112   1.1789
     1.2151   1.3187   1.3494   1.4369   1.4890   1.8729   1.8808   1.9018
     1.9023   3.3719   4.0395   4.0424   4.0538   4.0671   4.2321   4.2348
     4.3347   4.3593   4.4847

     the Fermi energy is     3.4511 ev

!    total energy              =   -2973.99519324 Ry
     estimated scf accuracy    <       0.00000004 Ry
     smearing contrib. (-TS)   =      -0.01689792 Ry
     internal energy E=F+TS    =   -2973.97829532 Ry

     The total energy is F=E-TS. E is the sum of the following terms:
     one-electron contribution =  -23434.50816527 Ry
     hartree contribution      =   11814.62686752 Ry
     xc contribution           =    -493.95445500 Ry
     ewald contribution        =    9139.85480822 Ry
     electric field correction =       0.00264920 Ry

     convergence has been achieved in  66 iterations

     Forces acting on atoms (cartesian axes, Ry/au):

     atom    1 type  1   force =     0.00011957   -0.00023698    0.10267471
     atom    2 type  1   force =    -0.00011600    0.00008990   -0.16811783
     atom    3 type  2   force =    -0.00000824    0.00045868   -0.03236859
     atom    4 type  2   force =     0.00002754   -0.00097614    0.04014254
     atom    5 type  2   force =    -0.00543962   -0.00191374   -0.00431502
     atom    6 type  2   force =     0.00667330   -0.00135898   -0.00591460
     atom    7 type  1   force =    -0.00053831   -0.00530673    0.02995044
     atom    8 type  1   force =     0.00069284    0.00860774    0.04843090
     atom    9 type  2   force =     0.00012452   -0.00129089   -0.00095686
     atom   10 type  2   force =    -0.00253530    0.00301400   -0.03406878
     atom   11 type  2   force =    -0.00031556   -0.00007807   -0.00021418
     atom   12 type  2   force =     0.00041546   -0.00036266   -0.00009727
     atom   13 type  1   force =     0.00022495   -0.00162118    0.00010504
     atom   14 type  1   force =     0.00017367   -0.00070772    0.00049523
     atom   15 type  2   force =     0.00009200    0.00005062   -0.00032113
     atom   16 type  2   force =    -0.00014085    0.00001327    0.00205205
     atom   17 type  2   force =    -0.00131438   -0.00088127    0.00051853
     atom   18 type  2   force =     0.00094057   -0.00149263    0.00069597
     atom   19 type  1   force =     0.00065811   -0.00094656   -0.00065608
     atom   20 type  1   force =    -0.00078677   -0.00048245   -0.00009007
     atom   21 type  2   force =     0.00004646    0.00012400    0.10114208
     atom   22 type  2   force =    -0.00009936    0.00042036   -0.00001605
     atom   23 type  2   force =    -0.07541770   -0.00012354   -0.02929431
     atom   24 type  2   force =     0.07532989    0.00029884   -0.02931190
     atom   25 type  1   force =     0.00013897   -0.00022221    0.10279863
     atom   26 type  1   force =    -0.00004307   -0.00130081   -0.16851553
     atom   27 type  2   force =     0.00011922    0.00017474   -0.03114129
     atom   28 type  2   force =    -0.00001027    0.00071952    0.03586241
     atom   29 type  2   force =    -0.00427002    0.00378646   -0.00624305
     atom   30 type  2   force =     0.00529342    0.00442394   -0.00776825
     atom   31 type  1   force =    -0.00054061    0.00495828    0.01584168
     atom   32 type  1   force =     0.00077322   -0.01041674    0.04910865
     atom   33 type  2   force =     0.00002619   -0.00090179   -0.00127941
     atom   34 type  2   force =    -0.00240633    0.00222418   -0.04423403
     atom   35 type  2   force =     0.00059559    0.00020283   -0.00012592
     atom   36 type  2   force =    -0.00022319    0.00023488   -0.00005605
     atom   37 type  1   force =     0.00026518    0.00035262   -0.00053061
     atom   38 type  1   force =     0.00042217    0.00135893    0.00091684
     atom   39 type  2   force =     0.00036989    0.00045201    0.00008843
     atom   40 type  2   force =     0.00005593    0.00013647    0.00059072
     atom   41 type  2   force =    -0.00118959    0.00004448    0.00018873
     atom   42 type  2   force =     0.00071129    0.00059677    0.00041331
     atom   43 type  1   force =     0.00026059    0.00049893    0.00393158
     atom   44 type  1   force =    -0.00066820    0.00003668   -0.00064995
     atom   45 type  2   force =     0.00007122   -0.00002100    0.10094504
     atom   46 type  2   force =    -0.07547396   -0.00004828   -0.02931023
     atom   47 type  2   force =     0.07538549    0.00038480   -0.02930559
     atom   48 type  3   force =    -0.00062578    0.00010385    0.00042407
     atom   49 type  3   force =     0.00036034   -0.00084433   -0.00091302
     atom   50 type  4   force =     0.00120468    0.00132799    0.00064281
     atom   51 type  5   force =     0.00012901   -0.00077940   -0.00135347
     atom   52 type  5   force =    -0.00020178   -0.00055937   -0.00052267
     atom   53 type  5   force =    -0.00014958   -0.00058355   -0.00104933
     atom   54 type  5   force =    -0.00005099   -0.00065215   -0.00135725
     atom   55 type  2   force =    -0.00205301    0.00832066   -0.01167769
     atom   56 type  5   force =     0.00291720   -0.00930727    0.00381564

     Total force =     0.373180     Total SCF correction =     0.000618
  @ DRIVER MODE: Message from server: STATUS
  @ DRIVER MODE: Message from server: GETFORCE
  @ DRIVER MODE: Returning v,forces,stress,ensemble 

     Writing output data file ./calc.save/
  @ DRIVER MODE: Message from server: EXIT
  @ DRIVE MODE: Exiting  
 
     init_run     :     13.43s CPU     13.81s WALL (       1 calls)
     electrons    :   1286.05s CPU   1312.85s WALL (       1 calls)
     forces       :      2.72s CPU      2.83s WALL (       1 calls)

     Called by init_run:
     wfcinit      :      5.87s CPU      6.04s WALL (       1 calls)
     potinit      :      6.75s CPU      6.83s WALL (       1 calls)
     hinit0       :      0.37s CPU      0.39s WALL (       1 calls)

     Called by electrons:
     c_bands      :   1096.21s CPU   1110.10s WALL (      66 calls)
     sum_band     :    132.81s CPU    138.93s WALL (      66 calls)
     v_of_rho     :     44.19s CPU     45.95s WALL (      67 calls)
     newd         :     17.18s CPU     22.08s WALL (      67 calls)
     mix_rho      :      1.63s CPU      1.71s WALL (      66 calls)
     vdW_kernel   :      5.84s CPU      5.86s WALL (       1 calls)

     Called by c_bands:
     init_us_2    :      5.55s CPU      5.60s WALL (    1340 calls)
     cegterg      :   1074.48s CPU   1088.01s WALL (     673 calls)

     Called by *egterg:
     cdiaghg      :    151.11s CPU    151.74s WALL (    5176 calls)
     h_psi        :    600.55s CPU    609.48s WALL (    5189 calls)
     s_psi        :     70.46s CPU     70.71s WALL (    5189 calls)
     g_psi        :      2.12s CPU      2.14s WALL (    4506 calls)

     Called by h_psi:
     h_psi:calbec :     71.42s CPU     72.49s WALL (    5189 calls)
     vloc_psi     :    456.41s CPU    460.34s WALL (    5189 calls)
     add_vuspsi   :     70.54s CPU     72.58s WALL (    5189 calls)

     General routines
     calbec       :     95.09s CPU     96.23s WALL (    5889 calls)
     fft          :     22.06s CPU     22.18s WALL (    4221 calls)
     ffts         :      0.19s CPU      0.20s WALL (     133 calls)
     fftw         :    510.05s CPU    514.48s WALL (  937290 calls)
     interpolate  :      0.47s CPU      0.48s WALL (      67 calls)
     davcio       :      0.00s CPU      0.22s WALL (      10 calls)
 
     Parallel routines
 
     PWSCF        :  21m42.69s CPU  22m24.70s WALL

 
   This run was terminated on:  18: 3:45  23Sep2021            

=------------------------------------------------------------------------------=
   JOB DONE.
=------------------------------------------------------------------------------=
