
     Program PWSCF v.6.7GPU starts on 23Sep2021 at 19:48:49 

     This program is part of the open-source Quantum ESPRESSO suite
     for quantum simulation of materials; please cite
         "P. Giannozzi et al., J. Phys.:Condens. Matter 21 395502 (2009);
         "P. Giannozzi et al., J. Phys.:Condens. Matter 29 465901 (2017);
         "P. Giannozzi et al., J. Chem. Phys. 152 154105 (2020);
          URL http://www.quantum-espresso.org", 
     in publications or presentations arising from this work. More details at
     http://www.quantum-espresso.org/quote

     Parallel version (MPI), running on     8 processors

     MPI processes distributed on     1 nodes
     R & G space division:  proc/nbgrp/npool/nimage =       8
     Reading input from /storage/home/hcoda1/3/ntian30/research/carbon/CxH_vib/H2O_calc/ads_slab/CH3NHNH2HO_a/out_0020/pw.inp
Warning: card &CELL ignored
Warning: card   CELL_DYNAMICS='IPI', ignored
Warning: card / ignored

     Current dimensions of program PWSCF are:
     Max number of different atomic species (ntypx) = 10
     Max number of k-points (npk) =  40000
     Max angular momentum in pseudopotentials (lmaxx) =  3
     Presently no symmetry can be used with electric field

     Message from routine cell_base_init:
     DEPRECATED: use true lattice parameter, not A to a.u. conversion factor

     **************************************************************************
     Initializing libbeef V0.1.2 with the BEEF-vdW functional.
     Citation: Wellendorff et al., PRB 85, 235149 (2012).
     **************************************************************************


     IMPORTANT: XC functional enforced from input :
     Exchange-correlation= BEEF-VDW
                           (   1   4  43  14   2   0   0)
     Any further DFT definition will be discarded
     Please, verify this is what you really want


     Subspace diagonalization in iterative solution of the eigenvalue problem:
     one sub-group per band group will be used
     scalapack distributed-memory algorithm (size of sub-group:  2*  2 procs)

  @ DRIVER MODE: Connecting to 
 qe_1139763_2947307.sched-torque.pace.gatech.edu25qansza_scratch
  using UNIX socket
  @ DRIVER MODE: Message from server: STATUS
  @ DRIVER MODE: Message from server: INIT
  @ DRIVER MODE: Receiving replica           0          -1
  @ DRIVER MODE: Receiving encoded integer          25
  @ DRIVER MODE:  SCF:  T  FORCE:  T  STRESS:  F  VC:  F  ENSEMBLE:  F
  @ DRIVER MODE:  SCF:  T  FORCE:  T  STRESS:  F  VC:  F  ENSEMBLE:  F
 
     Parallelization info
     --------------------
     sticks:   dense  smooth     PW     G-vecs:    dense   smooth      PW
     Min         409     164     47                70857    17926    2743
     Max         411     165     48                70858    17931    2751
     Sum        3275    1317    379               566857   143421   21985
 
     Using Slab Decomposition
 


     bravais-lattice index     =            0
     lattice parameter (alat)  =       1.8897  a.u.
     unit-cell volume          =    6658.9804 (a.u.)^3
     number of atoms/cell      =           58
     number of atomic types    =            5
     number of electrons       =       405.00
     number of Kohn-Sham states=          212
     kinetic-energy cutoff     =      29.3995  Ry
     charge density cutoff     =     293.9946  Ry
     scf convergence threshold =      7.3E-08
     mixing beta               =       0.0500
     number of iterations used =            8  plain     mixing
     Exchange-correlation= BEEF-VDW
                           (   1   4  43  14   2   0   0)

     celldm(1)=   1.889726  celldm(2)=   0.000000  celldm(3)=   0.000000
     celldm(4)=   0.000000  celldm(5)=   0.000000  celldm(6)=   0.000000

     crystal axes: (cart. coord. in units of alat)
               a(1) = (   6.579727   0.000000   0.000000 )  
               a(2) = (  -0.000775   5.961596   0.000000 )  
               a(3) = (   0.000000   0.000000  25.155947 )  

     reciprocal axes: (cart. coord. in units 2 pi/alat)
               b(1) = (  0.151982  0.000020  0.000000 )  
               b(2) = (  0.000000  0.167740  0.000000 )  
               b(3) = (  0.000000  0.000000  0.039752 )  


     PseudoPot. # 1 for Ti read from file:
     /storage/coda1/p-amedford6/0/shared/rich_project_chbe-medford/medford-share/data/pseudos_module/espresso/nninc/pbe/van/Ti.UPF
     MD5 check sum: 8e4df49b7f0d34bbd5052bf3f5ea0213
     Pseudo is Ultrasoft, Zval = 12.0
     Generated by new atomic code, or converted to UPF format
     Using radial grid of  851 points,  6 beta functions with: 
                l(1) =   0
                l(2) =   0
                l(3) =   1
                l(4) =   1
                l(5) =   2
                l(6) =   2
     Q(r) pseudized with  8 coefficients,  rinner =    1.000   1.000   1.000
                                                       1.000   1.000

     PseudoPot. # 2 for O  read from file:
     /storage/coda1/p-amedford6/0/shared/rich_project_chbe-medford/medford-share/data/pseudos_module/espresso/nninc/pbe/van/O.UPF
     MD5 check sum: 78c19812648e8988a0fe644b0f25305e
     Pseudo is Ultrasoft, Zval =  6.0
     Generated by new atomic code, or converted to UPF format
     Using radial grid of  737 points,  4 beta functions with: 
                l(1) =   0
                l(2) =   0
                l(3) =   1
                l(4) =   1
     Q(r) pseudized with  8 coefficients,  rinner =    0.800   0.800   0.800


     PseudoPot. # 3 for N  read from file:
     /storage/coda1/p-amedford6/0/shared/rich_project_chbe-medford/medford-share/data/pseudos_module/espresso/nninc/pbe/van/N.UPF
     MD5 check sum: 90d10febe142ad51ac9d5be1deb811c4
     Pseudo is Ultrasoft, Zval =  5.0
     Generated by new atomic code, or converted to UPF format
     Using radial grid of  729 points,  4 beta functions with: 
                l(1) =   0
                l(2) =   0
                l(3) =   1
                l(4) =   1
     Q(r) pseudized with  8 coefficients,  rinner =    0.800   0.800   0.800


     PseudoPot. # 4 for C  read from file:
     /storage/coda1/p-amedford6/0/shared/rich_project_chbe-medford/medford-share/data/pseudos_module/espresso/nninc/pbe/van/C.UPF
     MD5 check sum: 1a69bf6b8db32088f5b2163dbdb77a27
     Pseudo is Ultrasoft, Zval =  4.0
     Generated by new atomic code, or converted to UPF format
     Using radial grid of  721 points,  4 beta functions with: 
                l(1) =   0
                l(2) =   0
                l(3) =   1
                l(4) =   1
     Q(r) pseudized with  8 coefficients,  rinner =    0.800   0.800   0.800


     PseudoPot. # 5 for H  read from file:
     /storage/coda1/p-amedford6/0/shared/rich_project_chbe-medford/medford-share/data/pseudos_module/espresso/nninc/pbe/van/H.UPF
     MD5 check sum: b5ee9d7bfd3a09ee7748110bda690ff7
     Pseudo is Ultrasoft, Zval =  1.0
     Generated by new atomic code, or converted to UPF format
     Using radial grid of  615 points,  1 beta functions with: 
                l(1) =   0
     Q(r) pseudized with  8 coefficients,  rinner =    0.800

     atomic species   valence    mass     pseudopotential
        Ti1           12.00    47.86700     Ti( 1.00)
        O1             6.00    15.99900     O ( 1.00)
        N1             5.00    14.00700     N ( 1.00)
        C1             4.00    12.01100     C ( 1.00)
        H1             1.00     1.00800     H ( 1.00)

     No symmetry found



   Cartesian axes

     site n.     atom                  positions (alat units)
         1           Ti1 tau(   1) = (   0.0004258   2.9801865   6.0000000  )
         2           Ti1 tau(   2) = (   3.2906075   1.4906267   6.0002472  )
         3           O1  tau(   3) = (   0.0006271   0.0005054   7.9858123  )
         4           O1  tau(   4) = (   3.2906025   0.0005020   7.3038282  )
         5           O1  tau(   5) = (   4.5942328   1.4918067   9.2879030  )
         6           O1  tau(   6) = (   1.9868534   1.4903216   9.2879459  )
         7           Ti1 tau(   7) = (   3.2907910   2.8959150   9.1758416  )
         8           Ti1 tau(   8) = (   0.0015273   1.4827037   9.2680791  )
         9           O1  tau(   9) = (   3.3003128   0.0493987  11.3625472  )
        10           O1  tau(  10) = (   0.0116148   5.9584955  10.6183126  )
        11           O1  tau(  11) = (   1.2863924   1.5188706  12.6959087  )
        12           O1  tau(  12) = (   5.3173592   1.5183023  12.6957539  )
        13           Ti1 tau(  13) = (   0.0130489   2.9571150  12.5182267  )
        14           Ti1 tau(  14) = (   3.3124343   1.5987737  12.4587140  )
        15           O1  tau(  15) = (   0.0455642   5.8537743  14.6515032  )
        16           O1  tau(  16) = (   3.3135256   5.8999501  14.0036581  )
        17           O1  tau(  17) = (   4.5824137   1.5787328  16.0473457  )
        18           O1  tau(  18) = (   2.0456054   1.5356268  16.0652349  )
        19           Ti1 tau(  19) = (   3.2855744   2.9948502  15.7047272  )
        20           Ti1 tau(  20) = (   0.0729980   1.3194477  15.7501807  )
        21           O1  tau(  21) = (   3.2904802   0.0005063   4.7018136  )
        22           O1  tau(  22) = (   6.5643345   0.1786488  17.1561759  )
        23           O1  tau(  23) = (   1.3043587   1.4918075   6.0039043  )
        24           O1  tau(  24) = (   5.2767064   1.4903225   6.0039473  )
        25           Ti1 tau(  25) = (   0.0000382   5.9609847   6.0000000  )
        26           Ti1 tau(  26) = (   3.2902200   4.4714249   6.0002472  )
        27           O1  tau(  27) = (   0.0002396   2.9813036   7.9858123  )
        28           O1  tau(  28) = (   3.2902150   2.9813002   7.3038282  )
        29           O1  tau(  29) = (   4.5938453   4.4726049   9.2879030  )
        30           O1  tau(  30) = (   1.9864658   4.4711199   9.2879459  )
        31           Ti1 tau(  31) = (   3.2891106   5.8743827   9.1763621  )
        32           Ti1 tau(  32) = (   0.0006254   4.4649316   9.2693709  )
        33           O1  tau(  33) = (   3.3044115   2.9646987  11.3227374  )
        34           O1  tau(  34) = (   0.0092240   2.9805883  10.6323155  )
        35           O1  tau(  35) = (   1.2889249   4.4812606  12.6373974  )
        36           O1  tau(  36) = (   5.3198440   4.4849614  12.6453916  )
        37           Ti1 tau(  37) = (   0.0274371   5.9167426  12.5032498  )
        38           Ti1 tau(  38) = (   3.3124303   4.6827448  12.7121475  )
        39           O1  tau(  39) = (   0.0064664   3.0605765  14.9143048  )
        40           O1  tau(  40) = (   3.2921723   3.0190953  13.9337278  )
        41           O1  tau(  41) = (   4.5343043   4.4484976  16.2223827  )
        42           O1  tau(  42) = (   2.0055671   4.4324605  16.2273083  )
        43           Ti1 tau(  43) = (   3.3963104   0.0511244  16.3072024  )
        44           Ti1 tau(  44) = (   0.1011521   4.5293608  16.0606835  )
        45           O1  tau(  45) = (   3.2900926   2.9813045   4.7018136  )
        46           O1  tau(  46) = (   1.3039711   4.4726057   6.0039043  )
        47           O1  tau(  47) = (   5.2763189   4.4711207   6.0039473  )
        48           N1  tau(  48) = (   0.7799224   3.1460235  19.0808133  )
        49           N1  tau(  49) = (   6.3029119   3.3142126  18.0946246  )
        50           C1  tau(  50) = (   0.9829876   4.3811599  19.8296872  )
        51           H1  tau(  51) = (   0.0699524   4.7630682  20.2995108  )
        52           H1  tau(  52) = (   1.7087173   4.1728717  20.6153690  )
        53           H1  tau(  53) = (   1.3778604   5.1510331  19.1745456  )
        54           H1  tau(  54) = (   0.4845774   2.4057476  19.7140978  )
        55           H1  tau(  55) = (   5.5451363   3.8924421  18.4761980  )
        56           H1  tau(  56) = (   5.8791802   2.3931312  17.9634808  )
        57           O1  tau(  57) = (   3.3895457   0.1916509  18.1699706  )
        58           H1  tau(  58) = (   3.8128180   5.4341384  18.6581559  )

     number of k points=    10  Fermi-Dirac smearing, width (Ry)=  0.0073
                       cart. coord. in units 2pi/alat
        k(    1) = (   0.0000000   0.0000000   0.0000000), wk =   0.1250000
        k(    2) = (   0.0000000   0.0419351   0.0000000), wk =   0.2500000
        k(    3) = (   0.0000000  -0.0838702   0.0000000), wk =   0.1250000
        k(    4) = (   0.0379955   0.0000049   0.0000000), wk =   0.2500000
        k(    5) = (   0.0379955   0.0419400   0.0000000), wk =   0.2500000
        k(    6) = (   0.0379955  -0.0838652   0.0000000), wk =   0.2500000
        k(    7) = (   0.0379955  -0.0419301   0.0000000), wk =   0.2500000
        k(    8) = (  -0.0759910  -0.0000099   0.0000000), wk =   0.1250000
        k(    9) = (  -0.0759910   0.0419252   0.0000000), wk =   0.2500000
        k(   10) = (  -0.0759910  -0.0838800   0.0000000), wk =   0.1250000

     Dense  grid:   566857 G-vectors     FFT dimensions: (  72,  64, 270)

     Smooth grid:   143421 G-vectors     FFT dimensions: (  45,  40, 180)

     Estimated max dynamical RAM per process >     458.11 MB

     Estimated total dynamical RAM >       3.58 GB
     Cannot read rho : file not found

     Initial potential from superposition of free atoms

     starting charge  388.99913, renormalised to  405.00000

     negative rho (up, down):  1.368E-02 0.000E+00


     %%%%%%%%%%%%%%%%%%%%%%%%%%%%%%%%%%%%%%%%%%%%%%%%%%%%%%%%%%%%%%%%%%%%%%%%
     %                                                                      %
     % You are using vdW-DF, which was implemented by the Thonhauser group. %
     % Please cite the following two papers that made this development      %
     % possible and the two reviews that describe the various versions:     %
     %                                                                      %
     %   T. Thonhauser et al., PRL 115, 136402 (2015).                      %
     %   T. Thonhauser et al., PRB 76, 125112 (2007).                       %
     %   K. Berland et al., Rep. Prog. Phys. 78, 066501 (2015).             %
     %   D.C. Langreth et al., J. Phys.: Condens. Matter 21, 084203 (2009). %
     %                                                                      %
     %                                                                      %
     % If you are calculating the stress with vdW-DF, please also cite:     %
     %                                                                      %
     %   R. Sabatini et al., J. Phys.: Condens. Matter 24, 424209 (2012).   %
     %                                                                      %
     %%%%%%%%%%%%%%%%%%%%%%%%%%%%%%%%%%%%%%%%%%%%%%%%%%%%%%%%%%%%%%%%%%%%%%%%


 
     Adding external electric field

     Computed dipole along edir(3) : 
        Dipole              -14.8124 Ry au,        -37.6493 Debye
        Dipole field         -0.0280 Ry au, 
 
        Potential amp.        2.5912 Ry
        Total length         46.3494 bohr
 
     Starting wfcs are  307 atomic wfcs
  @ DRIVER MODE: Message from server: STATUS
  @ DRIVER MODE: Message from server: POSDATA
  @ DRIVER MODE: Reading and sharing cell 
  @ DRIVER MODE: Reading and sharing positions 
  @ DRIVER MODE: Received positions 

     total cpu time spent up to now is       27.9 secs

     Self-consistent Calculation

     iteration #  1     ecut=    29.40 Ry     beta= 0.05
     Davidson diagonalization with overlap
     c_bands:  4 eigenvalues not converged
     c_bands:  4 eigenvalues not converged
     c_bands:  5 eigenvalues not converged
     c_bands:  2 eigenvalues not converged
     c_bands:  3 eigenvalues not converged
     c_bands:  4 eigenvalues not converged
     c_bands:  2 eigenvalues not converged
     ethr =  1.00E-05,  avg # of iterations = 22.9

     negative rho (up, down):  7.864E-03 0.000E+00
 
     Adding external electric field

     Computed dipole along edir(3) : 
        Dipole               60.9962 Ry au,        155.0368 Debye
        Dipole field          0.1151 Ry au, 
 
        Potential amp.      -10.6704 Ry
        Total length         46.3494 bohr
 

     total cpu time spent up to now is       89.4 secs

     total energy              =   -2202.96466421 Ry
     estimated scf accuracy    <    8803.90979694 Ry

     iteration #  2     ecut=    29.40 Ry     beta= 0.05
     Davidson diagonalization with overlap
     ethr =  1.00E-02,  avg # of iterations = 32.6

     negative rho (up, down):  2.464E-04 0.000E+00
 
     Adding external electric field

     Computed dipole along edir(3) : 
        Dipole                0.3156 Ry au,          0.8021 Debye
        Dipole field          0.0006 Ry au, 
 
        Potential amp.       -0.0552 Ry
        Total length         46.3494 bohr
 

     total cpu time spent up to now is      312.1 secs

     total energy              =   -2445.86393234 Ry
     estimated scf accuracy    <   79796.31795369 Ry

     iteration #  3     ecut=    29.40 Ry     beta= 0.05
     Davidson diagonalization with overlap
     ethr =  1.00E-02,  avg # of iterations = 16.3

     negative rho (up, down):  2.928E-04 0.000E+00
 
     Adding external electric field

     Computed dipole along edir(3) : 
        Dipole               -3.4319 Ry au,         -8.7229 Debye
        Dipole field         -0.0065 Ry au, 
 
        Potential amp.        0.6004 Ry
        Total length         46.3494 bohr
 

     total cpu time spent up to now is      376.8 secs

     total energy              =   -2960.94270483 Ry
     estimated scf accuracy    <    8381.48147628 Ry

     iteration #  4     ecut=    29.40 Ry     beta= 0.05
     Davidson diagonalization with overlap
     ethr =  1.00E-02,  avg # of iterations = 12.4

     negative rho (up, down):  3.050E-04 0.000E+00
 
     Adding external electric field

     Computed dipole along edir(3) : 
        Dipole               -4.9760 Ry au,        -12.6478 Debye
        Dipole field         -0.0094 Ry au, 
 
        Potential amp.        0.8705 Ry
        Total length         46.3494 bohr
 

     total cpu time spent up to now is      412.9 secs

     total energy              =   -2972.99518476 Ry
     estimated scf accuracy    <    2213.08508451 Ry

     iteration #  5     ecut=    29.40 Ry     beta= 0.05
     Davidson diagonalization with overlap
     ethr =  1.00E-02,  avg # of iterations =  3.2

     negative rho (up, down):  3.576E-04 0.000E+00
 
     Adding external electric field

     Computed dipole along edir(3) : 
        Dipole               -8.2434 Ry au,        -20.9525 Debye
        Dipole field         -0.0156 Ry au, 
 
        Potential amp.        1.4421 Ry
        Total length         46.3494 bohr
 

     total cpu time spent up to now is      427.3 secs

     total energy              =   -2935.77949535 Ry
     estimated scf accuracy    <    2095.73810430 Ry

     iteration #  6     ecut=    29.40 Ry     beta= 0.05
     Davidson diagonalization with overlap
     ethr =  1.00E-02,  avg # of iterations = 12.0

     negative rho (up, down):  3.387E-04 0.000E+00
 
     Adding external electric field

     Computed dipole along edir(3) : 
        Dipole               -6.3561 Ry au,        -16.1556 Debye
        Dipole field         -0.0120 Ry au, 
 
        Potential amp.        1.1119 Ry
        Total length         46.3494 bohr
 

     total cpu time spent up to now is      462.3 secs

     total energy              =   -2980.32727973 Ry
     estimated scf accuracy    <     163.20740236 Ry

     iteration #  7     ecut=    29.40 Ry     beta= 0.05
     Davidson diagonalization with overlap
     ethr =  1.00E-02,  avg # of iterations =  1.6

     negative rho (up, down):  3.493E-04 0.000E+00
 
     Adding external electric field

     Computed dipole along edir(3) : 
        Dipole               -5.5300 Ry au,        -14.0559 Debye
        Dipole field         -0.0104 Ry au, 
 
        Potential amp.        0.9674 Ry
        Total length         46.3494 bohr
 

     total cpu time spent up to now is      476.0 secs

     total energy              =   -2980.37762683 Ry
     estimated scf accuracy    <      34.55278974 Ry

     iteration #  8     ecut=    29.40 Ry     beta= 0.05
     Davidson diagonalization with overlap
     ethr =  8.53E-03,  avg # of iterations =  2.6

     negative rho (up, down):  3.611E-04 0.000E+00
 
     Adding external electric field

     Computed dipole along edir(3) : 
        Dipole               -5.2455 Ry au,        -13.3328 Debye
        Dipole field         -0.0099 Ry au, 
 
        Potential amp.        0.9176 Ry
        Total length         46.3494 bohr
 

     total cpu time spent up to now is      489.9 secs

     total energy              =   -2980.06943633 Ry
     estimated scf accuracy    <      19.31134946 Ry

     iteration #  9     ecut=    29.40 Ry     beta= 0.05
     Davidson diagonalization with overlap
     ethr =  4.77E-03,  avg # of iterations =  1.7

     negative rho (up, down):  5.170E-04 0.000E+00
 
     Adding external electric field

     Computed dipole along edir(3) : 
        Dipole               -2.7309 Ry au,         -6.9411 Debye
        Dipole field         -0.0052 Ry au, 
 
        Potential amp.        0.4777 Ry
        Total length         46.3494 bohr
 

     total cpu time spent up to now is      503.3 secs

     total energy              =   -2976.09649998 Ry
     estimated scf accuracy    <      17.71828636 Ry

     iteration # 10     ecut=    29.40 Ry     beta= 0.05
     Davidson diagonalization with overlap
     c_bands:  1 eigenvalues not converged
     ethr =  4.37E-03,  avg # of iterations = 17.6

     negative rho (up, down):  6.893E-04 0.000E+00
 
     Adding external electric field

     Computed dipole along edir(3) : 
        Dipole               -1.5045 Ry au,         -3.8241 Debye
        Dipole field         -0.0028 Ry au, 
 
        Potential amp.        0.2632 Ry
        Total length         46.3494 bohr
 

     total cpu time spent up to now is      531.9 secs

     total energy              =   -2992.16366716 Ry
     estimated scf accuracy    <     749.38879456 Ry

     iteration # 11     ecut=    29.40 Ry     beta= 0.05
     Davidson diagonalization with overlap
     c_bands:  1 eigenvalues not converged
     c_bands:  4 eigenvalues not converged
     ethr =  4.37E-03,  avg # of iterations = 17.2

     negative rho (up, down):  7.945E-04 0.000E+00
 
     Adding external electric field

     Computed dipole along edir(3) : 
        Dipole               -1.6052 Ry au,         -4.0799 Debye
        Dipole field         -0.0030 Ry au, 
 
        Potential amp.        0.2808 Ry
        Total length         46.3494 bohr
 

     total cpu time spent up to now is      555.8 secs

     total energy              =   -2986.16383566 Ry
     estimated scf accuracy    <    1646.67251040 Ry

     iteration # 12     ecut=    29.40 Ry     beta= 0.05
     Davidson diagonalization with overlap
     ethr =  4.37E-03,  avg # of iterations =  1.7

     negative rho (up, down):  7.691E-04 0.000E+00
 
     Adding external electric field

     Computed dipole along edir(3) : 
        Dipole               -1.9300 Ry au,         -4.9056 Debye
        Dipole field         -0.0036 Ry au, 
 
        Potential amp.        0.3376 Ry
        Total length         46.3494 bohr
 

     total cpu time spent up to now is      569.7 secs

     total energy              =   -2981.59236201 Ry
     estimated scf accuracy    <    1142.74298149 Ry

     iteration # 13     ecut=    29.40 Ry     beta= 0.05
     Davidson diagonalization with overlap
     ethr =  4.37E-03,  avg # of iterations =  4.4

     negative rho (up, down):  7.223E-04 0.000E+00
 
     Adding external electric field

     Computed dipole along edir(3) : 
        Dipole               -2.4777 Ry au,         -6.2977 Debye
        Dipole field         -0.0047 Ry au, 
 
        Potential amp.        0.4334 Ry
        Total length         46.3494 bohr
 

     total cpu time spent up to now is      619.5 secs

     total energy              =   -2970.62994553 Ry
     estimated scf accuracy    <     933.03984868 Ry

     iteration # 14     ecut=    29.40 Ry     beta= 0.05
     Davidson diagonalization with overlap
     c_bands:  3 eigenvalues not converged
     c_bands:  3 eigenvalues not converged
     c_bands:  1 eigenvalues not converged
     ethr =  4.37E-03,  avg # of iterations = 18.1

     negative rho (up, down):  7.312E-04 0.000E+00
 
     Adding external electric field

     Computed dipole along edir(3) : 
        Dipole               -2.3100 Ry au,         -5.8714 Debye
        Dipole field         -0.0044 Ry au, 
 
        Potential amp.        0.4041 Ry
        Total length         46.3494 bohr
 

     total cpu time spent up to now is      646.9 secs

     total energy              =   -2978.02826456 Ry
     estimated scf accuracy    <      80.25433712 Ry

     iteration # 15     ecut=    29.40 Ry     beta= 0.05
     Davidson diagonalization with overlap
     ethr =  4.37E-03,  avg # of iterations =  1.1

     negative rho (up, down):  7.591E-04 0.000E+00
 
     Adding external electric field

     Computed dipole along edir(3) : 
        Dipole               -2.5621 Ry au,         -6.5122 Debye
        Dipole field         -0.0048 Ry au, 
 
        Potential amp.        0.4482 Ry
        Total length         46.3494 bohr
 

     total cpu time spent up to now is      660.0 secs

     total energy              =   -2976.81621232 Ry
     estimated scf accuracy    <     158.59091944 Ry

     iteration # 16     ecut=    29.40 Ry     beta= 0.05
     Davidson diagonalization with overlap
     ethr =  4.37E-03,  avg # of iterations =  2.4

     negative rho (up, down):  7.561E-04 0.000E+00
 
     Adding external electric field

     Computed dipole along edir(3) : 
        Dipole               -2.5029 Ry au,         -6.3618 Debye
        Dipole field         -0.0047 Ry au, 
 
        Potential amp.        0.4378 Ry
        Total length         46.3494 bohr
 

     total cpu time spent up to now is      673.9 secs

     total energy              =   -2977.39881552 Ry
     estimated scf accuracy    <      51.57063910 Ry

     iteration # 17     ecut=    29.40 Ry     beta= 0.05
     Davidson diagonalization with overlap
     ethr =  4.37E-03,  avg # of iterations =  1.1

     negative rho (up, down):  6.945E-04 0.000E+00
 
     Adding external electric field

     Computed dipole along edir(3) : 
        Dipole               -3.3687 Ry au,         -8.5624 Debye
        Dipole field         -0.0064 Ry au, 
 
        Potential amp.        0.5893 Ry
        Total length         46.3494 bohr
 

     total cpu time spent up to now is      687.2 secs

     total energy              =   -2974.13206302 Ry
     estimated scf accuracy    <      56.58687961 Ry

     iteration # 18     ecut=    29.40 Ry     beta= 0.05
     Davidson diagonalization with overlap
     c_bands:  5 eigenvalues not converged
     c_bands:  1 eigenvalues not converged
     ethr =  4.37E-03,  avg # of iterations = 17.6

     negative rho (up, down):  8.502E-04 0.000E+00
 
     Adding external electric field

     Computed dipole along edir(3) : 
        Dipole               -2.9727 Ry au,         -7.5558 Debye
        Dipole field         -0.0056 Ry au, 
 
        Potential amp.        0.5200 Ry
        Total length         46.3494 bohr
 

     total cpu time spent up to now is      710.5 secs

     total energy              =   -2977.11752453 Ry
     estimated scf accuracy    <       9.96087607 Ry

     iteration # 19     ecut=    29.40 Ry     beta= 0.05
     Davidson diagonalization with overlap
     ethr =  2.46E-03,  avg # of iterations =  4.1

     negative rho (up, down):  7.728E-04 0.000E+00
 
     Adding external electric field

     Computed dipole along edir(3) : 
        Dipole               -3.1044 Ry au,         -7.8905 Debye
        Dipole field         -0.0059 Ry au, 
 
        Potential amp.        0.5431 Ry
        Total length         46.3494 bohr
 

     total cpu time spent up to now is      725.3 secs

     total energy              =   -2976.86542473 Ry
     estimated scf accuracy    <      81.46412514 Ry

     iteration # 20     ecut=    29.40 Ry     beta= 0.05
     Davidson diagonalization with overlap
     ethr =  2.46E-03,  avg # of iterations =  1.4

     negative rho (up, down):  8.286E-04 0.000E+00
 
     Adding external electric field

     Computed dipole along edir(3) : 
        Dipole               -3.1489 Ry au,         -8.0038 Debye
        Dipole field         -0.0059 Ry au, 
 
        Potential amp.        0.5509 Ry
        Total length         46.3494 bohr
 

     total cpu time spent up to now is      738.8 secs

     total energy              =   -2977.34522571 Ry
     estimated scf accuracy    <      18.05810349 Ry

     iteration # 21     ecut=    29.40 Ry     beta= 0.05
     Davidson diagonalization with overlap
     ethr =  2.46E-03,  avg # of iterations =  3.5

     negative rho (up, down):  7.987E-04 0.000E+00
 
     Adding external electric field

     Computed dipole along edir(3) : 
        Dipole               -3.2586 Ry au,         -8.2825 Debye
        Dipole field         -0.0061 Ry au, 
 
        Potential amp.        0.5700 Ry
        Total length         46.3494 bohr
 

     total cpu time spent up to now is      753.0 secs

     total energy              =   -2977.62791929 Ry
     estimated scf accuracy    <     109.57079025 Ry

     iteration # 22     ecut=    29.40 Ry     beta= 0.05
     Davidson diagonalization with overlap
     ethr =  2.46E-03,  avg # of iterations =  2.0

     negative rho (up, down):  7.845E-04 0.000E+00
 
     Adding external electric field

     Computed dipole along edir(3) : 
        Dipole               -3.3497 Ry au,         -8.5142 Debye
        Dipole field         -0.0063 Ry au, 
 
        Potential amp.        0.5860 Ry
        Total length         46.3494 bohr
 

     total cpu time spent up to now is      767.6 secs

     total energy              =   -2977.75872812 Ry
     estimated scf accuracy    <      87.76074555 Ry

     iteration # 23     ecut=    29.40 Ry     beta= 0.05
     Davidson diagonalization with overlap
     ethr =  2.46E-03,  avg # of iterations =  1.1

     negative rho (up, down):  7.754E-04 0.000E+00
 
     Adding external electric field

     Computed dipole along edir(3) : 
        Dipole               -3.2163 Ry au,         -8.1751 Debye
        Dipole field         -0.0061 Ry au, 
 
        Potential amp.        0.5627 Ry
        Total length         46.3494 bohr
 

     total cpu time spent up to now is      780.7 secs

     total energy              =   -2977.04024214 Ry
     estimated scf accuracy    <      83.57691677 Ry

     iteration # 24     ecut=    29.40 Ry     beta= 0.05
     Davidson diagonalization with overlap
     ethr =  2.46E-03,  avg # of iterations =  1.1

     negative rho (up, down):  8.935E-04 0.000E+00
 
     Adding external electric field

     Computed dipole along edir(3) : 
        Dipole               -2.6037 Ry au,         -6.6180 Debye
        Dipole field         -0.0049 Ry au, 
 
        Potential amp.        0.4555 Ry
        Total length         46.3494 bohr
 

     total cpu time spent up to now is      793.8 secs

     total energy              =   -2976.74440726 Ry
     estimated scf accuracy    <      12.20879456 Ry

     iteration # 25     ecut=    29.40 Ry     beta= 0.05
     Davidson diagonalization with overlap
     ethr =  2.46E-03,  avg # of iterations =  1.0

     negative rho (up, down):  1.056E-03 0.000E+00
 
     Adding external electric field

     Computed dipole along edir(3) : 
        Dipole               -1.8497 Ry au,         -4.7015 Debye
        Dipole field         -0.0035 Ry au, 
 
        Potential amp.        0.3236 Ry
        Total length         46.3494 bohr
 

     total cpu time spent up to now is      806.7 secs

     total energy              =   -2976.34226314 Ry
     estimated scf accuracy    <       9.97172023 Ry

     iteration # 26     ecut=    29.40 Ry     beta= 0.05
     Davidson diagonalization with overlap
     ethr =  2.46E-03,  avg # of iterations =  2.0

     negative rho (up, down):  1.122E-03 0.000E+00
 
     Adding external electric field

     Computed dipole along edir(3) : 
        Dipole               -1.7475 Ry au,         -4.4416 Debye
        Dipole field         -0.0033 Ry au, 
 
        Potential amp.        0.3057 Ry
        Total length         46.3494 bohr
 

     total cpu time spent up to now is      820.7 secs

     total energy              =   -2976.53356309 Ry
     estimated scf accuracy    <       2.84401773 Ry

     iteration # 27     ecut=    29.40 Ry     beta= 0.05
     Davidson diagonalization with overlap
     ethr =  7.02E-04,  avg # of iterations =  3.1

     negative rho (up, down):  1.227E-03 0.000E+00
 
     Adding external electric field

     Computed dipole along edir(3) : 
        Dipole               -1.4213 Ry au,         -3.6126 Debye
        Dipole field         -0.0027 Ry au, 
 
        Potential amp.        0.2486 Ry
        Total length         46.3494 bohr
 

     total cpu time spent up to now is      843.2 secs

     total energy              =   -2976.56021276 Ry
     estimated scf accuracy    <       2.82167367 Ry

     iteration # 28     ecut=    29.40 Ry     beta= 0.05
     Davidson diagonalization with overlap
     ethr =  6.97E-04,  avg # of iterations =  2.0

     negative rho (up, down):  1.313E-03 0.000E+00
 
     Adding external electric field

     Computed dipole along edir(3) : 
        Dipole               -1.1307 Ry au,         -2.8739 Debye
        Dipole field         -0.0021 Ry au, 
 
        Potential amp.        0.1978 Ry
        Total length         46.3494 bohr
 

     total cpu time spent up to now is      856.8 secs

     total energy              =   -2976.49711728 Ry
     estimated scf accuracy    <       1.59437765 Ry

     iteration # 29     ecut=    29.40 Ry     beta= 0.05
     Davidson diagonalization with overlap
     ethr =  3.94E-04,  avg # of iterations = 13.3

     negative rho (up, down):  1.283E-03 0.000E+00
 
     Adding external electric field

     Computed dipole along edir(3) : 
        Dipole               -1.1688 Ry au,         -2.9708 Debye
        Dipole field         -0.0022 Ry au, 
 
        Potential amp.        0.2045 Ry
        Total length         46.3494 bohr
 

     total cpu time spent up to now is      876.2 secs

     total energy              =   -2976.54918683 Ry
     estimated scf accuracy    <       0.76686273 Ry

     iteration # 30     ecut=    29.40 Ry     beta= 0.05
     Davidson diagonalization with overlap
     ethr =  1.89E-04,  avg # of iterations =  3.5

     negative rho (up, down):  1.339E-03 0.000E+00
 
     Adding external electric field

     Computed dipole along edir(3) : 
        Dipole               -0.9697 Ry au,         -2.4648 Debye
        Dipole field         -0.0018 Ry au, 
 
        Potential amp.        0.1696 Ry
        Total length         46.3494 bohr
 

     total cpu time spent up to now is      891.9 secs

     total energy              =   -2976.52799398 Ry
     estimated scf accuracy    <       0.81513539 Ry

     iteration # 31     ecut=    29.40 Ry     beta= 0.05
     Davidson diagonalization with overlap
     ethr =  1.89E-04,  avg # of iterations =  2.0

     negative rho (up, down):  2.195E-03 0.000E+00
 
     Adding external electric field

     Computed dipole along edir(3) : 
        Dipole                0.2238 Ry au,          0.5689 Debye
        Dipole field          0.0004 Ry au, 
 
        Potential amp.       -0.0392 Ry
        Total length         46.3494 bohr
 

     total cpu time spent up to now is      907.1 secs

     total energy              =   -2976.42916345 Ry
     estimated scf accuracy    <       0.78952217 Ry

     iteration # 32     ecut=    29.40 Ry     beta= 0.05
     Davidson diagonalization with overlap
     c_bands:  1 eigenvalues not converged
     c_bands:  1 eigenvalues not converged
     c_bands:  3 eigenvalues not converged
     c_bands:  1 eigenvalues not converged
     ethr =  1.89E-04,  avg # of iterations = 13.0

     negative rho (up, down):  2.730E-03 0.000E+00
 
     Adding external electric field

     Computed dipole along edir(3) : 
        Dipole                0.6976 Ry au,          1.7731 Debye
        Dipole field          0.0013 Ry au, 
 
        Potential amp.       -0.1220 Ry
        Total length         46.3494 bohr
 

     total cpu time spent up to now is      926.9 secs

     total energy              =   -2976.50188200 Ry
     estimated scf accuracy    <       0.45693379 Ry

     iteration # 33     ecut=    29.40 Ry     beta= 0.05
     Davidson diagonalization with overlap
     ethr =  1.13E-04,  avg # of iterations =  5.7

     negative rho (up, down):  2.929E-03 0.000E+00
 
     Adding external electric field

     Computed dipole along edir(3) : 
        Dipole                0.9302 Ry au,          2.3643 Debye
        Dipole field          0.0018 Ry au, 
 
        Potential amp.       -0.1627 Ry
        Total length         46.3494 bohr
 

     total cpu time spent up to now is      942.6 secs

     total energy              =   -2976.50287321 Ry
     estimated scf accuracy    <       0.43938582 Ry

     iteration # 34     ecut=    29.40 Ry     beta= 0.05
     Davidson diagonalization with overlap
     c_bands:  1 eigenvalues not converged
     c_bands:  4 eigenvalues not converged
     c_bands:  4 eigenvalues not converged
     c_bands:  4 eigenvalues not converged
     c_bands:  4 eigenvalues not converged
     c_bands:  3 eigenvalues not converged
     ethr =  1.08E-04,  avg # of iterations = 15.7

     negative rho (up, down):  2.802E-03 0.000E+00
 
     Adding external electric field

     Computed dipole along edir(3) : 
        Dipole                0.8777 Ry au,          2.2309 Debye
        Dipole field          0.0017 Ry au, 
 
        Potential amp.       -0.1535 Ry
        Total length         46.3494 bohr
 

     total cpu time spent up to now is      963.1 secs

     total energy              =   -2976.50865170 Ry
     estimated scf accuracy    <       0.45157642 Ry

     iteration # 35     ecut=    29.40 Ry     beta= 0.05
     Davidson diagonalization with overlap
     ethr =  1.08E-04,  avg # of iterations =  2.5

     negative rho (up, down):  3.587E-03 0.000E+00
 
     Adding external electric field

     Computed dipole along edir(3) : 
        Dipole                1.3073 Ry au,          3.3227 Debye
        Dipole field          0.0025 Ry au, 
 
        Potential amp.       -0.2287 Ry
        Total length         46.3494 bohr
 

     total cpu time spent up to now is      977.3 secs

     total energy              =   -2976.52008409 Ry
     estimated scf accuracy    <       0.44228932 Ry

     iteration # 36     ecut=    29.40 Ry     beta= 0.05
     Davidson diagonalization with overlap
     c_bands:  4 eigenvalues not converged
     c_bands:  4 eigenvalues not converged
     c_bands:  4 eigenvalues not converged
     c_bands:  3 eigenvalues not converged
     c_bands:  1 eigenvalues not converged
     c_bands:  2 eigenvalues not converged
     ethr =  1.08E-04,  avg # of iterations = 19.5

     negative rho (up, down):  2.836E-03 0.000E+00
 
     Adding external electric field

     Computed dipole along edir(3) : 
        Dipole                0.8463 Ry au,          2.1510 Debye
        Dipole field          0.0016 Ry au, 
 
        Potential amp.       -0.1480 Ry
        Total length         46.3494 bohr
 

     total cpu time spent up to now is     1000.6 secs

     total energy              =   -2976.48544627 Ry
     estimated scf accuracy    <       0.55063552 Ry

     iteration # 37     ecut=    29.40 Ry     beta= 0.05
     Davidson diagonalization with overlap
     ethr =  1.08E-04,  avg # of iterations =  3.8

     negative rho (up, down):  2.797E-03 0.000E+00
 
     Adding external electric field

     Computed dipole along edir(3) : 
        Dipole                0.8284 Ry au,          2.1055 Debye
        Dipole field          0.0016 Ry au, 
 
        Potential amp.       -0.1449 Ry
        Total length         46.3494 bohr
 

     total cpu time spent up to now is     1015.3 secs

     total energy              =   -2976.48960144 Ry
     estimated scf accuracy    <       0.41469498 Ry

     iteration # 38     ecut=    29.40 Ry     beta= 0.05
     Davidson diagonalization with overlap
     ethr =  1.02E-04,  avg # of iterations =  1.0

     negative rho (up, down):  2.816E-03 0.000E+00
 
     Adding external electric field

     Computed dipole along edir(3) : 
        Dipole                0.8671 Ry au,          2.2040 Debye
        Dipole field          0.0016 Ry au, 
 
        Potential amp.       -0.1517 Ry
        Total length         46.3494 bohr
 

     total cpu time spent up to now is     1041.3 secs

     total energy              =   -2976.48148943 Ry
     estimated scf accuracy    <       0.37646633 Ry

     iteration # 39     ecut=    29.40 Ry     beta= 0.05
     Davidson diagonalization with overlap
     ethr =  9.30E-05,  avg # of iterations =  2.9

     negative rho (up, down):  3.063E-03 0.000E+00
 
     Adding external electric field

     Computed dipole along edir(3) : 
        Dipole                0.9497 Ry au,          2.4138 Debye
        Dipole field          0.0018 Ry au, 
 
        Potential amp.       -0.1661 Ry
        Total length         46.3494 bohr
 

     total cpu time spent up to now is     1076.6 secs

     total energy              =   -2976.47448531 Ry
     estimated scf accuracy    <       0.33842882 Ry

     iteration # 40     ecut=    29.40 Ry     beta= 0.05
     Davidson diagonalization with overlap
     c_bands:  5 eigenvalues not converged
     c_bands:  1 eigenvalues not converged
     c_bands:  3 eigenvalues not converged
     c_bands:  4 eigenvalues not converged
     ethr =  8.36E-05,  avg # of iterations = 14.6

     negative rho (up, down):  3.087E-03 0.000E+00
 
     Adding external electric field

     Computed dipole along edir(3) : 
        Dipole                0.6821 Ry au,          1.7337 Debye
        Dipole field          0.0013 Ry au, 
 
        Potential amp.       -0.1193 Ry
        Total length         46.3494 bohr
 

     total cpu time spent up to now is     1115.2 secs

     total energy              =   -2976.43149872 Ry
     estimated scf accuracy    <       0.55947293 Ry

     iteration # 41     ecut=    29.40 Ry     beta= 0.05
     Davidson diagonalization with overlap
     c_bands:  2 eigenvalues not converged
     c_bands:  2 eigenvalues not converged
     c_bands:  2 eigenvalues not converged
     c_bands:  4 eigenvalues not converged
     ethr =  8.36E-05,  avg # of iterations = 19.8

     negative rho (up, down):  3.046E-03 0.000E+00
 
     Adding external electric field

     Computed dipole along edir(3) : 
        Dipole                0.7576 Ry au,          1.9256 Debye
        Dipole field          0.0014 Ry au, 
 
        Potential amp.       -0.1325 Ry
        Total length         46.3494 bohr
 

     total cpu time spent up to now is     1140.4 secs

     total energy              =   -2976.46087418 Ry
     estimated scf accuracy    <       0.13091911 Ry

     iteration # 42     ecut=    29.40 Ry     beta= 0.05
     Davidson diagonalization with overlap
     c_bands:  1 eigenvalues not converged
     ethr =  3.23E-05,  avg # of iterations =  9.7

     negative rho (up, down):  3.114E-03 0.000E+00
 
     Adding external electric field

     Computed dipole along edir(3) : 
        Dipole                0.7670 Ry au,          1.9495 Debye
        Dipole field          0.0014 Ry au, 
 
        Potential amp.       -0.1342 Ry
        Total length         46.3494 bohr
 

     total cpu time spent up to now is     1184.5 secs

     total energy              =   -2976.46546790 Ry
     estimated scf accuracy    <       0.07161799 Ry

     iteration # 43     ecut=    29.40 Ry     beta= 0.05
     Davidson diagonalization with overlap
     ethr =  1.77E-05,  avg # of iterations =  3.4

     negative rho (up, down):  3.157E-03 0.000E+00
 
     Adding external electric field

     Computed dipole along edir(3) : 
        Dipole                0.7830 Ry au,          1.9903 Debye
        Dipole field          0.0015 Ry au, 
 
        Potential amp.       -0.1370 Ry
        Total length         46.3494 bohr
 

     total cpu time spent up to now is     1199.1 secs

     total energy              =   -2976.46200516 Ry
     estimated scf accuracy    <       0.05936449 Ry

     iteration # 44     ecut=    29.40 Ry     beta= 0.05
     Davidson diagonalization with overlap
     c_bands:  1 eigenvalues not converged
     ethr =  1.47E-05,  avg # of iterations = 12.2

     negative rho (up, down):  3.179E-03 0.000E+00
 
     Adding external electric field

     Computed dipole along edir(3) : 
        Dipole                0.7453 Ry au,          1.8943 Debye
        Dipole field          0.0014 Ry au, 
 
        Potential amp.       -0.1304 Ry
        Total length         46.3494 bohr
 

     total cpu time spent up to now is     1217.8 secs

     total energy              =   -2976.46007706 Ry
     estimated scf accuracy    <       0.04997159 Ry

     iteration # 45     ecut=    29.40 Ry     beta= 0.05
     Davidson diagonalization with overlap
     c_bands:  2 eigenvalues not converged
     c_bands:  1 eigenvalues not converged
     ethr =  1.23E-05,  avg # of iterations = 12.0

     negative rho (up, down):  3.492E-03 0.000E+00
 
     Adding external electric field

     Computed dipole along edir(3) : 
        Dipole                0.8545 Ry au,          2.1719 Debye
        Dipole field          0.0016 Ry au, 
 
        Potential amp.       -0.1495 Ry
        Total length         46.3494 bohr
 

     total cpu time spent up to now is     1237.9 secs

     total energy              =   -2976.45969854 Ry
     estimated scf accuracy    <       0.04505781 Ry

     iteration # 46     ecut=    29.40 Ry     beta= 0.05
     Davidson diagonalization with overlap
     c_bands:  1 eigenvalues not converged
     c_bands:  2 eigenvalues not converged
     ethr =  1.11E-05,  avg # of iterations = 11.4

     negative rho (up, down):  4.271E-03 0.000E+00
 
     Adding external electric field

     Computed dipole along edir(3) : 
        Dipole                0.9762 Ry au,          2.4812 Debye
        Dipole field          0.0018 Ry au, 
 
        Potential amp.       -0.1708 Ry
        Total length         46.3494 bohr
 

     total cpu time spent up to now is     1256.0 secs

     total energy              =   -2976.46132563 Ry
     estimated scf accuracy    <       0.01840852 Ry

     iteration # 47     ecut=    29.40 Ry     beta= 0.05
     Davidson diagonalization with overlap
     c_bands:  1 eigenvalues not converged
     c_bands:  1 eigenvalues not converged
     c_bands:  1 eigenvalues not converged
     c_bands:  1 eigenvalues not converged
     c_bands:  1 eigenvalues not converged
     c_bands:  1 eigenvalues not converged
     ethr =  4.55E-06,  avg # of iterations = 18.5

     negative rho (up, down):  4.255E-03 0.000E+00
 
     Adding external electric field

     Computed dipole along edir(3) : 
        Dipole                0.9742 Ry au,          2.4762 Debye
        Dipole field          0.0018 Ry au, 
 
        Potential amp.       -0.1704 Ry
        Total length         46.3494 bohr
 

     total cpu time spent up to now is     1283.7 secs

     total energy              =   -2976.46197079 Ry
     estimated scf accuracy    <       0.02115734 Ry

     iteration # 48     ecut=    29.40 Ry     beta= 0.05
     Davidson diagonalization with overlap
     c_bands:  2 eigenvalues not converged
     c_bands:  1 eigenvalues not converged
     ethr =  4.55E-06,  avg # of iterations =  9.8

     negative rho (up, down):  4.974E-03 0.000E+00
 
     Adding external electric field

     Computed dipole along edir(3) : 
        Dipole                1.0377 Ry au,          2.6377 Debye
        Dipole field          0.0020 Ry au, 
 
        Potential amp.       -0.1815 Ry
        Total length         46.3494 bohr
 

     total cpu time spent up to now is     1300.8 secs

     total energy              =   -2976.46049045 Ry
     estimated scf accuracy    <       0.01555423 Ry

     iteration # 49     ecut=    29.40 Ry     beta= 0.05
     Davidson diagonalization with overlap
     c_bands:  1 eigenvalues not converged
     c_bands:  3 eigenvalues not converged
     c_bands:  2 eigenvalues not converged
     c_bands:  1 eigenvalues not converged
     c_bands:  1 eigenvalues not converged
     ethr =  3.84E-06,  avg # of iterations = 18.8

     negative rho (up, down):  7.414E-03 0.000E+00
 
     Adding external electric field

     Computed dipole along edir(3) : 
        Dipole                1.1367 Ry au,          2.8891 Debye
        Dipole field          0.0021 Ry au, 
 
        Potential amp.       -0.1988 Ry
        Total length         46.3494 bohr
 

     total cpu time spent up to now is     1330.6 secs

     total energy              =   -2976.45988430 Ry
     estimated scf accuracy    <       0.02058197 Ry

     iteration # 50     ecut=    29.40 Ry     beta= 0.05
     Davidson diagonalization with overlap
     c_bands:  1 eigenvalues not converged
     ethr =  3.84E-06,  avg # of iterations = 15.7

     negative rho (up, down):  8.586E-03 0.000E+00
 
     Adding external electric field

     Computed dipole along edir(3) : 
        Dipole                1.1876 Ry au,          3.0187 Debye
        Dipole field          0.0022 Ry au, 
 
        Potential amp.       -0.2078 Ry
        Total length         46.3494 bohr
 

     total cpu time spent up to now is     1359.4 secs

     total energy              =   -2976.46335616 Ry
     estimated scf accuracy    <       0.01495054 Ry

     iteration # 51     ecut=    29.40 Ry     beta= 0.05
     Davidson diagonalization with overlap
     c_bands:  1 eigenvalues not converged
     ethr =  3.69E-06,  avg # of iterations =  3.5

     negative rho (up, down):  9.334E-03 0.000E+00
 
     Adding external electric field

     Computed dipole along edir(3) : 
        Dipole                1.2049 Ry au,          3.0625 Debye
        Dipole field          0.0023 Ry au, 
 
        Potential amp.       -0.2108 Ry
        Total length         46.3494 bohr
 

     total cpu time spent up to now is     1373.9 secs

     total energy              =   -2976.46274163 Ry
     estimated scf accuracy    <       0.00581793 Ry

     iteration # 52     ecut=    29.40 Ry     beta= 0.05
     Davidson diagonalization with overlap
     c_bands:  1 eigenvalues not converged
     c_bands:  1 eigenvalues not converged
     c_bands:  2 eigenvalues not converged
     c_bands:  1 eigenvalues not converged
     ethr =  1.44E-06,  avg # of iterations = 18.1

     negative rho (up, down):  1.168E-02 0.000E+00
 
     Adding external electric field

     Computed dipole along edir(3) : 
        Dipole                1.2174 Ry au,          3.0943 Debye
        Dipole field          0.0023 Ry au, 
 
        Potential amp.       -0.2130 Ry
        Total length         46.3494 bohr
 

     total cpu time spent up to now is     1403.7 secs

     total energy              =   -2976.46362762 Ry
     estimated scf accuracy    <       0.00323167 Ry

     iteration # 53     ecut=    29.40 Ry     beta= 0.05
     Davidson diagonalization with overlap
     c_bands:  2 eigenvalues not converged
     c_bands:  3 eigenvalues not converged
     ethr =  7.98E-07,  avg # of iterations = 15.0

     negative rho (up, down):  1.205E-02 0.000E+00
 
     Adding external electric field

     Computed dipole along edir(3) : 
        Dipole                1.2303 Ry au,          3.1272 Debye
        Dipole field          0.0023 Ry au, 
 
        Potential amp.       -0.2152 Ry
        Total length         46.3494 bohr
 

     total cpu time spent up to now is     1424.3 secs

     total energy              =   -2976.46349128 Ry
     estimated scf accuracy    <       0.00299153 Ry

     iteration # 54     ecut=    29.40 Ry     beta= 0.05
     Davidson diagonalization with overlap
     c_bands:  2 eigenvalues not converged
     ethr =  7.39E-07,  avg # of iterations = 13.7

     negative rho (up, down):  1.231E-02 0.000E+00
 
     Adding external electric field

     Computed dipole along edir(3) : 
        Dipole                1.2216 Ry au,          3.1050 Debye
        Dipole field          0.0023 Ry au, 
 
        Potential amp.       -0.2137 Ry
        Total length         46.3494 bohr
 

     total cpu time spent up to now is     1443.9 secs

     total energy              =   -2976.46369587 Ry
     estimated scf accuracy    <       0.00114763 Ry

     iteration # 55     ecut=    29.40 Ry     beta= 0.05
     Davidson diagonalization with overlap
     ethr =  2.83E-07,  avg # of iterations = 10.7

     negative rho (up, down):  1.269E-02 0.000E+00
 
     Adding external electric field

     Computed dipole along edir(3) : 
        Dipole                1.2230 Ry au,          3.1085 Debye
        Dipole field          0.0023 Ry au, 
 
        Potential amp.       -0.2139 Ry
        Total length         46.3494 bohr
 

     total cpu time spent up to now is     1463.9 secs

     total energy              =   -2976.46377617 Ry
     estimated scf accuracy    <       0.00044844 Ry

     iteration # 56     ecut=    29.40 Ry     beta= 0.05
     Davidson diagonalization with overlap
     ethr =  1.11E-07,  avg # of iterations = 10.4

     negative rho (up, down):  1.329E-02 0.000E+00
 
     Adding external electric field

     Computed dipole along edir(3) : 
        Dipole                1.2280 Ry au,          3.1212 Debye
        Dipole field          0.0023 Ry au, 
 
        Potential amp.       -0.2148 Ry
        Total length         46.3494 bohr
 

     total cpu time spent up to now is     1485.9 secs

     total energy              =   -2976.46383068 Ry
     estimated scf accuracy    <       0.00021142 Ry

     iteration # 57     ecut=    29.40 Ry     beta= 0.05
     Davidson diagonalization with overlap
     ethr =  5.22E-08,  avg # of iterations =  8.0

     negative rho (up, down):  1.370E-02 0.000E+00
 
     Adding external electric field

     Computed dipole along edir(3) : 
        Dipole                1.2271 Ry au,          3.1190 Debye
        Dipole field          0.0023 Ry au, 
 
        Potential amp.       -0.2147 Ry
        Total length         46.3494 bohr
 

     total cpu time spent up to now is     1504.4 secs

     total energy              =   -2976.46385865 Ry
     estimated scf accuracy    <       0.00012372 Ry

     iteration # 58     ecut=    29.40 Ry     beta= 0.05
     Davidson diagonalization with overlap
     ethr =  3.05E-08,  avg # of iterations = 11.1

     negative rho (up, down):  1.374E-02 0.000E+00
 
     Adding external electric field

     Computed dipole along edir(3) : 
        Dipole                1.2267 Ry au,          3.1179 Debye
        Dipole field          0.0023 Ry au, 
 
        Potential amp.       -0.2146 Ry
        Total length         46.3494 bohr
 

     total cpu time spent up to now is     1525.2 secs

     total energy              =   -2976.46387528 Ry
     estimated scf accuracy    <       0.00007987 Ry

     iteration # 59     ecut=    29.40 Ry     beta= 0.05
     Davidson diagonalization with overlap
     ethr =  1.97E-08,  avg # of iterations = 12.3

     negative rho (up, down):  1.405E-02 0.000E+00
 
     Adding external electric field

     Computed dipole along edir(3) : 
        Dipole                1.2283 Ry au,          3.1220 Debye
        Dipole field          0.0023 Ry au, 
 
        Potential amp.       -0.2149 Ry
        Total length         46.3494 bohr
 

     total cpu time spent up to now is     1581.1 secs

     total energy              =   -2976.46388933 Ry
     estimated scf accuracy    <       0.00011616 Ry

     iteration # 60     ecut=    29.40 Ry     beta= 0.05
     Davidson diagonalization with overlap
     ethr =  1.97E-08,  avg # of iterations = 10.7

     negative rho (up, down):  1.423E-02 0.000E+00
 
     Adding external electric field

     Computed dipole along edir(3) : 
        Dipole                1.2287 Ry au,          3.1231 Debye
        Dipole field          0.0023 Ry au, 
 
        Potential amp.       -0.2149 Ry
        Total length         46.3494 bohr
 

     total cpu time spent up to now is     1599.3 secs

     total energy              =   -2976.46390167 Ry
     estimated scf accuracy    <       0.00003406 Ry

     iteration # 61     ecut=    29.40 Ry     beta= 0.05
     Davidson diagonalization with overlap
     ethr =  8.41E-09,  avg # of iterations = 10.1

     negative rho (up, down):  1.438E-02 0.000E+00
 
     Adding external electric field

     Computed dipole along edir(3) : 
        Dipole                1.2302 Ry au,          3.1268 Debye
        Dipole field          0.0023 Ry au, 
 
        Potential amp.       -0.2152 Ry
        Total length         46.3494 bohr
 

     total cpu time spent up to now is     1620.7 secs

     total energy              =   -2976.46391186 Ry
     estimated scf accuracy    <       0.00003004 Ry

     iteration # 62     ecut=    29.40 Ry     beta= 0.05
     Davidson diagonalization with overlap
     ethr =  7.42E-09,  avg # of iterations =  8.2

     negative rho (up, down):  1.449E-02 0.000E+00
 
     Adding external electric field

     Computed dipole along edir(3) : 
        Dipole                1.2308 Ry au,          3.1283 Debye
        Dipole field          0.0023 Ry au, 
 
        Potential amp.       -0.2153 Ry
        Total length         46.3494 bohr
 

     total cpu time spent up to now is     1637.7 secs

     total energy              =   -2976.46391975 Ry
     estimated scf accuracy    <       0.00001169 Ry

     iteration # 63     ecut=    29.40 Ry     beta= 0.05
     Davidson diagonalization with overlap
     ethr =  2.89E-09,  avg # of iterations = 11.5

     negative rho (up, down):  1.449E-02 0.000E+00
 
     Adding external electric field

     Computed dipole along edir(3) : 
        Dipole                1.2310 Ry au,          3.1289 Debye
        Dipole field          0.0023 Ry au, 
 
        Potential amp.       -0.2153 Ry
        Total length         46.3494 bohr
 

     total cpu time spent up to now is     1662.8 secs

     total energy              =   -2976.46392479 Ry
     estimated scf accuracy    <       0.00001845 Ry

     iteration # 64     ecut=    29.40 Ry     beta= 0.05
     Davidson diagonalization with overlap
     ethr =  2.89E-09,  avg # of iterations =  9.2

     negative rho (up, down):  1.455E-02 0.000E+00
 
     Adding external electric field

     Computed dipole along edir(3) : 
        Dipole                1.2310 Ry au,          3.1289 Debye
        Dipole field          0.0023 Ry au, 
 
        Potential amp.       -0.2153 Ry
        Total length         46.3494 bohr
 

     total cpu time spent up to now is     1681.5 secs

     total energy              =   -2976.46393035 Ry
     estimated scf accuracy    <       0.00000606 Ry

     iteration # 65     ecut=    29.40 Ry     beta= 0.05
     Davidson diagonalization with overlap
     ethr =  1.50E-09,  avg # of iterations = 12.2

     negative rho (up, down):  1.448E-02 0.000E+00
 
     Adding external electric field

     Computed dipole along edir(3) : 
        Dipole                1.2298 Ry au,          3.1257 Debye
        Dipole field          0.0023 Ry au, 
 
        Potential amp.       -0.2151 Ry
        Total length         46.3494 bohr
 

     total cpu time spent up to now is     1706.9 secs

     total energy              =   -2976.46393430 Ry
     estimated scf accuracy    <       0.00000907 Ry

     iteration # 66     ecut=    29.40 Ry     beta= 0.05
     Davidson diagonalization with overlap
     ethr =  1.50E-09,  avg # of iterations =  6.9

     negative rho (up, down):  1.453E-02 0.000E+00
 
     Adding external electric field

     Computed dipole along edir(3) : 
        Dipole                1.2302 Ry au,          3.1269 Debye
        Dipole field          0.0023 Ry au, 
 
        Potential amp.       -0.2152 Ry
        Total length         46.3494 bohr
 

     total cpu time spent up to now is     1725.8 secs

     total energy              =   -2976.46393875 Ry
     estimated scf accuracy    <       0.00000282 Ry

     iteration # 67     ecut=    29.40 Ry     beta= 0.05
     Davidson diagonalization with overlap
     ethr =  6.97E-10,  avg # of iterations =  9.5

     negative rho (up, down):  1.450E-02 0.000E+00
 
     Adding external electric field

     Computed dipole along edir(3) : 
        Dipole                1.2302 Ry au,          3.1268 Debye
        Dipole field          0.0023 Ry au, 
 
        Potential amp.       -0.2152 Ry
        Total length         46.3494 bohr
 

     total cpu time spent up to now is     1749.3 secs

     total energy              =   -2976.46394229 Ry
     estimated scf accuracy    <       0.00000321 Ry

     iteration # 68     ecut=    29.40 Ry     beta= 0.05
     Davidson diagonalization with overlap
     ethr =  6.97E-10,  avg # of iterations =  5.9

     negative rho (up, down):  1.446E-02 0.000E+00
 
     Adding external electric field

     Computed dipole along edir(3) : 
        Dipole                1.2297 Ry au,          3.1255 Debye
        Dipole field          0.0023 Ry au, 
 
        Potential amp.       -0.2151 Ry
        Total length         46.3494 bohr
 

     total cpu time spent up to now is     1786.8 secs

     total energy              =   -2976.46394545 Ry
     estimated scf accuracy    <       0.00000124 Ry

     iteration # 69     ecut=    29.40 Ry     beta= 0.05
     Davidson diagonalization with overlap
     ethr =  3.06E-10,  avg # of iterations =  8.3

     negative rho (up, down):  1.442E-02 0.000E+00
 
     Adding external electric field

     Computed dipole along edir(3) : 
        Dipole                1.2292 Ry au,          3.1243 Debye
        Dipole field          0.0023 Ry au, 
 
        Potential amp.       -0.2150 Ry
        Total length         46.3494 bohr
 

     total cpu time spent up to now is     1807.3 secs

     total energy              =   -2976.46394824 Ry
     estimated scf accuracy    <       0.00000092 Ry

     iteration # 70     ecut=    29.40 Ry     beta= 0.05
     Davidson diagonalization with overlap
     ethr =  2.28E-10,  avg # of iterations =  5.9

     negative rho (up, down):  1.439E-02 0.000E+00
 
     Adding external electric field

     Computed dipole along edir(3) : 
        Dipole                1.2288 Ry au,          3.1234 Debye
        Dipole field          0.0023 Ry au, 
 
        Potential amp.       -0.2150 Ry
        Total length         46.3494 bohr
 

     total cpu time spent up to now is     1896.5 secs

     total energy              =   -2976.46395083 Ry
     estimated scf accuracy    <       0.00000036 Ry

     iteration # 71     ecut=    29.40 Ry     beta= 0.05
     Davidson diagonalization with overlap
     ethr =  8.94E-11,  avg # of iterations = 10.2

     negative rho (up, down):  1.439E-02 0.000E+00
 
     Adding external electric field

     Computed dipole along edir(3) : 
        Dipole                1.2287 Ry au,          3.1230 Debye
        Dipole field          0.0023 Ry au, 
 
        Potential amp.       -0.2149 Ry
        Total length         46.3494 bohr
 

     total cpu time spent up to now is     1919.0 secs

     total energy              =   -2976.46395305 Ry
     estimated scf accuracy    <       0.00000053 Ry

     iteration # 72     ecut=    29.40 Ry     beta= 0.05
     Davidson diagonalization with overlap
     ethr =  8.94E-11,  avg # of iterations =  8.8

     negative rho (up, down):  1.439E-02 0.000E+00
 
     Adding external electric field

     Computed dipole along edir(3) : 
        Dipole                1.2285 Ry au,          3.1227 Debye
        Dipole field          0.0023 Ry au, 
 
        Potential amp.       -0.2149 Ry
        Total length         46.3494 bohr
 

     total cpu time spent up to now is     1943.0 secs

     total energy              =   -2976.46395521 Ry
     estimated scf accuracy    <       0.00000017 Ry

     iteration # 73     ecut=    29.40 Ry     beta= 0.05
     Davidson diagonalization with overlap
     ethr =  4.17E-11,  avg # of iterations =  9.5

     negative rho (up, down):  1.442E-02 0.000E+00
 
     Adding external electric field

     Computed dipole along edir(3) : 
        Dipole                1.2278 Ry au,          3.1207 Debye
        Dipole field          0.0023 Ry au, 
 
        Potential amp.       -0.2148 Ry
        Total length         46.3494 bohr
 

     total cpu time spent up to now is     1961.9 secs

     End of self-consistent calculation

          k = 0.0000 0.0000 0.0000 ( 18029 PWs)   bands (ev):

   -55.4439 -55.3557 -55.3217 -55.2170 -55.2141 -55.1864 -55.1843 -55.1766
   -55.1523 -55.1294 -55.0863 -54.9844 -54.9361 -54.8925 -54.3306 -54.2966
   -31.8409 -31.7903 -31.7208 -31.7034 -31.6892 -31.6745 -31.6538 -31.6466
   -31.6155 -31.6019 -31.5959 -31.5082 -31.4933 -31.4861 -31.4663 -31.4628
   -31.4589 -31.4497 -31.4491 -31.4195 -31.4131 -31.3915 -31.3845 -31.3746
   -31.3697 -31.3537 -31.3528 -31.3208 -31.3204 -31.3139 -31.3132 -31.3074
   -31.2990 -31.2811 -31.2572 -31.2387 -31.1734 -31.1518 -31.1399 -31.1317
   -31.1109 -31.1017 -30.7366 -30.6503 -30.6278 -30.5541 -30.4677 -30.3560
   -17.7416 -16.3667 -16.0100 -15.8461 -15.6314 -15.5386 -15.5116 -15.3128
   -15.2178 -15.1595 -14.9583 -14.9311 -14.8935 -14.8807 -14.8718 -14.8507
   -14.8471 -14.7956 -14.7801 -14.7702 -14.7667 -14.7364 -14.7093 -14.6701
   -14.6105 -14.5967 -14.4941 -14.4387 -14.3988 -14.1576 -14.1375 -13.1773
   -12.8292 -12.7128  -9.4545  -6.4459  -5.7407  -4.2922  -3.9335  -3.3681
    -3.2666  -3.2550  -3.1991  -3.1310  -2.9769  -2.8832  -2.7817  -2.7423
    -2.6093  -2.5961  -2.4913  -2.4426  -2.3695  -2.3233  -2.2822  -2.2474
    -2.2200  -2.1638  -2.1414  -2.1155  -2.1043  -2.0315  -2.0132  -1.9233
    -1.8905  -1.8771  -1.7594  -1.7248  -1.6902  -1.6770  -1.6677  -1.6621
    -1.6182  -1.6075  -1.5968  -1.5553  -1.4544  -1.4464  -1.4287  -1.3381
    -1.2411  -0.9906  -0.9594  -0.9089  -0.8974  -0.8192  -0.7805  -0.7489
    -0.7163  -0.6467  -0.6354  -0.6092  -0.5480  -0.4725  -0.4181  -0.3705
    -0.3364  -0.2245  -0.1745  -0.1306  -0.0977  -0.0610   0.0020   0.0413
     0.0656   0.1087   0.1964   0.2597   0.2871   0.3039   0.3542   0.3960
     0.4339   0.4743   0.5462   0.5687   0.5789   0.6182   0.6267   0.6477
     0.7430   0.7615   0.8210   0.8482   0.9362   0.9672   1.0114   1.1808
     1.2504   1.3089   1.3872   1.4789   1.6412   1.6957   1.7206   1.8897
     2.2631   2.3084   3.7280   3.8755   3.8917   3.9694   3.9864   4.0506
     4.2169   4.2761   4.4136   4.4242

          k = 0.0000 0.0419 0.0000 ( 17933 PWs)   bands (ev):

   -55.4435 -55.3507 -55.3266 -55.2163 -55.2095 -55.1846 -55.1817 -55.1808
   -55.1572 -55.1257 -55.0898 -54.9828 -54.9365 -54.8939 -54.3256 -54.3015
   -31.7869 -31.7616 -31.6864 -31.6715 -31.6532 -31.6499 -31.6465 -31.6417
   -31.5947 -31.5870 -31.5620 -31.5195 -31.4944 -31.4782 -31.4550 -31.4539
   -31.4517 -31.4446 -31.4439 -31.4270 -31.4260 -31.4229 -31.3957 -31.3773
   -31.3711 -31.3682 -31.3634 -31.3518 -31.3488 -31.3283 -31.3223 -31.3167
   -31.3106 -31.2944 -31.2857 -31.2517 -31.1723 -31.1678 -31.1674 -31.1507
   -31.1378 -31.1014 -30.6826 -30.6468 -30.6309 -30.5415 -30.4803 -30.4131
   -17.7397 -16.3625 -15.8840 -15.7336 -15.5254 -15.4950 -15.4104 -15.2437
   -15.1678 -15.1497 -15.0739 -15.0050 -14.8912 -14.8780 -14.8625 -14.8469
   -14.8345 -14.8214 -14.8076 -14.7890 -14.7762 -14.7387 -14.7200 -14.6932
   -14.6540 -14.5578 -14.5518 -14.4968 -14.4578 -14.2586 -14.2097 -13.1775
   -12.8333 -12.7524  -9.4645  -6.4375  -5.7413  -4.2840  -3.9365  -3.1830
    -3.0954  -3.0851  -3.0676  -2.9837  -2.9521  -2.7559  -2.6867  -2.5777
    -2.5565  -2.4811  -2.4200  -2.3918  -2.3647  -2.3196  -2.2945  -2.2840
    -2.2608  -2.2081  -2.1942  -2.1775  -2.1078  -2.0640  -2.0475  -2.0336
    -1.9714  -1.9672  -1.9417  -1.9027  -1.8638  -1.8392  -1.8123  -1.7705
    -1.7451  -1.6074  -1.5871  -1.5295  -1.4315  -1.3598  -1.2551  -1.1252
    -1.0772  -1.0452  -1.0195  -0.9403  -0.8031  -0.7567  -0.6729  -0.6227
    -0.5783  -0.5614  -0.5247  -0.4554  -0.4313  -0.3660  -0.3105  -0.3055
    -0.2775  -0.2307  -0.1795  -0.1626  -0.1081  -0.0994  -0.0773  -0.0250
    -0.0056   0.0390   0.1102   0.1402   0.1629   0.2472   0.3219   0.3628
     0.3905   0.4313   0.4545   0.4713   0.4875   0.4956   0.5786   0.5909
     0.6624   0.7616   0.7871   0.8344   0.8491   0.9113   0.9872   1.0145
     1.0704   1.1125   1.2594   1.3127   1.4593   1.6097   1.8847   1.9788
     2.2184   2.2204   3.9454   3.9751   4.0982   4.1222   4.1598   4.1969
     4.2661   4.3170   4.3631   4.3697

          k = 0.0000-0.0839 0.0000 ( 17884 PWs)   bands (ev):

   -55.4431 -55.3387 -55.3385 -55.2157 -55.2025 -55.1882 -55.1849 -55.1706
   -55.1678 -55.1211 -55.0943 -54.9812 -54.9370 -54.8954 -54.3135 -54.3135
   -31.7266 -31.6686 -31.6547 -31.6546 -31.6543 -31.6464 -31.6321 -31.6318
   -31.5747 -31.5266 -31.5062 -31.4963 -31.4904 -31.4729 -31.4609 -31.4606
   -31.4547 -31.4490 -31.4414 -31.4355 -31.4290 -31.4281 -31.4205 -31.4193
   -31.4177 -31.3961 -31.3881 -31.3729 -31.3498 -31.3436 -31.3401 -31.3371
   -31.3148 -31.3107 -31.2921 -31.2510 -31.2338 -31.2062 -31.1712 -31.1506
   -31.1477 -31.1011 -30.6386 -30.6386 -30.5498 -30.5494 -30.5110 -30.5108
   -17.7380 -16.3591 -15.6407 -15.5489 -15.4663 -15.4475 -15.2550 -15.2505
   -15.2039 -15.1918 -15.0979 -15.0649 -15.0242 -15.0036 -14.9310 -14.8798
   -14.8179 -14.7882 -14.7301 -14.7243 -14.7216 -14.6940 -14.6919 -14.6608
   -14.6428 -14.6234 -14.6066 -14.5894 -14.4857 -14.4659 -14.2945 -13.1777
   -12.8152 -12.8150  -9.4744  -6.4298  -5.7418  -4.2768  -3.9396  -2.9526
    -2.8414  -2.7827  -2.7510  -2.7020  -2.6848  -2.6676  -2.6493  -2.6484
    -2.6082  -2.5876  -2.5517  -2.4932  -2.3825  -2.3686  -2.3625  -2.3466
    -2.3320  -2.3062  -2.2915  -2.2136  -2.1984  -2.1565  -2.1459  -2.0870
    -2.0717  -2.0207  -2.0155  -1.9237  -1.8748  -1.8033  -1.7373  -1.6696
    -1.6201  -1.4594  -1.4533  -1.3777  -1.3586  -1.3303  -1.1794  -1.1199
    -1.0290  -0.9763  -0.9500  -0.8590  -0.8010  -0.7655  -0.7548  -0.7513
    -0.7085  -0.7027  -0.6721  -0.6216  -0.5802  -0.4632  -0.4496  -0.3551
    -0.3452  -0.1318  -0.0414  -0.0088   0.0048   0.0266   0.0320   0.0771
     0.0890   0.1490   0.1767   0.1806   0.2013   0.2258   0.2493   0.2723
     0.3085   0.3368   0.3872   0.4312   0.4424   0.4505   0.4747   0.5181
     0.5562   0.5875   0.6034   0.6701   0.7263   0.8077   0.8907   0.9151
     0.9527   1.0615   1.1641   1.3486   1.4035   1.4499   2.0269   2.0349
     2.1540   2.1545   4.1802   4.2099   4.2169   4.2522   4.2716   4.2889
     4.3210   4.3377   4.3864   4.4327

          k = 0.0380 0.0000 0.0000 ( 17913 PWs)   bands (ev):

   -55.4438 -55.3556 -55.3216 -55.2169 -55.2140 -55.1862 -55.1842 -55.1765
   -55.1522 -55.1294 -55.0862 -54.9843 -54.9360 -54.8924 -54.3305 -54.2965
   -31.8418 -31.7919 -31.7213 -31.7052 -31.6894 -31.6713 -31.6525 -31.6463
   -31.6210 -31.6018 -31.5960 -31.5053 -31.4941 -31.4860 -31.4625 -31.4532
   -31.4496 -31.4463 -31.4452 -31.4194 -31.4129 -31.3909 -31.3771 -31.3743
   -31.3725 -31.3539 -31.3506 -31.3400 -31.3202 -31.3137 -31.3129 -31.3073
   -31.2985 -31.2816 -31.2571 -31.2387 -31.1776 -31.1527 -31.1397 -31.1317
   -31.1108 -31.1027 -30.7362 -30.6536 -30.6258 -30.5539 -30.4676 -30.3558
   -17.7410 -16.3639 -15.9283 -15.7629 -15.5801 -15.5305 -15.4237 -15.3431
   -15.2204 -15.1611 -15.0608 -15.0480 -14.9961 -14.9757 -14.9672 -14.9124
   -14.8452 -14.7846 -14.7725 -14.7635 -14.7564 -14.6353 -14.6213 -14.6012
   -14.5583 -14.5513 -14.5328 -14.5120 -14.4538 -14.1557 -14.1367 -13.1776
   -12.8260 -12.7125  -9.4539  -6.4458  -5.7433  -4.2930  -3.9252  -3.2395
    -3.0704  -3.0217  -2.9932  -2.9841  -2.9317  -2.8491  -2.7976  -2.7364
    -2.6910  -2.6614  -2.5902  -2.5747  -2.5180  -2.4359  -2.3826  -2.2987
    -2.2214  -2.1120  -2.0738  -2.0123  -1.9690  -1.9479  -1.9054  -1.8631
    -1.8062  -1.7647  -1.7343  -1.7246  -1.7135  -1.6725  -1.6717  -1.6410
    -1.6278  -1.5659  -1.5590  -1.4569  -1.3730  -1.2594  -1.2220  -1.2048
    -1.1319  -1.0940  -1.0197  -0.9539  -0.9221  -0.8666  -0.8247  -0.7881
    -0.7472  -0.6992  -0.6739  -0.6390  -0.6104  -0.5759  -0.5118  -0.4567
    -0.4201  -0.3339  -0.2394  -0.1680  -0.0942  -0.0676   0.0092   0.0289
     0.0904   0.1374   0.1722   0.2152   0.2611   0.2876   0.3500   0.3556
     0.3905   0.3997   0.4193   0.4925   0.5040   0.5239   0.5490   0.5979
     0.6647   0.7245   0.7447   0.8202   0.8836   0.9164   0.9647   1.0164
     1.0396   1.2522   1.3417   1.4733   1.5895   1.6494   1.7076   1.8597
     2.1519   2.2267   3.7423   3.8346   4.0721   4.1302   4.1713   4.2109
     4.2157   4.2411   4.2810   4.3364

          k = 0.0380 0.0419 0.0000 ( 17878 PWs)   bands (ev):

   -55.4434 -55.3506 -55.3266 -55.2162 -55.2095 -55.1845 -55.1816 -55.1807
   -55.1572 -55.1257 -55.0898 -54.9828 -54.9365 -54.8939 -54.3255 -54.3015
   -31.7878 -31.7628 -31.6879 -31.6686 -31.6515 -31.6512 -31.6472 -31.6415
   -31.5949 -31.5872 -31.5684 -31.5196 -31.4918 -31.4780 -31.4582 -31.4519
   -31.4438 -31.4401 -31.4357 -31.4266 -31.4260 -31.4167 -31.3847 -31.3775
   -31.3752 -31.3648 -31.3637 -31.3521 -31.3488 -31.3345 -31.3279 -31.3221
   -31.3107 -31.2923 -31.2894 -31.2516 -31.1761 -31.1677 -31.1670 -31.1520
   -31.1378 -31.1033 -30.6822 -30.6494 -30.6299 -30.5414 -30.4803 -30.4130
   -17.7393 -16.3608 -15.8115 -15.6593 -15.5248 -15.4301 -15.3321 -15.2625
   -15.1706 -15.1451 -15.0808 -15.0432 -15.0128 -14.9567 -14.9245 -14.8655
   -14.8504 -14.8358 -14.8228 -14.8035 -14.7616 -14.6872 -14.6692 -14.6387
   -14.6157 -14.6011 -14.5864 -14.5605 -14.4856 -14.2564 -14.2094 -13.1779
   -12.8311 -12.7527  -9.4641  -6.4376  -5.7441  -4.2867  -3.9232  -3.0745
    -2.9788  -2.9120  -2.8458  -2.8220  -2.8105  -2.7103  -2.6832  -2.5797
    -2.5603  -2.5001  -2.4719  -2.4332  -2.3502  -2.3327  -2.2614  -2.2350
    -2.2028  -2.1850  -2.1378  -2.1115  -2.0856  -2.0459  -2.0143  -2.0011
    -1.9763  -1.9614  -1.9146  -1.8929  -1.8590  -1.8050  -1.7637  -1.7199
    -1.6778  -1.5691  -1.5153  -1.4316  -1.4049  -1.3352  -1.2908  -1.1449
    -1.1024  -1.0411  -0.9914  -0.9267  -0.8212  -0.7685  -0.7363  -0.7116
    -0.6571  -0.6148  -0.5898  -0.5620  -0.5063  -0.4580  -0.3919  -0.3762
    -0.3452  -0.3249  -0.3111  -0.2276  -0.1516  -0.1369  -0.1070  -0.0886
    -0.0515  -0.0250   0.0338   0.0614   0.0817   0.1207   0.2143   0.2448
     0.2850   0.3161   0.3837   0.4049   0.4302   0.4828   0.4879   0.5808
     0.6951   0.7393   0.7989   0.8211   0.8847   0.9498   0.9840   1.0154
     1.0564   1.0861   1.2291   1.2829   1.4622   1.5452   1.8949   1.9817
     2.1410   2.2011   3.9395   3.9598   4.0944   4.2004   4.2310   4.2732
     4.3104   4.3357   4.3448   4.3793

          k = 0.0380-0.0839 0.0000 ( 17916 PWs)   bands (ev):

   -55.4431 -55.3387 -55.3385 -55.2157 -55.2025 -55.1882 -55.1849 -55.1706
   -55.1678 -55.1212 -55.0944 -54.9813 -54.9371 -54.8955 -54.3136 -54.3135
   -31.7278 -31.6686 -31.6555 -31.6553 -31.6548 -31.6436 -31.6321 -31.6318
   -31.5748 -31.5283 -31.5073 -31.4970 -31.4915 -31.4811 -31.4597 -31.4596
   -31.4565 -31.4547 -31.4419 -31.4375 -31.4355 -31.4290 -31.4163 -31.3983
   -31.3930 -31.3907 -31.3855 -31.3780 -31.3491 -31.3434 -31.3397 -31.3370
   -31.3214 -31.3149 -31.3022 -31.2507 -31.2336 -31.2059 -31.1744 -31.1524
   -31.1477 -31.1038 -30.6396 -30.6396 -30.5497 -30.5493 -30.5110 -30.5108
   -17.7377 -16.3579 -15.6160 -15.5029 -15.4141 -15.3993 -15.2030 -15.1856
   -15.1710 -15.1635 -15.1116 -15.0450 -15.0234 -14.9954 -14.9469 -14.8980
   -14.8745 -14.8161 -14.7864 -14.7703 -14.7661 -14.7221 -14.7096 -14.6974
   -14.6682 -14.6548 -14.6454 -14.6127 -14.4721 -14.4532 -14.2908 -13.1782
   -12.8150 -12.8148  -9.4740  -6.4301  -5.7442  -4.2777  -3.9311  -2.9571
    -2.8100  -2.6797  -2.6122  -2.5834  -2.5759  -2.5037  -2.4915  -2.4560
    -2.4530  -2.4371  -2.4226  -2.4104  -2.3456  -2.3319  -2.2897  -2.2554
    -2.2439  -2.2322  -2.2049  -2.1971  -2.1553  -2.1298  -2.0962  -2.0670
    -2.0459  -2.0175  -1.9916  -1.9608  -1.9263  -1.8155  -1.7493  -1.5619
    -1.5215  -1.4668  -1.4467  -1.3902  -1.3012  -1.2777  -1.2283  -1.1703
    -1.1583  -1.0969  -1.0946  -1.0681  -1.0170  -0.9969  -0.9608  -0.8843
    -0.8478  -0.7651  -0.6705  -0.6282  -0.5522  -0.5266  -0.4677  -0.4430
    -0.3546  -0.2518  -0.2053  -0.1767  -0.1385  -0.1170  -0.0835  -0.0402
    -0.0169  -0.0046   0.0172   0.0434   0.0564   0.0766   0.1031   0.1301
     0.2207   0.2460   0.3343   0.3940   0.4624   0.4860   0.5569   0.5827
     0.6977   0.7170   0.7609   0.7891   0.8272   0.8656   0.9156   0.9369
     0.9863   1.0568   1.1579   1.3274   1.3560   1.4553   2.0399   2.0475
     2.1435   2.1444   4.0891   4.1889   4.1957   4.2226   4.2586   4.2807
     4.3401   4.3452   4.4058   4.4204

          k = 0.0380-0.0419 0.0000 ( 17876 PWs)   bands (ev):

   -55.4434 -55.3506 -55.3265 -55.2162 -55.2095 -55.1845 -55.1816 -55.1807
   -55.1572 -55.1257 -55.0898 -54.9828 -54.9365 -54.8939 -54.3255 -54.3015
   -31.7877 -31.7632 -31.6874 -31.6686 -31.6517 -31.6511 -31.6472 -31.6415
   -31.5949 -31.5872 -31.5684 -31.5196 -31.4919 -31.4781 -31.4565 -31.4504
   -31.4438 -31.4400 -31.4356 -31.4266 -31.4261 -31.4211 -31.3846 -31.3776
   -31.3741 -31.3655 -31.3629 -31.3521 -31.3488 -31.3346 -31.3281 -31.3222
   -31.3107 -31.2925 -31.2892 -31.2516 -31.1760 -31.1676 -31.1671 -31.1519
   -31.1378 -31.1033 -30.6822 -30.6494 -30.6299 -30.5414 -30.4803 -30.4130
   -17.7393 -16.3606 -15.8109 -15.6579 -15.5266 -15.4267 -15.3318 -15.2627
   -15.1714 -15.1456 -15.0795 -15.0542 -15.0135 -14.9563 -14.9323 -14.8653
   -14.8406 -14.8340 -14.8236 -14.8018 -14.7589 -14.6866 -14.6680 -14.6387
   -14.6168 -14.6013 -14.5865 -14.5607 -14.4852 -14.2569 -14.2095 -13.1779
   -12.8311 -12.7527  -9.4638  -6.4374  -5.7434  -4.2831  -3.9332  -3.0744
    -2.9772  -2.9124  -2.8382  -2.8161  -2.8098  -2.7106  -2.6851  -2.5923
    -2.5577  -2.5000  -2.4757  -2.4307  -2.3583  -2.3315  -2.2593  -2.2378
    -2.2057  -2.1970  -2.1476  -2.1129  -2.0815  -2.0520  -2.0269  -2.0016
    -1.9792  -1.9625  -1.9069  -1.8864  -1.8344  -1.8022  -1.7615  -1.7027
    -1.6714  -1.5728  -1.4975  -1.4439  -1.4017  -1.3463  -1.2962  -1.1323
    -1.1035  -1.0244  -0.9757  -0.9443  -0.8263  -0.7650  -0.7272  -0.7113
    -0.6672  -0.6309  -0.5868  -0.5432  -0.5093  -0.4631  -0.4249  -0.3760
    -0.3342  -0.3167  -0.2598  -0.2403  -0.1536  -0.1405  -0.1243  -0.0640
    -0.0464  -0.0177   0.0113   0.0578   0.0896   0.1400   0.1724   0.2265
     0.2721   0.3016   0.3667   0.3942   0.4239   0.4767   0.4977   0.5887
     0.6889   0.7402   0.7988   0.8279   0.8884   0.9543   0.9803   1.0181
     1.0833   1.0958   1.2286   1.2827   1.4680   1.5457   1.8948   1.9817
     2.1408   2.2017   3.9398   3.9601   4.0885   4.1980   4.2351   4.2628
     4.3210   4.3403   4.3507   4.3810

          k =-0.0760-0.0000 0.0000 ( 17886 PWs)   bands (ev):

   -55.4437 -55.3556 -55.3216 -55.2168 -55.2139 -55.1860 -55.1842 -55.1765
   -55.1522 -55.1294 -55.0862 -54.9843 -54.9359 -54.8924 -54.3305 -54.2965
   -31.8427 -31.7937 -31.7219 -31.7071 -31.6896 -31.6687 -31.6508 -31.6462
   -31.6262 -31.6018 -31.5962 -31.5024 -31.4950 -31.4858 -31.4625 -31.4492
   -31.4453 -31.4433 -31.4193 -31.4133 -31.4119 -31.3897 -31.3767 -31.3754
   -31.3731 -31.3707 -31.3537 -31.3491 -31.3202 -31.3136 -31.3129 -31.3071
   -31.2983 -31.2825 -31.2571 -31.2389 -31.1827 -31.1539 -31.1396 -31.1317
   -31.1109 -31.1037 -30.7358 -30.6569 -30.6245 -30.5539 -30.4675 -30.3558
   -17.7404 -16.3616 -15.7902 -15.6796 -15.6253 -15.4442 -15.3348 -15.3231
   -15.2096 -15.1766 -15.1310 -15.1205 -15.0697 -15.0577 -15.0395 -15.0282
   -14.8255 -14.8106 -14.8053 -14.7503 -14.7116 -14.6511 -14.6465 -14.6158
   -14.6049 -14.5118 -14.4821 -14.4769 -14.4448 -14.1546 -14.1364 -13.1779
   -12.8230 -12.7122  -9.4534  -6.4458  -5.7460  -4.2943  -3.9169  -3.2084
    -3.0062  -2.9641  -2.8585  -2.8043  -2.7922  -2.7584  -2.7331  -2.6490
    -2.6325  -2.6163  -2.6126  -2.6028  -2.5946  -2.5592  -2.2685  -2.2624
    -2.1548  -2.0742  -1.9543  -1.9458  -1.8659  -1.8492  -1.8312  -1.7978
    -1.7864  -1.7739  -1.7384  -1.7086  -1.6904  -1.6712  -1.6356  -1.5865
    -1.5804  -1.5673  -1.5630  -1.4647  -1.4371  -1.3920  -1.2811  -1.1637
    -1.0847  -0.9579  -0.9458  -0.9393  -0.9375  -0.9034  -0.8638  -0.8180
    -0.8079  -0.7722  -0.7412  -0.6620  -0.6489  -0.6283  -0.5964  -0.5402
    -0.5116  -0.4465  -0.3169  -0.2216  -0.2068  -0.0920  -0.0623   0.0145
     0.0685   0.0807   0.1094   0.1275   0.1911   0.2143   0.2700   0.2786
     0.3242   0.3597   0.3824   0.4088   0.4494   0.4717   0.4953   0.5865
     0.6234   0.6908   0.7351   0.7653   0.8572   0.8895   0.9104   1.0149
     1.1391   1.2656   1.3106   1.3396   1.4845   1.6543   1.7285   1.8357
     2.0249   2.1716   3.7441   3.7914   4.0422   4.0643   4.1119   4.1647
     4.1922   4.2136   4.3072   4.3461

          k =-0.0760 0.0419 0.0000 ( 17914 PWs)   bands (ev):

   -55.4434 -55.3506 -55.3266 -55.2162 -55.2095 -55.1846 -55.1815 -55.1807
   -55.1572 -55.1258 -55.0899 -54.9828 -54.9365 -54.8939 -54.3255 -54.3015
   -31.7888 -31.7647 -31.6887 -31.6666 -31.6529 -31.6495 -31.6478 -31.6415
   -31.5950 -31.5875 -31.5746 -31.5199 -31.4897 -31.4780 -31.4591 -31.4517
   -31.4439 -31.4322 -31.4266 -31.4260 -31.4136 -31.4119 -31.3796 -31.3786
   -31.3736 -31.3675 -31.3619 -31.3613 -31.3490 -31.3478 -31.3278 -31.3221
   -31.3107 -31.2950 -31.2908 -31.2517 -31.1800 -31.1677 -31.1671 -31.1535
   -31.1378 -31.1052 -30.6820 -30.6522 -30.6292 -30.5414 -30.4804 -30.4130
   -17.7389 -16.3590 -15.6962 -15.5853 -15.5480 -15.3482 -15.2571 -15.2358
   -15.1542 -15.1229 -15.0983 -15.0888 -15.0709 -15.0280 -15.0150 -14.9778
   -14.8586 -14.8513 -14.8317 -14.7891 -14.7812 -14.6753 -14.6649 -14.6627
   -14.6421 -14.6189 -14.5852 -14.5393 -14.4816 -14.2547 -14.2105 -13.1783
   -12.8290 -12.7530  -9.4634  -6.4376  -5.7464  -4.2862  -3.9199  -3.0525
    -2.9771  -2.8355  -2.7199  -2.6160  -2.5712  -2.5533  -2.5335  -2.5121
    -2.4965  -2.4276  -2.4207  -2.3953  -2.3504  -2.3143  -2.2903  -2.2515
    -2.2022  -2.1581  -2.0903  -2.0763  -2.0278  -2.0150  -1.9685  -1.9326
    -1.9168  -1.8911  -1.8642  -1.8498  -1.8416  -1.8151  -1.7749  -1.7064
    -1.6208  -1.4520  -1.4385  -1.4104  -1.3375  -1.3093  -1.2722  -1.2431
    -1.1415  -1.0724  -0.9758  -0.9613  -0.8749  -0.8453  -0.7880  -0.7472
    -0.7246  -0.6771  -0.6209  -0.6070  -0.5876  -0.5806  -0.5592  -0.5258
    -0.4996  -0.4616  -0.4232  -0.3944  -0.3506  -0.2838  -0.2472  -0.2186
    -0.1545  -0.1164  -0.0711  -0.0342   0.0106   0.0468   0.0698   0.1400
     0.2377   0.2447   0.3386   0.4303   0.4544   0.4738   0.5229   0.5897
     0.6821   0.7489   0.7871   0.8720   0.9580   1.0027   1.0237   1.0897
     1.1429   1.1592   1.1960   1.2878   1.3465   1.4742   1.9082   1.9833
     2.0639   2.1903   3.9357   3.9543   4.0235   4.0959   4.1478   4.1896
     4.2693   4.2838   4.4379   4.4617

          k =-0.0760-0.0839 0.0000 ( 17948 PWs)   bands (ev):

   -55.4431 -55.3387 -55.3385 -55.2157 -55.2025 -55.1882 -55.1850 -55.1706
   -55.1678 -55.1213 -55.0944 -54.9813 -54.9371 -54.8955 -54.3136 -54.3135
   -31.7289 -31.6686 -31.6563 -31.6561 -31.6551 -31.6410 -31.6322 -31.6319
   -31.5748 -31.5299 -31.5085 -31.4976 -31.4923 -31.4870 -31.4643 -31.4585
   -31.4580 -31.4551 -31.4486 -31.4361 -31.4294 -31.4265 -31.4150 -31.3891
   -31.3843 -31.3824 -31.3749 -31.3671 -31.3486 -31.3432 -31.3399 -31.3395
   -31.3367 -31.3165 -31.3150 -31.2504 -31.2334 -31.2057 -31.1777 -31.1541
   -31.1478 -31.1065 -30.6406 -30.6405 -30.5497 -30.5493 -30.5111 -30.5109
   -17.7375 -16.3567 -15.5906 -15.4456 -15.3372 -15.3269 -15.2030 -15.1358
   -15.1260 -15.0924 -15.0696 -15.0477 -15.0292 -15.0141 -14.9593 -14.9195
   -14.8881 -14.8608 -14.8561 -14.8132 -14.8035 -14.7921 -14.7742 -14.7627
   -14.7075 -14.6713 -14.6616 -14.6032 -14.4640 -14.4439 -14.2878 -13.1786
   -12.8148 -12.8146  -9.4735  -6.4303  -5.7467  -4.2785  -3.9225  -2.9626
    -2.8003  -2.6572  -2.6045  -2.5617  -2.4482  -2.4240  -2.3660  -2.3156
    -2.2915  -2.2698  -2.2179  -2.2078  -2.1620  -2.1458  -2.1218  -2.1068
    -2.0903  -2.0838  -2.0560  -2.0401  -2.0297  -2.0170  -1.9898  -1.9787
    -1.9604  -1.9317  -1.9115  -1.9024  -1.8692  -1.8266  -1.7656  -1.6552
    -1.5813  -1.5703  -1.5262  -1.5012  -1.4850  -1.4440  -1.4314  -1.3904
    -1.3730  -1.3068  -1.1489  -1.1240  -1.1093  -0.9668  -0.9595  -0.9307
    -0.8565  -0.8148  -0.7930  -0.7350  -0.7055  -0.6653  -0.5881  -0.5448
    -0.4906  -0.4244  -0.3245  -0.3170  -0.3008  -0.2809  -0.2647  -0.2568
    -0.2236  -0.1864  -0.1134  -0.0668  -0.0582  -0.0521  -0.0011   0.0788
     0.1297   0.2441   0.3902   0.3948   0.4617   0.4626   0.6622   0.6710
     0.7478   0.7832   0.8177   0.8448   0.9386   0.9566   0.9943   1.0769
     1.1406   1.1702   1.1911   1.1958   1.2489   1.4616   2.0581   2.0659
     2.1287   2.1289   3.9692   4.2021   4.2424   4.2556   4.2739   4.3004
     4.3140   4.3281   4.3951   4.4194

     the Fermi energy is     3.7653 ev

!    total energy              =   -2976.46397390 Ry
     estimated scf accuracy    <       0.00000006 Ry
     smearing contrib. (-TS)   =      -0.01955744 Ry
     internal energy E=F+TS    =   -2976.44441647 Ry

     The total energy is F=E-TS. E is the sum of the following terms:
     one-electron contribution =  -23037.34345007 Ry
     hartree contribution      =   11616.40062357 Ry
     xc contribution           =    -495.73119436 Ry
     ewald contribution        =    8940.22675957 Ry
     electric field correction =       0.00284482 Ry

     convergence has been achieved in  73 iterations

     Forces acting on atoms (cartesian axes, Ry/au):

     atom    1 type  1   force =     0.00016363   -0.00023050    0.09416511
     atom    2 type  1   force =    -0.00010408    0.00018363   -0.17537205
     atom    3 type  2   force =     0.00005450   -0.00049427   -0.02104675
     atom    4 type  2   force =    -0.00002451   -0.00093844    0.05424346
     atom    5 type  2   force =    -0.00486921   -0.00216128    0.00107051
     atom    6 type  2   force =     0.00669278   -0.00138723    0.00108562
     atom    7 type  1   force =     0.00006077    0.00330818    0.00865736
     atom    8 type  1   force =    -0.00010204    0.00119582    0.00271469
     atom    9 type  2   force =    -0.00021986   -0.00030952   -0.00058265
     atom   10 type  2   force =    -0.00111918    0.00429240   -0.01024656
     atom   11 type  2   force =    -0.00007547   -0.00055161   -0.00010309
     atom   12 type  2   force =     0.00061852   -0.00031575   -0.00026504
     atom   13 type  1   force =    -0.00143358    0.00019524   -0.00057239
     atom   14 type  1   force =     0.00070851    0.00018719   -0.00047383
     atom   15 type  2   force =     0.00012961   -0.00001036    0.00003319
     atom   16 type  2   force =    -0.00009334   -0.00069045   -0.00029952
     atom   17 type  2   force =    -0.00042640    0.00069789    0.00006412
     atom   18 type  2   force =    -0.00076256    0.00031637   -0.00022651
     atom   19 type  1   force =     0.00040732   -0.00092737    0.00059156
     atom   20 type  1   force =    -0.00069224   -0.00004266    0.00049568
     atom   21 type  2   force =     0.00003759   -0.00001258    0.10319769
     atom   22 type  2   force =    -0.00012126    0.00003193    0.00049091
     atom   23 type  2   force =    -0.07199731   -0.00019770   -0.02725259
     atom   24 type  2   force =     0.07187319    0.00025700   -0.02732038
     atom   25 type  1   force =     0.00007868   -0.00016643    0.09388998
     atom   26 type  1   force =    -0.00012096   -0.00136788   -0.17551954
     atom   27 type  2   force =     0.00011126   -0.00005622   -0.01985941
     atom   28 type  2   force =     0.00006527   -0.00105034    0.04979351
     atom   29 type  2   force =    -0.00745134    0.00209459    0.00339140
     atom   30 type  2   force =     0.00905533    0.00223595    0.00331073
     atom   31 type  1   force =     0.00019812    0.00151374    0.00005574
     atom   32 type  1   force =    -0.00008829   -0.00226507    0.00302606
     atom   33 type  2   force =    -0.00017667   -0.00029882   -0.00001486
     atom   34 type  2   force =    -0.00117059   -0.00218673   -0.00963807
     atom   35 type  2   force =     0.00064452    0.00005428   -0.00022112
     atom   36 type  2   force =     0.00037187    0.00011506   -0.00034779
     atom   37 type  1   force =    -0.00096693    0.00024888    0.00034966
     atom   38 type  1   force =     0.00096309   -0.00025920    0.00018690
     atom   39 type  2   force =    -0.00017337   -0.00053382    0.00008484
     atom   40 type  2   force =    -0.00020040   -0.00019306   -0.00016451
     atom   41 type  2   force =     0.00026091   -0.00032664   -0.00010615
     atom   42 type  2   force =    -0.00065512    0.00005195   -0.00011629
     atom   43 type  1   force =     0.00021938    0.00091929    0.00044616
     atom   44 type  1   force =    -0.00038712    0.00082115    0.00005521
     atom   45 type  2   force =     0.00002375    0.00003400    0.10301475
     atom   46 type  2   force =    -0.07194685   -0.00008040   -0.02720514
     atom   47 type  2   force =     0.07183773    0.00035077   -0.02728796
     atom   48 type  3   force =    -0.00016897   -0.00111295   -0.00066150
     atom   49 type  3   force =    -0.00054706   -0.00011064   -0.00045423
     atom   50 type  4   force =     0.00810004   -0.00220312   -0.00269213
     atom   51 type  5   force =    -0.00967972    0.00236115    0.00388093
     atom   52 type  5   force =     0.00125046   -0.00028171    0.00004285
     atom   53 type  5   force =     0.00019978    0.00046178   -0.00061147
     atom   54 type  5   force =     0.00058772   -0.00027647    0.00005428
     atom   55 type  5   force =     0.00051780   -0.00065799   -0.00004294
     atom   56 type  5   force =     0.00062327   -0.00001685   -0.00005784
     atom   57 type  2   force =     0.00075124   -0.00114406    0.00013761
     atom   58 type  5   force =    -0.00083220    0.00092990    0.00023181

     Total force =     0.362255     Total SCF correction =     0.000631
  @ DRIVER MODE: Message from server: STATUS
  @ DRIVER MODE: Message from server: GETFORCE
  @ DRIVER MODE: Returning v,forces,stress,ensemble 

     Writing output data file ./calc.save/
  @ DRIVER MODE: Message from server: EXIT
  @ DRIVE MODE: Exiting  
 
     init_run     :     17.80s CPU     18.21s WALL (       1 calls)
     electrons    :   1839.23s CPU   1934.04s WALL (       1 calls)
     forces       :      2.92s CPU      3.06s WALL (       1 calls)

     Called by init_run:
     wfcinit      :      6.15s CPU      6.33s WALL (       1 calls)
     potinit      :      9.44s CPU      9.54s WALL (       1 calls)
     hinit0       :      1.32s CPU      1.34s WALL (       1 calls)

     Called by electrons:
     c_bands      :   1593.32s CPU   1671.77s WALL (      73 calls)
     sum_band     :    173.97s CPU    182.25s WALL (      73 calls)
     v_of_rho     :     55.92s CPU     57.90s WALL (      74 calls)
     newd         :     20.60s CPU     26.28s WALL (      74 calls)
     mix_rho      :      3.24s CPU      3.26s WALL (      73 calls)
     vdW_kernel   :      7.86s CPU      7.89s WALL (       1 calls)

     Called by c_bands:
     init_us_2    :      7.65s CPU      7.71s WALL (    1480 calls)
     cegterg      :   1568.04s CPU   1645.71s WALL (     745 calls)

     Called by *egterg:
     cdiaghg      :    224.91s CPU    229.76s WALL (    7405 calls)
     h_psi        :    926.05s CPU    983.28s WALL (    7418 calls)
     s_psi        :     91.88s CPU     92.91s WALL (    7418 calls)
     g_psi        :      2.37s CPU      2.39s WALL (    6663 calls)

     Called by h_psi:
     h_psi:calbec :     96.66s CPU     99.84s WALL (    7418 calls)
     vloc_psi     :    734.57s CPU    783.74s WALL (    7418 calls)
     add_vuspsi   :     92.00s CPU     94.44s WALL (    7418 calls)

     General routines
     calbec       :    125.55s CPU    128.83s WALL (    8188 calls)
     fft          :     29.23s CPU     29.40s WALL (    4662 calls)
     ffts         :      0.25s CPU      0.26s WALL (     147 calls)
     fftw         :    811.04s CPU    861.99s WALL ( 1026946 calls)
     interpolate  :      0.64s CPU      0.65s WALL (      74 calls)
     davcio       :      0.00s CPU      0.50s WALL (      10 calls)
 
     Parallel routines
 
     PWSCF        :  31m 9.16s CPU  33m29.95s WALL

 
   This run was terminated on:  20:22:19  23Sep2021            

=------------------------------------------------------------------------------=
   JOB DONE.
=------------------------------------------------------------------------------=
