
     Program PWSCF v.6.7GPU starts on 18Oct2021 at 20:40: 6 

     This program is part of the open-source Quantum ESPRESSO suite
     for quantum simulation of materials; please cite
         "P. Giannozzi et al., J. Phys.:Condens. Matter 21 395502 (2009);
         "P. Giannozzi et al., J. Phys.:Condens. Matter 29 465901 (2017);
         "P. Giannozzi et al., J. Chem. Phys. 152 154105 (2020);
          URL http://www.quantum-espresso.org", 
     in publications or presentations arising from this work. More details at
     http://www.quantum-espresso.org/quote

     Parallel version (MPI), running on     8 processors

     MPI processes distributed on     1 nodes
     R & G space division:  proc/nbgrp/npool/nimage =       8
     Reading input from /storage/home/hcoda1/3/ntian30/research/carbon/CxH_vib/Thiel_calc/ads_slab/NH2NH2_perslab/out_0021/pw.inp
Warning: card &CELL ignored
Warning: card   CELL_DYNAMICS='IPI', ignored
Warning: card / ignored

     Current dimensions of program PWSCF are:
     Max number of different atomic species (ntypx) = 10
     Max number of k-points (npk) =  40000
     Max angular momentum in pseudopotentials (lmaxx) =  3
     Presently no symmetry can be used with electric field

     Message from routine cell_base_init:
     DEPRECATED: use true lattice parameter, not A to a.u. conversion factor

     **************************************************************************
     Initializing libbeef V0.1.2 with the BEEF-vdW functional.
     Citation: Wellendorff et al., PRB 85, 235149 (2012).
     **************************************************************************


     IMPORTANT: XC functional enforced from input :
     Exchange-correlation= BEEF-VDW
                           (   1   4  43  14   2   0   0)
     Any further DFT definition will be discarded
     Please, verify this is what you really want


     Subspace diagonalization in iterative solution of the eigenvalue problem:
     one sub-group per band group will be used
     scalapack distributed-memory algorithm (size of sub-group:  2*  2 procs)

  @ DRIVER MODE: Connecting to 
 qe_1139763_3255136.sched-torque.pace.gatech.eduj1vugxy8_scratch
  using UNIX socket
  @ DRIVER MODE: Message from server: STATUS
  @ DRIVER MODE: Message from server: INIT
  @ DRIVER MODE: Receiving replica           0          -1
  @ DRIVER MODE: Receiving encoded integer          25
  @ DRIVER MODE:  SCF:  T  FORCE:  T  STRESS:  F  VC:  F  ENSEMBLE:  F
  @ DRIVER MODE:  SCF:  T  FORCE:  T  STRESS:  F  VC:  F  ENSEMBLE:  F
 
     Parallelization info
     --------------------
     sticks:   dense  smooth     PW     G-vecs:    dense   smooth      PW
     Min         614     246     69               106272    26887    3981
     Max         615     248     70               106275    26893    3990
     Sum        4915    1977    553               850181   215109   31863
 
     Using Slab Decomposition
 


     bravais-lattice index     =            0
     lattice parameter (alat)  =       1.8897  a.u.
     unit-cell volume          =    9988.4706 (a.u.)^3
     number of atoms/cell      =           59
     number of atomic types    =            4
     number of electrons       =       440.00
     number of Kohn-Sham states=          230
     kinetic-energy cutoff     =      29.3995  Ry
     charge density cutoff     =     293.9946  Ry
     scf convergence threshold =      7.3E-08
     mixing beta               =       0.0500
     number of iterations used =            8  plain     mixing
     Exchange-correlation= BEEF-VDW
                           (   1   4  43  14   2   0   0)

     celldm(1)=   1.889726  celldm(2)=   0.000000  celldm(3)=   0.000000
     celldm(4)=   0.000000  celldm(5)=   0.000000  celldm(6)=   0.000000

     crystal axes: (cart. coord. in units of alat)
               a(1) = (   6.579727   0.000000   0.000000 )  
               a(2) = (  -0.001163   8.942395   0.000000 )  
               a(3) = (   0.000000   0.000000  25.155947 )  

     reciprocal axes: (cart. coord. in units 2 pi/alat)
               b(1) = (  0.151982  0.000020  0.000000 )  
               b(2) = (  0.000000  0.111827  0.000000 )  
               b(3) = (  0.000000  0.000000  0.039752 )  


     PseudoPot. # 1 for O  read from file:
     /storage/coda1/p-amedford6/0/shared/rich_project_chbe-medford/medford-share/data/pseudos_module/espresso/nninc/pbe/van/O.UPF
     MD5 check sum: 78c19812648e8988a0fe644b0f25305e
     Pseudo is Ultrasoft, Zval =  6.0
     Generated by new atomic code, or converted to UPF format
     Using radial grid of  737 points,  4 beta functions with: 
                l(1) =   0
                l(2) =   0
                l(3) =   1
                l(4) =   1
     Q(r) pseudized with  8 coefficients,  rinner =    0.800   0.800   0.800


     PseudoPot. # 2 for Ti read from file:
     /storage/coda1/p-amedford6/0/shared/rich_project_chbe-medford/medford-share/data/pseudos_module/espresso/nninc/pbe/van/Ti.UPF
     MD5 check sum: 8e4df49b7f0d34bbd5052bf3f5ea0213
     Pseudo is Ultrasoft, Zval = 12.0
     Generated by new atomic code, or converted to UPF format
     Using radial grid of  851 points,  6 beta functions with: 
                l(1) =   0
                l(2) =   0
                l(3) =   1
                l(4) =   1
                l(5) =   2
                l(6) =   2
     Q(r) pseudized with  8 coefficients,  rinner =    1.000   1.000   1.000
                                                       1.000   1.000

     PseudoPot. # 3 for N  read from file:
     /storage/coda1/p-amedford6/0/shared/rich_project_chbe-medford/medford-share/data/pseudos_module/espresso/nninc/pbe/van/N.UPF
     MD5 check sum: 90d10febe142ad51ac9d5be1deb811c4
     Pseudo is Ultrasoft, Zval =  5.0
     Generated by new atomic code, or converted to UPF format
     Using radial grid of  729 points,  4 beta functions with: 
                l(1) =   0
                l(2) =   0
                l(3) =   1
                l(4) =   1
     Q(r) pseudized with  8 coefficients,  rinner =    0.800   0.800   0.800


     PseudoPot. # 4 for H  read from file:
     /storage/coda1/p-amedford6/0/shared/rich_project_chbe-medford/medford-share/data/pseudos_module/espresso/nninc/pbe/van/H.UPF
     MD5 check sum: b5ee9d7bfd3a09ee7748110bda690ff7
     Pseudo is Ultrasoft, Zval =  1.0
     Generated by new atomic code, or converted to UPF format
     Using radial grid of  615 points,  1 beta functions with: 
                l(1) =   0
     Q(r) pseudized with  8 coefficients,  rinner =    0.800

     atomic species   valence    mass     pseudopotential
        O1             6.00    15.99900     O ( 1.00)
        Ti1           12.00    47.86700     Ti( 1.00)
        N1             5.00    14.00700     N ( 1.00)
        H1             1.00     1.00800     H ( 1.00)

     No symmetry found



   Cartesian axes

     site n.     atom                  positions (alat units)
         1           O1  tau(   1) = (   0.0007354   0.0005023  10.5931620  )
         2           O1  tau(   2) = (   3.2892726   8.9022636  13.7900476  )
         3           O1  tau(   3) = (  -0.0000012   0.0159539  17.0845323  )
         4           O1  tau(   4) = (   0.0006271   0.0005054   7.9858123  )
         5           O1  tau(   5) = (   3.2903981   0.0001071  11.1466942  )
         6           O1  tau(   6) = (   6.5796972   0.0370899  14.4522764  )
         7           O1  tau(   7) = (   1.9868534   1.4903216   9.2879459  )
         8           O1  tau(   8) = (   5.2071659   1.5879261  12.5336177  )
         9           O1  tau(   9) = (   2.0150580   1.5800225  15.9505780  )
        10           Ti1 tau(  10) = (   0.0007404   1.4906270   9.2895810  )
        11           Ti1 tau(  11) = (   3.2907621   1.2831726  12.4565622  )
        12           Ti1 tau(  12) = (   6.5792216   1.1939559  15.8009323  )
        13           O1  tau(  13) = (   4.5942328   1.4918067   9.2879030  )
        14           O1  tau(  14) = (   1.3733293   1.5875306  12.5337771  )
        15           O1  tau(  15) = (   4.5635363   1.5794237  15.9511286  )
        16           Ti1 tau(  16) = (   3.2902859   2.9801868   9.2893338  )
        17           Ti1 tau(  17) = (   0.0006963   2.7899128  12.4910476  )
        18           Ti1 tau(  18) = (   3.2889055   2.8853182  15.6510148  )
        19           O1  tau(  19) = (   0.0003479   2.9813005  10.5931620  )
        20           O1  tau(  20) = (   3.2901137   2.9323735  13.8075185  )
        21           O1  tau(  21) = (   0.0002396   2.9813036   7.9858123  )
        22           O1  tau(  22) = (   3.2901566   2.9796509  11.1657827  )
        23           O1  tau(  23) = (  -0.0001005   3.0518452  14.6148139  )
        24           O1  tau(  24) = (   1.9864658   4.4711199   9.2879459  )
        25           O1  tau(  25) = (   5.2244327   4.5330399  12.5550231  )
        26           O1  tau(  26) = (   2.0317078   4.4891842  16.0144209  )
        27           Ti1 tau(  27) = (   0.0003529   4.4714252   9.2895810  )
        28           Ti1 tau(  28) = (   3.2908221   4.3047718  12.5439168  )
        29           Ti1 tau(  29) = (   0.0007318   4.2809743  15.9563396  )
        30           O1  tau(  30) = (   4.5938453   4.4726049   9.2879030  )
        31           O1  tau(  31) = (   1.3553747   4.5324408  12.5551093  )
        32           O1  tau(  32) = (   4.5484712   4.4888783  16.0159471  )
        33           Ti1 tau(  33) = (   3.2898983   5.9609850   9.2893338  )
        34           Ti1 tau(  34) = (   0.0004637   5.7541984  12.5654138  )
        35           Ti1 tau(  35) = (   3.2913524   5.8154114  16.2798070  )
        36           O1  tau(  36) = (  -0.0000397   5.9620987  10.5931620  )
        37           O1  tau(  37) = (   3.2897947   5.8994426  13.7907643  )
        38           O1  tau(  38) = (   0.0001798   5.9238570  17.1594641  )
        39           O1  tau(  39) = (  -0.0001480   5.9621018   7.9858123  )
        40           O1  tau(  40) = (   3.2896433   5.9245955  11.1661191  )
        41           O1  tau(  41) = (   0.0000838   5.9808129  14.5563373  )
        42           O1  tau(  42) = (   1.9860782   7.4519181   9.2879459  )
        43           O1  tau(  43) = (   5.2244350   7.5051086  12.5363475  )
        44           O1  tau(  44) = (   2.0177701   7.5673364  15.9764862  )
        45           Ti1 tau(  45) = (  -0.0000347   7.4522234   9.2895810  )
        46           Ti1 tau(  46) = (   3.2896674   7.1828241  12.5854878  )
        47           Ti1 tau(  47) = (   0.0003403   7.2137487  16.0183084  )
        48           O1  tau(  48) = (   4.5934577   7.4534031   9.2879030  )
        49           O1  tau(  49) = (   1.3543201   7.5047529  12.5365769  )
        50           O1  tau(  50) = (   4.5609347   7.5656990  15.9757490  )
        51           Ti1 tau(  51) = (   3.2895107   8.9417832   9.2893338  )
        52           Ti1 tau(  52) = (  -0.0005834   8.7067995  12.4790564  )
        53           Ti1 tau(  53) = (   3.2900135   8.8028796  15.6464995  )
        54           N1  tau(  54) = (   3.2900669   5.9334594  18.1702238  )
        55           H1  tau(  55) = (   3.2900466   5.1481598  18.8081281  )
        56           H1  tau(  56) = (   3.2872703   6.8047138  18.6863891  )
        57           N1  tau(  57) = (   0.0002662   3.1305291  17.5522950  )
        58           H1  tau(  58) = (   0.0007553   2.2326612  18.0099153  )
        59           H1  tau(  59) = (   6.5771877   3.8386968  18.2941669  )

     number of k points=    10  Fermi-Dirac smearing, width (Ry)=  0.0073
                       cart. coord. in units 2pi/alat
        k(    1) = (   0.0000000   0.0000000   0.0000000), wk =   0.1250000
        k(    2) = (   0.0000000   0.0279567   0.0000000), wk =   0.2500000
        k(    3) = (   0.0000000  -0.0559134   0.0000000), wk =   0.1250000
        k(    4) = (   0.0379955   0.0000049   0.0000000), wk =   0.2500000
        k(    5) = (   0.0379955   0.0279617   0.0000000), wk =   0.2500000
        k(    6) = (   0.0379955  -0.0559085   0.0000000), wk =   0.2500000
        k(    7) = (   0.0379955  -0.0279518   0.0000000), wk =   0.2500000
        k(    8) = (  -0.0759910  -0.0000099   0.0000000), wk =   0.1250000
        k(    9) = (  -0.0759910   0.0279468   0.0000000), wk =   0.2500000
        k(   10) = (  -0.0759910  -0.0559233   0.0000000), wk =   0.1250000

     Dense  grid:   850181 G-vectors     FFT dimensions: (  72,  96, 270)

     Smooth grid:   215109 G-vectors     FFT dimensions: (  45,  60, 180)

     Estimated max dynamical RAM per process >     706.31 MB

     Estimated total dynamical RAM >       5.52 GB
     Cannot read rho : file not found

     Initial potential from superposition of free atoms

     starting charge  421.99910, renormalised to  440.00000

     negative rho (up, down):  3.740E-02 0.000E+00


     %%%%%%%%%%%%%%%%%%%%%%%%%%%%%%%%%%%%%%%%%%%%%%%%%%%%%%%%%%%%%%%%%%%%%%%%
     %                                                                      %
     % You are using vdW-DF, which was implemented by the Thonhauser group. %
     % Please cite the following two papers that made this development      %
     % possible and the two reviews that describe the various versions:     %
     %                                                                      %
     %   T. Thonhauser et al., PRL 115, 136402 (2015).                      %
     %   T. Thonhauser et al., PRB 76, 125112 (2007).                       %
     %   K. Berland et al., Rep. Prog. Phys. 78, 066501 (2015).             %
     %   D.C. Langreth et al., J. Phys.: Condens. Matter 21, 084203 (2009). %
     %                                                                      %
     %                                                                      %
     % If you are calculating the stress with vdW-DF, please also cite:     %
     %                                                                      %
     %   R. Sabatini et al., J. Phys.: Condens. Matter 24, 424209 (2012).   %
     %                                                                      %
     %%%%%%%%%%%%%%%%%%%%%%%%%%%%%%%%%%%%%%%%%%%%%%%%%%%%%%%%%%%%%%%%%%%%%%%%


 
     Adding external electric field

     Computed dipole along edir(3) : 
        Dipole               -3.9767 Ry au,        -10.1078 Debye
        Dipole field         -0.0050 Ry au, 
 
        Potential amp.        0.4638 Ry
        Total length         46.3494 bohr
 
     Starting wfcs are  332 atomic wfcs
  @ DRIVER MODE: Message from server: STATUS
  @ DRIVER MODE: Message from server: POSDATA
  @ DRIVER MODE: Reading and sharing cell 
  @ DRIVER MODE: Reading and sharing positions 
  @ DRIVER MODE: Received positions 

     total cpu time spent up to now is       18.6 secs

     Self-consistent Calculation

     iteration #  1     ecut=    29.40 Ry     beta= 0.05
     Davidson diagonalization with overlap
     c_bands:  1 eigenvalues not converged
     c_bands:  2 eigenvalues not converged
     c_bands:  3 eigenvalues not converged
     c_bands:  3 eigenvalues not converged
     c_bands:  1 eigenvalues not converged
     c_bands:  3 eigenvalues not converged
     c_bands:  4 eigenvalues not converged
     c_bands:  3 eigenvalues not converged
     c_bands:  3 eigenvalues not converged
     ethr =  1.00E-05,  avg # of iterations = 19.2

     negative rho (up, down):  3.701E-02 0.000E+00
 
     Adding external electric field

     Computed dipole along edir(3) : 
        Dipole               -0.4244 Ry au,         -1.0786 Debye
        Dipole field         -0.0005 Ry au, 
 
        Potential amp.        0.0495 Ry
        Total length         46.3494 bohr
 

     total cpu time spent up to now is       92.8 secs

     total energy              =   -3293.78585942 Ry
     estimated scf accuracy    <      28.28608138 Ry

     iteration #  2     ecut=    29.40 Ry     beta= 0.05
     Davidson diagonalization with overlap
     ethr =  6.43E-03,  avg # of iterations =  1.1

     negative rho (up, down):  3.666E-02 0.000E+00
 
     Adding external electric field

     Computed dipole along edir(3) : 
        Dipole               -0.1594 Ry au,         -0.4052 Debye
        Dipole field         -0.0002 Ry au, 
 
        Potential amp.        0.0186 Ry
        Total length         46.3494 bohr
 

     total cpu time spent up to now is      113.4 secs

     total energy              =   -3294.26336172 Ry
     estimated scf accuracy    <      10.46475032 Ry

     iteration #  3     ecut=    29.40 Ry     beta= 0.05
     Davidson diagonalization with overlap
     ethr =  2.38E-03,  avg # of iterations =  1.0

     negative rho (up, down):  3.792E-02 0.000E+00
 
     Adding external electric field

     Computed dipole along edir(3) : 
        Dipole                0.8703 Ry au,          2.2120 Debye
        Dipole field          0.0011 Ry au, 
 
        Potential amp.       -0.1015 Ry
        Total length         46.3494 bohr
 

     total cpu time spent up to now is      133.6 secs

     total energy              =   -3291.28065104 Ry
     estimated scf accuracy    <       7.51568557 Ry

     iteration #  4     ecut=    29.40 Ry     beta= 0.05
     Davidson diagonalization with overlap
     ethr =  1.71E-03,  avg # of iterations =  6.4

     negative rho (up, down):  3.718E-02 0.000E+00
 
     Adding external electric field

     Computed dipole along edir(3) : 
        Dipole                0.7349 Ry au,          1.8680 Debye
        Dipole field          0.0009 Ry au, 
 
        Potential amp.       -0.0857 Ry
        Total length         46.3494 bohr
 

     total cpu time spent up to now is      166.6 secs

     total energy              =   -3293.26378838 Ry
     estimated scf accuracy    <       4.30293195 Ry

     iteration #  5     ecut=    29.40 Ry     beta= 0.05
     Davidson diagonalization with overlap
     ethr =  9.78E-04,  avg # of iterations =  7.8

     negative rho (up, down):  3.646E-02 0.000E+00
 
     Adding external electric field

     Computed dipole along edir(3) : 
        Dipole                0.4121 Ry au,          1.0474 Debye
        Dipole field          0.0005 Ry au, 
 
        Potential amp.       -0.0481 Ry
        Total length         46.3494 bohr
 

     total cpu time spent up to now is      190.7 secs

     total energy              =   -3293.09038563 Ry
     estimated scf accuracy    <       3.06803791 Ry

     iteration #  6     ecut=    29.40 Ry     beta= 0.05
     Davidson diagonalization with overlap
     ethr =  6.97E-04,  avg # of iterations =  3.2

     negative rho (up, down):  3.621E-02 0.000E+00
 
     Adding external electric field

     Computed dipole along edir(3) : 
        Dipole                0.3054 Ry au,          0.7762 Debye
        Dipole field          0.0004 Ry au, 
 
        Potential amp.       -0.0356 Ry
        Total length         46.3494 bohr
 

     total cpu time spent up to now is      213.2 secs

     total energy              =   -3293.13078405 Ry
     estimated scf accuracy    <       1.09216238 Ry

     iteration #  7     ecut=    29.40 Ry     beta= 0.05
     Davidson diagonalization with overlap
     ethr =  2.48E-04,  avg # of iterations =  7.0

     negative rho (up, down):  3.615E-02 0.000E+00
 
     Adding external electric field

     Computed dipole along edir(3) : 
        Dipole                0.3429 Ry au,          0.8716 Debye
        Dipole field          0.0004 Ry au, 
 
        Potential amp.       -0.0400 Ry
        Total length         46.3494 bohr
 

     total cpu time spent up to now is      238.3 secs

     total energy              =   -3293.20563775 Ry
     estimated scf accuracy    <       0.46487812 Ry

     iteration #  8     ecut=    29.40 Ry     beta= 0.05
     Davidson diagonalization with overlap
     c_bands:  1 eigenvalues not converged
     c_bands:  3 eigenvalues not converged
     ethr =  1.06E-04,  avg # of iterations = 15.9

     negative rho (up, down):  3.791E-02 0.000E+00
 
     Adding external electric field

     Computed dipole along edir(3) : 
        Dipole                0.4164 Ry au,          1.0583 Debye
        Dipole field          0.0005 Ry au, 
 
        Potential amp.       -0.0486 Ry
        Total length         46.3494 bohr
 

     total cpu time spent up to now is      271.3 secs

     total energy              =   -3293.22690497 Ry
     estimated scf accuracy    <       0.33424692 Ry

     iteration #  9     ecut=    29.40 Ry     beta= 0.05
     Davidson diagonalization with overlap
     c_bands:  1 eigenvalues not converged
     c_bands:  1 eigenvalues not converged
     c_bands:  2 eigenvalues not converged
     ethr =  7.60E-05,  avg # of iterations = 13.8

     negative rho (up, down):  3.895E-02 0.000E+00
 
     Adding external electric field

     Computed dipole along edir(3) : 
        Dipole                0.5660 Ry au,          1.4387 Debye
        Dipole field          0.0007 Ry au, 
 
        Potential amp.       -0.0660 Ry
        Total length         46.3494 bohr
 

     total cpu time spent up to now is      307.9 secs

     total energy              =   -3293.28527568 Ry
     estimated scf accuracy    <       0.24330055 Ry

     iteration # 10     ecut=    29.40 Ry     beta= 0.05
     Davidson diagonalization with overlap
     ethr =  5.53E-05,  avg # of iterations =  2.9

     negative rho (up, down):  4.072E-02 0.000E+00
 
     Adding external electric field

     Computed dipole along edir(3) : 
        Dipole                0.9828 Ry au,          2.4981 Debye
        Dipole field          0.0012 Ry au, 
 
        Potential amp.       -0.1146 Ry
        Total length         46.3494 bohr
 

     total cpu time spent up to now is      330.2 secs

     total energy              =   -3293.24216012 Ry
     estimated scf accuracy    <       0.19271922 Ry

     iteration # 11     ecut=    29.40 Ry     beta= 0.05
     Davidson diagonalization with overlap
     c_bands:  1 eigenvalues not converged
     c_bands:  1 eigenvalues not converged
     c_bands:  2 eigenvalues not converged
     ethr =  4.38E-05,  avg # of iterations = 14.6

     negative rho (up, down):  4.015E-02 0.000E+00
 
     Adding external electric field

     Computed dipole along edir(3) : 
        Dipole                0.9672 Ry au,          2.4584 Debye
        Dipole field          0.0012 Ry au, 
 
        Potential amp.       -0.1128 Ry
        Total length         46.3494 bohr
 

     total cpu time spent up to now is      369.3 secs

     total energy              =   -3293.29162005 Ry
     estimated scf accuracy    <       0.08531541 Ry

     iteration # 12     ecut=    29.40 Ry     beta= 0.05
     Davidson diagonalization with overlap
     ethr =  1.94E-05,  avg # of iterations =  4.7

     negative rho (up, down):  3.977E-02 0.000E+00
 
     Adding external electric field

     Computed dipole along edir(3) : 
        Dipole                0.9348 Ry au,          2.3761 Debye
        Dipole field          0.0012 Ry au, 
 
        Potential amp.       -0.1090 Ry
        Total length         46.3494 bohr
 

     total cpu time spent up to now is      392.0 secs

     total energy              =   -3293.27051098 Ry
     estimated scf accuracy    <       0.06701631 Ry

     iteration # 13     ecut=    29.40 Ry     beta= 0.05
     Davidson diagonalization with overlap
     c_bands:  1 eigenvalues not converged
     ethr =  1.52E-05,  avg # of iterations = 14.1

     negative rho (up, down):  3.964E-02 0.000E+00
 
     Adding external electric field

     Computed dipole along edir(3) : 
        Dipole                1.0412 Ry au,          2.6465 Debye
        Dipole field          0.0013 Ry au, 
 
        Potential amp.       -0.1214 Ry
        Total length         46.3494 bohr
 

     total cpu time spent up to now is      433.8 secs

     total energy              =   -3293.27843933 Ry
     estimated scf accuracy    <       0.05711246 Ry

     iteration # 14     ecut=    29.40 Ry     beta= 0.05
     Davidson diagonalization with overlap
     c_bands:  2 eigenvalues not converged
     c_bands:  1 eigenvalues not converged
     c_bands:  2 eigenvalues not converged
     ethr =  1.30E-05,  avg # of iterations = 14.7

     negative rho (up, down):  3.998E-02 0.000E+00
 
     Adding external electric field

     Computed dipole along edir(3) : 
        Dipole                1.0274 Ry au,          2.6113 Debye
        Dipole field          0.0013 Ry au, 
 
        Potential amp.       -0.1198 Ry
        Total length         46.3494 bohr
 

     total cpu time spent up to now is      471.0 secs

     total energy              =   -3293.29047042 Ry
     estimated scf accuracy    <       0.01561086 Ry

     iteration # 15     ecut=    29.40 Ry     beta= 0.05
     Davidson diagonalization with overlap
     c_bands:  2 eigenvalues not converged
     c_bands:  1 eigenvalues not converged
     c_bands:  2 eigenvalues not converged
     c_bands:  2 eigenvalues not converged
     c_bands:  1 eigenvalues not converged
     ethr =  3.55E-06,  avg # of iterations = 13.7

     negative rho (up, down):  3.942E-02 0.000E+00
 
     Adding external electric field

     Computed dipole along edir(3) : 
        Dipole                0.9868 Ry au,          2.5082 Debye
        Dipole field          0.0012 Ry au, 
 
        Potential amp.       -0.1151 Ry
        Total length         46.3494 bohr
 

     total cpu time spent up to now is      511.9 secs

     total energy              =   -3293.28808396 Ry
     estimated scf accuracy    <       0.03201165 Ry

     iteration # 16     ecut=    29.40 Ry     beta= 0.05
     Davidson diagonalization with overlap
     c_bands:  1 eigenvalues not converged
     c_bands:  1 eigenvalues not converged
     ethr =  3.55E-06,  avg # of iterations = 15.0

     negative rho (up, down):  3.906E-02 0.000E+00
 
     Adding external electric field

     Computed dipole along edir(3) : 
        Dipole                1.0169 Ry au,          2.5847 Debye
        Dipole field          0.0013 Ry au, 
 
        Potential amp.       -0.1186 Ry
        Total length         46.3494 bohr
 

     total cpu time spent up to now is      549.2 secs

     total energy              =   -3293.29055881 Ry
     estimated scf accuracy    <       0.00920762 Ry

     iteration # 17     ecut=    29.40 Ry     beta= 0.05
     Davidson diagonalization with overlap
     c_bands:  1 eigenvalues not converged
     c_bands:  1 eigenvalues not converged
     ethr =  2.09E-06,  avg # of iterations =  6.8

     negative rho (up, down):  3.914E-02 0.000E+00
 
     Adding external electric field

     Computed dipole along edir(3) : 
        Dipole                1.0143 Ry au,          2.5782 Debye
        Dipole field          0.0013 Ry au, 
 
        Potential amp.       -0.1183 Ry
        Total length         46.3494 bohr
 

     total cpu time spent up to now is      573.3 secs

     total energy              =   -3293.29048227 Ry
     estimated scf accuracy    <       0.00519630 Ry

     iteration # 18     ecut=    29.40 Ry     beta= 0.05
     Davidson diagonalization with overlap
     c_bands:  1 eigenvalues not converged
     ethr =  1.18E-06,  avg # of iterations = 12.2

     negative rho (up, down):  3.875E-02 0.000E+00
 
     Adding external electric field

     Computed dipole along edir(3) : 
        Dipole                0.9893 Ry au,          2.5146 Debye
        Dipole field          0.0012 Ry au, 
 
        Potential amp.       -0.1154 Ry
        Total length         46.3494 bohr
 

     total cpu time spent up to now is      618.2 secs

     total energy              =   -3293.29533333 Ry
     estimated scf accuracy    <       0.01711334 Ry

     iteration # 19     ecut=    29.40 Ry     beta= 0.05
     Davidson diagonalization with overlap
     c_bands:  1 eigenvalues not converged
     ethr =  1.18E-06,  avg # of iterations =  3.2

     negative rho (up, down):  3.834E-02 0.000E+00
 
     Adding external electric field

     Computed dipole along edir(3) : 
        Dipole                0.9712 Ry au,          2.4686 Debye
        Dipole field          0.0012 Ry au, 
 
        Potential amp.       -0.1133 Ry
        Total length         46.3494 bohr
 

     total cpu time spent up to now is      639.7 secs

     total energy              =   -3293.29520682 Ry
     estimated scf accuracy    <       0.01695909 Ry

     iteration # 20     ecut=    29.40 Ry     beta= 0.05
     Davidson diagonalization with overlap
     ethr =  1.18E-06,  avg # of iterations =  5.7

     negative rho (up, down):  3.806E-02 0.000E+00
 
     Adding external electric field

     Computed dipole along edir(3) : 
        Dipole                0.9687 Ry au,          2.4623 Debye
        Dipole field          0.0012 Ry au, 
 
        Potential amp.       -0.1130 Ry
        Total length         46.3494 bohr
 

     total cpu time spent up to now is      663.3 secs

     total energy              =   -3293.29593858 Ry
     estimated scf accuracy    <       0.01530608 Ry

     iteration # 21     ecut=    29.40 Ry     beta= 0.05
     Davidson diagonalization with overlap
     ethr =  1.18E-06,  avg # of iterations =  2.1

     negative rho (up, down):  3.784E-02 0.000E+00
 
     Adding external electric field

     Computed dipole along edir(3) : 
        Dipole                0.9673 Ry au,          2.4586 Debye
        Dipole field          0.0012 Ry au, 
 
        Potential amp.       -0.1128 Ry
        Total length         46.3494 bohr
 

     total cpu time spent up to now is      684.6 secs

     total energy              =   -3293.29305465 Ry
     estimated scf accuracy    <       0.01703725 Ry

     iteration # 22     ecut=    29.40 Ry     beta= 0.05
     Davidson diagonalization with overlap
     ethr =  1.18E-06,  avg # of iterations =  3.2

     negative rho (up, down):  3.770E-02 0.000E+00
 
     Adding external electric field

     Computed dipole along edir(3) : 
        Dipole                0.9634 Ry au,          2.4487 Debye
        Dipole field          0.0012 Ry au, 
 
        Potential amp.       -0.1124 Ry
        Total length         46.3494 bohr
 

     total cpu time spent up to now is      709.3 secs

     total energy              =   -3293.29058572 Ry
     estimated scf accuracy    <       0.00801471 Ry

     iteration # 23     ecut=    29.40 Ry     beta= 0.05
     Davidson diagonalization with overlap
     ethr =  1.18E-06,  avg # of iterations =  5.6

     negative rho (up, down):  3.755E-02 0.000E+00
 
     Adding external electric field

     Computed dipole along edir(3) : 
        Dipole                0.9514 Ry au,          2.4183 Debye
        Dipole field          0.0012 Ry au, 
 
        Potential amp.       -0.1110 Ry
        Total length         46.3494 bohr
 

     total cpu time spent up to now is      750.7 secs

     total energy              =   -3293.29224810 Ry
     estimated scf accuracy    <       0.00893708 Ry

     iteration # 24     ecut=    29.40 Ry     beta= 0.05
     Davidson diagonalization with overlap
     ethr =  1.18E-06,  avg # of iterations =  4.0

     negative rho (up, down):  3.742E-02 0.000E+00
 
     Adding external electric field

     Computed dipole along edir(3) : 
        Dipole                0.9584 Ry au,          2.4359 Debye
        Dipole field          0.0012 Ry au, 
 
        Potential amp.       -0.1118 Ry
        Total length         46.3494 bohr
 

     total cpu time spent up to now is      783.5 secs

     total energy              =   -3293.29413345 Ry
     estimated scf accuracy    <       0.00071916 Ry

     iteration # 25     ecut=    29.40 Ry     beta= 0.05
     Davidson diagonalization with overlap
     ethr =  1.63E-07,  avg # of iterations =  5.6

     negative rho (up, down):  3.725E-02 0.000E+00
 
     Adding external electric field

     Computed dipole along edir(3) : 
        Dipole                0.9404 Ry au,          2.3903 Debye
        Dipole field          0.0012 Ry au, 
 
        Potential amp.       -0.1097 Ry
        Total length         46.3494 bohr
 

     total cpu time spent up to now is      816.2 secs

     total energy              =   -3293.29423653 Ry
     estimated scf accuracy    <       0.00201662 Ry

     iteration # 26     ecut=    29.40 Ry     beta= 0.05
     Davidson diagonalization with overlap
     ethr =  1.63E-07,  avg # of iterations =  4.0

     negative rho (up, down):  3.712E-02 0.000E+00
 
     Adding external electric field

     Computed dipole along edir(3) : 
        Dipole                0.9473 Ry au,          2.4078 Debye
        Dipole field          0.0012 Ry au, 
 
        Potential amp.       -0.1105 Ry
        Total length         46.3494 bohr
 

     total cpu time spent up to now is      840.4 secs

     total energy              =   -3293.29435721 Ry
     estimated scf accuracy    <       0.00105319 Ry

     iteration # 27     ecut=    29.40 Ry     beta= 0.05
     Davidson diagonalization with overlap
     ethr =  1.63E-07,  avg # of iterations =  2.0

     negative rho (up, down):  3.697E-02 0.000E+00
 
     Adding external electric field

     Computed dipole along edir(3) : 
        Dipole                0.9467 Ry au,          2.4064 Debye
        Dipole field          0.0012 Ry au, 
 
        Potential amp.       -0.1104 Ry
        Total length         46.3494 bohr
 

     total cpu time spent up to now is      862.3 secs

     total energy              =   -3293.29446381 Ry
     estimated scf accuracy    <       0.00068620 Ry

     iteration # 28     ecut=    29.40 Ry     beta= 0.05
     Davidson diagonalization with overlap
     ethr =  1.56E-07,  avg # of iterations =  1.0

     negative rho (up, down):  3.682E-02 0.000E+00
 
     Adding external electric field

     Computed dipole along edir(3) : 
        Dipole                0.9411 Ry au,          2.3921 Debye
        Dipole field          0.0012 Ry au, 
 
        Potential amp.       -0.1098 Ry
        Total length         46.3494 bohr
 

     total cpu time spent up to now is      882.6 secs

     total energy              =   -3293.29441636 Ry
     estimated scf accuracy    <       0.00053662 Ry

     iteration # 29     ecut=    29.40 Ry     beta= 0.05
     Davidson diagonalization with overlap
     ethr =  1.22E-07,  avg # of iterations =  5.1

     negative rho (up, down):  3.671E-02 0.000E+00
 
     Adding external electric field

     Computed dipole along edir(3) : 
        Dipole                0.9421 Ry au,          2.3945 Debye
        Dipole field          0.0012 Ry au, 
 
        Potential amp.       -0.1099 Ry
        Total length         46.3494 bohr
 

     total cpu time spent up to now is      914.8 secs

     total energy              =   -3293.29466008 Ry
     estimated scf accuracy    <       0.00008270 Ry

     iteration # 30     ecut=    29.40 Ry     beta= 0.05
     Davidson diagonalization with overlap
     c_bands:  1 eigenvalues not converged
     ethr =  1.88E-08,  avg # of iterations =  7.6

     negative rho (up, down):  3.661E-02 0.000E+00
 
     Adding external electric field

     Computed dipole along edir(3) : 
        Dipole                0.9412 Ry au,          2.3922 Debye
        Dipole field          0.0012 Ry au, 
 
        Potential amp.       -0.1098 Ry
        Total length         46.3494 bohr
 

     total cpu time spent up to now is      946.5 secs

     total energy              =   -3293.29473029 Ry
     estimated scf accuracy    <       0.00020235 Ry

     iteration # 31     ecut=    29.40 Ry     beta= 0.05
     Davidson diagonalization with overlap
     ethr =  1.88E-08,  avg # of iterations =  2.8

     negative rho (up, down):  3.652E-02 0.000E+00
 
     Adding external electric field

     Computed dipole along edir(3) : 
        Dipole                0.9460 Ry au,          2.4044 Debye
        Dipole field          0.0012 Ry au, 
 
        Potential amp.       -0.1103 Ry
        Total length         46.3494 bohr
 

     total cpu time spent up to now is      968.2 secs

     total energy              =   -3293.29475913 Ry
     estimated scf accuracy    <       0.00013025 Ry

     iteration # 32     ecut=    29.40 Ry     beta= 0.05
     Davidson diagonalization with overlap
     ethr =  1.88E-08,  avg # of iterations =  6.4

     negative rho (up, down):  3.645E-02 0.000E+00
 
     Adding external electric field

     Computed dipole along edir(3) : 
        Dipole                0.9470 Ry au,          2.4069 Debye
        Dipole field          0.0012 Ry au, 
 
        Potential amp.       -0.1104 Ry
        Total length         46.3494 bohr
 

     total cpu time spent up to now is     1006.8 secs

     total energy              =   -3293.29485319 Ry
     estimated scf accuracy    <       0.00009562 Ry

     iteration # 33     ecut=    29.40 Ry     beta= 0.05
     Davidson diagonalization with overlap
     ethr =  1.88E-08,  avg # of iterations =  3.9

     negative rho (up, down):  3.638E-02 0.000E+00
 
     Adding external electric field

     Computed dipole along edir(3) : 
        Dipole                0.9462 Ry au,          2.4050 Debye
        Dipole field          0.0012 Ry au, 
 
        Potential amp.       -0.1103 Ry
        Total length         46.3494 bohr
 

     total cpu time spent up to now is     1031.7 secs

     total energy              =   -3293.29491675 Ry
     estimated scf accuracy    <       0.00002031 Ry

     iteration # 34     ecut=    29.40 Ry     beta= 0.05
     Davidson diagonalization with overlap
     ethr =  4.62E-09,  avg # of iterations =  5.5

     negative rho (up, down):  3.632E-02 0.000E+00
 
     Adding external electric field

     Computed dipole along edir(3) : 
        Dipole                0.9452 Ry au,          2.4026 Debye
        Dipole field          0.0012 Ry au, 
 
        Potential amp.       -0.1102 Ry
        Total length         46.3494 bohr
 

     total cpu time spent up to now is     1070.4 secs

     total energy              =   -3293.29497515 Ry
     estimated scf accuracy    <       0.00005113 Ry

     iteration # 35     ecut=    29.40 Ry     beta= 0.05
     Davidson diagonalization with overlap
     ethr =  4.62E-09,  avg # of iterations =  4.9

     negative rho (up, down):  3.628E-02 0.000E+00
 
     Adding external electric field

     Computed dipole along edir(3) : 
        Dipole                0.9461 Ry au,          2.4048 Debye
        Dipole field          0.0012 Ry au, 
 
        Potential amp.       -0.1103 Ry
        Total length         46.3494 bohr
 

     total cpu time spent up to now is     1100.1 secs

     total energy              =   -3293.29502792 Ry
     estimated scf accuracy    <       0.00000959 Ry

     iteration # 36     ecut=    29.40 Ry     beta= 0.05
     Davidson diagonalization with overlap
     ethr =  2.18E-09,  avg # of iterations =  4.9

     negative rho (up, down):  3.623E-02 0.000E+00
 
     Adding external electric field

     Computed dipole along edir(3) : 
        Dipole                0.9477 Ry au,          2.4088 Debye
        Dipole field          0.0012 Ry au, 
 
        Potential amp.       -0.1105 Ry
        Total length         46.3494 bohr
 

     total cpu time spent up to now is     1129.2 secs

     total energy              =   -3293.29507364 Ry
     estimated scf accuracy    <       0.00000317 Ry

     iteration # 37     ecut=    29.40 Ry     beta= 0.05
     Davidson diagonalization with overlap
     ethr =  7.20E-10,  avg # of iterations =  5.0

     negative rho (up, down):  3.620E-02 0.000E+00
 
     Adding external electric field

     Computed dipole along edir(3) : 
        Dipole                0.9477 Ry au,          2.4087 Debye
        Dipole field          0.0012 Ry au, 
 
        Potential amp.       -0.1105 Ry
        Total length         46.3494 bohr
 

     total cpu time spent up to now is     1163.0 secs

     total energy              =   -3293.29511394 Ry
     estimated scf accuracy    <       0.00000476 Ry

     iteration # 38     ecut=    29.40 Ry     beta= 0.05
     Davidson diagonalization with overlap
     ethr =  7.20E-10,  avg # of iterations =  1.0

     negative rho (up, down):  3.616E-02 0.000E+00
 
     Adding external electric field

     Computed dipole along edir(3) : 
        Dipole                0.9473 Ry au,          2.4079 Debye
        Dipole field          0.0012 Ry au, 
 
        Potential amp.       -0.1105 Ry
        Total length         46.3494 bohr
 

     total cpu time spent up to now is     1183.2 secs

     total energy              =   -3293.29514909 Ry
     estimated scf accuracy    <       0.00000443 Ry

     iteration # 39     ecut=    29.40 Ry     beta= 0.05
     Davidson diagonalization with overlap
     ethr =  7.20E-10,  avg # of iterations =  5.0

     negative rho (up, down):  3.614E-02 0.000E+00
 
     Adding external electric field

     Computed dipole along edir(3) : 
        Dipole                0.9480 Ry au,          2.4095 Debye
        Dipole field          0.0012 Ry au, 
 
        Potential amp.       -0.1106 Ry
        Total length         46.3494 bohr
 

     total cpu time spent up to now is     1207.4 secs

     total energy              =   -3293.29518110 Ry
     estimated scf accuracy    <       0.00000236 Ry

     iteration # 40     ecut=    29.40 Ry     beta= 0.05
     Davidson diagonalization with overlap
     ethr =  5.36E-10,  avg # of iterations =  5.0

     negative rho (up, down):  3.611E-02 0.000E+00
 
     Adding external electric field

     Computed dipole along edir(3) : 
        Dipole                0.9481 Ry au,          2.4098 Debye
        Dipole field          0.0012 Ry au, 
 
        Potential amp.       -0.1106 Ry
        Total length         46.3494 bohr
 

     total cpu time spent up to now is     1236.4 secs

     total energy              =   -3293.29521061 Ry
     estimated scf accuracy    <       0.00000094 Ry

     iteration # 41     ecut=    29.40 Ry     beta= 0.05
     Davidson diagonalization with overlap
     ethr =  2.14E-10,  avg # of iterations =  1.9

     negative rho (up, down):  3.609E-02 0.000E+00
 
     Adding external electric field

     Computed dipole along edir(3) : 
        Dipole                0.9478 Ry au,          2.4091 Debye
        Dipole field          0.0012 Ry au, 
 
        Potential amp.       -0.1105 Ry
        Total length         46.3494 bohr
 

     total cpu time spent up to now is     1258.1 secs

     total energy              =   -3293.29523724 Ry
     estimated scf accuracy    <       0.00000070 Ry

     iteration # 42     ecut=    29.40 Ry     beta= 0.05
     Davidson diagonalization with overlap
     ethr =  1.59E-10,  avg # of iterations =  6.0

     negative rho (up, down):  3.608E-02 0.000E+00
 
     Adding external electric field

     Computed dipole along edir(3) : 
        Dipole                0.9477 Ry au,          2.4089 Debye
        Dipole field          0.0012 Ry au, 
 
        Potential amp.       -0.1105 Ry
        Total length         46.3494 bohr
 

     total cpu time spent up to now is     1290.0 secs

     total energy              =   -3293.29526087 Ry
     estimated scf accuracy    <       0.00000105 Ry

     iteration # 43     ecut=    29.40 Ry     beta= 0.05
     Davidson diagonalization with overlap
     ethr =  1.59E-10,  avg # of iterations =  4.9

     negative rho (up, down):  3.606E-02 0.000E+00
 
     Adding external electric field

     Computed dipole along edir(3) : 
        Dipole                0.9478 Ry au,          2.4091 Debye
        Dipole field          0.0012 Ry au, 
 
        Potential amp.       -0.1105 Ry
        Total length         46.3494 bohr
 

     total cpu time spent up to now is     1316.7 secs

     total energy              =   -3293.29528220 Ry
     estimated scf accuracy    <       0.00000055 Ry

     iteration # 44     ecut=    29.40 Ry     beta= 0.05
     Davidson diagonalization with overlap
     ethr =  1.25E-10,  avg # of iterations =  4.4

     negative rho (up, down):  3.605E-02 0.000E+00
 
     Adding external electric field

     Computed dipole along edir(3) : 
        Dipole                0.9479 Ry au,          2.4094 Debye
        Dipole field          0.0012 Ry au, 
 
        Potential amp.       -0.1106 Ry
        Total length         46.3494 bohr
 

     total cpu time spent up to now is     1342.9 secs

     total energy              =   -3293.29530140 Ry
     estimated scf accuracy    <       0.00000063 Ry

     iteration # 45     ecut=    29.40 Ry     beta= 0.05
     Davidson diagonalization with overlap
     ethr =  1.25E-10,  avg # of iterations =  2.0

     negative rho (up, down):  3.604E-02 0.000E+00
 
     Adding external electric field

     Computed dipole along edir(3) : 
        Dipole                0.9481 Ry au,          2.4099 Debye
        Dipole field          0.0012 Ry au, 
 
        Potential amp.       -0.1106 Ry
        Total length         46.3494 bohr
 

     total cpu time spent up to now is     1364.8 secs

     total energy              =   -3293.29531877 Ry
     estimated scf accuracy    <       0.00000041 Ry

     iteration # 46     ecut=    29.40 Ry     beta= 0.05
     Davidson diagonalization with overlap
     ethr =  9.21E-11,  avg # of iterations =  7.6

     negative rho (up, down):  3.603E-02 0.000E+00
 
     Adding external electric field

     Computed dipole along edir(3) : 
        Dipole                0.9479 Ry au,          2.4093 Debye
        Dipole field          0.0012 Ry au, 
 
        Potential amp.       -0.1105 Ry
        Total length         46.3494 bohr
 

     total cpu time spent up to now is     1401.4 secs

     total energy              =   -3293.29533429 Ry
     estimated scf accuracy    <       0.00000046 Ry

     iteration # 47     ecut=    29.40 Ry     beta= 0.05
     Davidson diagonalization with overlap
     ethr =  9.21E-11,  avg # of iterations =  5.0

     negative rho (up, down):  3.602E-02 0.000E+00
 
     Adding external electric field

     Computed dipole along edir(3) : 
        Dipole                0.9479 Ry au,          2.4092 Debye
        Dipole field          0.0012 Ry au, 
 
        Potential amp.       -0.1105 Ry
        Total length         46.3494 bohr
 

     total cpu time spent up to now is     1435.9 secs

     total energy              =   -3293.29534837 Ry
     estimated scf accuracy    <       0.00000020 Ry

     iteration # 48     ecut=    29.40 Ry     beta= 0.05
     Davidson diagonalization with overlap
     ethr =  4.56E-11,  avg # of iterations =  1.1

     negative rho (up, down):  3.602E-02 0.000E+00
 
     Adding external electric field

     Computed dipole along edir(3) : 
        Dipole                0.9477 Ry au,          2.4088 Debye
        Dipole field          0.0012 Ry au, 
 
        Potential amp.       -0.1105 Ry
        Total length         46.3494 bohr
 

     total cpu time spent up to now is     1456.3 secs

     total energy              =   -3293.29536094 Ry
     estimated scf accuracy    <       0.00000011 Ry

     iteration # 49     ecut=    29.40 Ry     beta= 0.05
     Davidson diagonalization with overlap
     ethr =  2.45E-11,  avg # of iterations =  5.0

     negative rho (up, down):  3.612E-02 0.000E+00
 
     Adding external electric field

     Computed dipole along edir(3) : 
        Dipole                0.9479 Ry au,          2.4092 Debye
        Dipole field          0.0012 Ry au, 
 
        Potential amp.       -0.1105 Ry
        Total length         46.3494 bohr
 

     total cpu time spent up to now is     1489.6 secs

     End of self-consistent calculation

          k = 0.0000 0.0000 0.0000 ( 26871 PWs)   bands (ev):

   -58.4710 -58.4475 -58.4415 -58.4036 -58.3591 -58.0051 -57.9667 -57.9639
   -57.8801 -57.7611 -57.6867 -57.5754 -57.4877 -57.2205 -57.1454 -57.0737
   -57.0335 -57.0206 -34.8715 -34.8362 -34.8090 -34.7926 -34.7892 -34.7828
   -34.7341 -34.6734 -34.6465 -34.5959 -34.5831 -34.5806 -34.5748 -34.5532
   -34.5079 -34.4070 -34.3712 -34.3461 -34.3235 -34.3189 -34.2743 -34.2413
   -34.2285 -34.2253 -34.1902 -34.1868 -34.1549 -34.0578 -34.0471 -33.9879
   -33.9839 -33.9566 -33.9000 -33.8842 -33.8728 -33.8083 -33.7437 -33.7239
   -33.6952 -33.6835 -33.5803 -33.4639 -33.4453 -33.4180 -33.4177 -33.3814
   -33.3756 -33.3712 -33.3570 -33.3459 -33.2776 -33.2130 -33.1919 -33.0719
   -19.0230 -18.5599 -18.5009 -18.3518 -18.3026 -18.2823 -18.2764 -18.1256
   -17.9088 -17.8635 -17.8492 -17.8279 -17.7453 -17.7250 -17.7092 -17.6866
   -17.6721 -17.6512 -17.5628 -17.5559 -17.5358 -17.5118 -17.4917 -17.4363
   -17.3775 -17.3558 -17.2680 -17.1925 -17.1530 -16.9315 -16.6754 -16.5908
   -15.5395 -15.4983 -15.4900 -15.2764 -15.1480  -6.7581  -6.5955  -6.3579
    -6.1637  -5.9516  -5.8164  -5.6975  -5.6443  -5.5632  -5.4972  -5.4593
    -5.4573  -5.3969  -5.3501  -5.2559  -5.2498  -5.1577  -5.1082  -5.0922
    -5.0626  -5.0144  -4.9676  -4.9223  -4.9067  -4.8457  -4.8019  -4.7915
    -4.7416  -4.6805  -4.6763  -4.6563  -4.6533  -4.6199  -4.5860  -4.4642
    -4.4616  -4.4174  -4.3529  -4.3016  -4.2649  -4.2241  -4.1904  -4.1900
    -4.1737  -4.1280  -4.0945  -3.9191  -3.8683  -3.8312  -3.7989  -3.7161
    -3.6527  -3.5955  -3.5606  -3.5154  -3.4289  -3.3595  -3.3532  -3.3419
    -3.2774  -3.2341  -3.1963  -3.1645  -3.1469  -3.0833  -3.0312  -3.0307
    -2.9873  -2.9728  -2.9587  -2.9123  -2.8585  -2.8348  -2.8330  -2.7933
    -2.7862  -2.7436  -2.6476  -2.6170  -2.5563  -2.5179  -2.4636  -2.4154
    -2.4099  -2.3744  -2.3374  -2.2691  -2.1769  -2.1269  -1.9952  -1.9897
    -1.9135  -1.9030  -1.8374  -1.8118  -1.7919  -1.7440  -1.7175  -1.6046
    -1.5288  -1.4075  -1.1956  -0.9913  -0.8396  -0.7662  -0.7517  -0.7077
    -0.5687  -0.5497  -0.4609  -0.4523   0.8050   0.9406   1.1003   1.1182
     1.3182   1.4469   1.4651   1.5072   1.5643   1.6975

          k = 0.0000 0.0280 0.0000 ( 26907 PWs)   bands (ev):

   -58.4688 -58.4533 -58.4379 -58.4036 -58.3592 -58.0051 -57.9668 -57.9639
   -57.8800 -57.7612 -57.6867 -57.5755 -57.4877 -57.2205 -57.1454 -57.0730
   -57.0356 -57.0192 -34.8865 -34.8585 -34.8392 -34.8098 -34.7814 -34.7106
   -34.6980 -34.6722 -34.6404 -34.6008 -34.5956 -34.5823 -34.5613 -34.5536
   -34.5333 -34.4218 -34.3763 -34.3505 -34.3425 -34.3224 -34.2624 -34.2330
   -34.2273 -34.1901 -34.1878 -34.1801 -34.1553 -34.0579 -34.0479 -34.0065
   -33.9834 -33.9655 -33.9009 -33.8943 -33.8775 -33.8082 -33.7435 -33.7142
   -33.6835 -33.6801 -33.5766 -33.4719 -33.4453 -33.4296 -33.4179 -33.4177
   -33.3825 -33.3705 -33.3623 -33.2767 -33.2636 -33.2244 -33.1846 -33.0972
   -18.9732 -18.6072 -18.5204 -18.4083 -18.2796 -18.2404 -18.2030 -18.0933
   -18.0198 -17.9791 -17.8998 -17.7812 -17.7807 -17.7244 -17.7157 -17.6335
   -17.5994 -17.5981 -17.5755 -17.5407 -17.5203 -17.5086 -17.4481 -17.4456
   -17.4041 -17.3304 -17.2883 -17.2065 -17.1679 -16.9503 -16.6844 -16.5720
   -15.5458 -15.5310 -15.4492 -15.2749 -15.1481  -6.7623  -6.5966  -6.2907
    -6.0830  -5.9037  -5.8278  -5.7651  -5.7219  -5.6049  -5.5092  -5.4730
    -5.4509  -5.4161  -5.4076  -5.3217  -5.3017  -5.2617  -5.1529  -5.0936
    -5.0817  -5.0029  -4.9896  -4.8989  -4.8824  -4.8464  -4.8008  -4.7409
    -4.7387  -4.7270  -4.6857  -4.6707  -4.6574  -4.5954  -4.5546  -4.5512
    -4.5014  -4.4706  -4.3985  -4.3727  -4.2953  -4.1733  -4.1463  -4.0351
    -3.9889  -3.9859  -3.9193  -3.8564  -3.8374  -3.7718  -3.7245  -3.6540
    -3.6315  -3.5982  -3.5383  -3.5106  -3.4442  -3.4408  -3.4126  -3.3540
    -3.2837  -3.2750  -3.2047  -3.1783  -3.1330  -3.1291  -3.0716  -3.0537
    -3.0205  -2.9381  -2.8893  -2.8701  -2.8519  -2.7981  -2.7916  -2.7649
    -2.7167  -2.6928  -2.6767  -2.5916  -2.5856  -2.5465  -2.4854  -2.4775
    -2.4318  -2.4099  -2.3619  -2.3461  -2.2304  -2.1755  -2.0361  -2.0259
    -1.8875  -1.8749  -1.8198  -1.8059  -1.7892  -1.6886  -1.6546  -1.6055
    -1.5553  -1.3896  -1.2517  -1.1500  -0.9150  -0.8199  -0.7277  -0.6444
    -0.5991  -0.5039  -0.4981  -0.4613   0.9058   0.9961   1.0090   1.2447
     1.2924   1.3755   1.4052   1.5048   1.5244   1.6243

          k = 0.0000-0.0559 0.0000 ( 26942 PWs)   bands (ev):

   -58.4652 -58.4591 -58.4359 -58.4035 -58.3593 -58.0050 -57.9668 -57.9639
   -57.8800 -57.7614 -57.6866 -57.5755 -57.4877 -57.2206 -57.1453 -57.0725
   -57.0375 -57.0179 -34.8994 -34.8827 -34.8398 -34.8114 -34.7802 -34.6893
   -34.6728 -34.6270 -34.6206 -34.6056 -34.6031 -34.5924 -34.5822 -34.5554
   -34.5538 -34.4339 -34.3792 -34.3681 -34.3447 -34.3245 -34.2569 -34.2263
   -34.2186 -34.1908 -34.1880 -34.1559 -34.1341 -34.0580 -34.0486 -34.0349
   -33.9828 -33.9753 -33.9078 -33.8993 -33.8783 -33.8082 -33.7433 -33.7109
   -33.6836 -33.6613 -33.5693 -33.4836 -33.4536 -33.4454 -33.4179 -33.4175
   -33.3836 -33.3699 -33.3676 -33.2694 -33.2346 -33.1839 -33.1818 -33.1530
   -18.8811 -18.7445 -18.4674 -18.4314 -18.2702 -18.1522 -18.1385 -18.1266
   -18.0945 -18.0293 -18.0189 -17.8062 -17.7431 -17.7391 -17.6650 -17.6205
   -17.5940 -17.5803 -17.5432 -17.5019 -17.4981 -17.4858 -17.4685 -17.4621
   -17.3909 -17.3240 -17.2791 -17.2471 -17.1819 -16.9683 -16.6898 -16.5572
   -15.5539 -15.5408 -15.4293 -15.2734 -15.1481  -6.7665  -6.5977  -6.1678
    -6.0080  -5.8725  -5.8645  -5.8513  -5.7243  -5.6208  -5.5871  -5.5329
    -5.5146  -5.4565  -5.3929  -5.3473  -5.3265  -5.2224  -5.1897  -5.1790
    -5.1324  -5.0230  -4.9792  -4.9509  -4.9471  -4.8912  -4.8073  -4.7915
    -4.7454  -4.7339  -4.6788  -4.6202  -4.6041  -4.5903  -4.5504  -4.4855
    -4.4251  -4.4246  -4.4030  -4.3511  -4.2175  -4.1148  -4.0747  -4.0609
    -4.0546  -4.0000  -3.9535  -3.8765  -3.7926  -3.6783  -3.6695  -3.6537
    -3.5959  -3.5540  -3.4701  -3.4357  -3.3665  -3.3655  -3.2537  -3.2316
    -3.2231  -3.2140  -3.1888  -3.1840  -3.1730  -3.1555  -3.1277  -3.1175
    -3.0808  -3.0372  -2.9907  -2.8958  -2.8859  -2.8179  -2.7710  -2.7579
    -2.7298  -2.6839  -2.6815  -2.6570  -2.6242  -2.5690  -2.5583  -2.5138
    -2.4366  -2.4050  -2.3103  -2.2876  -2.2861  -2.1920  -2.0606  -2.0081
    -1.9087  -1.8703  -1.8221  -1.7861  -1.7488  -1.6593  -1.5653  -1.5648
    -1.5279  -1.4278  -1.3672  -1.3389  -1.0291  -0.8007  -0.6914  -0.6329
    -0.5827  -0.5661  -0.4780  -0.4652   0.9493   0.9962   1.1734   1.2561
     1.2585   1.3412   1.3596   1.4568   1.4682   1.5311

          k = 0.0380 0.0000 0.0000 ( 26897 PWs)   bands (ev):

   -58.4709 -58.4475 -58.4416 -58.4036 -58.3591 -58.0051 -57.9667 -57.9639
   -57.8801 -57.7611 -57.6867 -57.5754 -57.4877 -57.2205 -57.1454 -57.0736
   -57.0335 -57.0207 -34.8718 -34.8362 -34.8091 -34.7935 -34.7902 -34.7829
   -34.7343 -34.6734 -34.6446 -34.5959 -34.5813 -34.5792 -34.5746 -34.5546
   -34.5076 -34.4078 -34.3712 -34.3466 -34.3194 -34.3190 -34.2747 -34.2416
   -34.2366 -34.2264 -34.1870 -34.1701 -34.1585 -34.0578 -34.0536 -33.9897
   -33.9864 -33.9573 -33.9000 -33.8844 -33.8742 -33.8005 -33.7438 -33.7238
   -33.6953 -33.6888 -33.5803 -33.4639 -33.4466 -33.4193 -33.4182 -33.3821
   -33.3757 -33.3708 -33.3569 -33.3459 -33.2774 -33.2131 -33.1921 -33.0717
   -18.9732 -18.4991 -18.4817 -18.3388 -18.2719 -18.2607 -18.2051 -18.1215
   -17.9326 -17.9142 -17.9123 -17.8504 -17.7541 -17.7280 -17.6731 -17.6665
   -17.6590 -17.6380 -17.6274 -17.6164 -17.5538 -17.5426 -17.5159 -17.4749
   -17.4055 -17.3933 -17.2374 -17.1774 -17.1445 -16.9289 -16.6758 -16.5884
   -15.5369 -15.4987 -15.4904 -15.2756 -15.1484  -6.7513  -6.6001  -6.3214
    -5.8856  -5.7825  -5.7080  -5.6508  -5.5994  -5.5765  -5.5530  -5.4987
    -5.4009  -5.3629  -5.3186  -5.2401  -5.1682  -5.1434  -5.1173  -5.0875
    -5.0485  -5.0326  -4.9440  -4.9218  -4.8454  -4.8220  -4.8065  -4.7897
    -4.7754  -4.7286  -4.7041  -4.6774  -4.6055  -4.5813  -4.5576  -4.4998
    -4.4190  -4.3962  -4.3780  -4.3273  -4.3139  -4.2879  -4.2500  -4.2177
    -4.1607  -4.0185  -3.9656  -3.9039  -3.8983  -3.8571  -3.7917  -3.7724
    -3.6973  -3.5917  -3.5662  -3.5182  -3.4420  -3.4301  -3.3997  -3.3532
    -3.3333  -3.3100  -3.2626  -3.1886  -3.1315  -3.1147  -3.0968  -3.0831
    -3.0706  -3.0216  -2.9671  -2.9488  -2.9232  -2.8761  -2.8065  -2.7478
    -2.7272  -2.6642  -2.6500  -2.6073  -2.5873  -2.5211  -2.4838  -2.4411
    -2.3660  -2.3450  -2.3186  -2.3016  -2.2234  -2.0741  -2.0263  -2.0011
    -1.9303  -1.8578  -1.8232  -1.8033  -1.7544  -1.7437  -1.7041  -1.6912
    -1.5946  -1.5199  -1.3095  -0.9866  -0.8127  -0.7712  -0.7417  -0.7189
    -0.6167  -0.6000  -0.5416  -0.5235   0.8680   1.0389   1.0620   1.0915
     1.1708   1.3328   1.3762   1.4205   1.4817   1.5305

          k = 0.0380 0.0280 0.0000 ( 26880 PWs)   bands (ev):

   -58.4688 -58.4533 -58.4378 -58.4035 -58.3591 -58.0051 -57.9668 -57.9638
   -57.8800 -57.7612 -57.6866 -57.5754 -57.4877 -57.2205 -57.1454 -57.0730
   -57.0356 -57.0191 -34.8866 -34.8590 -34.8392 -34.8099 -34.7813 -34.7108
   -34.6986 -34.6722 -34.6388 -34.6002 -34.5956 -34.5796 -34.5610 -34.5550
   -34.5334 -34.4225 -34.3764 -34.3467 -34.3427 -34.3227 -34.2626 -34.2334
   -34.2254 -34.2002 -34.1880 -34.1617 -34.1567 -34.0579 -34.0549 -34.0056
   -33.9878 -33.9663 -33.9010 -33.8947 -33.8778 -33.8005 -33.7436 -33.7141
   -33.6889 -33.6799 -33.5765 -33.4719 -33.4467 -33.4292 -33.4189 -33.4181
   -33.3837 -33.3697 -33.3623 -33.2767 -33.2636 -33.2244 -33.1845 -33.0973
   -18.9273 -18.5852 -18.4602 -18.3813 -18.2387 -18.2000 -18.1611 -18.0867
   -17.9800 -17.9642 -17.9389 -17.8970 -17.8452 -17.7192 -17.7130 -17.6715
   -17.6484 -17.6107 -17.5770 -17.5521 -17.5401 -17.5267 -17.4966 -17.4330
   -17.4182 -17.4048 -17.2427 -17.1893 -17.1551 -16.9452 -16.6828 -16.5701
   -15.5439 -15.5305 -15.4492 -15.2740 -15.1484  -6.7558  -6.6011  -6.2559
    -5.8236  -5.8053  -5.7509  -5.7226  -5.7008  -5.5560  -5.5436  -5.4900
    -5.4188  -5.3251  -5.2949  -5.2702  -5.2264  -5.1926  -5.1516  -5.1135
    -5.0766  -5.0291  -5.0130  -4.9897  -4.9252  -4.8676  -4.8257  -4.7751
    -4.7564  -4.7184  -4.6993  -4.6708  -4.6439  -4.5749  -4.5299  -4.5154
    -4.4429  -4.3470  -4.3118  -4.2602  -4.2151  -4.1916  -4.1582  -4.1128
    -4.0375  -4.0082  -3.9555  -3.9098  -3.8338  -3.7771  -3.7478  -3.7071
    -3.6790  -3.6153  -3.5785  -3.5529  -3.5244  -3.4559  -3.3973  -3.3556
    -3.3079  -3.2866  -3.2477  -3.1778  -3.1547  -3.1424  -3.1279  -3.1010
    -3.0385  -2.9954  -2.9877  -2.9481  -2.8845  -2.8468  -2.8033  -2.7608
    -2.7276  -2.7018  -2.6700  -2.6465  -2.5985  -2.5806  -2.5512  -2.4739
    -2.4363  -2.3830  -2.3202  -2.2376  -2.1788  -2.1271  -2.0649  -2.0317
    -1.9124  -1.8825  -1.8445  -1.8030  -1.7671  -1.7116  -1.6628  -1.6239
    -1.5590  -1.5085  -1.3345  -1.1617  -0.9078  -0.7965  -0.7264  -0.6398
    -0.6088  -0.5871  -0.5466  -0.5258   0.9219   0.9516   1.1638   1.2014
     1.2229   1.3099   1.3256   1.3935   1.4846   1.5154

          k = 0.0380-0.0559 0.0000 ( 26850 PWs)   bands (ev):

   -58.4651 -58.4590 -58.4358 -58.4035 -58.3592 -58.0050 -57.9668 -57.9639
   -57.8800 -57.7613 -57.6865 -57.5754 -57.4877 -57.2206 -57.1453 -57.0724
   -57.0375 -57.0179 -34.8995 -34.8833 -34.8398 -34.8114 -34.7801 -34.6893
   -34.6728 -34.6257 -34.6192 -34.6057 -34.6033 -34.5924 -34.5794 -34.5558
   -34.5545 -34.4346 -34.3792 -34.3642 -34.3449 -34.3247 -34.2570 -34.2243
   -34.2188 -34.1894 -34.1844 -34.1603 -34.1276 -34.0580 -34.0565 -34.0327
   -33.9869 -33.9762 -33.9083 -33.8993 -33.8784 -33.8004 -33.7434 -33.7107
   -33.6888 -33.6611 -33.5692 -33.4835 -33.4532 -33.4467 -33.4184 -33.4180
   -33.3850 -33.3686 -33.3675 -33.2694 -33.2346 -33.1838 -33.1818 -33.1529
   -18.8462 -18.7034 -18.4432 -18.3791 -18.2088 -18.1197 -18.1101 -18.0764
   -18.0474 -17.9908 -17.9865 -17.9549 -17.9233 -17.7275 -17.6936 -17.6791
   -17.6142 -17.6094 -17.5550 -17.5249 -17.5167 -17.5054 -17.4696 -17.4415
   -17.4231 -17.3913 -17.2458 -17.2071 -17.1655 -16.9603 -16.6870 -16.5553
   -15.5526 -15.5395 -15.4290 -15.2724 -15.1485  -6.7604  -6.6020  -6.1412
    -5.9553  -5.8597  -5.7720  -5.6309  -5.5998  -5.5963  -5.5455  -5.5043
    -5.4400  -5.3796  -5.3442  -5.3231  -5.2384  -5.2180  -5.1862  -5.1499
    -5.1133  -5.0984  -5.0582  -4.9829  -4.9456  -4.8608  -4.8437  -4.8173
    -4.7851  -4.7532  -4.6965  -4.6860  -4.6326  -4.5518  -4.5058  -4.4165
    -4.3892  -4.3089  -4.2472  -4.2137  -4.1981  -4.1637  -4.0707  -4.0352
    -4.0155  -4.0083  -3.9073  -3.8126  -3.7749  -3.7136  -3.6964  -3.6743
    -3.6391  -3.6100  -3.6028  -3.5192  -3.4980  -3.4454  -3.4173  -3.3652
    -3.3286  -3.2883  -3.2548  -3.2006  -3.1635  -3.1147  -3.1064  -3.0761
    -3.0709  -3.0376  -3.0202  -2.9286  -2.9049  -2.8818  -2.8356  -2.8087
    -2.7856  -2.7458  -2.7069  -2.6631  -2.6391  -2.6018  -2.5366  -2.4879
    -2.4490  -2.3734  -2.3406  -2.2408  -2.1723  -2.1320  -2.0924  -2.0215
    -1.9705  -1.9036  -1.7907  -1.7720  -1.7575  -1.6523  -1.6251  -1.5727
    -1.5469  -1.4633  -1.4174  -1.3625  -1.0171  -0.7802  -0.6830  -0.6263
    -0.5883  -0.5817  -0.5709  -0.5279   0.9086   1.0058   1.1846   1.2354
     1.2648   1.3441   1.4062   1.4545   1.4581   1.4855

          k = 0.0380-0.0280 0.0000 ( 26873 PWs)   bands (ev):

   -58.4688 -58.4533 -58.4378 -58.4035 -58.3591 -58.0051 -57.9668 -57.9638
   -57.8800 -57.7612 -57.6866 -57.5754 -57.4877 -57.2205 -57.1453 -57.0730
   -57.0356 -57.0191 -34.8866 -34.8590 -34.8392 -34.8099 -34.7813 -34.7108
   -34.6986 -34.6722 -34.6388 -34.6001 -34.5956 -34.5796 -34.5610 -34.5549
   -34.5334 -34.4225 -34.3764 -34.3467 -34.3427 -34.3226 -34.2626 -34.2333
   -34.2254 -34.2001 -34.1880 -34.1617 -34.1567 -34.0578 -34.0549 -34.0056
   -33.9878 -33.9662 -33.9010 -33.8947 -33.8778 -33.8005 -33.7436 -33.7141
   -33.6889 -33.6799 -33.5765 -33.4719 -33.4467 -33.4292 -33.4189 -33.4181
   -33.3836 -33.3696 -33.3623 -33.2767 -33.2636 -33.2244 -33.1845 -33.0973
   -18.9273 -18.5852 -18.4601 -18.3813 -18.2387 -18.2000 -18.1612 -18.0866
   -17.9802 -17.9645 -17.9385 -17.8970 -17.8447 -17.7196 -17.7131 -17.6713
   -17.6479 -17.6107 -17.5769 -17.5525 -17.5403 -17.5266 -17.4967 -17.4326
   -17.4183 -17.4049 -17.2427 -17.1893 -17.1551 -16.9452 -16.6828 -16.5701
   -15.5439 -15.5305 -15.4492 -15.2740 -15.1484  -6.7558  -6.6011  -6.2559
    -5.8235  -5.8049  -5.7507  -5.7228  -5.7009  -5.5560  -5.5438  -5.4902
    -5.4189  -5.3260  -5.2950  -5.2700  -5.2262  -5.1921  -5.1514  -5.1132
    -5.0767  -5.0289  -5.0131  -4.9897  -4.9250  -4.8678  -4.8260  -4.7755
    -4.7566  -4.7188  -4.6992  -4.6707  -4.6441  -4.5742  -4.5299  -4.5151
    -4.4426  -4.3473  -4.3120  -4.2607  -4.2151  -4.1919  -4.1584  -4.1126
    -4.0378  -4.0075  -3.9552  -3.9102  -3.8333  -3.7768  -3.7476  -3.7070
    -3.6784  -3.6156  -3.5787  -3.5529  -3.5241  -3.4558  -3.3973  -3.3552
    -3.3081  -3.2867  -3.2479  -3.1780  -3.1549  -3.1430  -3.1282  -3.1014
    -3.0383  -2.9953  -2.9882  -2.9482  -2.8840  -2.8461  -2.8033  -2.7601
    -2.7277  -2.7022  -2.6702  -2.6460  -2.5987  -2.5800  -2.5511  -2.4737
    -2.4362  -2.3832  -2.3207  -2.2379  -2.1789  -2.1271  -2.0648  -2.0318
    -1.9123  -1.8827  -1.8448  -1.8030  -1.7672  -1.7111  -1.6630  -1.6246
    -1.5589  -1.5084  -1.3345  -1.1617  -0.9078  -0.7966  -0.7264  -0.6397
    -0.6094  -0.5871  -0.5461  -0.5258   0.9220   0.9516   1.1644   1.2018
     1.2233   1.3092   1.3259   1.3934   1.4845   1.5157

          k =-0.0760-0.0000 0.0000 ( 26902 PWs)   bands (ev):

   -58.4708 -58.4475 -58.4416 -58.4036 -58.3591 -58.0051 -57.9668 -57.9638
   -57.8801 -57.7611 -57.6867 -57.5754 -57.4877 -57.2205 -57.1454 -57.0736
   -57.0335 -57.0207 -34.8720 -34.8362 -34.8091 -34.7942 -34.7909 -34.7830
   -34.7345 -34.6733 -34.6427 -34.5960 -34.5808 -34.5771 -34.5742 -34.5553
   -34.5076 -34.4085 -34.3713 -34.3471 -34.3193 -34.3150 -34.2752 -34.2423
   -34.2418 -34.2243 -34.1865 -34.1668 -34.1495 -34.0615 -34.0578 -33.9941
   -33.9865 -33.9579 -33.9000 -33.8845 -33.8753 -33.7920 -33.7441 -33.7235
   -33.6953 -33.6949 -33.5803 -33.4639 -33.4479 -33.4206 -33.4186 -33.3827
   -33.3756 -33.3705 -33.3569 -33.3459 -33.2773 -33.2132 -33.1921 -33.0718
   -18.9197 -18.4953 -18.3912 -18.3208 -18.2573 -18.2420 -18.0881 -18.0662
   -17.9730 -17.9606 -17.9179 -17.8685 -17.8065 -17.7726 -17.7332 -17.7257
   -17.6819 -17.6570 -17.6396 -17.6148 -17.5980 -17.5804 -17.5527 -17.4523
   -17.3985 -17.3890 -17.2265 -17.1686 -17.1360 -16.9270 -16.6762 -16.5862
   -15.5344 -15.4991 -15.4907 -15.2748 -15.1488  -6.7440  -6.6056  -6.3003
    -5.6818  -5.6299  -5.5833  -5.5322  -5.5025  -5.4931  -5.4430  -5.4353
    -5.3859  -5.3118  -5.2968  -5.2176  -5.1555  -5.1463  -5.0577  -5.0201
    -5.0081  -4.9951  -4.9743  -4.9534  -4.9446  -4.9302  -4.9095  -4.8998
    -4.8822  -4.8591  -4.7692  -4.6636  -4.6330  -4.5402  -4.5363  -4.5049
    -4.4025  -4.3839  -4.2447  -4.2221  -4.2174  -4.2018  -4.1783  -4.1379
    -4.0577  -4.0501  -4.0117  -3.9786  -3.9364  -3.8786  -3.8172  -3.8060
    -3.6881  -3.6557  -3.6419  -3.5881  -3.5392  -3.5039  -3.4854  -3.4192
    -3.4093  -3.3206  -3.2424  -3.2071  -3.1734  -3.1306  -3.1165  -3.1010
    -3.0580  -3.0433  -3.0292  -2.9296  -2.9236  -2.8786  -2.8380  -2.8147
    -2.7893  -2.7609  -2.6992  -2.5951  -2.5685  -2.5105  -2.4453  -2.4379
    -2.4135  -2.3206  -2.2868  -2.1946  -2.1675  -2.1355  -2.0050  -1.9465
    -1.9461  -1.8208  -1.8046  -1.7689  -1.7536  -1.7381  -1.7326  -1.7009
    -1.6831  -1.6620  -1.4470  -0.9822  -0.7858  -0.7257  -0.7135  -0.7125
    -0.6654  -0.6510  -0.6427  -0.6028   0.8847   0.9176   1.0326   1.0581
     1.2169   1.2773   1.3279   1.3309   1.3966   1.5225

          k =-0.0760 0.0279 0.0000 ( 26908 PWs)   bands (ev):

   -58.4688 -58.4533 -58.4379 -58.4035 -58.3591 -58.0051 -57.9668 -57.9639
   -57.8800 -57.7612 -57.6866 -57.5754 -57.4877 -57.2205 -57.1454 -57.0730
   -57.0356 -57.0191 -34.8868 -34.8598 -34.8392 -34.8099 -34.7814 -34.7110
   -34.6991 -34.6723 -34.6373 -34.5994 -34.5956 -34.5775 -34.5611 -34.5558
   -34.5335 -34.4233 -34.3764 -34.3431 -34.3430 -34.3230 -34.2628 -34.2337
   -34.2236 -34.2035 -34.1875 -34.1660 -34.1416 -34.0639 -34.0578 -34.0046
   -33.9927 -33.9671 -33.9012 -33.8952 -33.8781 -33.7924 -33.7439 -33.7140
   -33.6950 -33.6799 -33.5765 -33.4719 -33.4481 -33.4291 -33.4202 -33.4186
   -33.3848 -33.3691 -33.3624 -33.2767 -33.2636 -33.2244 -33.1846 -33.0973
   -18.8785 -18.5649 -18.4036 -18.3330 -18.1994 -18.1964 -18.0632 -18.0251
   -18.0173 -17.9521 -17.9372 -17.8394 -17.8200 -17.8015 -17.7743 -17.7709
   -17.7452 -17.6996 -17.6911 -17.6434 -17.5425 -17.5264 -17.4697 -17.4065
   -17.4003 -17.3774 -17.2304 -17.1782 -17.1447 -16.9412 -16.6814 -16.5685
   -15.5422 -15.5298 -15.4492 -15.2732 -15.1488  -6.7492  -6.6061  -6.2350
    -5.8019  -5.7954  -5.7341  -5.5429  -5.4346  -5.4023  -5.3991  -5.3859
    -5.3451  -5.3091  -5.3022  -5.2551  -5.1939  -5.1502  -5.1432  -5.1104
    -5.0337  -5.0066  -5.0044  -4.9797  -4.9121  -4.8948  -4.8710  -4.8352
    -4.8312  -4.7626  -4.6985  -4.6841  -4.6744  -4.6096  -4.5915  -4.4872
    -4.4415  -4.3483  -4.2877  -4.2439  -4.2066  -4.1361  -4.0637  -4.0599
    -4.0331  -3.9738  -3.9293  -3.8725  -3.8606  -3.8148  -3.8110  -3.7399
    -3.6686  -3.6631  -3.6571  -3.6133  -3.5340  -3.5024  -3.4681  -3.4235
    -3.3722  -3.3538  -3.2859  -3.2256  -3.1726  -3.1568  -3.1318  -3.1112
    -3.0671  -3.0152  -2.9910  -2.9452  -2.9410  -2.8952  -2.8715  -2.8546
    -2.7790  -2.7756  -2.7507  -2.6800  -2.6521  -2.6283  -2.5204  -2.4920
    -2.4148  -2.3426  -2.2211  -2.1836  -2.1503  -2.0297  -2.0290  -1.9623
    -1.9267  -1.9223  -1.9147  -1.8486  -1.7174  -1.7170  -1.6681  -1.6505
    -1.6069  -1.5276  -1.4332  -1.1772  -0.8977  -0.7300  -0.7090  -0.6782
    -0.6431  -0.6209  -0.6205  -0.5778   0.8885   0.9327   1.0218   1.1645
     1.2495   1.2600   1.2969   1.3218   1.4404   1.4972

          k =-0.0760-0.0559 0.0000 ( 26868 PWs)   bands (ev):

   -58.4651 -58.4590 -58.4358 -58.4034 -58.3592 -58.0050 -57.9668 -57.9638
   -57.8800 -57.7613 -57.6865 -57.5754 -57.4877 -57.2206 -57.1453 -57.0724
   -57.0375 -57.0178 -34.8996 -34.8840 -34.8398 -34.8114 -34.7800 -34.6894
   -34.6728 -34.6246 -34.6181 -34.6059 -34.6036 -34.5924 -34.5777 -34.5566
   -34.5550 -34.4354 -34.3792 -34.3602 -34.3451 -34.3249 -34.2570 -34.2227
   -34.2192 -34.1888 -34.1812 -34.1651 -34.1190 -34.0661 -34.0578 -34.0313
   -33.9914 -33.9772 -33.9087 -33.8993 -33.8785 -33.7925 -33.7436 -33.7106
   -33.6950 -33.6611 -33.5692 -33.4834 -33.4529 -33.4483 -33.4197 -33.4185
   -33.3866 -33.3680 -33.3675 -33.2694 -33.2345 -33.1837 -33.1818 -33.1529
   -18.8097 -18.6613 -18.4159 -18.3172 -18.1543 -18.1067 -18.0539 -18.0438
   -18.0377 -17.9417 -17.9247 -17.8812 -17.8723 -17.8237 -17.7990 -17.7872
   -17.7806 -17.7486 -17.6810 -17.6257 -17.5404 -17.4475 -17.4349 -17.4194
   -17.4126 -17.3334 -17.2337 -17.1902 -17.1533 -16.9540 -16.6846 -16.5536
   -15.5513 -15.5383 -15.4287 -15.2715 -15.1488  -6.7544  -6.6066  -6.1217
    -5.9267  -5.8951  -5.8541  -5.5365  -5.4937  -5.3891  -5.3599  -5.3564
    -5.3292  -5.2853  -5.2470  -5.1914  -5.1563  -5.1377  -5.1299  -5.1114
    -5.0851  -5.0382  -5.0137  -4.9698  -4.9647  -4.9497  -4.9197  -4.8964
    -4.8472  -4.8385  -4.7664  -4.7572  -4.7237  -4.5286  -4.4756  -4.4123
    -4.3635  -4.2973  -4.2443  -4.1903  -4.1901  -4.1053  -4.1038  -4.0381
    -3.9797  -3.8921  -3.8122  -3.8045  -3.7814  -3.7535  -3.7207  -3.6878
    -3.6651  -3.6446  -3.6050  -3.5573  -3.5195  -3.4458  -3.4128  -3.4065
    -3.3661  -3.3470  -3.3357  -3.3316  -3.3152  -3.2099  -3.2041  -3.1439
    -3.1104  -3.1030  -3.0351  -3.0282  -2.9760  -2.9514  -2.8822  -2.8422
    -2.8352  -2.7464  -2.7388  -2.7338  -2.6545  -2.6448  -2.5442  -2.5105
    -2.4275  -2.3019  -2.1815  -2.1790  -2.1692  -2.0496  -2.0465  -2.0360
    -1.9907  -1.9290  -1.9032  -1.7216  -1.7182  -1.6724  -1.6012  -1.5801
    -1.5563  -1.5415  -1.4260  -1.4035  -0.9988  -0.7070  -0.6829  -0.6786
    -0.6460  -0.6164  -0.5830  -0.5741   0.8566   1.0173   1.0949   1.1605
     1.1862   1.2299   1.2616   1.4363   1.4987   1.5052

     the Fermi energy is     0.2179 ev

!    total energy              =   -3293.29547789 Ry
     estimated scf accuracy    <       0.00000003 Ry
     smearing contrib. (-TS)   =      -0.00052847 Ry
     internal energy E=F+TS    =   -3293.29494942 Ry

     The total energy is F=E-TS. E is the sum of the following terms:
     one-electron contribution =  -34586.10032912 Ry
     hartree contribution      =   17354.86347042 Ry
     xc contribution           =    -542.07555413 Ry
     ewald contribution        =   14480.01633310 Ry
     electric field correction =       0.00113031 Ry

     convergence has been achieved in  49 iterations

     Forces acting on atoms (cartesian axes, Ry/au):

     atom    1 type  1   force =    -0.00000709    0.00891395    0.04217048
     atom    2 type  1   force =     0.00002345   -0.00250304   -0.00302846
     atom    3 type  1   force =    -0.00003298   -0.00663859   -0.00133425
     atom    4 type  1   force =     0.00004716    0.00394777    0.10167893
     atom    5 type  1   force =     0.00002069   -0.00060606    0.00717602
     atom    6 type  1   force =    -0.00002314    0.00064464    0.00251545
     atom    7 type  1   force =     0.07636333    0.00119588   -0.03510198
     atom    8 type  1   force =     0.00754641   -0.02411306    0.00123419
     atom    9 type  1   force =     0.00820840   -0.02078083    0.00155936
     atom   10 type  2   force =    -0.00003313   -0.00385319   -0.16972413
     atom   11 type  2   force =    -0.00011467    0.02223459   -0.00318052
     atom   12 type  2   force =    -0.00000061    0.02083127   -0.00492312
     atom   13 type  1   force =    -0.07645629    0.00074242   -0.03505096
     atom   14 type  1   force =    -0.00762634   -0.02398840    0.00122910
     atom   15 type  1   force =    -0.00815424   -0.02086575    0.00156735
     atom   16 type  2   force =     0.00009760    0.00206370    0.07521195
     atom   17 type  2   force =     0.00020632    0.02907717    0.00186012
     atom   18 type  2   force =    -0.00009384    0.02354668    0.00026048
     atom   19 type  1   force =     0.00000450    0.00223015    0.05609483
     atom   20 type  1   force =     0.00000379   -0.00070370   -0.00276887
     atom   21 type  1   force =     0.00004770   -0.00273414    0.10231058
     atom   22 type  1   force =     0.00000921   -0.00165495    0.00633525
     atom   23 type  1   force =    -0.00001781   -0.00349451    0.00160425
     atom   24 type  1   force =     0.07835395   -0.00056125   -0.03677755
     atom   25 type  1   force =     0.00982118   -0.02946449   -0.00095645
     atom   26 type  1   force =     0.01062441   -0.02688465   -0.00643432
     atom   27 type  2   force =    -0.00005795    0.01457138   -0.15614841
     atom   28 type  2   force =    -0.00013545    0.02620110   -0.00047216
     atom   29 type  2   force =     0.00003607    0.02123508    0.00476684
     atom   30 type  1   force =    -0.07844890   -0.00098922   -0.03672655
     atom   31 type  1   force =    -0.00988261   -0.02932053   -0.00095821
     atom   32 type  1   force =    -0.01049731   -0.02694971   -0.00648468
     atom   33 type  2   force =     0.00009816   -0.00383476    0.07802552
     atom   34 type  2   force =     0.00019765    0.03433920    0.00308971
     atom   35 type  2   force =    -0.00012263    0.03181443    0.00686729
     atom   36 type  1   force =     0.00002017    0.00148155    0.05148517
     atom   37 type  1   force =     0.00002270   -0.00168003   -0.00235139
     atom   38 type  1   force =    -0.00002020   -0.00401402    0.00013673
     atom   39 type  1   force =     0.00004960    0.00037072    0.09992978
     atom   40 type  1   force =     0.00001716   -0.00069116    0.00653455
     atom   41 type  1   force =    -0.00002524   -0.00128367    0.00443276
     atom   42 type  1   force =     0.07943451    0.00172124   -0.03466708
     atom   43 type  1   force =     0.00605503   -0.02329034    0.00044649
     atom   44 type  1   force =     0.00707052   -0.02160332    0.00389406
     atom   45 type  2   force =    -0.00005754   -0.01581407   -0.15541779
     atom   46 type  2   force =    -0.00010446    0.01699997    0.00084461
     atom   47 type  2   force =     0.00002657    0.02105316   -0.00086099
     atom   48 type  1   force =    -0.07952670    0.00128154   -0.03461466
     atom   49 type  1   force =    -0.00616926   -0.02317593    0.00043637
     atom   50 type  1   force =    -0.00693411   -0.02163082    0.00389221
     atom   51 type  2   force =     0.00008399   -0.00447752    0.06172930
     atom   52 type  2   force =     0.00019681    0.02908990    0.00075822
     atom   53 type  2   force =    -0.00014349    0.02964058    0.00016443
     atom   54 type  3   force =     0.00001163    0.00160581   -0.00128826
     atom   55 type  4   force =     0.00002898   -0.00046779    0.00024788
     atom   56 type  4   force =    -0.00005413   -0.00006976   -0.00008841
     atom   57 type  3   force =    -0.00003593    0.02180994   -0.00028800
     atom   58 type  4   force =     0.00006652   -0.01101439    0.00629096
     atom   59 type  4   force =    -0.00001814   -0.00949018   -0.00713402

     Total force =     0.439927     Total SCF correction =     0.000560
  @ DRIVER MODE: Message from server: STATUS
  @ DRIVER MODE: Message from server: GETFORCE
  @ DRIVER MODE: Returning v,forces,stress,ensemble 

     Writing output data file ./calc.save/
  @ DRIVER MODE: Message from server: EXIT
  @ DRIVE MODE: Exiting  
 
     init_run     :     17.88s CPU     18.28s WALL (       1 calls)
     electrons    :   1442.24s CPU   1471.08s WALL (       1 calls)
     forces       :      4.33s CPU      4.51s WALL (       1 calls)

     Called by init_run:
     wfcinit      :      9.63s CPU      9.76s WALL (       1 calls)
     potinit      :      7.25s CPU      7.34s WALL (       1 calls)
     hinit0       :      0.42s CPU      0.44s WALL (       1 calls)

     Called by electrons:
     c_bands      :   1210.22s CPU   1225.60s WALL (      49 calls)
     sum_band     :    161.49s CPU    167.83s WALL (      49 calls)
     v_of_rho     :     55.14s CPU     57.20s WALL (      50 calls)
     newd         :     19.59s CPU     24.60s WALL (      50 calls)
     mix_rho      :      2.09s CPU      2.18s WALL (      49 calls)
     vdW_kernel   :      5.85s CPU      5.87s WALL (       1 calls)

     Called by c_bands:
     init_us_2    :      7.98s CPU      8.03s WALL (    1000 calls)
     cegterg      :   1184.44s CPU   1199.44s WALL (     490 calls)

     Called by *egterg:
     cdiaghg      :    130.45s CPU    131.25s WALL (    3545 calls)
     h_psi        :    695.03s CPU    704.17s WALL (    3555 calls)
     s_psi        :     87.64s CPU     87.88s WALL (    3555 calls)
     g_psi        :      2.43s CPU      2.44s WALL (    3055 calls)

     Called by h_psi:
     h_psi:calbec :     83.06s CPU     83.87s WALL (    3555 calls)
     vloc_psi     :    520.81s CPU    525.35s WALL (    3555 calls)
     add_vuspsi   :     87.77s CPU     89.08s WALL (    3555 calls)

     General routines
     calbec       :    112.51s CPU    113.40s WALL (    4085 calls)
     fft          :     29.93s CPU     30.10s WALL (    3150 calls)
     ffts         :      0.17s CPU      0.17s WALL (      99 calls)
     fftw         :    575.70s CPU    580.60s WALL (  729834 calls)
     interpolate  :      0.58s CPU      0.60s WALL (      50 calls)
     davcio       :      0.00s CPU      0.31s WALL (      10 calls)
 
     Parallel routines
 
     PWSCF        :  24m24.70s CPU  24m54.73s WALL

 
   This run was terminated on:  21: 5: 1  18Oct2021            

=------------------------------------------------------------------------------=
   JOB DONE.
=------------------------------------------------------------------------------=
