
     Program PWSCF v.6.7GPU starts on 16Sep2021 at  9:22:17 

     This program is part of the open-source Quantum ESPRESSO suite
     for quantum simulation of materials; please cite
         "P. Giannozzi et al., J. Phys.:Condens. Matter 21 395502 (2009);
         "P. Giannozzi et al., J. Phys.:Condens. Matter 29 465901 (2017);
         "P. Giannozzi et al., J. Chem. Phys. 152 154105 (2020);
          URL http://www.quantum-espresso.org", 
     in publications or presentations arising from this work. More details at
     http://www.quantum-espresso.org/quote

     Parallel version (MPI), running on    10 processors

     MPI processes distributed on     1 nodes
     R & G space division:  proc/nbgrp/npool/nimage =      10
     Reading input from /storage/home/hcoda1/3/ntian30/research/carbon/CxH_vib/H2O_calc/ads_slab/CH3NNH3H2O_a/out_0050/pw.inp
Warning: card &CELL ignored
Warning: card   CELL_DYNAMICS='IPI', ignored
Warning: card / ignored

     Current dimensions of program PWSCF are:
     Max number of different atomic species (ntypx) = 10
     Max number of k-points (npk) =  40000
     Max angular momentum in pseudopotentials (lmaxx) =  3
     Presently no symmetry can be used with electric field

     Message from routine cell_base_init:
     DEPRECATED: use true lattice parameter, not A to a.u. conversion factor

     **************************************************************************
     Initializing libbeef V0.1.2 with the BEEF-vdW functional.
     Citation: Wellendorff et al., PRB 85, 235149 (2012).
     **************************************************************************


     IMPORTANT: XC functional enforced from input :
     Exchange-correlation= BEEF-VDW
                           (   1   4  43  14   2   0   0)
     Any further DFT definition will be discarded
     Please, verify this is what you really want


     Subspace diagonalization in iterative solution of the eigenvalue problem:
     one sub-group per band group will be used
     scalapack distributed-memory algorithm (size of sub-group:  3*  3 procs)

  @ DRIVER MODE: Connecting to 
 qe_1139763_2852621.sched-torque.pace.gatech.eduo93ofsae_scratch
  using UNIX socket
  @ DRIVER MODE: Message from server: STATUS
  @ DRIVER MODE: Message from server: INIT
  @ DRIVER MODE: Receiving replica           0          -1
  @ DRIVER MODE: Receiving encoded integer          25
  @ DRIVER MODE:  SCF:  T  FORCE:  T  STRESS:  F  VC:  F  ENSEMBLE:  F
  @ DRIVER MODE:  SCF:  T  FORCE:  T  STRESS:  F  VC:  F  ENSEMBLE:  F
 
     Parallelization info
     --------------------
     sticks:   dense  smooth     PW     G-vecs:    dense   smooth      PW
     Min         327     131     37                56683    14340    2191
     Max         328     133     38                56694    14346    2206
     Sum        3275    1317    379               566857   143421   21985
 
     Using Slab Decomposition
 


     bravais-lattice index     =            0
     lattice parameter (alat)  =       1.8897  a.u.
     unit-cell volume          =    6658.9804 (a.u.)^3
     number of atoms/cell      =           59
     number of atomic types    =            5
     number of electrons       =       406.00
     number of Kohn-Sham states=          213
     kinetic-energy cutoff     =      29.3995  Ry
     charge density cutoff     =     293.9946  Ry
     scf convergence threshold =      7.3E-08
     mixing beta               =       0.0500
     number of iterations used =            8  plain     mixing
     Exchange-correlation= BEEF-VDW
                           (   1   4  43  14   2   0   0)

     celldm(1)=   1.889726  celldm(2)=   0.000000  celldm(3)=   0.000000
     celldm(4)=   0.000000  celldm(5)=   0.000000  celldm(6)=   0.000000

     crystal axes: (cart. coord. in units of alat)
               a(1) = (   6.579727   0.000000   0.000000 )  
               a(2) = (  -0.000775   5.961596   0.000000 )  
               a(3) = (   0.000000   0.000000  25.155947 )  

     reciprocal axes: (cart. coord. in units 2 pi/alat)
               b(1) = (  0.151982  0.000020  0.000000 )  
               b(2) = (  0.000000  0.167740  0.000000 )  
               b(3) = (  0.000000  0.000000  0.039752 )  


     PseudoPot. # 1 for Ti read from file:
     /storage/coda1/p-amedford6/0/shared/rich_project_chbe-medford/medford-share/data/pseudos_module/espresso/nninc/pbe/van/Ti.UPF
     MD5 check sum: 8e4df49b7f0d34bbd5052bf3f5ea0213
     Pseudo is Ultrasoft, Zval = 12.0
     Generated by new atomic code, or converted to UPF format
     Using radial grid of  851 points,  6 beta functions with: 
                l(1) =   0
                l(2) =   0
                l(3) =   1
                l(4) =   1
                l(5) =   2
                l(6) =   2
     Q(r) pseudized with  8 coefficients,  rinner =    1.000   1.000   1.000
                                                       1.000   1.000

     PseudoPot. # 2 for O  read from file:
     /storage/coda1/p-amedford6/0/shared/rich_project_chbe-medford/medford-share/data/pseudos_module/espresso/nninc/pbe/van/O.UPF
     MD5 check sum: 78c19812648e8988a0fe644b0f25305e
     Pseudo is Ultrasoft, Zval =  6.0
     Generated by new atomic code, or converted to UPF format
     Using radial grid of  737 points,  4 beta functions with: 
                l(1) =   0
                l(2) =   0
                l(3) =   1
                l(4) =   1
     Q(r) pseudized with  8 coefficients,  rinner =    0.800   0.800   0.800


     PseudoPot. # 3 for N  read from file:
     /storage/coda1/p-amedford6/0/shared/rich_project_chbe-medford/medford-share/data/pseudos_module/espresso/nninc/pbe/van/N.UPF
     MD5 check sum: 90d10febe142ad51ac9d5be1deb811c4
     Pseudo is Ultrasoft, Zval =  5.0
     Generated by new atomic code, or converted to UPF format
     Using radial grid of  729 points,  4 beta functions with: 
                l(1) =   0
                l(2) =   0
                l(3) =   1
                l(4) =   1
     Q(r) pseudized with  8 coefficients,  rinner =    0.800   0.800   0.800


     PseudoPot. # 4 for C  read from file:
     /storage/coda1/p-amedford6/0/shared/rich_project_chbe-medford/medford-share/data/pseudos_module/espresso/nninc/pbe/van/C.UPF
     MD5 check sum: 1a69bf6b8db32088f5b2163dbdb77a27
     Pseudo is Ultrasoft, Zval =  4.0
     Generated by new atomic code, or converted to UPF format
     Using radial grid of  721 points,  4 beta functions with: 
                l(1) =   0
                l(2) =   0
                l(3) =   1
                l(4) =   1
     Q(r) pseudized with  8 coefficients,  rinner =    0.800   0.800   0.800


     PseudoPot. # 5 for H  read from file:
     /storage/coda1/p-amedford6/0/shared/rich_project_chbe-medford/medford-share/data/pseudos_module/espresso/nninc/pbe/van/H.UPF
     MD5 check sum: b5ee9d7bfd3a09ee7748110bda690ff7
     Pseudo is Ultrasoft, Zval =  1.0
     Generated by new atomic code, or converted to UPF format
     Using radial grid of  615 points,  1 beta functions with: 
                l(1) =   0
     Q(r) pseudized with  8 coefficients,  rinner =    0.800

     atomic species   valence    mass     pseudopotential
        Ti1           12.00    47.86700     Ti( 1.00)
        O1             6.00    15.99900     O ( 1.00)
        N1             5.00    14.00700     N ( 1.00)
        C1             4.00    12.01100     C ( 1.00)
        H1             1.00     1.00800     H ( 1.00)

     No symmetry found



   Cartesian axes

     site n.     atom                  positions (alat units)
         1           Ti1 tau(   1) = (   0.0004258   2.9801865   6.0000000  )
         2           Ti1 tau(   2) = (   3.2906075   1.4906267   6.0002472  )
         3           O1  tau(   3) = (   0.0006271   0.0005054   7.9858123  )
         4           O1  tau(   4) = (   3.2906025   0.0005020   7.3038282  )
         5           O1  tau(   5) = (   4.5942328   1.4918067   9.2879030  )
         6           O1  tau(   6) = (   1.9868534   1.4903216   9.2879459  )
         7           Ti1 tau(   7) = (   3.2907910   2.8959150   9.1758416  )
         8           Ti1 tau(   8) = (   0.0015273   1.4827037   9.2680791  )
         9           O1  tau(   9) = (   3.2954490   0.0159868  11.2922163  )
        10           O1  tau(  10) = (   0.0116148   5.9584955  10.6183126  )
        11           O1  tau(  11) = (   1.3242731   1.5050266  12.6143764  )
        12           O1  tau(  12) = (   5.3073597   1.5103589  12.6267567  )
        13           Ti1 tau(  13) = (   6.4831477   3.0011104  12.7364612  )
        14           Ti1 tau(  14) = (   3.1751638   1.4975352  12.4748964  )
        15           O1  tau(  15) = (   0.0212859   5.9607631  14.5987152  )
        16           O1  tau(  16) = (   3.3058086   0.0238703  13.8910224  )
        17           O1  tau(  17) = (   4.5539421   1.5574750  15.9960573  )
        18           O1  tau(  18) = (   2.0731809   1.5597727  15.9888445  )
        19           Ti1 tau(  19) = (   3.3176354   3.0289328  15.6523405  )
        20           Ti1 tau(  20) = (   0.0198791   1.6227889  16.0606591  )
        21           O1  tau(  21) = (   3.2904802   0.0005063   4.7018136  )
        22           O1  tau(  22) = (   0.0290054   0.0533443  17.2129705  )
        23           O1  tau(  23) = (   1.3043587   1.4918075   6.0039043  )
        24           O1  tau(  24) = (   5.2767064   1.4903225   6.0039473  )
        25           Ti1 tau(  25) = (   0.0000382   5.9609847   6.0000000  )
        26           Ti1 tau(  26) = (   3.2902200   4.4714249   6.0002472  )
        27           O1  tau(  27) = (   0.0002396   2.9813036   7.9858123  )
        28           O1  tau(  28) = (   3.2902150   2.9813002   7.3038282  )
        29           O1  tau(  29) = (   4.5938453   4.4726049   9.2879030  )
        30           O1  tau(  30) = (   1.9864658   4.4711199   9.2879459  )
        31           Ti1 tau(  31) = (   3.2891106   5.8743827   9.1763621  )
        32           Ti1 tau(  32) = (   0.0006254   4.4649316   9.2693709  )
        33           O1  tau(  33) = (   3.2918316   2.9938763  11.2915017  )
        34           O1  tau(  34) = (   0.0092240   2.9805883  10.6323155  )
        35           O1  tau(  35) = (   1.3226278   4.4784642  12.6110361  )
        36           O1  tau(  36) = (   5.3078083   4.4770455  12.6250823  )
        37           Ti1 tau(  37) = (   6.5141033   0.0190828  12.7620745  )
        38           Ti1 tau(  38) = (   3.1722404   4.4939287  12.4712879  )
        39           O1  tau(  39) = (   0.0035410   2.9850241  14.6487316  )
        40           O1  tau(  40) = (   3.3118331   3.0109266  13.8519036  )
        41           O1  tau(  41) = (   4.5522870   4.5059159  16.0259181  )
        42           O1  tau(  42) = (   2.0778134   4.5048723  16.0185459  )
        43           Ti1 tau(  43) = (   3.3116469   0.0596163  15.7453941  )
        44           Ti1 tau(  44) = (   0.0183239   4.5967015  16.1059876  )
        45           O1  tau(  45) = (   3.2900926   2.9813045   4.7018136  )
        46           O1  tau(  46) = (   1.3039711   4.4726057   6.0039043  )
        47           O1  tau(  47) = (   5.2763189   4.4711207   6.0039473  )
        48           N1  tau(  48) = (   0.0600715   3.0265251  17.3188267  )
        49           N1  tau(  49) = (   6.2826239   2.5295367  22.6224490  )
        50           C1  tau(  50) = (   0.2859397   3.0149959  18.7399364  )
        51           H1  tau(  51) = (   0.1411154   4.0060466  19.1894648  )
        52           H1  tau(  52) = (   6.1913215   2.3105648  19.2421896  )
        53           H1  tau(  53) = (   1.3125146   2.6868920  18.9691123  )
        54           H1  tau(  54) = (   6.1000088   3.2491606  23.3142794  )
        55           H1  tau(  55) = (   0.1456284   1.7586669  23.1118534  )
        56           H1  tau(  56) = (   0.4074265   2.9048463  21.9856970  )
        57           O1  tau(  57) = (   3.2908421   0.1144680  18.1630233  )
        58           H1  tau(  58) = (   4.0679411   5.5688996  18.4486002  )
        59           H1  tau(  59) = (   2.5060966   5.5711546  18.4327789  )

     number of k points=    10  Fermi-Dirac smearing, width (Ry)=  0.0073
                       cart. coord. in units 2pi/alat
        k(    1) = (   0.0000000   0.0000000   0.0000000), wk =   0.1250000
        k(    2) = (   0.0000000   0.0419351   0.0000000), wk =   0.2500000
        k(    3) = (   0.0000000  -0.0838702   0.0000000), wk =   0.1250000
        k(    4) = (   0.0379955   0.0000049   0.0000000), wk =   0.2500000
        k(    5) = (   0.0379955   0.0419400   0.0000000), wk =   0.2500000
        k(    6) = (   0.0379955  -0.0838652   0.0000000), wk =   0.2500000
        k(    7) = (   0.0379955  -0.0419301   0.0000000), wk =   0.2500000
        k(    8) = (  -0.0759910  -0.0000099   0.0000000), wk =   0.1250000
        k(    9) = (  -0.0759910   0.0419252   0.0000000), wk =   0.2500000
        k(   10) = (  -0.0759910  -0.0838800   0.0000000), wk =   0.1250000

     Dense  grid:   566857 G-vectors     FFT dimensions: (  72,  64, 270)

     Smooth grid:   143421 G-vectors     FFT dimensions: (  45,  40, 180)

     Estimated max dynamical RAM per process >     368.16 MB

     Estimated total dynamical RAM >       3.60 GB
     Cannot read rho : file not found

     Initial potential from superposition of free atoms

     starting charge  389.99912, renormalised to  406.00000

     negative rho (up, down):  6.914E-03 0.000E+00


     %%%%%%%%%%%%%%%%%%%%%%%%%%%%%%%%%%%%%%%%%%%%%%%%%%%%%%%%%%%%%%%%%%%%%%%%
     %                                                                      %
     % You are using vdW-DF, which was implemented by the Thonhauser group. %
     % Please cite the following two papers that made this development      %
     % possible and the two reviews that describe the various versions:     %
     %                                                                      %
     %   T. Thonhauser et al., PRL 115, 136402 (2015).                      %
     %   T. Thonhauser et al., PRB 76, 125112 (2007).                       %
     %   K. Berland et al., Rep. Prog. Phys. 78, 066501 (2015).             %
     %   D.C. Langreth et al., J. Phys.: Condens. Matter 21, 084203 (2009). %
     %                                                                      %
     %                                                                      %
     % If you are calculating the stress with vdW-DF, please also cite:     %
     %                                                                      %
     %   R. Sabatini et al., J. Phys.: Condens. Matter 24, 424209 (2012).   %
     %                                                                      %
     %%%%%%%%%%%%%%%%%%%%%%%%%%%%%%%%%%%%%%%%%%%%%%%%%%%%%%%%%%%%%%%%%%%%%%%%


 
     Adding external electric field

     Computed dipole along edir(3) : 
        Dipole              -16.2336 Ry au,        -41.2616 Debye
        Dipole field         -0.0306 Ry au, 
 
        Potential amp.        2.8398 Ry
        Total length         46.3494 bohr
 
     Starting wfcs are  308 atomic wfcs
  @ DRIVER MODE: Message from server: STATUS
  @ DRIVER MODE: Message from server: POSDATA
  @ DRIVER MODE: Reading and sharing cell 
  @ DRIVER MODE: Reading and sharing positions 
  @ DRIVER MODE: Received positions 

     total cpu time spent up to now is       11.5 secs

     Self-consistent Calculation

     iteration #  1     ecut=    29.40 Ry     beta= 0.05
     Davidson diagonalization with overlap
     c_bands:  2 eigenvalues not converged
     c_bands:  3 eigenvalues not converged
     c_bands:  5 eigenvalues not converged
     c_bands:  3 eigenvalues not converged
     c_bands:  3 eigenvalues not converged
     c_bands:  3 eigenvalues not converged
     c_bands:  1 eigenvalues not converged
     c_bands:  5 eigenvalues not converged
     c_bands:  3 eigenvalues not converged
     ethr =  1.00E-05,  avg # of iterations = 20.6

     negative rho (up, down):  5.165E-03 0.000E+00
 
     Adding external electric field

     Computed dipole along edir(3) : 
        Dipole               58.5872 Ry au,        148.9137 Debye
        Dipole field          0.1106 Ry au, 
 
        Potential amp.      -10.2489 Ry
        Total length         46.3494 bohr
 

     total cpu time spent up to now is       57.9 secs

     total energy              =   -2253.49019678 Ry
     estimated scf accuracy    <    8262.96195969 Ry

     iteration #  2     ecut=    29.40 Ry     beta= 0.05
     Davidson diagonalization with overlap
     ethr =  1.00E-02,  avg # of iterations = 28.0

     negative rho (up, down):  1.481E-04 0.000E+00
 
     Adding external electric field

     Computed dipole along edir(3) : 
        Dipole               -2.9468 Ry au,         -7.4901 Debye
        Dipole field         -0.0056 Ry au, 
 
        Potential amp.        0.5155 Ry
        Total length         46.3494 bohr
 

     total cpu time spent up to now is      150.0 secs

     total energy              =   -2395.76305890 Ry
     estimated scf accuracy    <   84314.74227840 Ry

     iteration #  3     ecut=    29.40 Ry     beta= 0.05
     Davidson diagonalization with overlap
     c_bands:  2 eigenvalues not converged
     ethr =  1.00E-02,  avg # of iterations = 16.2

     negative rho (up, down):  1.860E-04 0.000E+00
 
     Adding external electric field

     Computed dipole along edir(3) : 
        Dipole               -5.6750 Ry au,        -14.4243 Debye
        Dipole field         -0.0107 Ry au, 
 
        Potential amp.        0.9928 Ry
        Total length         46.3494 bohr
 

     total cpu time spent up to now is      200.5 secs

     total energy              =   -2959.66656083 Ry
     estimated scf accuracy    <    8577.25229172 Ry

     iteration #  4     ecut=    29.40 Ry     beta= 0.05
     Davidson diagonalization with overlap
     ethr =  1.00E-02,  avg # of iterations = 14.2

     negative rho (up, down):  1.915E-04 0.000E+00
 
     Adding external electric field

     Computed dipole along edir(3) : 
        Dipole               -6.5764 Ry au,        -16.7155 Debye
        Dipole field         -0.0124 Ry au, 
 
        Potential amp.        1.1504 Ry
        Total length         46.3494 bohr
 

     total cpu time spent up to now is      227.0 secs

     total energy              =   -2980.07182791 Ry
     estimated scf accuracy    <    1881.51424148 Ry

     iteration #  5     ecut=    29.40 Ry     beta= 0.05
     Davidson diagonalization with overlap
     ethr =  1.00E-02,  avg # of iterations =  2.4

     negative rho (up, down):  2.118E-04 0.000E+00
 
     Adding external electric field

     Computed dipole along edir(3) : 
        Dipole               -7.8103 Ry au,        -19.8518 Debye
        Dipole field         -0.0147 Ry au, 
 
        Potential amp.        1.3663 Ry
        Total length         46.3494 bohr
 

     total cpu time spent up to now is      238.1 secs

     total energy              =   -2956.57612699 Ry
     estimated scf accuracy    <    1844.52858604 Ry

     iteration #  6     ecut=    29.40 Ry     beta= 0.05
     Davidson diagonalization with overlap
     ethr =  1.00E-02,  avg # of iterations = 11.9

     negative rho (up, down):  2.023E-04 0.000E+00
 
     Adding external electric field

     Computed dipole along edir(3) : 
        Dipole               -5.9156 Ry au,        -15.0359 Debye
        Dipole field         -0.0112 Ry au, 
 
        Potential amp.        1.0348 Ry
        Total length         46.3494 bohr
 

     total cpu time spent up to now is      261.4 secs

     total energy              =   -2982.89640518 Ry
     estimated scf accuracy    <      87.47544584 Ry

     iteration #  7     ecut=    29.40 Ry     beta= 0.05
     Davidson diagonalization with overlap
     ethr =  1.00E-02,  avg # of iterations =  1.0

     negative rho (up, down):  1.972E-04 0.000E+00
 
     Adding external electric field

     Computed dipole along edir(3) : 
        Dipole               -4.8597 Ry au,        -12.3521 Debye
        Dipole field         -0.0092 Ry au, 
 
        Potential amp.        0.8501 Ry
        Total length         46.3494 bohr
 

     total cpu time spent up to now is      271.5 secs

     total energy              =   -2982.60888292 Ry
     estimated scf accuracy    <      76.72396774 Ry

     iteration #  8     ecut=    29.40 Ry     beta= 0.05
     Davidson diagonalization with overlap
     ethr =  1.00E-02,  avg # of iterations =  1.0

     negative rho (up, down):  1.829E-04 0.000E+00
 
     Adding external electric field

     Computed dipole along edir(3) : 
        Dipole               -0.6717 Ry au,         -1.7073 Debye
        Dipole field         -0.0013 Ry au, 
 
        Potential amp.        0.1175 Ry
        Total length         46.3494 bohr
 

     total cpu time spent up to now is      281.7 secs

     total energy              =   -2981.56704024 Ry
     estimated scf accuracy    <      75.75688150 Ry

     iteration #  9     ecut=    29.40 Ry     beta= 0.05
     Davidson diagonalization with overlap
     c_bands:  3 eigenvalues not converged
     ethr =  1.00E-02,  avg # of iterations =  2.9

     negative rho (up, down):  1.848E-04 0.000E+00
 
     Adding external electric field

     Computed dipole along edir(3) : 
        Dipole                0.7350 Ry au,          1.8683 Debye
        Dipole field          0.0014 Ry au, 
 
        Potential amp.       -0.1286 Ry
        Total length         46.3494 bohr
 

     total cpu time spent up to now is      292.6 secs

     total energy              =   -2995.28922275 Ry
     estimated scf accuracy    <     636.44278038 Ry

     iteration # 10     ecut=    29.40 Ry     beta= 0.05
     Davidson diagonalization with overlap
     c_bands:  1 eigenvalues not converged
     c_bands:  1 eigenvalues not converged
     ethr =  1.00E-02,  avg # of iterations = 16.8

     negative rho (up, down):  2.049E-04 0.000E+00
 
     Adding external electric field

     Computed dipole along edir(3) : 
        Dipole               10.6293 Ry au,         27.0171 Debye
        Dipole field          0.0201 Ry au, 
 
        Potential amp.       -1.8594 Ry
        Total length         46.3494 bohr
 

     total cpu time spent up to now is      313.6 secs

     total energy              =   -3060.85941842 Ry
     estimated scf accuracy    <    3308.03805616 Ry

     iteration # 11     ecut=    29.40 Ry     beta= 0.05
     Davidson diagonalization with overlap
     ethr =  1.00E-02,  avg # of iterations = 13.3

     negative rho (up, down):  2.465E-04 0.000E+00
 
     Adding external electric field

     Computed dipole along edir(3) : 
        Dipole               10.5681 Ry au,         26.8615 Debye
        Dipole field          0.0199 Ry au, 
 
        Potential amp.       -1.8487 Ry
        Total length         46.3494 bohr
 

     total cpu time spent up to now is      330.4 secs

     total energy              =   -3037.61832655 Ry
     estimated scf accuracy    <    6388.11030292 Ry

     iteration # 12     ecut=    29.40 Ry     beta= 0.05
     Davidson diagonalization with overlap
     ethr =  1.00E-02,  avg # of iterations =  4.0

     negative rho (up, down):  2.681E-04 0.000E+00
 
     Adding external electric field

     Computed dipole along edir(3) : 
        Dipole               10.3176 Ry au,         26.2247 Debye
        Dipole field          0.0195 Ry au, 
 
        Potential amp.       -1.8049 Ry
        Total length         46.3494 bohr
 

     total cpu time spent up to now is      342.2 secs

     total energy              =   -3050.76601425 Ry
     estimated scf accuracy    <    5800.14685932 Ry

     iteration # 13     ecut=    29.40 Ry     beta= 0.05
     Davidson diagonalization with overlap
     ethr =  1.00E-02,  avg # of iterations =  1.9

     negative rho (up, down):  3.642E-04 0.000E+00
 
     Adding external electric field

     Computed dipole along edir(3) : 
        Dipole                6.2763 Ry au,         15.9528 Debye
        Dipole field          0.0118 Ry au, 
 
        Potential amp.       -1.0979 Ry
        Total length         46.3494 bohr
 

     total cpu time spent up to now is      353.0 secs

     total energy              =   -2987.07417488 Ry
     estimated scf accuracy    <    5695.35332781 Ry

     iteration # 14     ecut=    29.40 Ry     beta= 0.05
     Davidson diagonalization with overlap
     ethr =  1.00E-02,  avg # of iterations = 11.0

     negative rho (up, down):  3.829E-04 0.000E+00
 
     Adding external electric field

     Computed dipole along edir(3) : 
        Dipole               -1.3332 Ry au,         -3.3886 Debye
        Dipole field         -0.0025 Ry au, 
 
        Potential amp.        0.2332 Ry
        Total length         46.3494 bohr
 

     total cpu time spent up to now is      370.1 secs

     total energy              =   -2949.03694327 Ry
     estimated scf accuracy    <    2225.45243817 Ry

     iteration # 15     ecut=    29.40 Ry     beta= 0.05
     Davidson diagonalization with overlap
     ethr =  1.00E-02,  avg # of iterations = 15.4

     negative rho (up, down):  3.865E-04 0.000E+00
 
     Adding external electric field

     Computed dipole along edir(3) : 
        Dipole               -0.0512 Ry au,         -0.1302 Debye
        Dipole field         -0.0001 Ry au, 
 
        Potential amp.        0.0090 Ry
        Total length         46.3494 bohr
 

     total cpu time spent up to now is      395.8 secs

     total energy              =   -2978.83321336 Ry
     estimated scf accuracy    <      74.91218373 Ry

     iteration # 16     ecut=    29.40 Ry     beta= 0.05
     Davidson diagonalization with overlap
     ethr =  1.00E-02,  avg # of iterations =  1.4

     negative rho (up, down):  3.740E-04 0.000E+00
 
     Adding external electric field

     Computed dipole along edir(3) : 
        Dipole                1.4329 Ry au,          3.6421 Debye
        Dipole field          0.0027 Ry au, 
 
        Potential amp.       -0.2507 Ry
        Total length         46.3494 bohr
 

     total cpu time spent up to now is      406.3 secs

     total energy              =   -2979.34559994 Ry
     estimated scf accuracy    <       8.89839082 Ry

     iteration # 17     ecut=    29.40 Ry     beta= 0.05
     Davidson diagonalization with overlap
     ethr =  2.19E-03,  avg # of iterations =  8.3

     negative rho (up, down):  4.152E-04 0.000E+00
 
     Adding external electric field

     Computed dipole along edir(3) : 
        Dipole                0.7534 Ry au,          1.9151 Debye
        Dipole field          0.0014 Ry au, 
 
        Potential amp.       -0.1318 Ry
        Total length         46.3494 bohr
 

     total cpu time spent up to now is      419.3 secs

     total energy              =   -2979.04366647 Ry
     estimated scf accuracy    <      58.90345350 Ry

     iteration # 18     ecut=    29.40 Ry     beta= 0.05
     Davidson diagonalization with overlap
     ethr =  2.19E-03,  avg # of iterations =  2.4

     negative rho (up, down):  4.256E-04 0.000E+00
 
     Adding external electric field

     Computed dipole along edir(3) : 
        Dipole                0.6010 Ry au,          1.5277 Debye
        Dipole field          0.0011 Ry au, 
 
        Potential amp.       -0.1051 Ry
        Total length         46.3494 bohr
 

     total cpu time spent up to now is      430.3 secs

     total energy              =   -2978.39549173 Ry
     estimated scf accuracy    <      11.76660612 Ry

     iteration # 19     ecut=    29.40 Ry     beta= 0.05
     Davidson diagonalization with overlap
     ethr =  2.19E-03,  avg # of iterations =  4.6

     negative rho (up, down):  4.856E-04 0.000E+00
 
     Adding external electric field

     Computed dipole along edir(3) : 
        Dipole                1.1636 Ry au,          2.9576 Debye
        Dipole field          0.0022 Ry au, 
 
        Potential amp.       -0.2036 Ry
        Total length         46.3494 bohr
 

     total cpu time spent up to now is      442.1 secs

     total energy              =   -2978.27199336 Ry
     estimated scf accuracy    <       3.81745525 Ry

     iteration # 20     ecut=    29.40 Ry     beta= 0.05
     Davidson diagonalization with overlap
     ethr =  9.40E-04,  avg # of iterations =  4.3

     negative rho (up, down):  5.837E-04 0.000E+00
 
     Adding external electric field

     Computed dipole along edir(3) : 
        Dipole                1.8796 Ry au,          4.7774 Debye
        Dipole field          0.0035 Ry au, 
 
        Potential amp.       -0.3288 Ry
        Total length         46.3494 bohr
 

     total cpu time spent up to now is      454.1 secs

     total energy              =   -2978.05835134 Ry
     estimated scf accuracy    <       2.59123166 Ry

     iteration # 21     ecut=    29.40 Ry     beta= 0.05
     Davidson diagonalization with overlap
     c_bands:  3 eigenvalues not converged
     c_bands:  1 eigenvalues not converged
     ethr =  6.38E-04,  avg # of iterations = 11.9

     negative rho (up, down):  6.998E-04 0.000E+00
 
     Adding external electric field

     Computed dipole along edir(3) : 
        Dipole                2.3556 Ry au,          5.9874 Debye
        Dipole field          0.0044 Ry au, 
 
        Potential amp.       -0.4121 Ry
        Total length         46.3494 bohr
 

     total cpu time spent up to now is      468.5 secs

     total energy              =   -2977.88645616 Ry
     estimated scf accuracy    <       2.00019976 Ry

     iteration # 22     ecut=    29.40 Ry     beta= 0.05
     Davidson diagonalization with overlap
     ethr =  4.93E-04,  avg # of iterations =  9.8

     negative rho (up, down):  7.705E-04 0.000E+00
 
     Adding external electric field

     Computed dipole along edir(3) : 
        Dipole                2.7261 Ry au,          6.9290 Debye
        Dipole field          0.0051 Ry au, 
 
        Potential amp.       -0.4769 Ry
        Total length         46.3494 bohr
 

     total cpu time spent up to now is      482.5 secs

     total energy              =   -2978.02076389 Ry
     estimated scf accuracy    <      10.79489407 Ry

     iteration # 23     ecut=    29.40 Ry     beta= 0.05
     Davidson diagonalization with overlap
     c_bands:  3 eigenvalues not converged
     c_bands:  4 eigenvalues not converged
     c_bands:  1 eigenvalues not converged
     c_bands:  4 eigenvalues not converged
     c_bands:  1 eigenvalues not converged
     c_bands:  2 eigenvalues not converged
     c_bands:  2 eigenvalues not converged
     c_bands:  5 eigenvalues not converged
     ethr =  4.93E-04,  avg # of iterations = 19.2

     negative rho (up, down):  7.575E-04 0.000E+00
 
     Adding external electric field

     Computed dipole along edir(3) : 
        Dipole                2.8616 Ry au,          7.2734 Debye
        Dipole field          0.0054 Ry au, 
 
        Potential amp.       -0.5006 Ry
        Total length         46.3494 bohr
 

     total cpu time spent up to now is      500.8 secs

     total energy              =   -2978.20426755 Ry
     estimated scf accuracy    <      28.25650748 Ry

     iteration # 24     ecut=    29.40 Ry     beta= 0.05
     Davidson diagonalization with overlap
     ethr =  4.93E-04,  avg # of iterations =  7.2

     negative rho (up, down):  8.555E-04 0.000E+00
 
     Adding external electric field

     Computed dipole along edir(3) : 
        Dipole                2.4609 Ry au,          6.2549 Debye
        Dipole field          0.0046 Ry au, 
 
        Potential amp.       -0.4305 Ry
        Total length         46.3494 bohr
 

     total cpu time spent up to now is      513.1 secs

     total energy              =   -2977.92563749 Ry
     estimated scf accuracy    <      36.11348844 Ry

     iteration # 25     ecut=    29.40 Ry     beta= 0.05
     Davidson diagonalization with overlap
     ethr =  4.93E-04,  avg # of iterations =  2.5

     negative rho (up, down):  8.922E-04 0.000E+00
 
     Adding external electric field

     Computed dipole along edir(3) : 
        Dipole                1.4092 Ry au,          3.5818 Debye
        Dipole field          0.0027 Ry au, 
 
        Potential amp.       -0.2465 Ry
        Total length         46.3494 bohr
 

     total cpu time spent up to now is      524.4 secs

     total energy              =   -2977.56188218 Ry
     estimated scf accuracy    <      12.06746093 Ry

     iteration # 26     ecut=    29.40 Ry     beta= 0.05
     Davidson diagonalization with overlap
     c_bands:  3 eigenvalues not converged
     c_bands:  1 eigenvalues not converged
     c_bands:  1 eigenvalues not converged
     c_bands:  3 eigenvalues not converged
     ethr =  4.93E-04,  avg # of iterations = 16.7

     negative rho (up, down):  1.055E-03 0.000E+00
 
     Adding external electric field

     Computed dipole along edir(3) : 
        Dipole                1.1395 Ry au,          2.8964 Debye
        Dipole field          0.0022 Ry au, 
 
        Potential amp.       -0.1993 Ry
        Total length         46.3494 bohr
 

     total cpu time spent up to now is      541.1 secs

     total energy              =   -2977.74917416 Ry
     estimated scf accuracy    <       0.78967550 Ry

     iteration # 27     ecut=    29.40 Ry     beta= 0.05
     Davidson diagonalization with overlap
     c_bands:  2 eigenvalues not converged
     c_bands:  4 eigenvalues not converged
     c_bands:  1 eigenvalues not converged
     c_bands:  1 eigenvalues not converged
     ethr =  1.95E-04,  avg # of iterations = 11.3

     negative rho (up, down):  1.834E-03 0.000E+00
 
     Adding external electric field

     Computed dipole along edir(3) : 
        Dipole                1.2949 Ry au,          3.2913 Debye
        Dipole field          0.0024 Ry au, 
 
        Potential amp.       -0.2265 Ry
        Total length         46.3494 bohr
 

     total cpu time spent up to now is      555.5 secs

     total energy              =   -2977.68932567 Ry
     estimated scf accuracy    <       0.39834713 Ry

     iteration # 28     ecut=    29.40 Ry     beta= 0.05
     Davidson diagonalization with overlap
     c_bands:  1 eigenvalues not converged
     c_bands:  1 eigenvalues not converged
     c_bands:  1 eigenvalues not converged
     ethr =  9.81E-05,  avg # of iterations = 17.3

     negative rho (up, down):  1.324E-03 0.000E+00
 
     Adding external electric field

     Computed dipole along edir(3) : 
        Dipole                1.4359 Ry au,          3.6496 Debye
        Dipole field          0.0027 Ry au, 
 
        Potential amp.       -0.2512 Ry
        Total length         46.3494 bohr
 

     total cpu time spent up to now is      577.6 secs

     total energy              =   -2977.76455915 Ry
     estimated scf accuracy    <       0.40818199 Ry

     iteration # 29     ecut=    29.40 Ry     beta= 0.05
     Davidson diagonalization with overlap
     ethr =  9.81E-05,  avg # of iterations =  1.8

     negative rho (up, down):  1.126E-03 0.000E+00
 
     Adding external electric field

     Computed dipole along edir(3) : 
        Dipole                1.4080 Ry au,          3.5788 Debye
        Dipole field          0.0027 Ry au, 
 
        Potential amp.       -0.2463 Ry
        Total length         46.3494 bohr
 

     total cpu time spent up to now is      588.5 secs

     total energy              =   -2977.74256833 Ry
     estimated scf accuracy    <       0.29615448 Ry

     iteration # 30     ecut=    29.40 Ry     beta= 0.05
     Davidson diagonalization with overlap
     ethr =  7.29E-05,  avg # of iterations = 12.6

     negative rho (up, down):  1.249E-03 0.000E+00
 
     Adding external electric field

     Computed dipole along edir(3) : 
        Dipole                1.3452 Ry au,          3.4191 Debye
        Dipole field          0.0025 Ry au, 
 
        Potential amp.       -0.2353 Ry
        Total length         46.3494 bohr
 

     total cpu time spent up to now is      603.2 secs

     total energy              =   -2977.75641944 Ry
     estimated scf accuracy    <       0.15846386 Ry

     iteration # 31     ecut=    29.40 Ry     beta= 0.05
     Davidson diagonalization with overlap
     ethr =  3.90E-05,  avg # of iterations =  1.9

     negative rho (up, down):  1.159E-02 0.000E+00
 
     Adding external electric field

     Computed dipole along edir(3) : 
        Dipole                1.2984 Ry au,          3.3002 Debye
        Dipole field          0.0025 Ry au, 
 
        Potential amp.       -0.2271 Ry
        Total length         46.3494 bohr
 

     total cpu time spent up to now is      614.2 secs

     total energy              =   -2977.73584233 Ry
     estimated scf accuracy    <       0.13212960 Ry

     iteration # 32     ecut=    29.40 Ry     beta= 0.05
     Davidson diagonalization with overlap
     c_bands:  1 eigenvalues not converged
     c_bands:  2 eigenvalues not converged
     c_bands:  2 eigenvalues not converged
     c_bands:  3 eigenvalues not converged
     c_bands:  2 eigenvalues not converged
     c_bands:  3 eigenvalues not converged
     c_bands:  2 eigenvalues not converged
     ethr =  3.25E-05,  avg # of iterations = 17.5

     negative rho (up, down):  8.246E-03 0.000E+00
 
     Adding external electric field

     Computed dipole along edir(3) : 
        Dipole                1.4139 Ry au,          3.5938 Debye
        Dipole field          0.0027 Ry au, 
 
        Potential amp.       -0.2473 Ry
        Total length         46.3494 bohr
 

     total cpu time spent up to now is      634.8 secs

     total energy              =   -2977.74622452 Ry
     estimated scf accuracy    <       0.08113579 Ry

     iteration # 33     ecut=    29.40 Ry     beta= 0.05
     Davidson diagonalization with overlap
     c_bands:  1 eigenvalues not converged
     c_bands:  1 eigenvalues not converged
     c_bands:  2 eigenvalues not converged
     ethr =  2.00E-05,  avg # of iterations = 13.6

     negative rho (up, down):  7.639E-03 0.000E+00
 
     Adding external electric field

     Computed dipole along edir(3) : 
        Dipole                1.3938 Ry au,          3.5426 Debye
        Dipole field          0.0026 Ry au, 
 
        Potential amp.       -0.2438 Ry
        Total length         46.3494 bohr
 

     total cpu time spent up to now is      649.4 secs

     total energy              =   -2977.74677380 Ry
     estimated scf accuracy    <       0.06410935 Ry

     iteration # 34     ecut=    29.40 Ry     beta= 0.05
     Davidson diagonalization with overlap
     c_bands:  1 eigenvalues not converged
     c_bands:  3 eigenvalues not converged
     ethr =  1.58E-05,  avg # of iterations = 10.8

     negative rho (up, down):  1.007E-02 0.000E+00
 
     Adding external electric field

     Computed dipole along edir(3) : 
        Dipole                1.2004 Ry au,          3.0511 Debye
        Dipole field          0.0023 Ry au, 
 
        Potential amp.       -0.2100 Ry
        Total length         46.3494 bohr
 

     total cpu time spent up to now is      663.4 secs

     total energy              =   -2977.74445800 Ry
     estimated scf accuracy    <       0.04237793 Ry

     iteration # 35     ecut=    29.40 Ry     beta= 0.05
     Davidson diagonalization with overlap
     c_bands:  2 eigenvalues not converged
     c_bands:  1 eigenvalues not converged
     ethr =  1.04E-05,  avg # of iterations = 10.6

     negative rho (up, down):  8.845E-03 0.000E+00
 
     Adding external electric field

     Computed dipole along edir(3) : 
        Dipole                1.1950 Ry au,          3.0374 Debye
        Dipole field          0.0023 Ry au, 
 
        Potential amp.       -0.2090 Ry
        Total length         46.3494 bohr
 

     total cpu time spent up to now is      677.2 secs

     total energy              =   -2977.74543163 Ry
     estimated scf accuracy    <       0.03881692 Ry

     iteration # 36     ecut=    29.40 Ry     beta= 0.05
     Davidson diagonalization with overlap
     ethr =  9.56E-06,  avg # of iterations =  4.6

     negative rho (up, down):  9.073E-03 0.000E+00
 
     Adding external electric field

     Computed dipole along edir(3) : 
        Dipole                1.1263 Ry au,          2.8627 Debye
        Dipole field          0.0021 Ry au, 
 
        Potential amp.       -0.1970 Ry
        Total length         46.3494 bohr
 

     total cpu time spent up to now is      688.6 secs

     total energy              =   -2977.73907628 Ry
     estimated scf accuracy    <       0.02925994 Ry

     iteration # 37     ecut=    29.40 Ry     beta= 0.05
     Davidson diagonalization with overlap
     c_bands:  1 eigenvalues not converged
     c_bands:  1 eigenvalues not converged
     c_bands:  1 eigenvalues not converged
     ethr =  7.21E-06,  avg # of iterations = 16.5

     negative rho (up, down):  1.372E-02 0.000E+00
 
     Adding external electric field

     Computed dipole along edir(3) : 
        Dipole                1.1295 Ry au,          2.8710 Debye
        Dipole field          0.0021 Ry au, 
 
        Potential amp.       -0.1976 Ry
        Total length         46.3494 bohr
 

     total cpu time spent up to now is      709.9 secs

     total energy              =   -2977.74334606 Ry
     estimated scf accuracy    <       0.01590106 Ry

     iteration # 38     ecut=    29.40 Ry     beta= 0.05
     Davidson diagonalization with overlap
     ethr =  3.92E-06,  avg # of iterations =  9.5

     negative rho (up, down):  1.303E-02 0.000E+00
 
     Adding external electric field

     Computed dipole along edir(3) : 
        Dipole                1.0646 Ry au,          2.7059 Debye
        Dipole field          0.0020 Ry au, 
 
        Potential amp.       -0.1862 Ry
        Total length         46.3494 bohr
 

     total cpu time spent up to now is      723.5 secs

     total energy              =   -2977.74352100 Ry
     estimated scf accuracy    <       0.00695737 Ry

     iteration # 39     ecut=    29.40 Ry     beta= 0.05
     Davidson diagonalization with overlap
     c_bands:  1 eigenvalues not converged
     ethr =  1.71E-06,  avg # of iterations = 11.6

     negative rho (up, down):  1.259E-02 0.000E+00
 
     Adding external electric field

     Computed dipole along edir(3) : 
        Dipole                0.9942 Ry au,          2.5270 Debye
        Dipole field          0.0019 Ry au, 
 
        Potential amp.       -0.1739 Ry
        Total length         46.3494 bohr
 

     total cpu time spent up to now is      739.4 secs

     total energy              =   -2977.74367487 Ry
     estimated scf accuracy    <       0.00475508 Ry

     iteration # 40     ecut=    29.40 Ry     beta= 0.05
     Davidson diagonalization with overlap
     ethr =  1.17E-06,  avg # of iterations =  7.0

     negative rho (up, down):  1.231E-02 0.000E+00
 
     Adding external electric field

     Computed dipole along edir(3) : 
        Dipole                0.9081 Ry au,          2.3083 Debye
        Dipole field          0.0017 Ry au, 
 
        Potential amp.       -0.1589 Ry
        Total length         46.3494 bohr
 

     total cpu time spent up to now is      753.7 secs

     total energy              =   -2977.74379230 Ry
     estimated scf accuracy    <       0.00351105 Ry

     iteration # 41     ecut=    29.40 Ry     beta= 0.05
     Davidson diagonalization with overlap
     ethr =  8.65E-07,  avg # of iterations =  2.5

     negative rho (up, down):  1.136E-02 0.000E+00
 
     Adding external electric field

     Computed dipole along edir(3) : 
        Dipole                0.8700 Ry au,          2.2114 Debye
        Dipole field          0.0016 Ry au, 
 
        Potential amp.       -0.1522 Ry
        Total length         46.3494 bohr
 

     total cpu time spent up to now is      765.0 secs

     total energy              =   -2977.74352615 Ry
     estimated scf accuracy    <       0.00173360 Ry

     iteration # 42     ecut=    29.40 Ry     beta= 0.05
     Davidson diagonalization with overlap
     c_bands:  1 eigenvalues not converged
     ethr =  4.27E-07,  avg # of iterations = 13.7

     negative rho (up, down):  1.151E-02 0.000E+00
 
     Adding external electric field

     Computed dipole along edir(3) : 
        Dipole                0.8631 Ry au,          2.1939 Debye
        Dipole field          0.0016 Ry au, 
 
        Potential amp.       -0.1510 Ry
        Total length         46.3494 bohr
 

     total cpu time spent up to now is      785.6 secs

     total energy              =   -2977.74406724 Ry
     estimated scf accuracy    <       0.00222862 Ry

     iteration # 43     ecut=    29.40 Ry     beta= 0.05
     Davidson diagonalization with overlap
     ethr =  4.27E-07,  avg # of iterations =  1.2

     negative rho (up, down):  1.170E-02 0.000E+00
 
     Adding external electric field

     Computed dipole along edir(3) : 
        Dipole                0.8574 Ry au,          2.1792 Debye
        Dipole field          0.0016 Ry au, 
 
        Potential amp.       -0.1500 Ry
        Total length         46.3494 bohr
 

     total cpu time spent up to now is      796.0 secs

     total energy              =   -2977.74386316 Ry
     estimated scf accuracy    <       0.00151521 Ry

     iteration # 44     ecut=    29.40 Ry     beta= 0.05
     Davidson diagonalization with overlap
     ethr =  3.73E-07,  avg # of iterations =  9.0

     negative rho (up, down):  1.078E-02 0.000E+00
 
     Adding external electric field

     Computed dipole along edir(3) : 
        Dipole                0.8367 Ry au,          2.1268 Debye
        Dipole field          0.0016 Ry au, 
 
        Potential amp.       -0.1464 Ry
        Total length         46.3494 bohr
 

     total cpu time spent up to now is      811.3 secs

     total energy              =   -2977.74401148 Ry
     estimated scf accuracy    <       0.00054948 Ry

     iteration # 45     ecut=    29.40 Ry     beta= 0.05
     Davidson diagonalization with overlap
     ethr =  1.35E-07,  avg # of iterations =  5.2

     negative rho (up, down):  1.063E-02 0.000E+00
 
     Adding external electric field

     Computed dipole along edir(3) : 
        Dipole                0.8101 Ry au,          2.0590 Debye
        Dipole field          0.0015 Ry au, 
 
        Potential amp.       -0.1417 Ry
        Total length         46.3494 bohr
 

     total cpu time spent up to now is      823.7 secs

     total energy              =   -2977.74406235 Ry
     estimated scf accuracy    <       0.00026888 Ry

     iteration # 46     ecut=    29.40 Ry     beta= 0.05
     Davidson diagonalization with overlap
     ethr =  6.62E-08,  avg # of iterations =  5.2

     negative rho (up, down):  1.046E-02 0.000E+00
 
     Adding external electric field

     Computed dipole along edir(3) : 
        Dipole                0.7952 Ry au,          2.0211 Debye
        Dipole field          0.0015 Ry au, 
 
        Potential amp.       -0.1391 Ry
        Total length         46.3494 bohr
 

     total cpu time spent up to now is      837.1 secs

     total energy              =   -2977.74411262 Ry
     estimated scf accuracy    <       0.00014792 Ry

     iteration # 47     ecut=    29.40 Ry     beta= 0.05
     Davidson diagonalization with overlap
     ethr =  3.64E-08,  avg # of iterations =  5.7

     negative rho (up, down):  9.344E-03 0.000E+00
 
     Adding external electric field

     Computed dipole along edir(3) : 
        Dipole                0.7740 Ry au,          1.9672 Debye
        Dipole field          0.0015 Ry au, 
 
        Potential amp.       -0.1354 Ry
        Total length         46.3494 bohr
 

     total cpu time spent up to now is      850.5 secs

     total energy              =   -2977.74409767 Ry
     estimated scf accuracy    <       0.00016863 Ry

     iteration # 48     ecut=    29.40 Ry     beta= 0.05
     Davidson diagonalization with overlap
     ethr =  3.64E-08,  avg # of iterations =  6.0

     negative rho (up, down):  9.019E-03 0.000E+00
 
     Adding external electric field

     Computed dipole along edir(3) : 
        Dipole                0.7671 Ry au,          1.9498 Debye
        Dipole field          0.0014 Ry au, 
 
        Potential amp.       -0.1342 Ry
        Total length         46.3494 bohr
 

     total cpu time spent up to now is      864.6 secs

     total energy              =   -2977.74414111 Ry
     estimated scf accuracy    <       0.00004359 Ry

     iteration # 49     ecut=    29.40 Ry     beta= 0.05
     Davidson diagonalization with overlap
     ethr =  1.07E-08,  avg # of iterations =  5.6

     negative rho (up, down):  8.969E-03 0.000E+00
 
     Adding external electric field

     Computed dipole along edir(3) : 
        Dipole                0.7651 Ry au,          1.9448 Debye
        Dipole field          0.0014 Ry au, 
 
        Potential amp.       -0.1338 Ry
        Total length         46.3494 bohr
 

     total cpu time spent up to now is      877.9 secs

     total energy              =   -2977.74416606 Ry
     estimated scf accuracy    <       0.00001386 Ry

     iteration # 50     ecut=    29.40 Ry     beta= 0.05
     Davidson diagonalization with overlap
     ethr =  3.41E-09,  avg # of iterations =  6.0

     negative rho (up, down):  8.882E-03 0.000E+00
 
     Adding external electric field

     Computed dipole along edir(3) : 
        Dipole                0.7678 Ry au,          1.9515 Debye
        Dipole field          0.0014 Ry au, 
 
        Potential amp.       -0.1343 Ry
        Total length         46.3494 bohr
 

     total cpu time spent up to now is      891.8 secs

     total energy              =   -2977.74418194 Ry
     estimated scf accuracy    <       0.00001211 Ry

     iteration # 51     ecut=    29.40 Ry     beta= 0.05
     Davidson diagonalization with overlap
     ethr =  2.98E-09,  avg # of iterations =  5.6

     negative rho (up, down):  8.860E-03 0.000E+00
 
     Adding external electric field

     Computed dipole along edir(3) : 
        Dipole                0.7652 Ry au,          1.9449 Debye
        Dipole field          0.0014 Ry au, 
 
        Potential amp.       -0.1339 Ry
        Total length         46.3494 bohr
 

     total cpu time spent up to now is      907.1 secs

     total energy              =   -2977.74419998 Ry
     estimated scf accuracy    <       0.00000934 Ry

     iteration # 52     ecut=    29.40 Ry     beta= 0.05
     Davidson diagonalization with overlap
     ethr =  2.30E-09,  avg # of iterations =  5.1

     negative rho (up, down):  8.855E-03 0.000E+00
 
     Adding external electric field

     Computed dipole along edir(3) : 
        Dipole                0.7650 Ry au,          1.9445 Debye
        Dipole field          0.0014 Ry au, 
 
        Potential amp.       -0.1338 Ry
        Total length         46.3494 bohr
 

     total cpu time spent up to now is      919.5 secs

     total energy              =   -2977.74421519 Ry
     estimated scf accuracy    <       0.00000223 Ry

     iteration # 53     ecut=    29.40 Ry     beta= 0.05
     Davidson diagonalization with overlap
     ethr =  5.49E-10,  avg # of iterations =  5.1

     negative rho (up, down):  8.843E-03 0.000E+00
 
     Adding external electric field

     Computed dipole along edir(3) : 
        Dipole                0.7657 Ry au,          1.9463 Debye
        Dipole field          0.0014 Ry au, 
 
        Potential amp.       -0.1340 Ry
        Total length         46.3494 bohr
 

     total cpu time spent up to now is      932.8 secs

     total energy              =   -2977.74422837 Ry
     estimated scf accuracy    <       0.00000192 Ry

     iteration # 54     ecut=    29.40 Ry     beta= 0.05
     Davidson diagonalization with overlap
     ethr =  4.72E-10,  avg # of iterations =  5.0

     negative rho (up, down):  8.777E-03 0.000E+00
 
     Adding external electric field

     Computed dipole along edir(3) : 
        Dipole                0.7673 Ry au,          1.9502 Debye
        Dipole field          0.0014 Ry au, 
 
        Potential amp.       -0.1342 Ry
        Total length         46.3494 bohr
 

     total cpu time spent up to now is      944.5 secs

     total energy              =   -2977.74424028 Ry
     estimated scf accuracy    <       0.00000129 Ry

     iteration # 55     ecut=    29.40 Ry     beta= 0.05
     Davidson diagonalization with overlap
     ethr =  3.17E-10,  avg # of iterations =  5.8

     negative rho (up, down):  8.733E-03 0.000E+00
 
     Adding external electric field

     Computed dipole along edir(3) : 
        Dipole                0.7661 Ry au,          1.9472 Debye
        Dipole field          0.0014 Ry au, 
 
        Potential amp.       -0.1340 Ry
        Total length         46.3494 bohr
 

     total cpu time spent up to now is      959.7 secs

     total energy              =   -2977.74425106 Ry
     estimated scf accuracy    <       0.00000081 Ry

     iteration # 56     ecut=    29.40 Ry     beta= 0.05
     Davidson diagonalization with overlap
     ethr =  2.00E-10,  avg # of iterations =  5.8

     negative rho (up, down):  8.723E-03 0.000E+00
 
     Adding external electric field

     Computed dipole along edir(3) : 
        Dipole                0.7666 Ry au,          1.9484 Debye
        Dipole field          0.0014 Ry au, 
 
        Potential amp.       -0.1341 Ry
        Total length         46.3494 bohr
 

     total cpu time spent up to now is      973.2 secs

     total energy              =   -2977.74426066 Ry
     estimated scf accuracy    <       0.00000042 Ry

     iteration # 57     ecut=    29.40 Ry     beta= 0.05
     Davidson diagonalization with overlap
     ethr =  1.03E-10,  avg # of iterations =  5.8

     negative rho (up, down):  8.704E-03 0.000E+00
 
     Adding external electric field

     Computed dipole along edir(3) : 
        Dipole                0.7659 Ry au,          1.9466 Debye
        Dipole field          0.0014 Ry au, 
 
        Potential amp.       -0.1340 Ry
        Total length         46.3494 bohr
 

     total cpu time spent up to now is      987.6 secs

     total energy              =   -2977.74426940 Ry
     estimated scf accuracy    <       0.00000039 Ry

     iteration # 58     ecut=    29.40 Ry     beta= 0.05
     Davidson diagonalization with overlap
     ethr =  9.52E-11,  avg # of iterations =  5.8

     negative rho (up, down):  8.692E-03 0.000E+00
 
     Adding external electric field

     Computed dipole along edir(3) : 
        Dipole                0.7660 Ry au,          1.9470 Debye
        Dipole field          0.0014 Ry au, 
 
        Potential amp.       -0.1340 Ry
        Total length         46.3494 bohr
 

     total cpu time spent up to now is     1001.2 secs

     total energy              =   -2977.74427728 Ry
     estimated scf accuracy    <       0.00000013 Ry

     iteration # 59     ecut=    29.40 Ry     beta= 0.05
     Davidson diagonalization with overlap
     c_bands:  1 eigenvalues not converged
     ethr =  3.15E-11,  avg # of iterations =  7.4

     negative rho (up, down):  8.693E-03 0.000E+00
 
     Adding external electric field

     Computed dipole along edir(3) : 
        Dipole                0.7660 Ry au,          1.9469 Debye
        Dipole field          0.0014 Ry au, 
 
        Potential amp.       -0.1340 Ry
        Total length         46.3494 bohr
 

     total cpu time spent up to now is     1017.5 secs

     total energy              =   -2977.74428434 Ry
     estimated scf accuracy    <       0.00000018 Ry

     iteration # 60     ecut=    29.40 Ry     beta= 0.05
     Davidson diagonalization with overlap
     ethr =  3.15E-11,  avg # of iterations =  2.3

     negative rho (up, down):  8.696E-03 0.000E+00
 
     Adding external electric field

     Computed dipole along edir(3) : 
        Dipole                0.7659 Ry au,          1.9467 Debye
        Dipole field          0.0014 Ry au, 
 
        Potential amp.       -0.1340 Ry
        Total length         46.3494 bohr
 

     total cpu time spent up to now is     1028.1 secs

     total energy              =   -2977.74429065 Ry
     estimated scf accuracy    <       0.00000016 Ry

     iteration # 61     ecut=    29.40 Ry     beta= 0.05
     Davidson diagonalization with overlap
     ethr =  3.15E-11,  avg # of iterations =  5.3

     negative rho (up, down):  8.699E-03 0.000E+00
 
     Adding external electric field

     Computed dipole along edir(3) : 
        Dipole                0.7659 Ry au,          1.9467 Debye
        Dipole field          0.0014 Ry au, 
 
        Potential amp.       -0.1340 Ry
        Total length         46.3494 bohr
 

     total cpu time spent up to now is     1040.2 secs

     total energy              =   -2977.74429638 Ry
     estimated scf accuracy    <       0.00000009 Ry

     iteration # 62     ecut=    29.40 Ry     beta= 0.05
     Davidson diagonalization with overlap
     ethr =  2.17E-11,  avg # of iterations =  2.0

     negative rho (up, down):  8.705E-03 0.000E+00
 
     Adding external electric field

     Computed dipole along edir(3) : 
        Dipole                0.7661 Ry au,          1.9472 Debye
        Dipole field          0.0014 Ry au, 
 
        Potential amp.       -0.1340 Ry
        Total length         46.3494 bohr
 

     total cpu time spent up to now is     1051.3 secs

     total energy              =   -2977.74430153 Ry
     estimated scf accuracy    <       0.00000008 Ry

     iteration # 63     ecut=    29.40 Ry     beta= 0.05
     Davidson diagonalization with overlap
     ethr =  2.00E-11,  avg # of iterations =  5.0

     negative rho (up, down):  8.777E-03 0.000E+00
 
     Adding external electric field

     Computed dipole along edir(3) : 
        Dipole                0.7660 Ry au,          1.9470 Debye
        Dipole field          0.0014 Ry au, 
 
        Potential amp.       -0.1340 Ry
        Total length         46.3494 bohr
 

     total cpu time spent up to now is     1063.4 secs

     End of self-consistent calculation

          k = 0.0000 0.0000 0.0000 ( 18029 PWs)   bands (ev):

   -56.2611 -56.2275 -55.3784 -55.3444 -55.3358 -55.3009 -55.1533 -55.1180
   -55.0311 -54.9110 -54.8925 -54.8909 -54.8771 -54.8060 -54.3901 -54.3403
   -32.6878 -32.5354 -32.5073 -32.4374 -32.3464 -32.3140 -31.8461 -31.8181
   -31.6886 -31.6440 -31.5953 -31.5772 -31.5473 -31.5379 -31.5091 -31.5040
   -31.4853 -31.4792 -31.4567 -31.4423 -31.4292 -31.3798 -31.3697 -31.3310
   -31.3185 -31.3020 -31.2928 -31.2795 -31.2554 -31.2544 -31.2505 -31.2263
   -31.1313 -31.1210 -31.0807 -31.0704 -31.0428 -31.0378 -31.0288 -31.0102
   -30.9795 -30.9270 -30.9047 -30.6337 -30.6115 -30.5803 -30.5594 -30.4505
   -18.4458 -16.4170 -15.9507 -15.7074 -15.6179 -15.5346 -15.4959 -15.4519
   -15.2996 -15.2323 -15.2097 -15.2092 -15.1385 -14.9903 -14.9431 -14.8452
   -14.7515 -14.6166 -14.5996 -14.5663 -14.5485 -14.5156 -14.5085 -14.4568
   -14.2935 -14.2578 -14.2097 -14.1466 -14.0613 -14.0228 -13.8362 -13.4094
   -13.2997 -12.6428  -7.4488  -6.2362  -4.1104  -4.0426  -3.9843  -3.4503
    -3.1811  -3.1535  -3.0250  -3.0202  -2.9748  -2.8349  -2.8271  -2.7535
    -2.7297  -2.6925  -2.6163  -2.5832  -2.5342  -2.4447  -2.4322  -2.4122
    -2.3984  -2.3831  -2.2614  -2.2199  -2.1677  -2.0640  -1.9559  -1.9128
    -1.8858  -1.8419  -1.8038  -1.7567  -1.7446  -1.7297  -1.7231  -1.6119
    -1.4978  -1.4649  -1.4499  -1.4038  -1.3855  -1.3767  -1.3547  -1.2696
    -1.1601  -1.0665  -0.9993  -0.9871  -0.9196  -0.9115  -0.8524  -0.7366
    -0.6758  -0.6713  -0.6554  -0.5518  -0.5250  -0.4537  -0.3908  -0.3328
    -0.2782  -0.2155  -0.1653  -0.1428  -0.1299  -0.0308   0.0407   0.0641
     0.1153   0.1247   0.1336   0.1543   0.2509   0.2867   0.3605   0.4050
     0.4413   0.4855   0.5686   0.6187   0.6865   0.7363   0.7592   0.8208
     0.8742   0.9297   1.0249   1.0654   1.0791   1.0874   1.1107   1.1710
     1.1848   1.2610   1.3441   1.3592   1.4318   1.5002   1.6608   1.6999
     1.9501   2.0213   2.6479   3.0160   3.1773   3.4725   3.6623   3.7998
     3.9952   4.0057   4.0128   4.2389   4.2630

          k = 0.0000 0.0419 0.0000 ( 17933 PWs)   bands (ev):

   -56.2561 -56.2323 -55.3734 -55.3492 -55.3311 -55.3055 -55.1481 -55.1231
   -55.0299 -54.9060 -54.8919 -54.8907 -54.8820 -54.8077 -54.3868 -54.3435
   -32.6344 -32.5312 -32.5111 -32.4241 -32.3699 -32.3597 -31.7939 -31.7646
   -31.6347 -31.6305 -31.5839 -31.5714 -31.5624 -31.5395 -31.5338 -31.5206
   -31.5007 -31.4984 -31.4866 -31.4163 -31.4050 -31.3635 -31.3562 -31.3357
   -31.3292 -31.3199 -31.2860 -31.2527 -31.2496 -31.2478 -31.2468 -31.2296
   -31.1268 -31.1089 -31.0978 -31.0875 -31.0676 -31.0500 -31.0405 -31.0293
   -31.0106 -30.9837 -30.8562 -30.6420 -30.6097 -30.5885 -30.5628 -30.4845
   -18.4455 -16.2959 -15.8321 -15.6704 -15.6048 -15.5582 -15.4543 -15.4341
   -15.2695 -15.2312 -15.1929 -15.1716 -15.0733 -14.9629 -14.9534 -14.8874
   -14.8441 -14.6914 -14.6210 -14.5840 -14.5807 -14.5585 -14.4882 -14.4350
   -14.3094 -14.2839 -14.2144 -14.2046 -14.0818 -14.0224 -13.9038 -13.4167
   -13.3408 -12.6528  -7.4461  -6.2361  -4.1151  -4.0433  -3.8025  -3.2737
    -3.0265  -3.0014  -2.9587  -2.8741  -2.8356  -2.8163  -2.7664  -2.7614
    -2.7497  -2.6891  -2.5817  -2.5689  -2.4882  -2.4192  -2.4125  -2.3954
    -2.3511  -2.3137  -2.2741  -2.2419  -2.1826  -2.1253  -2.0733  -2.0544
    -2.0250  -1.9462  -1.9381  -1.8882  -1.8586  -1.7815  -1.6900  -1.6511
    -1.6406  -1.5245  -1.4682  -1.4356  -1.4104  -1.3369  -1.2361  -1.1422
    -1.0665  -1.0383  -1.0085  -1.0003  -0.8446  -0.8042  -0.7478  -0.7260
    -0.6824  -0.6659  -0.6014  -0.5285  -0.5062  -0.4458  -0.4037  -0.3483
    -0.2538  -0.1893  -0.0866  -0.0728  -0.0523  -0.0303  -0.0149   0.0605
     0.0807   0.1124   0.1302   0.1367   0.2439   0.2499   0.3308   0.3608
     0.4398   0.4886   0.5204   0.5971   0.6220   0.6587   0.6863   0.7368
     0.7668   0.7891   0.8088   0.8207   0.9692   1.0184   1.0666   1.0965
     1.1705   1.2653   1.3454   1.4027   1.4268   1.4571   1.6074   1.6147
     1.8968   1.9034   2.5349   3.2829   3.2887   3.4819   3.8291   3.8492
     3.8840   3.9657   4.0092   4.1600   4.2355

          k = 0.0000-0.0839 0.0000 ( 17884 PWs)   bands (ev):

   -56.2444 -56.2439 -55.3635 -55.3591 -55.3231 -55.3135 -55.1367 -55.1344
   -55.0288 -54.8940 -54.8939 -54.8930 -54.8888 -54.8095 -54.3830 -54.3472
   -32.5213 -32.5209 -32.5036 -32.5034 -32.3921 -32.3917 -31.6688 -31.6631
   -31.6377 -31.6290 -31.5987 -31.5956 -31.5704 -31.5569 -31.5516 -31.5481
   -31.4953 -31.4944 -31.4902 -31.4777 -31.3821 -31.3799 -31.3440 -31.3427
   -31.3196 -31.2850 -31.2469 -31.2404 -31.2381 -31.2380 -31.2243 -31.1899
   -31.1509 -31.1189 -31.1187 -31.1096 -31.0948 -31.0796 -31.0795 -31.0647
   -31.0404 -31.0122 -30.7654 -30.7029 -30.6077 -30.5849 -30.5654 -30.5210
   -18.4453 -15.9954 -15.9943 -15.5722 -15.5665 -15.4140 -15.4139 -15.3977
   -15.3906 -15.2773 -15.1831 -15.0773 -15.0670 -14.9317 -14.9159 -14.8502
   -14.8209 -14.7723 -14.7615 -14.7463 -14.7256 -14.4389 -14.4322 -14.3588
   -14.3344 -14.3181 -14.3090 -14.1665 -14.1486 -14.0221 -13.9924 -13.4036
   -13.4036 -12.6627  -7.4433  -6.2361  -4.1201  -4.0439  -3.3483  -3.3482
    -2.8595  -2.8557  -2.8552  -2.8542  -2.8067  -2.7600  -2.7542  -2.7489
    -2.6662  -2.6102  -2.5770  -2.5018  -2.4795  -2.4098  -2.3887  -2.3674
    -2.3620  -2.3513  -2.3110  -2.3073  -2.2265  -2.1556  -2.1325  -2.1170
    -2.0601  -2.0124  -1.8749  -1.8488  -1.7592  -1.7501  -1.6644  -1.6422
    -1.5992  -1.5619  -1.5448  -1.4926  -1.4566  -1.3840  -1.3144  -1.3103
    -1.1991  -1.1825  -0.9790  -0.9149  -0.8377  -0.7395  -0.7133  -0.6908
    -0.6485  -0.6083  -0.5937  -0.5275  -0.4822  -0.3888  -0.3870  -0.3612
    -0.2808  -0.1895  -0.1440  -0.1380  -0.1021  -0.0448  -0.0305  -0.0124
    -0.0042   0.0963   0.1942   0.2005   0.2188   0.2728   0.3481   0.4138
     0.4840   0.4894   0.5161   0.5370   0.5621   0.5866   0.6245   0.6679
     0.6777   0.7113   0.7242   0.7506   0.7658   0.8502   0.9914   1.0658
     1.0754   1.3213   1.3678   1.4776   1.4784   1.5024   1.5786   1.5867
     1.6541   1.8611   2.4191   3.5276   3.5281   3.6609   3.6612   3.7227
     3.7230   4.0870   4.1070   4.2403   4.2546

          k = 0.0380 0.0000 0.0000 ( 17913 PWs)   bands (ev):

   -56.2610 -56.2274 -55.3782 -55.3443 -55.3359 -55.3008 -55.1531 -55.1179
   -55.0310 -54.9109 -54.8924 -54.8908 -54.8770 -54.8059 -54.3900 -54.3402
   -32.6885 -32.5352 -32.5072 -32.4354 -32.3461 -32.3137 -31.8464 -31.8227
   -31.6887 -31.6238 -31.5946 -31.5775 -31.5405 -31.5378 -31.5246 -31.5090
   -31.4858 -31.4782 -31.4576 -31.4425 -31.4290 -31.3955 -31.3607 -31.3309
   -31.3018 -31.3016 -31.2927 -31.2792 -31.2552 -31.2529 -31.2521 -31.2245
   -31.1395 -31.1208 -31.0804 -31.0698 -31.0426 -31.0377 -31.0292 -31.0100
   -30.9793 -30.9267 -30.9038 -30.6335 -30.6134 -30.5801 -30.5587 -30.4503
   -18.4455 -16.3135 -15.8684 -15.7754 -15.6911 -15.5697 -15.4487 -15.3435
   -15.3336 -15.2154 -15.2026 -15.1602 -15.1455 -15.1055 -14.9973 -14.7716
   -14.7506 -14.6761 -14.6692 -14.6656 -14.6126 -14.5620 -14.3530 -14.3444
   -14.3368 -14.2971 -14.2178 -14.1585 -14.0601 -14.0227 -13.8352 -13.4066
   -13.2994 -12.6412  -7.4479  -6.2301  -4.1104  -4.0424  -3.7004  -3.2633
    -3.1716  -3.1517  -3.0431  -2.9786  -2.8390  -2.7939  -2.7827  -2.7645
    -2.7525  -2.6991  -2.5753  -2.5552  -2.5186  -2.4994  -2.4335  -2.4106
    -2.3942  -2.3935  -2.2447  -2.1590  -2.1272  -2.0717  -1.9215  -1.8859
    -1.8604  -1.8376  -1.7736  -1.7564  -1.7139  -1.6629  -1.5593  -1.5248
    -1.5067  -1.4413  -1.4119  -1.3983  -1.3787  -1.3565  -1.3049  -1.2782
    -1.1997  -1.1101  -1.0642  -1.0116  -0.9622  -0.8787  -0.8047  -0.7442
    -0.7033  -0.6834  -0.6410  -0.6215  -0.5669  -0.5527  -0.4903  -0.4737
    -0.3258  -0.2368  -0.2344  -0.2118  -0.1374  -0.0973  -0.0649  -0.0184
     0.0249   0.0786   0.0992   0.2692   0.2985   0.3376   0.3736   0.3875
     0.4464   0.5362   0.5436   0.5982   0.6128   0.6217   0.7057   0.7674
     0.7885   0.8645   0.9478   0.9780   1.0150   1.0585   1.1206   1.1246
     1.1483   1.2373   1.2771   1.2954   1.3276   1.3922   1.5577   1.6114
     1.8921   1.9587   2.5094   3.1596   3.1914   3.4717   3.6385   3.7388
     4.0205   4.0229   4.0889   4.1047   4.2853

          k = 0.0380 0.0419 0.0000 ( 17878 PWs)   bands (ev):

   -56.2560 -56.2323 -55.3733 -55.3492 -55.3312 -55.3055 -55.1480 -55.1230
   -55.0299 -54.9059 -54.8919 -54.8906 -54.8820 -54.8077 -54.3867 -54.3434
   -32.6351 -32.5310 -32.5112 -32.4224 -32.3699 -32.3594 -31.7942 -31.7698
   -31.6348 -31.6131 -31.5830 -31.5718 -31.5511 -31.5395 -31.5337 -31.5233
   -31.5207 -31.4935 -31.4916 -31.4161 -31.4059 -31.3611 -31.3569 -31.3528
   -31.3333 -31.2918 -31.2858 -31.2527 -31.2493 -31.2487 -31.2460 -31.2287
   -31.1336 -31.1087 -31.0980 -31.0865 -31.0674 -31.0500 -31.0411 -31.0297
   -31.0105 -30.9836 -30.8557 -30.6419 -30.6111 -30.5883 -30.5629 -30.4845
   -18.4453 -16.1984 -15.7577 -15.7561 -15.6162 -15.5288 -15.4903 -15.3707
   -15.3317 -15.2302 -15.1394 -15.0984 -15.0701 -15.0663 -14.9661 -14.9021
   -14.7382 -14.7284 -14.7035 -14.6577 -14.6235 -14.5157 -14.4817 -14.4335
   -14.3814 -14.2675 -14.2460 -14.1795 -14.0821 -14.0224 -13.9035 -13.4148
   -13.3411 -12.6517  -7.4454  -6.2312  -4.1152  -4.0432  -3.5228  -3.0969
    -3.0288  -2.9843  -2.8958  -2.8817  -2.8028  -2.7191  -2.6700  -2.6635
    -2.6511  -2.6206  -2.5877  -2.5310  -2.4970  -2.4632  -2.4156  -2.3451
    -2.3108  -2.2721  -2.2600  -2.2319  -2.1626  -2.1097  -2.0658  -2.0376
    -1.9624  -1.9145  -1.8835  -1.8383  -1.7834  -1.7652  -1.7090  -1.6284
    -1.6035  -1.5230  -1.4989  -1.4476  -1.3660  -1.2635  -1.1940  -1.1691
    -1.1076  -1.0817  -1.0505  -0.9742  -0.9507  -0.8580  -0.8078  -0.7618
    -0.7274  -0.7003  -0.6640  -0.5968  -0.5224  -0.4662  -0.4092  -0.3810
    -0.3471  -0.3126  -0.2428  -0.1894  -0.1561  -0.1307  -0.0826  -0.0435
    -0.0262   0.0273   0.0332   0.1073   0.1732   0.2266   0.2644   0.3183
     0.3618   0.4478   0.4669   0.5256   0.5659   0.6016   0.6302   0.6971
     0.7359   0.7540   0.7965   0.8411   0.9901   1.0528   1.0671   1.1019
     1.2357   1.2613   1.3101   1.3608   1.3924   1.4848   1.5318   1.5903
     1.8216   1.9275   2.4974   3.2755   3.4325   3.5257   3.6863   3.8656
     3.9514   4.0050   4.1098   4.1797   4.3164

          k = 0.0380-0.0839 0.0000 ( 17916 PWs)   bands (ev):

   -56.2444 -56.2439 -55.3634 -55.3591 -55.3232 -55.3135 -55.1367 -55.1344
   -55.0288 -54.8940 -54.8939 -54.8930 -54.8888 -54.8095 -54.3830 -54.3473
   -32.5213 -32.5209 -32.5042 -32.5040 -32.3914 -32.3909 -31.6695 -31.6639
   -31.6470 -31.6396 -31.5762 -31.5739 -31.5702 -31.5562 -31.5522 -31.5484
   -31.5072 -31.5022 -31.4945 -31.4780 -31.3821 -31.3800 -31.3448 -31.3422
   -31.3205 -31.2850 -31.2469 -31.2394 -31.2387 -31.2386 -31.2192 -31.1908
   -31.1501 -31.1188 -31.1186 -31.1122 -31.0934 -31.0797 -31.0796 -31.0647
   -31.0440 -31.0122 -30.7654 -30.7028 -30.6085 -30.5850 -30.5664 -30.5210
   -18.4451 -15.9260 -15.9248 -15.5726 -15.5697 -15.4900 -15.4861 -15.3683
   -15.3621 -15.2509 -15.1483 -15.0572 -15.0419 -14.9103 -14.8845 -14.8430
   -14.8186 -14.8078 -14.7692 -14.7378 -14.7308 -14.5145 -14.5086 -14.4461
   -14.4277 -14.2870 -14.2751 -14.1597 -14.1381 -14.0221 -13.9907 -13.4034
   -13.4034 -12.6620  -7.4430  -6.2324  -4.1203  -4.0440  -3.1370  -3.1357
    -2.8202  -2.7814  -2.7810  -2.7587  -2.7566  -2.7476  -2.6871  -2.6557
    -2.6029  -2.5888  -2.5340  -2.4100  -2.3955  -2.3407  -2.3147  -2.3103
    -2.2938  -2.2688  -2.2604  -2.2260  -2.1768  -2.1510  -2.0842  -2.0215
    -1.9781  -1.9608  -1.8220  -1.7941  -1.7595  -1.7566  -1.7125  -1.6806
    -1.6391  -1.5728  -1.5477  -1.5311  -1.4815  -1.4635  -1.2842  -1.2696
    -1.2070  -1.1938  -1.0076  -0.9853  -0.9420  -0.9274  -0.8705  -0.7962
    -0.7755  -0.7306  -0.6736  -0.6378  -0.6198  -0.5212  -0.5067  -0.4093
    -0.3352  -0.2993  -0.2515  -0.2414  -0.2323  -0.1714  -0.1501  -0.0079
     0.0076   0.0656   0.1064   0.1799   0.1979   0.2250   0.2361   0.2582
     0.2938   0.3447   0.3699   0.3859   0.4098   0.4969   0.5469   0.6009
     0.6132   0.7756   0.8587   0.8675   0.8883   1.0489   1.0607   1.1537
     1.1905   1.3309   1.3719   1.4856   1.4876   1.5251   1.5453   1.5837
     1.6137   1.9001   2.4686   3.5320   3.5334   3.6924   3.6942   3.8913
     3.8919   4.0583   4.0760   4.2527   4.2745

          k = 0.0380-0.0419 0.0000 ( 17876 PWs)   bands (ev):

   -56.2560 -56.2323 -55.3733 -55.3492 -55.3312 -55.3055 -55.1480 -55.1230
   -55.0299 -54.9059 -54.8919 -54.8906 -54.8820 -54.8077 -54.3867 -54.3434
   -32.6350 -32.5310 -32.5112 -32.4224 -32.3699 -32.3594 -31.7941 -31.7698
   -31.6348 -31.6131 -31.5830 -31.5718 -31.5511 -31.5395 -31.5336 -31.5234
   -31.5207 -31.4935 -31.4916 -31.4161 -31.4059 -31.3608 -31.3574 -31.3526
   -31.3334 -31.2918 -31.2858 -31.2527 -31.2493 -31.2487 -31.2460 -31.2287
   -31.1336 -31.1087 -31.0981 -31.0865 -31.0674 -31.0500 -31.0409 -31.0299
   -31.0105 -30.9836 -30.8556 -30.6418 -30.6110 -30.5886 -30.5627 -30.4844
   -18.4453 -16.1982 -15.7584 -15.7561 -15.6162 -15.5283 -15.4904 -15.3704
   -15.3319 -15.2303 -15.1393 -15.0985 -15.0703 -15.0668 -14.9656 -14.9020
   -14.7379 -14.7284 -14.7032 -14.6570 -14.6236 -14.5151 -14.4829 -14.4345
   -14.3808 -14.2677 -14.2457 -14.1794 -14.0820 -14.0224 -13.9035 -13.4148
   -13.3411 -12.6517  -7.4454  -6.2312  -4.1152  -4.0433  -3.5221  -3.0957
    -3.0300  -2.9853  -2.8946  -2.8818  -2.7931  -2.7360  -2.6699  -2.6639
    -2.6418  -2.6229  -2.5853  -2.5306  -2.4998  -2.4621  -2.4245  -2.3446
    -2.3102  -2.2787  -2.2546  -2.2317  -2.1595  -2.1063  -2.0647  -2.0390
    -1.9601  -1.9139  -1.8856  -1.8344  -1.7915  -1.7602  -1.7119  -1.6238
    -1.6041  -1.5200  -1.4914  -1.4470  -1.3655  -1.2667  -1.1975  -1.1836
    -1.1088  -1.0817  -1.0648  -0.9787  -0.9249  -0.8567  -0.8119  -0.7622
    -0.7287  -0.6981  -0.6648  -0.5924  -0.5169  -0.4699  -0.4057  -0.3777
    -0.3503  -0.3129  -0.2480  -0.2041  -0.1451  -0.1325  -0.0906  -0.0417
    -0.0241   0.0297   0.0466   0.1233   0.1563   0.2250   0.2685   0.3251
     0.3693   0.4219   0.4663   0.5458   0.5636   0.6036   0.6415   0.6799
     0.7349   0.7532   0.7933   0.8609   0.9810   1.0469   1.0604   1.0987
     1.2297   1.2604   1.3131   1.3603   1.3939   1.4854   1.5315   1.5908
     1.8203   1.9291   2.4991   3.2762   3.4328   3.5257   3.6853   3.8653
     3.9521   4.0045   4.1045   4.1782   4.3149

          k =-0.0760-0.0000 0.0000 ( 17886 PWs)   bands (ev):

   -56.2609 -56.2274 -55.3780 -55.3443 -55.3360 -55.3008 -55.1531 -55.1179
   -55.0309 -54.9109 -54.8924 -54.8908 -54.8770 -54.8059 -54.3899 -54.3402
   -32.6892 -32.5351 -32.5071 -32.4334 -32.3464 -32.3137 -31.8467 -31.8271
   -31.6888 -31.5941 -31.5801 -31.5756 -31.5710 -31.5377 -31.5341 -31.5089
   -31.4870 -31.4775 -31.4586 -31.4430 -31.4289 -31.4069 -31.3510 -31.3309
   -31.3013 -31.2926 -31.2900 -31.2791 -31.2553 -31.2552 -31.2501 -31.2234
   -31.1486 -31.1207 -31.0805 -31.0693 -31.0426 -31.0376 -31.0299 -31.0098
   -30.9793 -30.9268 -30.9031 -30.6333 -30.6156 -30.5802 -30.5584 -30.4504
   -18.4453 -16.1532 -15.8584 -15.8230 -15.6971 -15.6209 -15.4453 -15.3791
   -15.2516 -15.2044 -15.1816 -15.1741 -15.1251 -15.0833 -15.0040 -14.8473
   -14.7981 -14.7430 -14.7325 -14.7001 -14.5868 -14.5796 -14.4224 -14.3091
   -14.2844 -14.2651 -14.2253 -14.1604 -14.0597 -14.0226 -13.8347 -13.4040
   -13.2990 -12.6397  -7.4470  -6.2241  -4.1106  -4.0423  -3.3115  -3.3090
    -3.2025  -3.1769  -2.9006  -2.8967  -2.8350  -2.7728  -2.7548  -2.7237
    -2.6889  -2.6634  -2.5724  -2.4899  -2.4604  -2.4216  -2.3837  -2.3524
    -2.3429  -2.1871  -2.1550  -2.1414  -2.0941  -2.0306  -1.9942  -1.9586
    -1.8341  -1.7908  -1.7657  -1.7596  -1.6730  -1.6396  -1.6289  -1.5607
    -1.5422  -1.4915  -1.3975  -1.3585  -1.3427  -1.3425  -1.3067  -1.2754
    -1.2370  -1.1293  -1.0930  -1.0739  -0.9831  -0.9262  -0.8571  -0.8355
    -0.7976  -0.7317  -0.6236  -0.5981  -0.5781  -0.5371  -0.4349  -0.4219
    -0.4009  -0.3759  -0.3688  -0.3328  -0.2576  -0.1708  -0.1095  -0.0908
    -0.0202   0.0540   0.1074   0.1079   0.2116   0.3059   0.3546   0.3977
     0.4482   0.5051   0.5419   0.5478   0.5736   0.6629   0.7112   0.7659
     0.8105   0.8528   0.8832   0.9154   1.0112   1.0477   1.0506   1.0851
     1.1389   1.1932   1.2261   1.2884   1.3398   1.4285   1.4784   1.5455
     1.6709   1.9583   2.3895   3.1482   3.2837   3.3824   3.4708   3.8266
     3.8714   4.0323   4.1803   4.2104   4.3197

          k =-0.0760 0.0419 0.0000 ( 17914 PWs)   bands (ev):

   -56.2560 -56.2323 -55.3732 -55.3492 -55.3313 -55.3055 -55.1480 -55.1231
   -55.0299 -54.9059 -54.8919 -54.8907 -54.8820 -54.8077 -54.3867 -54.3435
   -32.6359 -32.5310 -32.5112 -32.4211 -32.3701 -32.3594 -31.7946 -31.7749
   -31.6351 -31.5827 -31.5782 -31.5695 -31.5650 -31.5395 -31.5374 -31.5309
   -31.5207 -31.4999 -31.4930 -31.4162 -31.4070 -31.3715 -31.3580 -31.3474
   -31.3332 -31.2862 -31.2773 -31.2527 -31.2508 -31.2491 -31.2445 -31.2281
   -31.1411 -31.1087 -31.0985 -31.0859 -31.0672 -31.0500 -31.0420 -31.0303
   -31.0105 -30.9836 -30.8553 -30.6419 -30.6128 -30.5886 -30.5630 -30.4845
   -18.4451 -16.0397 -15.8133 -15.7541 -15.6211 -15.5535 -15.5189 -15.3276
   -15.3185 -15.2265 -15.1319 -15.0896 -15.0696 -14.9903 -14.9724 -14.9100
   -14.8474 -14.7311 -14.6935 -14.6760 -14.6411 -14.6224 -14.4716 -14.4626
   -14.3983 -14.2600 -14.2368 -14.1720 -14.0826 -14.0223 -13.9037 -13.4129
   -13.3414 -12.6507  -7.4448  -6.2264  -4.1154  -4.0433  -3.1025  -3.0491
    -3.0390  -3.0047  -2.7933  -2.7875  -2.7657  -2.7443  -2.6540  -2.6460
    -2.6148  -2.5783  -2.5587  -2.4272  -2.3856  -2.3705  -2.3254  -2.2678
    -2.2572  -2.2206  -2.1805  -2.1415  -2.1263  -2.0879  -2.0671  -1.9964
    -1.9010  -1.8986  -1.8398  -1.8369  -1.7340  -1.7069  -1.6890  -1.6448
    -1.5798  -1.5524  -1.4667  -1.4021  -1.3842  -1.2950  -1.2629  -1.2560
    -1.2332  -1.1358  -1.0181  -1.0067  -0.9467  -0.9102  -0.8845  -0.8484
    -0.7795  -0.7474  -0.6975  -0.6527  -0.6117  -0.5775  -0.5406  -0.4904
    -0.4426  -0.4218  -0.3347  -0.2897  -0.2709  -0.2162  -0.1548  -0.1218
    -0.0753  -0.0586  -0.0345   0.0044   0.0995   0.1516   0.1628   0.2025
     0.2746   0.3403   0.3702   0.4716   0.5160   0.5580   0.6697   0.6789
     0.7287   0.7575   0.8832   0.9492   1.0515   1.0623   1.1293   1.1789
     1.2013   1.2610   1.3038   1.3993   1.4501   1.4676   1.4779   1.5776
     1.6854   1.9501   2.4747   3.2883   3.4659   3.4720   3.5726   3.9701
     4.0315   4.0374   4.0746   4.2375   4.3255

          k =-0.0760-0.0839 0.0000 ( 17948 PWs)   bands (ev):

   -56.2444 -56.2440 -55.3634 -55.3590 -55.3233 -55.3136 -55.1367 -55.1344
   -55.0288 -54.8940 -54.8939 -54.8930 -54.8889 -54.8096 -54.3830 -54.3473
   -32.5213 -32.5209 -32.5048 -32.5046 -32.3906 -32.3902 -31.6698 -31.6639
   -31.6539 -31.6465 -31.5701 -31.5551 -31.5533 -31.5491 -31.5428 -31.5412
   -31.5352 -31.5266 -31.4947 -31.4783 -31.3822 -31.3801 -31.3465 -31.3407
   -31.3214 -31.2851 -31.2469 -31.2394 -31.2393 -31.2383 -31.2140 -31.1918
   -31.1490 -31.1188 -31.1187 -31.1150 -31.0920 -31.0797 -31.0796 -31.0647
   -31.0477 -31.0123 -30.7654 -30.7026 -30.6093 -30.5850 -30.5673 -30.5210
   -18.4450 -15.7676 -15.7657 -15.7305 -15.7298 -15.4628 -15.4595 -15.3660
   -15.3607 -15.2262 -15.1092 -15.0076 -14.9948 -14.9594 -14.9322 -14.8202
   -14.7994 -14.7902 -14.7801 -14.6686 -14.6484 -14.6031 -14.5919 -14.5756
   -14.5655 -14.2716 -14.2584 -14.1555 -14.1317 -14.0221 -13.9894 -13.4032
   -13.4032 -12.6614  -7.4425  -6.2286  -4.1206  -4.0441  -2.8641  -2.8569
    -2.8209  -2.8024  -2.8016  -2.7427  -2.6371  -2.5975  -2.5957  -2.5944
    -2.5132  -2.4458  -2.4379  -2.3664  -2.3336  -2.3143  -2.2562  -2.2453
    -2.1801  -2.1538  -2.1456  -2.1290  -2.1056  -2.1043  -2.0082  -1.9454
    -1.8936  -1.8901  -1.8228  -1.8047  -1.7407  -1.7199  -1.7084  -1.6767
    -1.6351  -1.6122  -1.5805  -1.5466  -1.5056  -1.4460  -1.2794  -1.2703
    -1.2609  -1.2394  -1.1143  -1.1076  -1.0763  -1.0462  -1.0404  -0.9665
    -0.9169  -0.8817  -0.8244  -0.7407  -0.7182  -0.6163  -0.5653  -0.5191
    -0.4630  -0.3568  -0.3393  -0.3287  -0.3193  -0.2891  -0.2228  -0.1936
    -0.1780  -0.0574  -0.0379   0.0153   0.0363   0.0926   0.1189   0.1833
     0.2104   0.2820   0.2937   0.3328   0.4069   0.4881   0.5224   0.5704
     0.5751   0.8513   0.9251   1.0519   1.0589   1.1230   1.1817   1.2531
     1.3127   1.3451   1.3719   1.4950   1.4993   1.5086   1.5091   1.5806
     1.5856   1.9278   2.5251   3.5919   3.5922   3.6588   3.6595   3.9801
     3.9864   4.0934   4.1037   4.2645   4.2795

     the Fermi energy is     2.8440 ev

!    total energy              =   -2977.74434951 Ry
     estimated scf accuracy    <       0.00000007 Ry
     smearing contrib. (-TS)   =      -0.00445521 Ry
     internal energy E=F+TS    =   -2977.73989429 Ry

     The total energy is F=E-TS. E is the sum of the following terms:
     one-electron contribution =  -22875.91090289 Ry
     hartree contribution      =   11535.67749147 Ry
     xc contribution           =    -496.32126135 Ry
     ewald contribution        =    8858.81367117 Ry
     electric field correction =       0.00110731 Ry

     convergence has been achieved in  63 iterations

     Forces acting on atoms (cartesian axes, Ry/au):

     atom    1 type  1   force =    -0.00003780   -0.00047034    0.12451763
     atom    2 type  1   force =    -0.00008267   -0.00048379   -0.15978249
     atom    3 type  2   force =     0.00019220   -0.00024374   -0.06790817
     atom    4 type  2   force =    -0.00000590   -0.00011498    0.02622281
     atom    5 type  2   force =    -0.01449062    0.00181805   -0.00989918
     atom    6 type  2   force =     0.01627122    0.00224122   -0.01024734
     atom    7 type  1   force =     0.00071881   -0.00386925    0.02889686
     atom    8 type  1   force =    -0.00034482   -0.00439847    0.10954254
     atom    9 type  2   force =     0.00023737   -0.00029325   -0.00051594
     atom   10 type  2   force =    -0.00231238    0.00256678   -0.07334512
     atom   11 type  2   force =    -0.00002498   -0.00033931    0.00000141
     atom   12 type  2   force =    -0.00015154   -0.00082960    0.00002171
     atom   13 type  1   force =     0.00107082   -0.00041072    0.00011992
     atom   14 type  1   force =    -0.00065541    0.00064156   -0.00010458
     atom   15 type  2   force =    -0.00028763   -0.00038765   -0.00074938
     atom   16 type  2   force =    -0.00002006   -0.00011294    0.00068189
     atom   17 type  2   force =     0.00016698   -0.00091408   -0.00021171
     atom   18 type  2   force =     0.00049100   -0.00052662    0.00011701
     atom   19 type  1   force =    -0.00114641   -0.00009482   -0.00096206
     atom   20 type  1   force =     0.00080938   -0.00014667   -0.00045323
     atom   21 type  2   force =     0.00004755   -0.00003739    0.09944699
     atom   22 type  2   force =     0.00002784   -0.00022600   -0.00040652
     atom   23 type  2   force =    -0.07968505   -0.00005834   -0.03250492
     atom   24 type  2   force =     0.07952946    0.00038005   -0.03255404
     atom   25 type  1   force =    -0.00000957   -0.00057024    0.12416410
     atom   26 type  1   force =    -0.00008285   -0.00061913   -0.15992673
     atom   27 type  2   force =     0.00030055   -0.00036429   -0.06696393
     atom   28 type  2   force =    -0.00001936    0.00014909    0.02514008
     atom   29 type  2   force =    -0.01511241    0.00192719   -0.00983969
     atom   30 type  2   force =     0.01678933    0.00242727   -0.01015330
     atom   31 type  1   force =     0.00074244   -0.00074671    0.02407192
     atom   32 type  1   force =    -0.00027390    0.00204664    0.11017191
     atom   33 type  2   force =     0.00007612    0.00029258    0.00057899
     atom   34 type  2   force =    -0.00193337    0.00199930   -0.07165916
     atom   35 type  2   force =    -0.00001755    0.00034415   -0.00001270
     atom   36 type  2   force =    -0.00052993    0.00061332   -0.00005717
     atom   37 type  1   force =     0.00119585    0.00042649    0.00030551
     atom   38 type  1   force =    -0.00055809   -0.00088425   -0.00021551
     atom   39 type  2   force =    -0.00027273   -0.00015017    0.00088588
     atom   40 type  2   force =     0.00017366   -0.00013088    0.00024182
     atom   41 type  2   force =     0.00103625    0.00015983    0.00015894
     atom   42 type  2   force =    -0.00049567   -0.00023125    0.00053098
     atom   43 type  1   force =    -0.00159826    0.00001418   -0.00032860
     atom   44 type  1   force =     0.00091441   -0.00013622   -0.00039618
     atom   45 type  2   force =     0.00002300   -0.00004830    0.09941079
     atom   46 type  2   force =    -0.07969836    0.00000355   -0.03251806
     atom   47 type  2   force =     0.07955282    0.00043649   -0.03254663
     atom   48 type  3   force =    -0.00086453   -0.00075955   -0.00045015
     atom   49 type  3   force =     0.00743296    0.00282139   -0.00610361
     atom   50 type  4   force =    -0.00027048   -0.00010153    0.00005359
     atom   51 type  5   force =    -0.00021342    0.00038036    0.00028678
     atom   52 type  5   force =    -0.00005702   -0.00052729    0.00074043
     atom   53 type  5   force =     0.00053169   -0.00015413    0.00020675
     atom   54 type  5   force =     0.00039576    0.00002061   -0.00058700
     atom   55 type  5   force =    -0.00027032   -0.00001248    0.00032068
     atom   56 type  5   force =    -0.00752077   -0.00287395    0.00496338
     atom   57 type  2   force =     0.00158950   -0.00047503   -0.00038294
     atom   58 type  5   force =    -0.00047488    0.00090338    0.00002239
     atom   59 type  5   force =    -0.00079823    0.00012991   -0.00003768

     Total force =     0.423741     Total SCF correction =     0.000654
  @ DRIVER MODE: Message from server: STATUS
  @ DRIVER MODE: Message from server: GETFORCE
  @ DRIVER MODE: Returning v,forces,stress,ensemble 

     Writing output data file ./calc.save/
  @ DRIVER MODE: Message from server: EXIT
  @ DRIVE MODE: Exiting  
 
     init_run     :     10.97s CPU     11.20s WALL (       1 calls)
     electrons    :   1037.10s CPU   1051.89s WALL (       1 calls)
     forces       :      2.46s CPU      2.56s WALL (       1 calls)

     Called by init_run:
     wfcinit      :      4.96s CPU      5.03s WALL (       1 calls)
     potinit      :      5.35s CPU      5.41s WALL (       1 calls)
     hinit0       :      0.30s CPU      0.31s WALL (       1 calls)

     Called by electrons:
     c_bands      :    882.78s CPU    888.96s WALL (      63 calls)
     sum_band     :    104.64s CPU    108.10s WALL (      63 calls)
     v_of_rho     :     37.52s CPU     39.31s WALL (      64 calls)
     newd         :     15.28s CPU     18.62s WALL (      64 calls)
     mix_rho      :      1.43s CPU      1.47s WALL (      63 calls)
     vdW_kernel   :      4.54s CPU      4.56s WALL (       1 calls)

     Called by c_bands:
     init_us_2    :      7.23s CPU      7.27s WALL (    1280 calls)
     cegterg      :    864.25s CPU    870.16s WALL (     642 calls)

     Called by *egterg:
     cdiaghg      :    125.12s CPU    125.68s WALL (    5857 calls)
     h_psi        :    465.90s CPU    470.08s WALL (    5868 calls)
     s_psi        :     62.28s CPU     62.46s WALL (    5868 calls)
     g_psi        :      1.86s CPU      1.87s WALL (    5216 calls)

     Called by h_psi:
     h_psi:calbec :     58.80s CPU     59.07s WALL (    5868 calls)
     vloc_psi     :    340.59s CPU    343.93s WALL (    5868 calls)
     add_vuspsi   :     62.90s CPU     63.24s WALL (    5868 calls)

     General routines
     calbec       :     77.40s CPU     77.74s WALL (    6538 calls)
     fft          :     18.87s CPU     19.01s WALL (    4032 calls)
     ffts         :      0.12s CPU      0.12s WALL (     127 calls)
     fftw         :    380.24s CPU    383.94s WALL (  905124 calls)
     interpolate  :      0.39s CPU      0.39s WALL (      64 calls)
     davcio       :      0.00s CPU      0.36s WALL (      10 calls)
 
     Parallel routines
 
     PWSCF        :  17m30.80s CPU  17m46.73s WALL

 
   This run was terminated on:   9:40: 3  16Sep2021            

=------------------------------------------------------------------------------=
   JOB DONE.
=------------------------------------------------------------------------------=
