
     Program PWSCF v.6.7GPU starts on 11Sep2021 at  0: 8:55 

     This program is part of the open-source Quantum ESPRESSO suite
     for quantum simulation of materials; please cite
         "P. Giannozzi et al., J. Phys.:Condens. Matter 21 395502 (2009);
         "P. Giannozzi et al., J. Phys.:Condens. Matter 29 465901 (2017);
         "P. Giannozzi et al., J. Chem. Phys. 152 154105 (2020);
          URL http://www.quantum-espresso.org", 
     in publications or presentations arising from this work. More details at
     http://www.quantum-espresso.org/quote

     Parallel version (MPI), running on    10 processors

     MPI processes distributed on     1 nodes
     R & G space division:  proc/nbgrp/npool/nimage =      10
     Reading input from /storage/home/hcoda1/3/ntian30/research/carbon/CxH_vib/CH2_calc/ads_slab/CH2NHNH_b/out_0018/pw.inp
Warning: card &CELL ignored
Warning: card   CELL_DYNAMICS='IPI', ignored
Warning: card / ignored

     Current dimensions of program PWSCF are:
     Max number of different atomic species (ntypx) = 10
     Max number of k-points (npk) =  40000
     Max angular momentum in pseudopotentials (lmaxx) =  3
     Presently no symmetry can be used with electric field

     Message from routine cell_base_init:
     DEPRECATED: use true lattice parameter, not A to a.u. conversion factor

     **************************************************************************
     Initializing libbeef V0.1.2 with the BEEF-vdW functional.
     Citation: Wellendorff et al., PRB 85, 235149 (2012).
     **************************************************************************


     IMPORTANT: XC functional enforced from input :
     Exchange-correlation= BEEF-VDW
                           (   1   4  43  14   2   0   0)
     Any further DFT definition will be discarded
     Please, verify this is what you really want


     Subspace diagonalization in iterative solution of the eigenvalue problem:
     one sub-group per band group will be used
     scalapack distributed-memory algorithm (size of sub-group:  3*  3 procs)

  @ DRIVER MODE: Connecting to 
 qe_1139763_2792040.sched-torque.pace.gatech.edu6_32di5k_scratch
  using UNIX socket
  @ DRIVER MODE: Message from server: STATUS
  @ DRIVER MODE: Message from server: INIT
  @ DRIVER MODE: Receiving replica           0          -1
  @ DRIVER MODE: Receiving encoded integer          25
  @ DRIVER MODE:  SCF:  T  FORCE:  T  STRESS:  F  VC:  F  ENSEMBLE:  F
  @ DRIVER MODE:  SCF:  T  FORCE:  T  STRESS:  F  VC:  F  ENSEMBLE:  F
 
     Parallelization info
     --------------------
     sticks:   dense  smooth     PW     G-vecs:    dense   smooth      PW
     Min         327     131     37                56683    14340    2191
     Max         328     133     38                56694    14346    2206
     Sum        3275    1317    379               566857   143421   21985
 
     Using Slab Decomposition
 


     bravais-lattice index     =            0
     lattice parameter (alat)  =       1.8897  a.u.
     unit-cell volume          =    6658.9804 (a.u.)^3
     number of atoms/cell      =           54
     number of atomic types    =            5
     number of electrons       =       396.00
     number of Kohn-Sham states=          208
     kinetic-energy cutoff     =      29.3995  Ry
     charge density cutoff     =     293.9946  Ry
     scf convergence threshold =      7.3E-08
     mixing beta               =       0.0500
     number of iterations used =            8  plain     mixing
     Exchange-correlation= BEEF-VDW
                           (   1   4  43  14   2   0   0)

     celldm(1)=   1.889726  celldm(2)=   0.000000  celldm(3)=   0.000000
     celldm(4)=   0.000000  celldm(5)=   0.000000  celldm(6)=   0.000000

     crystal axes: (cart. coord. in units of alat)
               a(1) = (   6.579727   0.000000   0.000000 )  
               a(2) = (  -0.000775   5.961596   0.000000 )  
               a(3) = (   0.000000   0.000000  25.155947 )  

     reciprocal axes: (cart. coord. in units 2 pi/alat)
               b(1) = (  0.151982  0.000020  0.000000 )  
               b(2) = (  0.000000  0.167740  0.000000 )  
               b(3) = (  0.000000  0.000000  0.039752 )  


     PseudoPot. # 1 for Ti read from file:
     /storage/coda1/p-amedford6/0/shared/rich_project_chbe-medford/medford-share/data/pseudos_module/espresso/nninc/pbe/van/Ti.UPF
     MD5 check sum: 8e4df49b7f0d34bbd5052bf3f5ea0213
     Pseudo is Ultrasoft, Zval = 12.0
     Generated by new atomic code, or converted to UPF format
     Using radial grid of  851 points,  6 beta functions with: 
                l(1) =   0
                l(2) =   0
                l(3) =   1
                l(4) =   1
                l(5) =   2
                l(6) =   2
     Q(r) pseudized with  8 coefficients,  rinner =    1.000   1.000   1.000
                                                       1.000   1.000

     PseudoPot. # 2 for O  read from file:
     /storage/coda1/p-amedford6/0/shared/rich_project_chbe-medford/medford-share/data/pseudos_module/espresso/nninc/pbe/van/O.UPF
     MD5 check sum: 78c19812648e8988a0fe644b0f25305e
     Pseudo is Ultrasoft, Zval =  6.0
     Generated by new atomic code, or converted to UPF format
     Using radial grid of  737 points,  4 beta functions with: 
                l(1) =   0
                l(2) =   0
                l(3) =   1
                l(4) =   1
     Q(r) pseudized with  8 coefficients,  rinner =    0.800   0.800   0.800


     PseudoPot. # 3 for N  read from file:
     /storage/coda1/p-amedford6/0/shared/rich_project_chbe-medford/medford-share/data/pseudos_module/espresso/nninc/pbe/van/N.UPF
     MD5 check sum: 90d10febe142ad51ac9d5be1deb811c4
     Pseudo is Ultrasoft, Zval =  5.0
     Generated by new atomic code, or converted to UPF format
     Using radial grid of  729 points,  4 beta functions with: 
                l(1) =   0
                l(2) =   0
                l(3) =   1
                l(4) =   1
     Q(r) pseudized with  8 coefficients,  rinner =    0.800   0.800   0.800


     PseudoPot. # 4 for C  read from file:
     /storage/coda1/p-amedford6/0/shared/rich_project_chbe-medford/medford-share/data/pseudos_module/espresso/nninc/pbe/van/C.UPF
     MD5 check sum: 1a69bf6b8db32088f5b2163dbdb77a27
     Pseudo is Ultrasoft, Zval =  4.0
     Generated by new atomic code, or converted to UPF format
     Using radial grid of  721 points,  4 beta functions with: 
                l(1) =   0
                l(2) =   0
                l(3) =   1
                l(4) =   1
     Q(r) pseudized with  8 coefficients,  rinner =    0.800   0.800   0.800


     PseudoPot. # 5 for H  read from file:
     /storage/coda1/p-amedford6/0/shared/rich_project_chbe-medford/medford-share/data/pseudos_module/espresso/nninc/pbe/van/H.UPF
     MD5 check sum: b5ee9d7bfd3a09ee7748110bda690ff7
     Pseudo is Ultrasoft, Zval =  1.0
     Generated by new atomic code, or converted to UPF format
     Using radial grid of  615 points,  1 beta functions with: 
                l(1) =   0
     Q(r) pseudized with  8 coefficients,  rinner =    0.800

     atomic species   valence    mass     pseudopotential
        Ti1           12.00    47.86700     Ti( 1.00)
        O1             6.00    15.99900     O ( 1.00)
        N1             5.00    14.00700     N ( 1.00)
        C1             4.00    12.01100     C ( 1.00)
        H1             1.00     1.00800     H ( 1.00)

     No symmetry found



   Cartesian axes

     site n.     atom                  positions (alat units)
         1           Ti1 tau(   1) = (   0.0004258   2.9801865   6.0000000  )
         2           Ti1 tau(   2) = (   3.2906075   1.4906267   6.0002472  )
         3           O1  tau(   3) = (   0.0006271   0.0005054   7.9858123  )
         4           O1  tau(   4) = (   3.2906025   0.0005020   7.3038282  )
         5           O1  tau(   5) = (   4.5942328   1.4918067   9.2879030  )
         6           O1  tau(   6) = (   1.9868534   1.4903216   9.2879459  )
         7           Ti1 tau(   7) = (   3.2907910   2.8959150   9.1758416  )
         8           Ti1 tau(   8) = (   0.0015273   1.4827037   9.2680791  )
         9           O1  tau(   9) = (   3.3006942   5.9534781  11.3553798  )
        10           O1  tau(  10) = (   0.0116148   5.9584955  10.6183126  )
        11           O1  tau(  11) = (   1.3049435   1.4862809  12.6371303  )
        12           O1  tau(  12) = (   5.2939446   1.4839232  12.6419886  )
        13           Ti1 tau(  13) = (   0.0297220   2.9630369  12.5573518  )
        14           Ti1 tau(  14) = (   3.3261824   1.4838644  12.4981318  )
        15           O1  tau(  15) = (   0.0289408   0.0313188  14.6920809  )
        16           O1  tau(  16) = (   3.2926898   0.0103323  13.9875539  )
        17           O1  tau(  17) = (   4.5688264   1.5151599  16.1499861  )
        18           O1  tau(  18) = (   2.0666082   1.5432664  16.2461230  )
        19           Ti1 tau(  19) = (   3.3290317   3.0025141  15.7092439  )
        20           Ti1 tau(  20) = (   6.5420716   1.4859973  15.9011789  )
        21           O1  tau(  21) = (   3.2904802   0.0005063   4.7018136  )
        22           O1  tau(  22) = (   0.0300787   5.9197746  17.2397460  )
        23           O1  tau(  23) = (   1.3043587   1.4918075   6.0039043  )
        24           O1  tau(  24) = (   5.2767064   1.4903225   6.0039473  )
        25           Ti1 tau(  25) = (   0.0000382   5.9609847   6.0000000  )
        26           Ti1 tau(  26) = (   3.2902200   4.4714249   6.0002472  )
        27           O1  tau(  27) = (   0.0002396   2.9813036   7.9858123  )
        28           O1  tau(  28) = (   3.2902150   2.9813002   7.3038282  )
        29           O1  tau(  29) = (   4.5938453   4.4726049   9.2879030  )
        30           O1  tau(  30) = (   1.9864658   4.4711199   9.2879459  )
        31           Ti1 tau(  31) = (   3.2891106   5.8743827   9.1763621  )
        32           Ti1 tau(  32) = (   0.0006254   4.4649316   9.2693709  )
        33           O1  tau(  33) = (   3.3021489   2.9801797  11.3479352  )
        34           O1  tau(  34) = (   0.0092240   2.9805883  10.6323155  )
        35           O1  tau(  35) = (   1.3026635   4.4666190  12.6547599  )
        36           O1  tau(  36) = (   5.2965037   4.4700493  12.6603964  )
        37           Ti1 tau(  37) = (   0.0280624   5.9437424  12.5124334  )
        38           Ti1 tau(  38) = (   3.3252324   4.4624078  12.5019987  )
        39           O1  tau(  39) = (   0.0181394   2.9416354  14.7876853  )
        40           O1  tau(  40) = (   3.2997337   2.9731399  13.9284607  )
        41           O1  tau(  41) = (   4.5639665   4.4616582  16.1522005  )
        42           O1  tau(  42) = (   2.0594857   4.4554260  16.1407723  )
        43           Ti1 tau(  43) = (   3.2991394   0.0041700  15.7772358  )
        44           Ti1 tau(  44) = (   0.0501841   4.6507117  16.0116611  )
        45           O1  tau(  45) = (   3.2900926   2.9813045   4.7018136  )
        46           O1  tau(  46) = (   1.3039711   4.4726057   6.0039043  )
        47           O1  tau(  47) = (   5.2763189   4.4711207   6.0039473  )
        48           N1  tau(  48) = (   1.0195810   2.7978639  18.4834737  )
        49           N1  tau(  49) = (   6.5530482   2.9315443  17.6565599  )
        50           C1  tau(  50) = (   1.1739936   3.1992704  19.7258448  )
        51           H1  tau(  51) = (   2.1028141   2.9667422  20.2081369  )
        52           H1  tau(  52) = (   0.3908697   3.7596525  20.2009034  )
        53           H1  tau(  53) = (   1.7673082   2.2798185  17.9998463  )
        54           H1  tau(  54) = (   5.7337981   3.2184162  18.1887256  )

     number of k points=    10  Fermi-Dirac smearing, width (Ry)=  0.0073
                       cart. coord. in units 2pi/alat
        k(    1) = (   0.0000000   0.0000000   0.0000000), wk =   0.1250000
        k(    2) = (   0.0000000   0.0419351   0.0000000), wk =   0.2500000
        k(    3) = (   0.0000000  -0.0838702   0.0000000), wk =   0.1250000
        k(    4) = (   0.0379955   0.0000049   0.0000000), wk =   0.2500000
        k(    5) = (   0.0379955   0.0419400   0.0000000), wk =   0.2500000
        k(    6) = (   0.0379955  -0.0838652   0.0000000), wk =   0.2500000
        k(    7) = (   0.0379955  -0.0419301   0.0000000), wk =   0.2500000
        k(    8) = (  -0.0759910  -0.0000099   0.0000000), wk =   0.1250000
        k(    9) = (  -0.0759910   0.0419252   0.0000000), wk =   0.2500000
        k(   10) = (  -0.0759910  -0.0838800   0.0000000), wk =   0.1250000

     Dense  grid:   566857 G-vectors     FFT dimensions: (  72,  64, 270)

     Smooth grid:   143421 G-vectors     FFT dimensions: (  45,  40, 180)

     Estimated max dynamical RAM per process >     363.73 MB

     Estimated total dynamical RAM >       3.55 GB
     Cannot read rho : file not found

     Initial potential from superposition of free atoms

     starting charge  379.99915, renormalised to  396.00000

     negative rho (up, down):  1.483E-02 0.000E+00


     %%%%%%%%%%%%%%%%%%%%%%%%%%%%%%%%%%%%%%%%%%%%%%%%%%%%%%%%%%%%%%%%%%%%%%%%
     %                                                                      %
     % You are using vdW-DF, which was implemented by the Thonhauser group. %
     % Please cite the following two papers that made this development      %
     % possible and the two reviews that describe the various versions:     %
     %                                                                      %
     %   T. Thonhauser et al., PRL 115, 136402 (2015).                      %
     %   T. Thonhauser et al., PRB 76, 125112 (2007).                       %
     %   K. Berland et al., Rep. Prog. Phys. 78, 066501 (2015).             %
     %   D.C. Langreth et al., J. Phys.: Condens. Matter 21, 084203 (2009). %
     %                                                                      %
     %                                                                      %
     % If you are calculating the stress with vdW-DF, please also cite:     %
     %                                                                      %
     %   R. Sabatini et al., J. Phys.: Condens. Matter 24, 424209 (2012).   %
     %                                                                      %
     %%%%%%%%%%%%%%%%%%%%%%%%%%%%%%%%%%%%%%%%%%%%%%%%%%%%%%%%%%%%%%%%%%%%%%%%


 
     Adding external electric field

     Computed dipole along edir(3) : 
        Dipole               -9.8064 Ry au,        -24.9253 Debye
        Dipole field         -0.0185 Ry au, 
 
        Potential amp.        1.7155 Ry
        Total length         46.3494 bohr
 
     Starting wfcs are  300 atomic wfcs
  @ DRIVER MODE: Message from server: STATUS
  @ DRIVER MODE: Message from server: POSDATA
  @ DRIVER MODE: Reading and sharing cell 
  @ DRIVER MODE: Reading and sharing positions 
  @ DRIVER MODE: Received positions 

     total cpu time spent up to now is       55.8 secs

     Self-consistent Calculation

     iteration #  1     ecut=    29.40 Ry     beta= 0.05
     Davidson diagonalization with overlap
     c_bands:  1 eigenvalues not converged
     c_bands:  2 eigenvalues not converged
     c_bands:  1 eigenvalues not converged
     c_bands:  1 eigenvalues not converged
     c_bands:  2 eigenvalues not converged
     c_bands:  1 eigenvalues not converged
     c_bands:  1 eigenvalues not converged
     c_bands:  1 eigenvalues not converged
     c_bands:  3 eigenvalues not converged
     ethr =  1.00E-05,  avg # of iterations = 19.6

     negative rho (up, down):  1.186E-02 0.000E+00
 
     Adding external electric field

     Computed dipole along edir(3) : 
        Dipole               42.9093 Ry au,        109.0644 Debye
        Dipole field          0.0810 Ry au, 
 
        Potential amp.       -7.5063 Ry
        Total length         46.3494 bohr
 

     total cpu time spent up to now is       95.7 secs

     total energy              =   -2534.50125034 Ry
     estimated scf accuracy    <    4524.11192447 Ry

     iteration #  2     ecut=    29.40 Ry     beta= 0.05
     Davidson diagonalization with overlap
     ethr =  1.00E-02,  avg # of iterations = 24.6

     negative rho (up, down):  3.226E-03 0.000E+00
 
     Adding external electric field

     Computed dipole along edir(3) : 
        Dipole               -2.7362 Ry au,         -6.9547 Debye
        Dipole field         -0.0052 Ry au, 
 
        Potential amp.        0.4787 Ry
        Total length         46.3494 bohr
 

     total cpu time spent up to now is      169.0 secs

     total energy              =   -2457.49128392 Ry
     estimated scf accuracy    <   66916.23096466 Ry

     iteration #  3     ecut=    29.40 Ry     beta= 0.05
     Davidson diagonalization with overlap
     ethr =  1.00E-02,  avg # of iterations = 14.7

     negative rho (up, down):  3.292E-03 0.000E+00
 
     Adding external electric field

     Computed dipole along edir(3) : 
        Dipole               -4.7536 Ry au,        -12.0825 Debye
        Dipole field         -0.0090 Ry au, 
 
        Potential amp.        0.8316 Ry
        Total length         46.3494 bohr
 

     total cpu time spent up to now is      215.1 secs

     total energy              =   -2922.90954715 Ry
     estimated scf accuracy    <    4327.31958419 Ry

     iteration #  4     ecut=    29.40 Ry     beta= 0.05
     Davidson diagonalization with overlap
     ethr =  1.00E-02,  avg # of iterations = 13.4

     negative rho (up, down):  3.337E-03 0.000E+00
 
     Adding external electric field

     Computed dipole along edir(3) : 
        Dipole               -6.2588 Ry au,        -15.9083 Debye
        Dipole field         -0.0118 Ry au, 
 
        Potential amp.        1.0949 Ry
        Total length         46.3494 bohr
 

     total cpu time spent up to now is      234.0 secs

     total energy              =   -2927.32203318 Ry
     estimated scf accuracy    <    1424.57776894 Ry

     iteration #  5     ecut=    29.40 Ry     beta= 0.05
     Davidson diagonalization with overlap
     ethr =  1.00E-02,  avg # of iterations = 15.9

     negative rho (up, down):  3.334E-03 0.000E+00
 
     Adding external electric field

     Computed dipole along edir(3) : 
        Dipole               -5.5672 Ry au,        -14.1505 Debye
        Dipole field         -0.0105 Ry au, 
 
        Potential amp.        0.9739 Ry
        Total length         46.3494 bohr
 

     total cpu time spent up to now is      252.7 secs

     total energy              =   -2944.16246978 Ry
     estimated scf accuracy    <      20.46284591 Ry

     iteration #  6     ecut=    29.40 Ry     beta= 0.05
     Davidson diagonalization with overlap
     ethr =  5.17E-03,  avg # of iterations =  2.5

     negative rho (up, down):  3.363E-03 0.000E+00
 
     Adding external electric field

     Computed dipole along edir(3) : 
        Dipole               -4.5514 Ry au,        -11.5685 Debye
        Dipole field         -0.0086 Ry au, 
 
        Potential amp.        0.7962 Ry
        Total length         46.3494 bohr
 

     total cpu time spent up to now is      263.4 secs

     total energy              =   -2943.26366190 Ry
     estimated scf accuracy    <      16.89492202 Ry

     iteration #  7     ecut=    29.40 Ry     beta= 0.05
     Davidson diagonalization with overlap
     ethr =  4.27E-03,  avg # of iterations =  1.0

     negative rho (up, down):  3.879E-03 0.000E+00
 
     Adding external electric field

     Computed dipole along edir(3) : 
        Dipole                0.9717 Ry au,          2.4698 Debye
        Dipole field          0.0018 Ry au, 
 
        Potential amp.       -0.1700 Ry
        Total length         46.3494 bohr
 

     total cpu time spent up to now is      273.2 secs

     total energy              =   -2939.06564992 Ry
     estimated scf accuracy    <      13.44166926 Ry

     iteration #  8     ecut=    29.40 Ry     beta= 0.05
     Davidson diagonalization with overlap
     c_bands:  1 eigenvalues not converged
     c_bands:  2 eigenvalues not converged
     ethr =  3.39E-03,  avg # of iterations = 19.3

     negative rho (up, down):  3.911E-03 0.000E+00
 
     Adding external electric field

     Computed dipole along edir(3) : 
        Dipole                0.8279 Ry au,          2.1044 Debye
        Dipole field          0.0016 Ry au, 
 
        Potential amp.       -0.1448 Ry
        Total length         46.3494 bohr
 

     total cpu time spent up to now is      297.3 secs

     total energy              =   -2960.06306712 Ry
     estimated scf accuracy    <    2279.10107664 Ry

     iteration #  9     ecut=    29.40 Ry     beta= 0.05
     Davidson diagonalization with overlap
     ethr =  3.39E-03,  avg # of iterations =  1.1

     negative rho (up, down):  3.942E-03 0.000E+00
 
     Adding external electric field

     Computed dipole along edir(3) : 
        Dipole                0.7866 Ry au,          1.9993 Debye
        Dipole field          0.0015 Ry au, 
 
        Potential amp.       -0.1376 Ry
        Total length         46.3494 bohr
 

     total cpu time spent up to now is      307.3 secs

     total energy              =   -2959.87809839 Ry
     estimated scf accuracy    <    2149.12549716 Ry

     iteration # 10     ecut=    29.40 Ry     beta= 0.05
     Davidson diagonalization with overlap
     ethr =  3.39E-03,  avg # of iterations =  1.0

     negative rho (up, down):  4.277E-03 0.000E+00
 
     Adding external electric field

     Computed dipole along edir(3) : 
        Dipole                2.6832 Ry au,          6.8200 Debye
        Dipole field          0.0051 Ry au, 
 
        Potential amp.       -0.4694 Ry
        Total length         46.3494 bohr
 

     total cpu time spent up to now is      317.1 secs

     total energy              =   -2972.28031449 Ry
     estimated scf accuracy    <    2141.50101695 Ry

     iteration # 11     ecut=    29.40 Ry     beta= 0.05
     Davidson diagonalization with overlap
     ethr =  3.39E-03,  avg # of iterations =  2.2

     negative rho (up, down):  4.156E-03 0.000E+00
 
     Adding external electric field

     Computed dipole along edir(3) : 
        Dipole                1.1203 Ry au,          2.8476 Debye
        Dipole field          0.0021 Ry au, 
 
        Potential amp.       -0.1960 Ry
        Total length         46.3494 bohr
 

     total cpu time spent up to now is      327.8 secs

     total energy              =   -2955.73625580 Ry
     estimated scf accuracy    <    2654.94529424 Ry

     iteration # 12     ecut=    29.40 Ry     beta= 0.05
     Davidson diagonalization with overlap
     ethr =  3.39E-03,  avg # of iterations =  1.9

     negative rho (up, down):  4.383E-03 0.000E+00
 
     Adding external electric field

     Computed dipole along edir(3) : 
        Dipole                2.6186 Ry au,          6.6558 Debye
        Dipole field          0.0049 Ry au, 
 
        Potential amp.       -0.4581 Ry
        Total length         46.3494 bohr
 

     total cpu time spent up to now is      338.5 secs

     total energy              =   -2964.25492385 Ry
     estimated scf accuracy    <    2008.92079681 Ry

     iteration # 13     ecut=    29.40 Ry     beta= 0.05
     Davidson diagonalization with overlap
     ethr =  3.39E-03,  avg # of iterations =  1.0

     negative rho (up, down):  4.555E-03 0.000E+00
 
     Adding external electric field

     Computed dipole along edir(3) : 
        Dipole                3.5397 Ry au,          8.9971 Debye
        Dipole field          0.0067 Ry au, 
 
        Potential amp.       -0.6192 Ry
        Total length         46.3494 bohr
 

     total cpu time spent up to now is      348.4 secs

     total energy              =   -2962.52341972 Ry
     estimated scf accuracy    <    2292.71111179 Ry

     iteration # 14     ecut=    29.40 Ry     beta= 0.05
     Davidson diagonalization with overlap
     ethr =  3.39E-03,  avg # of iterations =  1.0

     negative rho (up, down):  4.678E-03 0.000E+00
 
     Adding external electric field

     Computed dipole along edir(3) : 
        Dipole                4.0199 Ry au,         10.2175 Debye
        Dipole field          0.0076 Ry au, 
 
        Potential amp.       -0.7032 Ry
        Total length         46.3494 bohr
 

     total cpu time spent up to now is      358.2 secs

     total energy              =   -2961.94703454 Ry
     estimated scf accuracy    <    2051.54529470 Ry

     iteration # 15     ecut=    29.40 Ry     beta= 0.05
     Davidson diagonalization with overlap
     ethr =  3.39E-03,  avg # of iterations =  1.0

     negative rho (up, down):  4.708E-03 0.000E+00
 
     Adding external electric field

     Computed dipole along edir(3) : 
        Dipole                2.3179 Ry au,          5.8914 Debye
        Dipole field          0.0044 Ry au, 
 
        Potential amp.       -0.4055 Ry
        Total length         46.3494 bohr
 

     total cpu time spent up to now is      368.2 secs

     total energy              =   -2935.75257759 Ry
     estimated scf accuracy    <    2015.43477438 Ry

     iteration # 16     ecut=    29.40 Ry     beta= 0.05
     Davidson diagonalization with overlap
     c_bands:  4 eigenvalues not converged
     c_bands:  3 eigenvalues not converged
     c_bands:  4 eigenvalues not converged
     c_bands:  1 eigenvalues not converged
     ethr =  3.39E-03,  avg # of iterations = 24.9

     negative rho (up, down):  4.354E-03 0.000E+00
 
     Adding external electric field

     Computed dipole along edir(3) : 
        Dipole               -7.5208 Ry au,        -19.1160 Debye
        Dipole field         -0.0142 Ry au, 
 
        Potential amp.        1.3157 Ry
        Total length         46.3494 bohr
 

     total cpu time spent up to now is      394.4 secs

     total energy              =   -2925.77864958 Ry
     estimated scf accuracy    <     372.33906218 Ry

     iteration # 17     ecut=    29.40 Ry     beta= 0.05
     Davidson diagonalization with overlap
     c_bands:  1 eigenvalues not converged
     ethr =  3.39E-03,  avg # of iterations = 16.4

     negative rho (up, down):  4.058E-03 0.000E+00
 
     Adding external electric field

     Computed dipole along edir(3) : 
        Dipole               -2.1366 Ry au,         -5.4306 Debye
        Dipole field         -0.0040 Ry au, 
 
        Potential amp.        0.3738 Ry
        Total length         46.3494 bohr
 

     total cpu time spent up to now is      423.8 secs

     total energy              =   -2934.58084415 Ry
     estimated scf accuracy    <    1191.64973109 Ry

     iteration # 18     ecut=    29.40 Ry     beta= 0.05
     Davidson diagonalization with overlap
     ethr =  3.39E-03,  avg # of iterations =  8.0

     negative rho (up, down):  4.276E-03 0.000E+00
 
     Adding external electric field

     Computed dipole along edir(3) : 
        Dipole               -1.4270 Ry au,         -3.6271 Debye
        Dipole field         -0.0027 Ry au, 
 
        Potential amp.        0.2496 Ry
        Total length         46.3494 bohr
 

     total cpu time spent up to now is      438.2 secs

     total energy              =   -2940.13386910 Ry
     estimated scf accuracy    <      42.83037473 Ry

     iteration # 19     ecut=    29.40 Ry     beta= 0.05
     Davidson diagonalization with overlap
     ethr =  3.39E-03,  avg # of iterations =  1.6

     negative rho (up, down):  4.428E-03 0.000E+00
 
     Adding external electric field

     Computed dipole along edir(3) : 
        Dipole               -0.7465 Ry au,         -1.8975 Debye
        Dipole field         -0.0014 Ry au, 
 
        Potential amp.        0.1306 Ry
        Total length         46.3494 bohr
 

     total cpu time spent up to now is      448.3 secs

     total energy              =   -2939.78935625 Ry
     estimated scf accuracy    <      34.59098127 Ry

     iteration # 20     ecut=    29.40 Ry     beta= 0.05
     Davidson diagonalization with overlap
     ethr =  3.39E-03,  avg # of iterations =  3.1

     negative rho (up, down):  4.854E-03 0.000E+00
 
     Adding external electric field

     Computed dipole along edir(3) : 
        Dipole                0.4269 Ry au,          1.0850 Debye
        Dipole field          0.0008 Ry au, 
 
        Potential amp.       -0.0747 Ry
        Total length         46.3494 bohr
 

     total cpu time spent up to now is      458.9 secs

     total energy              =   -2939.19011164 Ry
     estimated scf accuracy    <      23.13238925 Ry

     iteration # 21     ecut=    29.40 Ry     beta= 0.05
     Davidson diagonalization with overlap
     c_bands:  1 eigenvalues not converged
     ethr =  3.39E-03,  avg # of iterations = 10.0

     negative rho (up, down):  4.753E-03 0.000E+00
 
     Adding external electric field

     Computed dipole along edir(3) : 
        Dipole                0.6797 Ry au,          1.7276 Debye
        Dipole field          0.0013 Ry au, 
 
        Potential amp.       -0.1189 Ry
        Total length         46.3494 bohr
 

     total cpu time spent up to now is      472.4 secs

     total energy              =   -2940.37862054 Ry
     estimated scf accuracy    <       2.06664981 Ry

     iteration # 22     ecut=    29.40 Ry     beta= 0.05
     Davidson diagonalization with overlap
     c_bands:  5 eigenvalues not converged
     c_bands:  4 eigenvalues not converged
     c_bands:  4 eigenvalues not converged
     c_bands:  3 eigenvalues not converged
     c_bands:  1 eigenvalues not converged
     c_bands:  3 eigenvalues not converged
     ethr =  5.22E-04,  avg # of iterations = 18.9

     negative rho (up, down):  4.577E-03 0.000E+00
 
     Adding external electric field

     Computed dipole along edir(3) : 
        Dipole                0.1940 Ry au,          0.4932 Debye
        Dipole field          0.0004 Ry au, 
 
        Potential amp.       -0.0339 Ry
        Total length         46.3494 bohr
 

     total cpu time spent up to now is      491.0 secs

     total energy              =   -2940.52791820 Ry
     estimated scf accuracy    <       4.57093775 Ry

     iteration # 23     ecut=    29.40 Ry     beta= 0.05
     Davidson diagonalization with overlap
     c_bands:  5 eigenvalues not converged
     ethr =  5.22E-04,  avg # of iterations =  7.5

     negative rho (up, down):  4.393E-03 0.000E+00
 
     Adding external electric field

     Computed dipole along edir(3) : 
        Dipole               -0.6644 Ry au,         -1.6888 Debye
        Dipole field         -0.0013 Ry au, 
 
        Potential amp.        0.1162 Ry
        Total length         46.3494 bohr
 

     total cpu time spent up to now is      503.0 secs

     total energy              =   -2940.25064613 Ry
     estimated scf accuracy    <       4.09932040 Ry

     iteration # 24     ecut=    29.40 Ry     beta= 0.05
     Davidson diagonalization with overlap
     ethr =  5.22E-04,  avg # of iterations =  6.0

     negative rho (up, down):  4.337E-03 0.000E+00
 
     Adding external electric field

     Computed dipole along edir(3) : 
        Dipole               -0.4590 Ry au,         -1.1666 Debye
        Dipole field         -0.0009 Ry au, 
 
        Potential amp.        0.0803 Ry
        Total length         46.3494 bohr
 

     total cpu time spent up to now is      514.7 secs

     total energy              =   -2940.40052253 Ry
     estimated scf accuracy    <       0.89399649 Ry

     iteration # 25     ecut=    29.40 Ry     beta= 0.05
     Davidson diagonalization with overlap
     ethr =  2.26E-04,  avg # of iterations = 11.4

     negative rho (up, down):  4.227E-03 0.000E+00
 
     Adding external electric field

     Computed dipole along edir(3) : 
        Dipole               -0.4746 Ry au,         -1.2063 Debye
        Dipole field         -0.0009 Ry au, 
 
        Potential amp.        0.0830 Ry
        Total length         46.3494 bohr
 

     total cpu time spent up to now is      528.0 secs

     total energy              =   -2940.33281520 Ry
     estimated scf accuracy    <       0.68373413 Ry

     iteration # 26     ecut=    29.40 Ry     beta= 0.05
     Davidson diagonalization with overlap
     c_bands:  2 eigenvalues not converged
     c_bands:  1 eigenvalues not converged
     c_bands:  1 eigenvalues not converged
     c_bands:  1 eigenvalues not converged
     c_bands:  1 eigenvalues not converged
     c_bands:  2 eigenvalues not converged
     ethr =  1.73E-04,  avg # of iterations = 19.7

     negative rho (up, down):  4.379E-03 0.000E+00
 
     Adding external electric field

     Computed dipole along edir(3) : 
        Dipole               -0.1831 Ry au,         -0.4655 Debye
        Dipole field         -0.0003 Ry au, 
 
        Potential amp.        0.0320 Ry
        Total length         46.3494 bohr
 

     total cpu time spent up to now is      547.6 secs

     total energy              =   -2940.37126649 Ry
     estimated scf accuracy    <       2.20273902 Ry

     iteration # 27     ecut=    29.40 Ry     beta= 0.05
     Davidson diagonalization with overlap
     ethr =  1.73E-04,  avg # of iterations =  3.6

     negative rho (up, down):  4.937E-03 0.000E+00
 
     Adding external electric field

     Computed dipole along edir(3) : 
        Dipole                0.7908 Ry au,          2.0101 Debye
        Dipole field          0.0015 Ry au, 
 
        Potential amp.       -0.1383 Ry
        Total length         46.3494 bohr
 

     total cpu time spent up to now is      558.3 secs

     total energy              =   -2940.30641083 Ry
     estimated scf accuracy    <       0.52208249 Ry

     iteration # 28     ecut=    29.40 Ry     beta= 0.05
     Davidson diagonalization with overlap
     c_bands:  3 eigenvalues not converged
     c_bands:  5 eigenvalues not converged
     c_bands:  1 eigenvalues not converged
     c_bands:  2 eigenvalues not converged
     c_bands:  2 eigenvalues not converged
     c_bands:  2 eigenvalues not converged
     ethr =  1.32E-04,  avg # of iterations = 19.0

     negative rho (up, down):  4.893E-03 0.000E+00
 
     Adding external electric field

     Computed dipole along edir(3) : 
        Dipole                0.9364 Ry au,          2.3801 Debye
        Dipole field          0.0018 Ry au, 
 
        Potential amp.       -0.1638 Ry
        Total length         46.3494 bohr
 

     total cpu time spent up to now is      579.8 secs

     total energy              =   -2940.30524943 Ry
     estimated scf accuracy    <       6.88423201 Ry

     iteration # 29     ecut=    29.40 Ry     beta= 0.05
     Davidson diagonalization with overlap
     ethr =  1.32E-04,  avg # of iterations = 12.9

     negative rho (up, down):  5.116E-03 0.000E+00
 
     Adding external electric field

     Computed dipole along edir(3) : 
        Dipole                1.3083 Ry au,          3.3253 Debye
        Dipole field          0.0025 Ry au, 
 
        Potential amp.       -0.2289 Ry
        Total length         46.3494 bohr
 

     total cpu time spent up to now is      594.4 secs

     total energy              =   -2940.38673457 Ry
     estimated scf accuracy    <       1.48663000 Ry

     iteration # 30     ecut=    29.40 Ry     beta= 0.05
     Davidson diagonalization with overlap
     ethr =  1.32E-04,  avg # of iterations =  5.9

     negative rho (up, down):  5.318E-03 0.000E+00
 
     Adding external electric field

     Computed dipole along edir(3) : 
        Dipole                1.3945 Ry au,          3.5444 Debye
        Dipole field          0.0026 Ry au, 
 
        Potential amp.       -0.2439 Ry
        Total length         46.3494 bohr
 

     total cpu time spent up to now is      606.0 secs

     total energy              =   -2940.39173344 Ry
     estimated scf accuracy    <       2.68857255 Ry

     iteration # 31     ecut=    29.40 Ry     beta= 0.05
     Davidson diagonalization with overlap
     ethr =  1.32E-04,  avg # of iterations =  3.1

     negative rho (up, down):  5.461E-03 0.000E+00
 
     Adding external electric field

     Computed dipole along edir(3) : 
        Dipole                0.8246 Ry au,          2.0960 Debye
        Dipole field          0.0016 Ry au, 
 
        Potential amp.       -0.1443 Ry
        Total length         46.3494 bohr
 

     total cpu time spent up to now is      617.0 secs

     total energy              =   -2940.26964817 Ry
     estimated scf accuracy    <       2.34379616 Ry

     iteration # 32     ecut=    29.40 Ry     beta= 0.05
     Davidson diagonalization with overlap
     c_bands:  4 eigenvalues not converged
     c_bands:  2 eigenvalues not converged
     c_bands:  1 eigenvalues not converged
     c_bands:  2 eigenvalues not converged
     c_bands:  3 eigenvalues not converged
     c_bands:  1 eigenvalues not converged
     c_bands:  1 eigenvalues not converged
     ethr =  1.32E-04,  avg # of iterations = 19.6

     negative rho (up, down):  5.935E-03 0.000E+00
 
     Adding external electric field

     Computed dipole along edir(3) : 
        Dipole                0.8925 Ry au,          2.2684 Debye
        Dipole field          0.0017 Ry au, 
 
        Potential amp.       -0.1561 Ry
        Total length         46.3494 bohr
 

     total cpu time spent up to now is      634.9 secs

     total energy              =   -2940.32838577 Ry
     estimated scf accuracy    <       0.75937620 Ry

     iteration # 33     ecut=    29.40 Ry     beta= 0.05
     Davidson diagonalization with overlap
     c_bands:  2 eigenvalues not converged
     ethr =  1.32E-04,  avg # of iterations = 14.9

     negative rho (up, down):  5.932E-03 0.000E+00
 
     Adding external electric field

     Computed dipole along edir(3) : 
        Dipole                1.0956 Ry au,          2.7847 Debye
        Dipole field          0.0021 Ry au, 
 
        Potential amp.       -0.1917 Ry
        Total length         46.3494 bohr
 

     total cpu time spent up to now is      649.9 secs

     total energy              =   -2940.34976427 Ry
     estimated scf accuracy    <       0.47010175 Ry

     iteration # 34     ecut=    29.40 Ry     beta= 0.05
     Davidson diagonalization with overlap
     ethr =  1.19E-04,  avg # of iterations =  2.7

     negative rho (up, down):  6.484E-03 0.000E+00
 
     Adding external electric field

     Computed dipole along edir(3) : 
        Dipole                1.2392 Ry au,          3.1497 Debye
        Dipole field          0.0023 Ry au, 
 
        Potential amp.       -0.2168 Ry
        Total length         46.3494 bohr
 

     total cpu time spent up to now is      660.7 secs

     total energy              =   -2940.34358608 Ry
     estimated scf accuracy    <       0.25366062 Ry

     iteration # 35     ecut=    29.40 Ry     beta= 0.05
     Davidson diagonalization with overlap
     c_bands:  1 eigenvalues not converged
     c_bands:  1 eigenvalues not converged
     ethr =  6.41E-05,  avg # of iterations = 17.8

     negative rho (up, down):  6.963E-03 0.000E+00
 
     Adding external electric field

     Computed dipole along edir(3) : 
        Dipole                1.1007 Ry au,          2.7977 Debye
        Dipole field          0.0021 Ry au, 
 
        Potential amp.       -0.1925 Ry
        Total length         46.3494 bohr
 

     total cpu time spent up to now is      677.4 secs

     total energy              =   -2940.34919849 Ry
     estimated scf accuracy    <       0.23018933 Ry

     iteration # 36     ecut=    29.40 Ry     beta= 0.05
     Davidson diagonalization with overlap
     ethr =  5.81E-05,  avg # of iterations =  2.0

     negative rho (up, down):  7.501E-03 0.000E+00
 
     Adding external electric field

     Computed dipole along edir(3) : 
        Dipole                0.9743 Ry au,          2.4764 Debye
        Dipole field          0.0018 Ry au, 
 
        Potential amp.       -0.1704 Ry
        Total length         46.3494 bohr
 

     total cpu time spent up to now is      688.2 secs

     total energy              =   -2940.35578007 Ry
     estimated scf accuracy    <       0.16392980 Ry

     iteration # 37     ecut=    29.40 Ry     beta= 0.05
     Davidson diagonalization with overlap
     c_bands:  2 eigenvalues not converged
     c_bands:  2 eigenvalues not converged
     c_bands:  4 eigenvalues not converged
     c_bands:  1 eigenvalues not converged
     c_bands:  1 eigenvalues not converged
     c_bands:  3 eigenvalues not converged
     ethr =  4.14E-05,  avg # of iterations = 16.1

     negative rho (up, down):  6.691E-03 0.000E+00
 
     Adding external electric field

     Computed dipole along edir(3) : 
        Dipole                1.1479 Ry au,          2.9176 Debye
        Dipole field          0.0022 Ry au, 
 
        Potential amp.       -0.2008 Ry
        Total length         46.3494 bohr
 

     total cpu time spent up to now is      703.5 secs

     total energy              =   -2940.34777467 Ry
     estimated scf accuracy    <       0.37048067 Ry

     iteration # 38     ecut=    29.40 Ry     beta= 0.05
     Davidson diagonalization with overlap
     c_bands:  2 eigenvalues not converged
     ethr =  4.14E-05,  avg # of iterations = 10.2

     negative rho (up, down):  7.080E-03 0.000E+00
 
     Adding external electric field

     Computed dipole along edir(3) : 
        Dipole                1.2311 Ry au,          3.1292 Debye
        Dipole field          0.0023 Ry au, 
 
        Potential amp.       -0.2154 Ry
        Total length         46.3494 bohr
 

     total cpu time spent up to now is      716.8 secs

     total energy              =   -2940.35509635 Ry
     estimated scf accuracy    <       0.04554207 Ry

     iteration # 39     ecut=    29.40 Ry     beta= 0.05
     Davidson diagonalization with overlap
     c_bands:  1 eigenvalues not converged
     c_bands:  3 eigenvalues not converged
     c_bands:  1 eigenvalues not converged
     c_bands:  1 eigenvalues not converged
     ethr =  1.15E-05,  avg # of iterations = 16.5

     negative rho (up, down):  7.775E-03 0.000E+00
 
     Adding external electric field

     Computed dipole along edir(3) : 
        Dipole                1.0091 Ry au,          2.5649 Debye
        Dipole field          0.0019 Ry au, 
 
        Potential amp.       -0.1765 Ry
        Total length         46.3494 bohr
 

     total cpu time spent up to now is      733.0 secs

     total energy              =   -2940.33049450 Ry
     estimated scf accuracy    <       0.26971112 Ry

     iteration # 40     ecut=    29.40 Ry     beta= 0.05
     Davidson diagonalization with overlap
     c_bands:  1 eigenvalues not converged
     c_bands:  3 eigenvalues not converged
     c_bands:  1 eigenvalues not converged
     c_bands:  2 eigenvalues not converged
     c_bands:  1 eigenvalues not converged
     c_bands:  2 eigenvalues not converged
     c_bands:  3 eigenvalues not converged
     c_bands:  1 eigenvalues not converged
     c_bands:  3 eigenvalues not converged
     ethr =  1.15E-05,  avg # of iterations = 19.9

     negative rho (up, down):  7.401E-03 0.000E+00
 
     Adding external electric field

     Computed dipole along edir(3) : 
        Dipole                1.0067 Ry au,          2.5588 Debye
        Dipole field          0.0019 Ry au, 
 
        Potential amp.       -0.1761 Ry
        Total length         46.3494 bohr
 

     total cpu time spent up to now is      753.5 secs

     total energy              =   -2940.36459130 Ry
     estimated scf accuracy    <       0.16136785 Ry

     iteration # 41     ecut=    29.40 Ry     beta= 0.05
     Davidson diagonalization with overlap
     c_bands:  1 eigenvalues not converged
     c_bands:  1 eigenvalues not converged
     c_bands:  1 eigenvalues not converged
     ethr =  1.15E-05,  avg # of iterations = 11.2

     negative rho (up, down):  7.819E-03 0.000E+00
 
     Adding external electric field

     Computed dipole along edir(3) : 
        Dipole                1.0592 Ry au,          2.6922 Debye
        Dipole field          0.0020 Ry au, 
 
        Potential amp.       -0.1853 Ry
        Total length         46.3494 bohr
 

     total cpu time spent up to now is      766.2 secs

     total energy              =   -2940.36277817 Ry
     estimated scf accuracy    <       0.13604036 Ry

     iteration # 42     ecut=    29.40 Ry     beta= 0.05
     Davidson diagonalization with overlap
     ethr =  1.15E-05,  avg # of iterations =  3.7

     negative rho (up, down):  9.135E-03 0.000E+00
 
     Adding external electric field

     Computed dipole along edir(3) : 
        Dipole                1.2853 Ry au,          3.2669 Debye
        Dipole field          0.0024 Ry au, 
 
        Potential amp.       -0.2248 Ry
        Total length         46.3494 bohr
 

     total cpu time spent up to now is      777.2 secs

     total energy              =   -2940.35135577 Ry
     estimated scf accuracy    <       0.11846178 Ry

     iteration # 43     ecut=    29.40 Ry     beta= 0.05
     Davidson diagonalization with overlap
     c_bands:  1 eigenvalues not converged
     c_bands:  2 eigenvalues not converged
     c_bands:  1 eigenvalues not converged
     ethr =  1.15E-05,  avg # of iterations = 18.8

     negative rho (up, down):  9.361E-03 0.000E+00
 
     Adding external electric field

     Computed dipole along edir(3) : 
        Dipole                1.3072 Ry au,          3.3225 Debye
        Dipole field          0.0025 Ry au, 
 
        Potential amp.       -0.2287 Ry
        Total length         46.3494 bohr
 

     total cpu time spent up to now is      795.5 secs

     total energy              =   -2940.35602116 Ry
     estimated scf accuracy    <       0.01450355 Ry

     iteration # 44     ecut=    29.40 Ry     beta= 0.05
     Davidson diagonalization with overlap
     c_bands:  1 eigenvalues not converged
     ethr =  3.66E-06,  avg # of iterations =  5.9

     negative rho (up, down):  1.021E-02 0.000E+00
 
     Adding external electric field

     Computed dipole along edir(3) : 
        Dipole                1.3972 Ry au,          3.5514 Debye
        Dipole field          0.0026 Ry au, 
 
        Potential amp.       -0.2444 Ry
        Total length         46.3494 bohr
 

     total cpu time spent up to now is      807.1 secs

     total energy              =   -2940.35565203 Ry
     estimated scf accuracy    <       0.01852338 Ry

     iteration # 45     ecut=    29.40 Ry     beta= 0.05
     Davidson diagonalization with overlap
     c_bands:  1 eigenvalues not converged
     ethr =  3.66E-06,  avg # of iterations =  8.2

     negative rho (up, down):  1.143E-02 0.000E+00
 
     Adding external electric field

     Computed dipole along edir(3) : 
        Dipole                1.4486 Ry au,          3.6820 Debye
        Dipole field          0.0027 Ry au, 
 
        Potential amp.       -0.2534 Ry
        Total length         46.3494 bohr
 

     total cpu time spent up to now is      820.1 secs

     total energy              =   -2940.35649249 Ry
     estimated scf accuracy    <       0.00763831 Ry

     iteration # 46     ecut=    29.40 Ry     beta= 0.05
     Davidson diagonalization with overlap
     c_bands:  1 eigenvalues not converged
     c_bands:  3 eigenvalues not converged
     ethr =  1.93E-06,  avg # of iterations = 14.9

     negative rho (up, down):  1.420E-02 0.000E+00
 
     Adding external electric field

     Computed dipole along edir(3) : 
        Dipole                1.4885 Ry au,          3.7833 Debye
        Dipole field          0.0028 Ry au, 
 
        Potential amp.       -0.2604 Ry
        Total length         46.3494 bohr
 

     total cpu time spent up to now is      835.2 secs

     total energy              =   -2940.35726316 Ry
     estimated scf accuracy    <       0.02389659 Ry

     iteration # 47     ecut=    29.40 Ry     beta= 0.05
     Davidson diagonalization with overlap
     c_bands:  1 eigenvalues not converged
     ethr =  1.93E-06,  avg # of iterations = 10.0

     negative rho (up, down):  1.357E-02 0.000E+00
 
     Adding external electric field

     Computed dipole along edir(3) : 
        Dipole                1.4159 Ry au,          3.5989 Debye
        Dipole field          0.0027 Ry au, 
 
        Potential amp.       -0.2477 Ry
        Total length         46.3494 bohr
 

     total cpu time spent up to now is      849.4 secs

     total energy              =   -2940.35501909 Ry
     estimated scf accuracy    <       0.06236725 Ry

     iteration # 48     ecut=    29.40 Ry     beta= 0.05
     Davidson diagonalization with overlap
     c_bands:  1 eigenvalues not converged
     ethr =  1.93E-06,  avg # of iterations = 14.7

     negative rho (up, down):  1.412E-02 0.000E+00
 
     Adding external electric field

     Computed dipole along edir(3) : 
        Dipole                1.4329 Ry au,          3.6422 Debye
        Dipole field          0.0027 Ry au, 
 
        Potential amp.       -0.2507 Ry
        Total length         46.3494 bohr
 

     total cpu time spent up to now is      864.1 secs

     total energy              =   -2940.35730352 Ry
     estimated scf accuracy    <       0.00587753 Ry

     iteration # 49     ecut=    29.40 Ry     beta= 0.05
     Davidson diagonalization with overlap
     ethr =  1.48E-06,  avg # of iterations =  1.8

     negative rho (up, down):  1.497E-02 0.000E+00
 
     Adding external electric field

     Computed dipole along edir(3) : 
        Dipole                1.4600 Ry au,          3.7110 Debye
        Dipole field          0.0028 Ry au, 
 
        Potential amp.       -0.2554 Ry
        Total length         46.3494 bohr
 

     total cpu time spent up to now is      874.6 secs

     total energy              =   -2940.35725758 Ry
     estimated scf accuracy    <       0.00354043 Ry

     iteration # 50     ecut=    29.40 Ry     beta= 0.05
     Davidson diagonalization with overlap
     ethr =  8.94E-07,  avg # of iterations =  9.1

     negative rho (up, down):  1.557E-02 0.000E+00
 
     Adding external electric field

     Computed dipole along edir(3) : 
        Dipole                1.4769 Ry au,          3.7539 Debye
        Dipole field          0.0028 Ry au, 
 
        Potential amp.       -0.2584 Ry
        Total length         46.3494 bohr
 

     total cpu time spent up to now is      888.0 secs

     total energy              =   -2940.35741871 Ry
     estimated scf accuracy    <       0.00084321 Ry

     iteration # 51     ecut=    29.40 Ry     beta= 0.05
     Davidson diagonalization with overlap
     ethr =  2.13E-07,  avg # of iterations = 13.1

     negative rho (up, down):  1.534E-02 0.000E+00
 
     Adding external electric field

     Computed dipole along edir(3) : 
        Dipole                1.4638 Ry au,          3.7207 Debye
        Dipole field          0.0028 Ry au, 
 
        Potential amp.       -0.2561 Ry
        Total length         46.3494 bohr
 

     total cpu time spent up to now is      903.3 secs

     total energy              =   -2940.35747165 Ry
     estimated scf accuracy    <       0.00123723 Ry

     iteration # 52     ecut=    29.40 Ry     beta= 0.05
     Davidson diagonalization with overlap
     ethr =  2.13E-07,  avg # of iterations =  5.6

     negative rho (up, down):  1.517E-02 0.000E+00
 
     Adding external electric field

     Computed dipole along edir(3) : 
        Dipole                1.4527 Ry au,          3.6925 Debye
        Dipole field          0.0027 Ry au, 
 
        Potential amp.       -0.2541 Ry
        Total length         46.3494 bohr
 

     total cpu time spent up to now is      914.9 secs

     total energy              =   -2940.35752034 Ry
     estimated scf accuracy    <       0.00030230 Ry

     iteration # 53     ecut=    29.40 Ry     beta= 0.05
     Davidson diagonalization with overlap
     ethr =  7.63E-08,  avg # of iterations = 12.4

     negative rho (up, down):  1.502E-02 0.000E+00
 
     Adding external electric field

     Computed dipole along edir(3) : 
        Dipole                1.4515 Ry au,          3.6893 Debye
        Dipole field          0.0027 Ry au, 
 
        Potential amp.       -0.2539 Ry
        Total length         46.3494 bohr
 

     total cpu time spent up to now is      929.9 secs

     total energy              =   -2940.35755424 Ry
     estimated scf accuracy    <       0.00008670 Ry

     iteration # 54     ecut=    29.40 Ry     beta= 0.05
     Davidson diagonalization with overlap
     c_bands:  1 eigenvalues not converged
     ethr =  2.19E-08,  avg # of iterations =  9.0

     negative rho (up, down):  1.497E-02 0.000E+00
 
     Adding external electric field

     Computed dipole along edir(3) : 
        Dipole                1.4507 Ry au,          3.6872 Debye
        Dipole field          0.0027 Ry au, 
 
        Potential amp.       -0.2538 Ry
        Total length         46.3494 bohr
 

     total cpu time spent up to now is      942.7 secs

     total energy              =   -2940.35756914 Ry
     estimated scf accuracy    <       0.00007201 Ry

     iteration # 55     ecut=    29.40 Ry     beta= 0.05
     Davidson diagonalization with overlap
     ethr =  1.82E-08,  avg # of iterations =  1.1

     negative rho (up, down):  1.494E-02 0.000E+00
 
     Adding external electric field

     Computed dipole along edir(3) : 
        Dipole                1.4499 Ry au,          3.6852 Debye
        Dipole field          0.0027 Ry au, 
 
        Potential amp.       -0.2536 Ry
        Total length         46.3494 bohr
 

     total cpu time spent up to now is      952.6 secs

     total energy              =   -2940.35758793 Ry
     estimated scf accuracy    <       0.00006780 Ry

     iteration # 56     ecut=    29.40 Ry     beta= 0.05
     Davidson diagonalization with overlap
     ethr =  1.71E-08,  avg # of iterations =  2.2

     negative rho (up, down):  1.496E-02 0.000E+00
 
     Adding external electric field

     Computed dipole along edir(3) : 
        Dipole                1.4495 Ry au,          3.6843 Debye
        Dipole field          0.0027 Ry au, 
 
        Potential amp.       -0.2536 Ry
        Total length         46.3494 bohr
 

     total cpu time spent up to now is      963.4 secs

     total energy              =   -2940.35760018 Ry
     estimated scf accuracy    <       0.00008825 Ry

     iteration # 57     ecut=    29.40 Ry     beta= 0.05
     Davidson diagonalization with overlap
     ethr =  1.71E-08,  avg # of iterations =  5.1

     negative rho (up, down):  1.489E-02 0.000E+00
 
     Adding external electric field

     Computed dipole along edir(3) : 
        Dipole                1.4481 Ry au,          3.6807 Debye
        Dipole field          0.0027 Ry au, 
 
        Potential amp.       -0.2533 Ry
        Total length         46.3494 bohr
 

     total cpu time spent up to now is      975.1 secs

     total energy              =   -2940.35761619 Ry
     estimated scf accuracy    <       0.00004242 Ry

     iteration # 58     ecut=    29.40 Ry     beta= 0.05
     Davidson diagonalization with overlap
     ethr =  1.07E-08,  avg # of iterations = 10.1

     negative rho (up, down):  1.482E-02 0.000E+00
 
     Adding external electric field

     Computed dipole along edir(3) : 
        Dipole                1.4491 Ry au,          3.6832 Debye
        Dipole field          0.0027 Ry au, 
 
        Potential amp.       -0.2535 Ry
        Total length         46.3494 bohr
 

     total cpu time spent up to now is      988.4 secs

     total energy              =   -2940.35762866 Ry
     estimated scf accuracy    <       0.00003557 Ry

     iteration # 59     ecut=    29.40 Ry     beta= 0.05
     Davidson diagonalization with overlap
     ethr =  8.98E-09,  avg # of iterations =  3.1

     negative rho (up, down):  1.470E-02 0.000E+00
 
     Adding external electric field

     Computed dipole along edir(3) : 
        Dipole                1.4490 Ry au,          3.6831 Debye
        Dipole field          0.0027 Ry au, 
 
        Potential amp.       -0.2535 Ry
        Total length         46.3494 bohr
 

     total cpu time spent up to now is      999.4 secs

     total energy              =   -2940.35763366 Ry
     estimated scf accuracy    <       0.00002622 Ry

     iteration # 60     ecut=    29.40 Ry     beta= 0.05
     Davidson diagonalization with overlap
     c_bands:  1 eigenvalues not converged
     ethr =  6.62E-09,  avg # of iterations =  9.2

     negative rho (up, down):  1.469E-02 0.000E+00
 
     Adding external electric field

     Computed dipole along edir(3) : 
        Dipole                1.4491 Ry au,          3.6833 Debye
        Dipole field          0.0027 Ry au, 
 
        Potential amp.       -0.2535 Ry
        Total length         46.3494 bohr
 

     total cpu time spent up to now is     1015.3 secs

     total energy              =   -2940.35764410 Ry
     estimated scf accuracy    <       0.00001284 Ry

     iteration # 61     ecut=    29.40 Ry     beta= 0.05
     Davidson diagonalization with overlap
     ethr =  3.24E-09,  avg # of iterations = 13.0

     negative rho (up, down):  1.470E-02 0.000E+00
 
     Adding external electric field

     Computed dipole along edir(3) : 
        Dipole                1.4492 Ry au,          3.6834 Debye
        Dipole field          0.0027 Ry au, 
 
        Potential amp.       -0.2535 Ry
        Total length         46.3494 bohr
 

     total cpu time spent up to now is     1030.8 secs

     total energy              =   -2940.35765257 Ry
     estimated scf accuracy    <       0.00000985 Ry

     iteration # 62     ecut=    29.40 Ry     beta= 0.05
     Davidson diagonalization with overlap
     ethr =  2.49E-09,  avg # of iterations =  1.9

     negative rho (up, down):  1.476E-02 0.000E+00
 
     Adding external electric field

     Computed dipole along edir(3) : 
        Dipole                1.4492 Ry au,          3.6834 Debye
        Dipole field          0.0027 Ry au, 
 
        Potential amp.       -0.2535 Ry
        Total length         46.3494 bohr
 

     total cpu time spent up to now is     1041.4 secs

     total energy              =   -2940.35765955 Ry
     estimated scf accuracy    <       0.00000823 Ry

     iteration # 63     ecut=    29.40 Ry     beta= 0.05
     Davidson diagonalization with overlap
     ethr =  2.08E-09,  avg # of iterations = 12.4

     negative rho (up, down):  1.466E-02 0.000E+00
 
     Adding external electric field

     Computed dipole along edir(3) : 
        Dipole                1.4488 Ry au,          3.6824 Debye
        Dipole field          0.0027 Ry au, 
 
        Potential amp.       -0.2534 Ry
        Total length         46.3494 bohr
 

     total cpu time spent up to now is     1058.8 secs

     total energy              =   -2940.35766564 Ry
     estimated scf accuracy    <       0.00001834 Ry

     iteration # 64     ecut=    29.40 Ry     beta= 0.05
     Davidson diagonalization with overlap
     c_bands:  1 eigenvalues not converged
     ethr =  2.08E-09,  avg # of iterations = 13.1

     negative rho (up, down):  1.455E-02 0.000E+00
 
     Adding external electric field

     Computed dipole along edir(3) : 
        Dipole                1.4485 Ry au,          3.6818 Debye
        Dipole field          0.0027 Ry au, 
 
        Potential amp.       -0.2534 Ry
        Total length         46.3494 bohr
 

     total cpu time spent up to now is     1075.3 secs

     total energy              =   -2940.35767286 Ry
     estimated scf accuracy    <       0.00000242 Ry

     iteration # 65     ecut=    29.40 Ry     beta= 0.05
     Davidson diagonalization with overlap
     ethr =  6.11E-10,  avg # of iterations = 11.7

     negative rho (up, down):  1.453E-02 0.000E+00
 
     Adding external electric field

     Computed dipole along edir(3) : 
        Dipole                1.4482 Ry au,          3.6809 Debye
        Dipole field          0.0027 Ry au, 
 
        Potential amp.       -0.2533 Ry
        Total length         46.3494 bohr
 

     total cpu time spent up to now is     1094.0 secs

     total energy              =   -2940.35767840 Ry
     estimated scf accuracy    <       0.00000455 Ry

     iteration # 66     ecut=    29.40 Ry     beta= 0.05
     Davidson diagonalization with overlap
     ethr =  6.11E-10,  avg # of iterations =  4.4

     negative rho (up, down):  1.452E-02 0.000E+00
 
     Adding external electric field

     Computed dipole along edir(3) : 
        Dipole                1.4476 Ry au,          3.6793 Debye
        Dipole field          0.0027 Ry au, 
 
        Potential amp.       -0.2532 Ry
        Total length         46.3494 bohr
 

     total cpu time spent up to now is     1105.3 secs

     total energy              =   -2940.35768241 Ry
     estimated scf accuracy    <       0.00000370 Ry

     iteration # 67     ecut=    29.40 Ry     beta= 0.05
     Davidson diagonalization with overlap
     c_bands:  1 eigenvalues not converged
     ethr =  6.11E-10,  avg # of iterations = 10.7

     negative rho (up, down):  1.451E-02 0.000E+00
 
     Adding external electric field

     Computed dipole along edir(3) : 
        Dipole                1.4477 Ry au,          3.6796 Debye
        Dipole field          0.0027 Ry au, 
 
        Potential amp.       -0.2532 Ry
        Total length         46.3494 bohr
 

     total cpu time spent up to now is     1121.2 secs

     total energy              =   -2940.35768656 Ry
     estimated scf accuracy    <       0.00000127 Ry

     iteration # 68     ecut=    29.40 Ry     beta= 0.05
     Davidson diagonalization with overlap
     c_bands:  1 eigenvalues not converged
     c_bands:  2 eigenvalues not converged
     ethr =  3.22E-10,  avg # of iterations = 10.3

     negative rho (up, down):  1.446E-02 0.000E+00
 
     Adding external electric field

     Computed dipole along edir(3) : 
        Dipole                1.4474 Ry au,          3.6789 Debye
        Dipole field          0.0027 Ry au, 
 
        Potential amp.       -0.2532 Ry
        Total length         46.3494 bohr
 

     total cpu time spent up to now is     1138.8 secs

     total energy              =   -2940.35769041 Ry
     estimated scf accuracy    <       0.00000117 Ry

     iteration # 69     ecut=    29.40 Ry     beta= 0.05
     Davidson diagonalization with overlap
     ethr =  2.97E-10,  avg # of iterations =  3.9

     negative rho (up, down):  1.444E-02 0.000E+00
 
     Adding external electric field

     Computed dipole along edir(3) : 
        Dipole                1.4475 Ry au,          3.6792 Debye
        Dipole field          0.0027 Ry au, 
 
        Potential amp.       -0.2532 Ry
        Total length         46.3494 bohr
 

     total cpu time spent up to now is     1150.2 secs

     total energy              =   -2940.35769378 Ry
     estimated scf accuracy    <       0.00000054 Ry

     iteration # 70     ecut=    29.40 Ry     beta= 0.05
     Davidson diagonalization with overlap
     ethr =  1.36E-10,  avg # of iterations = 10.4

     negative rho (up, down):  1.444E-02 0.000E+00
 
     Adding external electric field

     Computed dipole along edir(3) : 
        Dipole                1.4474 Ry au,          3.6789 Debye
        Dipole field          0.0027 Ry au, 
 
        Potential amp.       -0.2532 Ry
        Total length         46.3494 bohr
 

     total cpu time spent up to now is     1166.3 secs

     total energy              =   -2940.35769678 Ry
     estimated scf accuracy    <       0.00000087 Ry

     iteration # 71     ecut=    29.40 Ry     beta= 0.05
     Davidson diagonalization with overlap
     ethr =  1.36E-10,  avg # of iterations =  2.8

     negative rho (up, down):  1.444E-02 0.000E+00
 
     Adding external electric field

     Computed dipole along edir(3) : 
        Dipole                1.4474 Ry au,          3.6790 Debye
        Dipole field          0.0027 Ry au, 
 
        Potential amp.       -0.2532 Ry
        Total length         46.3494 bohr
 

     total cpu time spent up to now is     1177.5 secs

     total energy              =   -2940.35769944 Ry
     estimated scf accuracy    <       0.00000049 Ry

     iteration # 72     ecut=    29.40 Ry     beta= 0.05
     Davidson diagonalization with overlap
     ethr =  1.24E-10,  avg # of iterations =  5.3

     negative rho (up, down):  1.444E-02 0.000E+00
 
     Adding external electric field

     Computed dipole along edir(3) : 
        Dipole                1.4473 Ry au,          3.6787 Debye
        Dipole field          0.0027 Ry au, 
 
        Potential amp.       -0.2532 Ry
        Total length         46.3494 bohr
 

     total cpu time spent up to now is     1189.3 secs

     total energy              =   -2940.35770190 Ry
     estimated scf accuracy    <       0.00000015 Ry

     iteration # 73     ecut=    29.40 Ry     beta= 0.05
     Davidson diagonalization with overlap
     c_bands:  1 eigenvalues not converged
     c_bands:  2 eigenvalues not converged
     ethr =  3.80E-11,  avg # of iterations = 16.1

     negative rho (up, down):  1.444E-02 0.000E+00
 
     Adding external electric field

     Computed dipole along edir(3) : 
        Dipole                1.4474 Ry au,          3.6790 Debye
        Dipole field          0.0027 Ry au, 
 
        Potential amp.       -0.2532 Ry
        Total length         46.3494 bohr
 

     total cpu time spent up to now is     1207.6 secs

     total energy              =   -2940.35770415 Ry
     estimated scf accuracy    <       0.00000018 Ry

     iteration # 74     ecut=    29.40 Ry     beta= 0.05
     Davidson diagonalization with overlap
     ethr =  3.80E-11,  avg # of iterations =  6.6

     negative rho (up, down):  1.443E-02 0.000E+00
 
     Adding external electric field

     Computed dipole along edir(3) : 
        Dipole                1.4475 Ry au,          3.6791 Debye
        Dipole field          0.0027 Ry au, 
 
        Potential amp.       -0.2532 Ry
        Total length         46.3494 bohr
 

     total cpu time spent up to now is     1219.6 secs

     total energy              =   -2940.35770616 Ry
     estimated scf accuracy    <       0.00000009 Ry

     iteration # 75     ecut=    29.40 Ry     beta= 0.05
     Davidson diagonalization with overlap
     c_bands:  1 eigenvalues not converged
     ethr =  2.37E-11,  avg # of iterations = 14.2

     negative rho (up, down):  1.443E-02 0.000E+00
 
     Adding external electric field

     Computed dipole along edir(3) : 
        Dipole                1.4473 Ry au,          3.6787 Debye
        Dipole field          0.0027 Ry au, 
 
        Potential amp.       -0.2532 Ry
        Total length         46.3494 bohr
 

     total cpu time spent up to now is     1238.6 secs

     total energy              =   -2940.35770798 Ry
     estimated scf accuracy    <       0.00000007 Ry

     iteration # 76     ecut=    29.40 Ry     beta= 0.05
     Davidson diagonalization with overlap
     ethr =  1.87E-11,  avg # of iterations = 11.2

     negative rho (up, down):  1.444E-02 0.000E+00
 
     Adding external electric field

     Computed dipole along edir(3) : 
        Dipole                1.4477 Ry au,          3.6796 Debye
        Dipole field          0.0027 Ry au, 
 
        Potential amp.       -0.2532 Ry
        Total length         46.3494 bohr
 

     total cpu time spent up to now is     1253.4 secs

     End of self-consistent calculation

          k = 0.0000 0.0000 0.0000 ( 18029 PWs)   bands (ev):

   -55.2715 -55.2370 -55.2351 -55.2029 -55.1674 -55.1437 -55.1023 -55.0758
   -55.0752 -55.0648 -55.0625 -55.0401 -55.0296 -54.9204 -54.2488 -54.2148
   -31.8450 -31.7266 -31.6314 -31.6033 -31.5958 -31.5837 -31.5650 -31.5641
   -31.5297 -31.5270 -31.4832 -31.4816 -31.4798 -31.4479 -31.4278 -31.4080
   -31.4025 -31.3897 -31.3818 -31.3772 -31.3482 -31.3267 -31.3248 -31.3185
   -31.3059 -31.2961 -31.2940 -31.2776 -31.2735 -31.2700 -31.2585 -31.2482
   -31.2453 -31.2336 -31.2251 -31.2021 -31.1956 -31.1938 -31.1897 -31.1703
   -31.1453 -31.1037 -30.6574 -30.5653 -30.5431 -30.4739 -30.3872 -30.2762
   -19.4890 -16.1003 -15.8217 -15.6947 -15.5176 -15.4577 -15.3644 -15.2143
   -15.1649 -15.0501 -15.0161 -15.0063 -14.9774 -14.9419 -14.8715 -14.8000
   -14.7991 -14.7951 -14.7548 -14.7542 -14.7052 -14.6927 -14.6903 -14.6549
   -14.6408 -14.5945 -14.4842 -14.4116 -14.3552 -14.0324 -13.8228 -12.7517
   -12.6346 -10.2335  -7.0051  -6.6324  -4.2210  -4.1195  -3.4480  -3.2702
    -3.2514  -3.1850  -3.1661  -2.9927  -2.9169  -2.7458  -2.6203  -2.5331
    -2.4912  -2.4702  -2.4662  -2.2867  -2.2357  -2.1860  -2.1633  -2.1490
    -2.1199  -2.0840  -2.0679  -2.0331  -2.0252  -2.0087  -1.8349  -1.7544
    -1.7094  -1.6908  -1.6530  -1.5914  -1.5798  -1.5560  -1.5473  -1.5436
    -1.5181  -1.4862  -1.4689  -1.4308  -1.2973  -1.2520  -1.2174  -1.1304
    -1.0424  -0.8971  -0.8200  -0.8144  -0.7811  -0.7367  -0.6965  -0.6540
    -0.6444  -0.6120  -0.4682  -0.4230  -0.3576  -0.3291  -0.2929  -0.2439
    -0.2312  -0.0894  -0.0497  -0.0435  -0.0180   0.1074   0.1472   0.2022
     0.2320   0.2946   0.3396   0.4052   0.4210   0.4439   0.4907   0.5096
     0.6205   0.6722   0.6864   0.6953   0.7234   0.7910   0.8465   0.8663
     0.8886   0.9045   1.0741   1.1282   1.1960   1.3443   1.3565   1.6855
     1.7246   1.7735   1.9598   2.3477   2.3950   3.8334   3.9031   3.9627
     3.9818   3.9867   4.0679   4.1830   4.3062   4.3267   4.3325   4.3351

          k = 0.0000 0.0419 0.0000 ( 17933 PWs)   bands (ev):

   -55.2662 -55.2402 -55.2320 -55.2079 -55.1659 -55.1397 -55.1062 -55.0749
   -55.0701 -55.0661 -55.0576 -55.0452 -55.0343 -54.9212 -54.2437 -54.2197
   -31.7876 -31.6726 -31.5928 -31.5771 -31.5573 -31.5389 -31.5297 -31.5255
   -31.5222 -31.5124 -31.5065 -31.4726 -31.4690 -31.4645 -31.4496 -31.4176
   -31.4049 -31.3923 -31.3758 -31.3742 -31.3629 -31.3309 -31.3216 -31.3134
   -31.3080 -31.3052 -31.3021 -31.3014 -31.2887 -31.2810 -31.2799 -31.2542
   -31.2518 -31.2458 -31.2454 -31.2308 -31.2256 -31.2230 -31.2106 -31.2017
   -31.1447 -31.1410 -30.6032 -30.5619 -30.5461 -30.4613 -30.3998 -30.3334
   -19.4881 -15.9682 -15.7060 -15.5872 -15.4460 -15.3515 -15.3305 -15.2310
   -15.1555 -15.1216 -15.0837 -15.0447 -14.9582 -14.9373 -14.8906 -14.8220
   -14.8145 -14.7678 -14.7506 -14.7441 -14.7424 -14.7062 -14.6980 -14.6968
   -14.6426 -14.6061 -14.5405 -14.4678 -14.4142 -14.1290 -13.8283 -12.7554
   -12.6739 -10.2339  -7.0039  -6.6327  -4.2115  -4.1105  -3.2570  -3.1129
    -3.0962  -3.0271  -2.9889  -2.8494  -2.7175  -2.6324  -2.5745  -2.4944
    -2.4117  -2.4006  -2.3796  -2.3212  -2.3017  -2.2768  -2.2418  -2.2286
    -2.2157  -2.2035  -2.1317  -2.0692  -2.0525  -2.0342  -1.9850  -1.9781
    -1.8375  -1.8277  -1.8097  -1.7979  -1.7102  -1.6909  -1.5719  -1.5548
    -1.5162  -1.4384  -1.3904  -1.2667  -1.2068  -1.1830  -1.0487  -1.0184
    -0.9595  -0.9326  -0.8089  -0.7501  -0.6736  -0.6410  -0.5732  -0.5287
    -0.4876  -0.4456  -0.4222  -0.4067  -0.2909  -0.2536  -0.2277  -0.2059
    -0.1844  -0.1606  -0.0849  -0.0748  -0.0597   0.0582   0.1084   0.1633
     0.1817   0.2312   0.2585   0.2923   0.3723   0.3814   0.4352   0.4907
     0.5094   0.5452   0.5544   0.5897   0.6990   0.7224   0.7584   0.7863
     0.8638   0.9506   0.9759   1.0373   1.0396   1.0703   1.2231   1.3849
     1.5963   1.9587   2.0373   2.3024   2.3058   4.0038   4.0529   4.0582
     4.1166   4.1478   4.2159   4.2320   4.2447   4.2829   4.3212   4.3546

          k = 0.0000-0.0839 0.0000 ( 17884 PWs)   bands (ev):

   -55.2558 -55.2506 -55.2200 -55.2198 -55.1644 -55.1346 -55.1113 -55.0740
   -55.0674 -55.0593 -55.0560 -55.0462 -55.0455 -54.9221 -54.2317 -54.2316
   -31.6500 -31.6450 -31.5785 -31.5402 -31.5401 -31.5386 -31.5124 -31.5122
   -31.5091 -31.4772 -31.4677 -31.4529 -31.4448 -31.4402 -31.4333 -31.4221
   -31.3844 -31.3817 -31.3802 -31.3751 -31.3711 -31.3522 -31.3421 -31.3418
   -31.3394 -31.3350 -31.3285 -31.3264 -31.3164 -31.3132 -31.2975 -31.2928
   -31.2890 -31.2888 -31.2518 -31.2365 -31.2268 -31.2258 -31.2257 -31.2239
   -31.1798 -31.1421 -30.5538 -30.5537 -30.4701 -30.4700 -30.4305 -30.4305
   -19.4872 -15.6476 -15.6337 -15.4428 -15.4310 -15.3216 -15.3084 -15.2688
   -15.1864 -15.1541 -15.1033 -15.0600 -15.0320 -14.9881 -14.8631 -14.8587
   -14.8480 -14.8318 -14.8222 -14.7255 -14.6799 -14.6743 -14.6629 -14.6583
   -14.6074 -14.6019 -14.5590 -14.5528 -14.5395 -14.2819 -13.8326 -12.7367
   -12.7365 -10.2343  -7.0027  -6.6331  -4.2042  -4.1023  -2.8522  -2.8190
    -2.7647  -2.7369  -2.7197  -2.6966  -2.6924  -2.6687  -2.5540  -2.5492
    -2.5428  -2.4464  -2.4359  -2.4269  -2.4146  -2.3843  -2.3191  -2.2797
    -2.2527  -2.2043  -2.1916  -2.1345  -2.1095  -2.0992  -2.0767  -2.0113
    -1.9958  -1.9556  -1.8900  -1.8458  -1.7871  -1.6996  -1.6521  -1.4740
    -1.3705  -1.2814  -1.2475  -1.1810  -1.0944  -1.0509  -1.0132  -0.9836
    -0.8344  -0.7641  -0.7503  -0.7322  -0.7047  -0.6749  -0.6554  -0.6373
    -0.5989  -0.5809  -0.5080  -0.4861  -0.3724  -0.2676  -0.2450  -0.1828
    -0.1353  -0.0278   0.0147   0.0415   0.0935   0.1063   0.1306   0.1577
     0.1801   0.1991   0.2583   0.2636   0.2823   0.3019   0.3594   0.3779
     0.4025   0.4317   0.5001   0.5186   0.5225   0.5524   0.5812   0.5997
     0.8418   0.9169   0.9504   0.9521   0.9673   1.1006   1.1529   1.3151
     1.3513   2.1012   2.1020   2.2383   2.2387   4.0328   4.0691   4.1276
     4.1511   4.1641   4.2310   4.3099   4.3121   4.4136   4.4338   4.4383

          k = 0.0380 0.0000 0.0000 ( 17913 PWs)   bands (ev):

   -55.2714 -55.2369 -55.2350 -55.2028 -55.1673 -55.1436 -55.1022 -55.0757
   -55.0746 -55.0648 -55.0629 -55.0400 -55.0295 -54.9203 -54.2487 -54.2147
   -31.8451 -31.7275 -31.6370 -31.6032 -31.5961 -31.5863 -31.5688 -31.5649
   -31.5295 -31.5268 -31.4828 -31.4816 -31.4629 -31.4478 -31.4274 -31.4013
   -31.3899 -31.3865 -31.3817 -31.3572 -31.3479 -31.3436 -31.3247 -31.3187
   -31.3056 -31.2997 -31.2939 -31.2775 -31.2733 -31.2628 -31.2586 -31.2542
   -31.2480 -31.2468 -31.2259 -31.2013 -31.1957 -31.1933 -31.1883 -31.1713
   -31.1477 -31.1036 -30.6569 -30.5688 -30.5411 -30.4737 -30.3871 -30.2760
   -19.4887 -16.0296 -15.7352 -15.6370 -15.5195 -15.3729 -15.3510 -15.2575
   -15.1704 -15.1061 -15.0497 -15.0219 -15.0160 -14.9472 -14.9400 -14.9389
   -14.8953 -14.8658 -14.8453 -14.7018 -14.6721 -14.6584 -14.5986 -14.5915
   -14.5560 -14.5055 -14.4939 -14.4784 -14.4447 -14.0303 -13.8234 -12.7484
   -12.6343 -10.2368  -6.9996  -6.6306  -4.2236  -4.1090  -3.3626  -3.1405
    -3.0256  -3.0156  -2.9004  -2.8947  -2.8724  -2.7884  -2.7508  -2.6159
    -2.5741  -2.5339  -2.4290  -2.3460  -2.3302  -2.2496  -2.1835  -2.0729
    -2.0592  -2.0330  -2.0054  -1.9591  -1.9402  -1.8789  -1.8411  -1.8062
    -1.6722  -1.6450  -1.6089  -1.5704  -1.5431  -1.5280  -1.5167  -1.4930
    -1.4385  -1.4068  -1.3515  -1.3129  -1.3077  -1.2344  -1.2117  -1.0972
    -1.0770  -0.9259  -0.8930  -0.8603  -0.7486  -0.7365  -0.6999  -0.6881
    -0.6689  -0.6063  -0.5935  -0.5826  -0.3601  -0.3314  -0.2925  -0.2506
    -0.2296  -0.1598  -0.1382  -0.1277   0.0512   0.0825   0.0954   0.1222
     0.1918   0.2460   0.2680   0.3646   0.3842   0.3973   0.4314   0.4708
     0.5007   0.5237   0.5532   0.5987   0.6560   0.6916   0.7450   0.8166
     0.8368   0.8949   0.9625   0.9993   1.1237   1.1974   1.4022   1.5866
     1.6912   1.7853   1.9289   2.2355   2.3123   3.8528   3.9235   4.0577
     4.1249   4.1496   4.1843   4.2285   4.2695   4.2976   4.3217   4.3436

          k = 0.0380 0.0419 0.0000 ( 17878 PWs)   bands (ev):

   -55.2661 -55.2402 -55.2319 -55.2078 -55.1659 -55.1397 -55.1061 -55.0747
   -55.0696 -55.0662 -55.0579 -55.0451 -55.0344 -54.9212 -54.2437 -54.2196
   -31.7877 -31.6734 -31.5927 -31.5837 -31.5575 -31.5407 -31.5307 -31.5257
   -31.5220 -31.5163 -31.5073 -31.4729 -31.4651 -31.4549 -31.4497 -31.4078
   -31.4050 -31.3808 -31.3741 -31.3730 -31.3455 -31.3372 -31.3308 -31.3137
   -31.3076 -31.3055 -31.3019 -31.3011 -31.2829 -31.2811 -31.2765 -31.2589
   -31.2547 -31.2513 -31.2471 -31.2362 -31.2291 -31.2247 -31.2104 -31.2018
   -31.1475 -31.1411 -30.6028 -30.5646 -30.5451 -30.4611 -30.3998 -30.3332
   -19.4878 -15.9036 -15.6242 -15.5422 -15.4326 -15.3389 -15.2564 -15.2267
   -15.1850 -15.1295 -15.1027 -15.0448 -14.9592 -14.9525 -14.9357 -14.9226
   -14.9177 -14.8680 -14.7936 -14.7532 -14.7020 -14.6829 -14.6393 -14.6193
   -14.6066 -14.5882 -14.5468 -14.5254 -14.4982 -14.1267 -13.8285 -12.7531
   -12.6742 -10.2354  -7.0008  -6.6309  -4.2144  -4.1099  -3.1885  -2.9801
    -2.8640  -2.8542  -2.7450  -2.7090  -2.6825  -2.6319  -2.6238  -2.5143
    -2.4307  -2.3813  -2.3297  -2.3206  -2.2963  -2.2677  -2.2121  -2.1863
    -2.1438  -2.0965  -2.0889  -2.0695  -2.0206  -1.9978  -1.9537  -1.9477
    -1.8872  -1.8275  -1.7881  -1.7709  -1.6840  -1.6496  -1.5749  -1.5083
    -1.4634  -1.3887  -1.3224  -1.2826  -1.2569  -1.0911  -1.0536  -1.0355
    -0.9606  -0.8786  -0.8183  -0.7673  -0.7381  -0.6927  -0.6592  -0.6343
    -0.6121  -0.5328  -0.4677  -0.4492  -0.4209  -0.3328  -0.3276  -0.2561
    -0.2256  -0.1806  -0.1476  -0.1135  -0.0395  -0.0040   0.0314   0.0581
     0.0769   0.1045   0.1234   0.1861   0.2285   0.2862   0.3155   0.3729
     0.3999   0.4699   0.5129   0.5471   0.6617   0.7037   0.7473   0.8172
     0.8694   0.9161   0.9513   1.0017   1.0363   1.1539   1.1797   1.3354
     1.5491   1.9695   2.0409   2.2247   2.2873   4.0091   4.0344   4.0533
     4.1169   4.1802   4.2198   4.2577   4.2637   4.3479   4.4000   4.4180

          k = 0.0380-0.0839 0.0000 ( 17916 PWs)   bands (ev):

   -55.2558 -55.2506 -55.2200 -55.2198 -55.1644 -55.1346 -55.1113 -55.0739
   -55.0676 -55.0591 -55.0557 -55.0465 -55.0458 -54.9222 -54.2318 -54.2316
   -31.6503 -31.6453 -31.5787 -31.5410 -31.5409 -31.5388 -31.5125 -31.5123
   -31.5095 -31.4774 -31.4706 -31.4685 -31.4597 -31.4240 -31.4149 -31.4093
   -31.3888 -31.3867 -31.3811 -31.3757 -31.3726 -31.3540 -31.3407 -31.3404
   -31.3402 -31.3356 -31.3224 -31.3089 -31.3077 -31.3056 -31.2970 -31.2960
   -31.2927 -31.2887 -31.2596 -31.2382 -31.2363 -31.2344 -31.2264 -31.2256
   -31.1796 -31.1460 -30.5548 -30.5548 -30.4700 -30.4699 -30.4306 -30.4305
   -19.4871 -15.6121 -15.5815 -15.3909 -15.3770 -15.3270 -15.2752 -15.2324
   -15.1686 -15.1471 -15.1012 -15.0465 -14.9889 -14.9531 -14.9182 -14.8995
   -14.8827 -14.8796 -14.8157 -14.7659 -14.7236 -14.7031 -14.6924 -14.6753
   -14.6258 -14.6194 -14.6079 -14.6041 -14.5273 -14.2766 -13.8329 -12.7364
   -12.7363 -10.2355  -7.0003  -6.6309  -4.2043  -4.1052  -2.8478  -2.7477
    -2.7000  -2.6208  -2.5472  -2.5398  -2.4927  -2.4884  -2.4522  -2.4263
    -2.3599  -2.3494  -2.3468  -2.3420  -2.3201  -2.3003  -2.2672  -2.2188
    -2.2072  -2.1675  -2.1469  -2.1324  -2.1096  -2.0850  -2.0238  -1.9963
    -1.9698  -1.9464  -1.8769  -1.8417  -1.8339  -1.5850  -1.4796  -1.4601
    -1.3396  -1.2804  -1.2537  -1.1999  -1.1845  -1.1543  -1.1150  -1.0998
    -1.0148  -0.9968  -0.9408  -0.9357  -0.8299  -0.8118  -0.7154  -0.6557
    -0.6464  -0.6089  -0.5769  -0.4811  -0.4759  -0.3724  -0.3174  -0.2750
    -0.2370  -0.1755  -0.1304  -0.0878  -0.0673  -0.0570  -0.0426   0.0237
     0.0842   0.1091   0.1257   0.1725   0.2020   0.2304   0.2556   0.2773
     0.3456   0.4694   0.4810   0.5117   0.6526   0.6660   0.8028   0.8103
     0.8164   0.8697   0.9413   0.9813   1.0075   1.0836   1.1173   1.3080
     1.3414   2.1145   2.1154   2.2284   2.2292   4.0167   4.0294   4.1038
     4.1390   4.1710   4.2197   4.2866   4.3001   4.4280   4.4370   4.4832

          k = 0.0380-0.0419 0.0000 ( 17876 PWs)   bands (ev):

   -55.2661 -55.2402 -55.2319 -55.2078 -55.1658 -55.1397 -55.1061 -55.0747
   -55.0696 -55.0662 -55.0579 -55.0450 -55.0344 -54.9212 -54.2437 -54.2196
   -31.7877 -31.6734 -31.5927 -31.5836 -31.5576 -31.5406 -31.5307 -31.5257
   -31.5220 -31.5163 -31.5073 -31.4729 -31.4652 -31.4547 -31.4497 -31.4078
   -31.4050 -31.3815 -31.3741 -31.3731 -31.3455 -31.3371 -31.3309 -31.3140
   -31.3076 -31.3037 -31.3012 -31.3007 -31.2829 -31.2811 -31.2765 -31.2592
   -31.2590 -31.2513 -31.2446 -31.2362 -31.2291 -31.2246 -31.2105 -31.2018
   -31.1475 -31.1411 -30.6028 -30.5646 -30.5451 -30.4611 -30.3998 -30.3332
   -19.4878 -15.9037 -15.6247 -15.5413 -15.4376 -15.3373 -15.2572 -15.2297
   -15.1837 -15.1382 -15.0821 -15.0438 -14.9576 -14.9559 -14.9362 -14.9316
   -14.9177 -14.8626 -14.7936 -14.7530 -14.7012 -14.6828 -14.6415 -14.6188
   -14.6059 -14.5875 -14.5469 -14.5258 -14.4986 -14.1275 -13.8290 -12.7531
   -12.6742 -10.2369  -6.9989  -6.6306  -4.2113  -4.1039  -3.1886  -2.9829
    -2.8666  -2.8565  -2.7466  -2.7143  -2.6910  -2.6283  -2.6154  -2.5068
    -2.4298  -2.3895  -2.3338  -2.3233  -2.2910  -2.2734  -2.2162  -2.1851
    -2.1416  -2.0988  -2.0910  -2.0690  -2.0221  -1.9966  -1.9515  -1.9470
    -1.8872  -1.8224  -1.7822  -1.7325  -1.6792  -1.6529  -1.5902  -1.5066
    -1.4576  -1.3986  -1.3270  -1.2828  -1.2529  -1.0792  -1.0536  -1.0496
    -0.9622  -0.8806  -0.8165  -0.7766  -0.7533  -0.6843  -0.6732  -0.6301
    -0.6134  -0.5431  -0.4705  -0.4459  -0.4261  -0.3465  -0.3211  -0.2422
    -0.2210  -0.1792  -0.1553  -0.1136  -0.0471  -0.0126   0.0188   0.0548
     0.0654   0.1037   0.1222   0.1878   0.2285   0.2896   0.3154   0.3786
     0.3924   0.4694   0.5071   0.5473   0.6615   0.7338   0.7467   0.8101
     0.8802   0.9134   0.9758   1.0214   1.0428   1.1534   1.1766   1.3355
     1.5488   1.9695   2.0409   2.2245   2.2880   4.0100   4.0339   4.0589
     4.1332   4.1840   4.2230   4.2445   4.2645   4.3286   4.4020   4.4201

          k =-0.0760-0.0000 0.0000 ( 17886 PWs)   bands (ev):

   -55.2713 -55.2369 -55.2350 -55.2028 -55.1672 -55.1436 -55.1022 -55.0756
   -55.0741 -55.0649 -55.0633 -55.0400 -55.0295 -54.9203 -54.2487 -54.2146
   -31.8453 -31.7284 -31.6422 -31.6032 -31.5965 -31.5890 -31.5729 -31.5652
   -31.5295 -31.5267 -31.4829 -31.4816 -31.4478 -31.4381 -31.4273 -31.3956
   -31.3835 -31.3815 -31.3743 -31.3685 -31.3478 -31.3247 -31.3197 -31.3172
   -31.3066 -31.3062 -31.2943 -31.2938 -31.2774 -31.2734 -31.2586 -31.2559
   -31.2489 -31.2481 -31.2278 -31.2004 -31.1963 -31.1930 -31.1867 -31.1729
   -31.1501 -31.1038 -30.6565 -30.5722 -30.5398 -30.4737 -30.3870 -30.2760
   -19.4884 -15.9348 -15.6742 -15.5475 -15.4828 -15.3809 -15.3261 -15.2296
   -15.1503 -15.1473 -15.1012 -15.0585 -15.0294 -15.0227 -15.0173 -14.9814
   -14.9768 -14.9075 -14.8261 -14.6990 -14.6645 -14.6572 -14.6548 -14.6016
   -14.5533 -14.5155 -14.5063 -14.4116 -14.4099 -14.0286 -13.8240 -12.7453
   -12.6339 -10.2402  -6.9943  -6.6290  -4.2267  -4.0998  -3.3378  -3.0953
    -2.9103  -2.8810  -2.8078  -2.7380  -2.7247  -2.7106  -2.6774  -2.6159
    -2.5521  -2.5202  -2.5064  -2.3476  -2.2470  -2.1571  -2.1035  -2.0544
    -2.0458  -1.8973  -1.8939  -1.8814  -1.8431  -1.7987  -1.7606  -1.7285
    -1.6700  -1.6508  -1.6364  -1.6201  -1.6105  -1.5609  -1.5503  -1.5230
    -1.4817  -1.4789  -1.4004  -1.3761  -1.2981  -1.1380  -1.0959  -0.9672
    -0.9549  -0.9118  -0.8843  -0.8796  -0.8401  -0.7839  -0.7785  -0.7250
    -0.7165  -0.6819  -0.5891  -0.5799  -0.5329  -0.5181  -0.4590  -0.3406
    -0.2714  -0.2366  -0.1906  -0.1371  -0.0218   0.0153   0.0219   0.0763
     0.1282   0.1471   0.2546   0.2977   0.3110   0.3444   0.3899   0.4028
     0.4481   0.4561   0.4896   0.5367   0.5951   0.6104   0.6781   0.7230
     0.7708   0.8904   1.0104   1.0599   1.1369   1.2530   1.3108   1.4211
     1.6964   1.8067   1.9041   2.1056   2.2571   3.8546   3.8877   3.9638
     4.1102   4.1175   4.1418   4.2081   4.2705   4.3220   4.3534   4.3850

          k =-0.0760 0.0419 0.0000 ( 17914 PWs)   bands (ev):

   -55.2661 -55.2402 -55.2319 -55.2078 -55.1658 -55.1398 -55.1062 -55.0747
   -55.0692 -55.0663 -55.0584 -55.0450 -55.0345 -54.9212 -54.2437 -54.2197
   -31.7880 -31.6745 -31.5928 -31.5900 -31.5579 -31.5429 -31.5315 -31.5260
   -31.5220 -31.5208 -31.5077 -31.4732 -31.4651 -31.4499 -31.4373 -31.4053
   -31.3984 -31.3742 -31.3708 -31.3672 -31.3562 -31.3310 -31.3170 -31.3076
   -31.3067 -31.3056 -31.3043 -31.3011 -31.2963 -31.2861 -31.2810 -31.2596
   -31.2585 -31.2513 -31.2461 -31.2408 -31.2345 -31.2270 -31.2105 -31.2018
   -31.1504 -31.1413 -30.6026 -30.5675 -30.5444 -30.4611 -30.3999 -30.3333
   -19.4876 -15.8181 -15.5692 -15.4551 -15.4065 -15.3437 -15.2546 -15.2026
   -15.1691 -15.1108 -15.0603 -15.0466 -15.0222 -14.9997 -14.9822 -14.9697
   -14.9583 -14.9066 -14.8819 -14.7627 -14.7091 -14.6839 -14.6758 -14.6339
   -14.5868 -14.5852 -14.5574 -14.5157 -14.5006 -14.1256 -13.8293 -12.7510
   -12.6745 -10.2384  -6.9961  -6.6289  -4.2146  -4.1040  -3.1720  -2.9393
    -2.7114  -2.6695  -2.6435  -2.5433  -2.5401  -2.5067  -2.4563  -2.4084
    -2.4021  -2.3828  -2.3081  -2.2983  -2.2672  -2.2393  -2.2184  -2.1632
    -2.0925  -2.0794  -1.9988  -1.9962  -1.9612  -1.9276  -1.8633  -1.8406
    -1.8372  -1.8043  -1.7652  -1.7467  -1.7318  -1.6255  -1.5430  -1.4625
    -1.4299  -1.4223  -1.3856  -1.2871  -1.2454  -1.0449  -1.0251  -0.9949
    -0.9612  -0.8862  -0.8776  -0.8591  -0.8241  -0.7511  -0.7316  -0.6854
    -0.6744  -0.6241  -0.5915  -0.5475  -0.5074  -0.4829  -0.4806  -0.4775
    -0.4085  -0.3751  -0.3164  -0.2633  -0.1864  -0.1706  -0.0642  -0.0546
    -0.0242   0.0145   0.0469   0.1188   0.1696   0.2011   0.2852   0.3228
     0.4332   0.4718   0.5067   0.5549   0.5780   0.7114   0.7583   0.8691
     0.8971   0.9515   1.0280   1.0540   1.1242   1.1927   1.2327   1.2654
     1.4136   1.9846   2.0433   2.1471   2.2766   4.0023   4.0329   4.0528
     4.0637   4.1168   4.1602   4.2180   4.2296   4.3142   4.3466   4.4515

          k =-0.0760-0.0839 0.0000 ( 17948 PWs)   bands (ev):

   -55.2558 -55.2506 -55.2200 -55.2198 -55.1644 -55.1346 -55.1113 -55.0738
   -55.0678 -55.0589 -55.0553 -55.0468 -55.0461 -54.9222 -54.2318 -54.2317
   -31.6505 -31.6455 -31.5788 -31.5418 -31.5417 -31.5390 -31.5125 -31.5123
   -31.5099 -31.4791 -31.4773 -31.4694 -31.4665 -31.4257 -31.3973 -31.3936
   -31.3900 -31.3899 -31.3837 -31.3739 -31.3708 -31.3557 -31.3407 -31.3394
   -31.3391 -31.3362 -31.3350 -31.3071 -31.3035 -31.2928 -31.2904 -31.2888
   -31.2732 -31.2696 -31.2689 -31.2665 -31.2659 -31.2332 -31.2264 -31.2256
   -31.1794 -31.1500 -30.5558 -30.5558 -30.4700 -30.4698 -30.4306 -30.4306
   -19.4869 -15.5733 -15.4845 -15.4219 -15.2914 -15.2675 -15.2347 -15.2292
   -15.1592 -15.1248 -15.0651 -15.0313 -14.9928 -14.9744 -14.9719 -14.9494
   -14.8443 -14.8407 -14.8364 -14.8255 -14.7712 -14.7657 -14.7372 -14.7164
   -14.7130 -14.6591 -14.6106 -14.6083 -14.5196 -14.2719 -13.8332 -12.7362
   -12.7361 -10.2367  -6.9978  -6.6287  -4.2047  -4.1082  -2.8481  -2.7466
    -2.6533  -2.5768  -2.5005  -2.4580  -2.4349  -2.3025  -2.2595  -2.2476
    -2.2346  -2.2175  -2.1714  -2.1436  -2.1261  -2.1120  -2.0968  -2.0914
    -2.0735  -2.0537  -2.0391  -1.9803  -1.9702  -1.9523  -1.9275  -1.9071
    -1.8838  -1.8627  -1.8384  -1.8270  -1.7144  -1.6399  -1.6018  -1.5256
    -1.4722  -1.4538  -1.4464  -1.3558  -1.3209  -1.3087  -1.2960  -1.2243
    -1.1076  -1.0543  -0.9972  -0.9946  -0.9673  -0.8289  -0.8139  -0.7613
    -0.7396  -0.7195  -0.6823  -0.6423  -0.6139  -0.5278  -0.4839  -0.4528
    -0.4183  -0.2983  -0.2653  -0.2401  -0.2279  -0.2224  -0.1053  -0.0956
    -0.0695  -0.0408   0.0030   0.0245   0.0896   0.0999   0.2329   0.3111
     0.3838   0.4648   0.5653   0.6206   0.6947   0.7642   0.7650   0.8622
     0.9224   1.0013   1.0220   1.0429   1.0485   1.1672   1.2096   1.2150
     1.2527   2.1323   2.1333   2.2150   2.2152   4.0085   4.0182   4.0938
     4.1233   4.1575   4.2243   4.3470   4.3679   4.4082   4.4100   4.4923

     the Fermi energy is     3.8827 ev

!    total energy              =   -2940.35772443 Ry
     estimated scf accuracy    <       0.00000003 Ry
     smearing contrib. (-TS)   =      -0.03839846 Ry
     internal energy E=F+TS    =   -2940.31932597 Ry

     The total energy is F=E-TS. E is the sum of the following terms:
     one-electron contribution =  -23945.43425393 Ry
     hartree contribution      =   12065.23476889 Ry
     xc contribution           =    -486.09907411 Ry
     ewald contribution        =    9425.97527827 Ry
     electric field correction =       0.00395491 Ry

     convergence has been achieved in  76 iterations

     Forces acting on atoms (cartesian axes, Ry/au):

     atom    1 type  1   force =     0.00000300   -0.00025815    0.09435566
     atom    2 type  1   force =    -0.00016114   -0.00035510   -0.17720960
     atom    3 type  2   force =     0.00003813   -0.00014573   -0.02176755
     atom    4 type  2   force =    -0.00000486   -0.00173365    0.05673036
     atom    5 type  2   force =    -0.01090338   -0.00112758    0.00622212
     atom    6 type  2   force =     0.01266838   -0.00046408    0.00595829
     atom    7 type  1   force =    -0.00028830    0.00189961   -0.01477194
     atom    8 type  1   force =    -0.00006837    0.00584869    0.00724519
     atom    9 type  2   force =    -0.00014878   -0.00025908   -0.00002731
     atom   10 type  2   force =    -0.00135996    0.00012329   -0.00583855
     atom   11 type  2   force =    -0.00011817    0.00006268   -0.00008968
     atom   12 type  2   force =     0.00014292    0.00003226    0.00016531
     atom   13 type  1   force =     0.00011775    0.00010169    0.00031739
     atom   14 type  1   force =    -0.00004952    0.00001540    0.00027492
     atom   15 type  2   force =    -0.00028578    0.00023957   -0.00024100
     atom   16 type  2   force =     0.00002201    0.00023576   -0.00023053
     atom   17 type  2   force =     0.00017363    0.00018418   -0.00006443
     atom   18 type  2   force =     0.00040840   -0.00035198   -0.00020322
     atom   19 type  1   force =    -0.00052322   -0.00013060    0.00018996
     atom   20 type  1   force =    -0.00034512   -0.00000360    0.00043357
     atom   21 type  2   force =    -0.00000866   -0.00003742    0.10368908
     atom   22 type  2   force =     0.00018711    0.00019267   -0.00030167
     atom   23 type  2   force =    -0.07083042   -0.00013166   -0.02713802
     atom   24 type  2   force =     0.07068141    0.00029998   -0.02721928
     atom   25 type  1   force =     0.00002070   -0.00020131    0.09406890
     atom   26 type  1   force =    -0.00024932   -0.00046835   -0.17716891
     atom   27 type  2   force =     0.00009156   -0.00029182   -0.02082897
     atom   28 type  2   force =     0.00002729   -0.00141236    0.05610210
     atom   29 type  2   force =    -0.01101977   -0.00017493    0.00583990
     atom   30 type  2   force =     0.01267966    0.00014258    0.00559643
     atom   31 type  1   force =    -0.00016951    0.00465759   -0.01582989
     atom   32 type  1   force =    -0.00003098   -0.00691874    0.00712282
     atom   33 type  2   force =     0.00010620    0.00047875   -0.00010809
     atom   34 type  2   force =    -0.00097476    0.00064244   -0.00551362
     atom   35 type  2   force =     0.00059144    0.00025912   -0.00013868
     atom   36 type  2   force =    -0.00069327    0.00027019   -0.00023025
     atom   37 type  1   force =     0.00012888   -0.00022163    0.00014598
     atom   38 type  1   force =     0.00001995   -0.00020142   -0.00004197
     atom   39 type  2   force =     0.00075598   -0.00024597   -0.00027663
     atom   40 type  2   force =     0.00017253    0.00057232   -0.00001931
     atom   41 type  2   force =    -0.00036074   -0.00040242    0.00017910
     atom   42 type  2   force =     0.00050300    0.00020809   -0.00037521
     atom   43 type  1   force =    -0.00013929    0.00013300    0.00022773
     atom   44 type  1   force =    -0.00007472    0.00055124    0.00066824
     atom   45 type  2   force =    -0.00000393   -0.00006035    0.10367538
     atom   46 type  2   force =    -0.07084568   -0.00007660   -0.02711358
     atom   47 type  2   force =     0.07067357    0.00035984   -0.02717717
     atom   48 type  3   force =     0.00262479    0.00399422    0.01690449
     atom   49 type  3   force =    -0.00004818    0.00044197    0.00040468
     atom   50 type  4   force =    -0.00405392   -0.00745932   -0.02451851
     atom   51 type  5   force =     0.00400157   -0.00084508    0.00369963
     atom   52 type  5   force =    -0.00320267    0.00221062    0.00348680
     atom   53 type  5   force =     0.00040598   -0.00020777    0.00150055
     atom   54 type  5   force =    -0.00028340    0.00002897   -0.00076101

     Total force =     0.367151     Total SCF correction =     0.000510
  @ DRIVER MODE: Message from server: STATUS
  @ DRIVER MODE: Message from server: GETFORCE
  @ DRIVER MODE: Returning v,forces,stress,ensemble 

     Writing output data file ./calc.save/
  @ DRIVER MODE: Message from server: EXIT
  @ DRIVE MODE: Exiting  
 
     init_run     :     10.78s CPU     11.58s WALL (       1 calls)
     electrons    :   1178.30s CPU   1197.69s WALL (       1 calls)
     forces       :      2.30s CPU      2.39s WALL (       1 calls)

     Called by init_run:
     wfcinit      :      4.75s CPU      4.91s WALL (       1 calls)
     potinit      :      5.37s CPU      5.52s WALL (       1 calls)
     hinit0       :      0.29s CPU      0.45s WALL (       1 calls)

     Called by electrons:
     c_bands      :    999.02s CPU   1007.68s WALL (      76 calls)
     sum_band     :    121.96s CPU    126.31s WALL (      76 calls)
     v_of_rho     :     42.69s CPU     45.01s WALL (      77 calls)
     newd         :     17.51s CPU     21.47s WALL (      77 calls)
     mix_rho      :      1.58s CPU      1.69s WALL (      76 calls)
     vdW_kernel   :      4.55s CPU      4.61s WALL (       1 calls)

     Called by c_bands:
     init_us_2    :      6.92s CPU      6.98s WALL (    1540 calls)
     cegterg      :    978.47s CPU    986.70s WALL (     775 calls)

     Called by *egterg:
     cdiaghg      :    166.32s CPU    167.49s WALL (    8066 calls)
     h_psi        :    520.84s CPU    526.15s WALL (    8076 calls)
     s_psi        :     68.84s CPU     69.14s WALL (    8076 calls)
     g_psi        :      1.84s CPU      1.86s WALL (    7291 calls)

     Called by h_psi:
     h_psi:calbec :     64.61s CPU     65.05s WALL (    8076 calls)
     vloc_psi     :    383.80s CPU    387.99s WALL (    8076 calls)
     add_vuspsi   :     69.06s CPU     69.49s WALL (    8076 calls)

     General routines
     calbec       :     85.55s CPU     86.15s WALL (    8876 calls)
     fft          :     22.80s CPU     23.04s WALL (    4851 calls)
     ffts         :      0.15s CPU      0.15s WALL (     153 calls)
     fftw         :    432.52s CPU    437.20s WALL ( 1012652 calls)
     interpolate  :      0.47s CPU      0.48s WALL (      77 calls)
     davcio       :      0.00s CPU      2.16s WALL (      10 calls)
 
     Parallel routines
 
     PWSCF        :  19m51.90s CPU  21m15.17s WALL

 
   This run was terminated on:   0:30:10  11Sep2021            

=------------------------------------------------------------------------------=
   JOB DONE.
=------------------------------------------------------------------------------=
