
     Program PWSCF v.6.7GPU starts on  8Sep2021 at 22:38:44 

     This program is part of the open-source Quantum ESPRESSO suite
     for quantum simulation of materials; please cite
         "P. Giannozzi et al., J. Phys.:Condens. Matter 21 395502 (2009);
         "P. Giannozzi et al., J. Phys.:Condens. Matter 29 465901 (2017);
         "P. Giannozzi et al., J. Chem. Phys. 152 154105 (2020);
          URL http://www.quantum-espresso.org", 
     in publications or presentations arising from this work. More details at
     http://www.quantum-espresso.org/quote

     Parallel version (MPI), running on    10 processors

     MPI processes distributed on     1 nodes
     R & G space division:  proc/nbgrp/npool/nimage =      10
     Reading input from /storage/home/hcoda1/3/ntian30/research/carbon/CxH_vib/C_calc/ads_slab/CN2_a/out_0001/pw.inp
Warning: card &CELL ignored
Warning: card   CELL_DYNAMICS='IPI', ignored
Warning: card / ignored

     Current dimensions of program PWSCF are:
     Max number of different atomic species (ntypx) = 10
     Max number of k-points (npk) =  40000
     Max angular momentum in pseudopotentials (lmaxx) =  3
     Presently no symmetry can be used with electric field

     Message from routine cell_base_init:
     DEPRECATED: use true lattice parameter, not A to a.u. conversion factor

     **************************************************************************
     Initializing libbeef V0.1.2 with the BEEF-vdW functional.
     Citation: Wellendorff et al., PRB 85, 235149 (2012).
     **************************************************************************


     IMPORTANT: XC functional enforced from input :
     Exchange-correlation= BEEF-VDW
                           (   1   4  43  14   2   0   0)
     Any further DFT definition will be discarded
     Please, verify this is what you really want


     Subspace diagonalization in iterative solution of the eigenvalue problem:
     one sub-group per band group will be used
     scalapack distributed-memory algorithm (size of sub-group:  3*  3 procs)

  @ DRIVER MODE: Connecting to 
 qe_1139763_2767375.sched-torque.pace.gatech.edu7g03k9rf_scratch
  using UNIX socket
  @ DRIVER MODE: Message from server: STATUS
  @ DRIVER MODE: Message from server: INIT
  @ DRIVER MODE: Receiving replica           0          -1
  @ DRIVER MODE: Receiving encoded integer          25
  @ DRIVER MODE:  SCF:  T  FORCE:  T  STRESS:  F  VC:  F  ENSEMBLE:  F
  @ DRIVER MODE:  SCF:  T  FORCE:  T  STRESS:  F  VC:  F  ENSEMBLE:  F
 
     Parallelization info
     --------------------
     sticks:   dense  smooth     PW     G-vecs:    dense   smooth      PW
     Min         327     131     37                56683    14340    2191
     Max         328     133     38                56694    14346    2206
     Sum        3275    1317    379               566857   143421   21985
 
     Using Slab Decomposition
 


     bravais-lattice index     =            0
     lattice parameter (alat)  =       1.8897  a.u.
     unit-cell volume          =    6658.9804 (a.u.)^3
     number of atoms/cell      =           50
     number of atomic types    =            4
     number of electrons       =       392.00
     number of Kohn-Sham states=          206
     kinetic-energy cutoff     =      29.3995  Ry
     charge density cutoff     =     293.9946  Ry
     scf convergence threshold =      7.3E-08
     mixing beta               =       0.0500
     number of iterations used =            8  plain     mixing
     Exchange-correlation= BEEF-VDW
                           (   1   4  43  14   2   0   0)

     celldm(1)=   1.889726  celldm(2)=   0.000000  celldm(3)=   0.000000
     celldm(4)=   0.000000  celldm(5)=   0.000000  celldm(6)=   0.000000

     crystal axes: (cart. coord. in units of alat)
               a(1) = (   6.579727   0.000000   0.000000 )  
               a(2) = (  -0.000775   5.961596   0.000000 )  
               a(3) = (   0.000000   0.000000  25.155947 )  

     reciprocal axes: (cart. coord. in units 2 pi/alat)
               b(1) = (  0.151982  0.000020  0.000000 )  
               b(2) = (  0.000000  0.167740  0.000000 )  
               b(3) = (  0.000000  0.000000  0.039752 )  


     PseudoPot. # 1 for Ti read from file:
     /storage/coda1/p-amedford6/0/shared/rich_project_chbe-medford/medford-share/data/pseudos_module/espresso/nninc/pbe/van/Ti.UPF
     MD5 check sum: 8e4df49b7f0d34bbd5052bf3f5ea0213
     Pseudo is Ultrasoft, Zval = 12.0
     Generated by new atomic code, or converted to UPF format
     Using radial grid of  851 points,  6 beta functions with: 
                l(1) =   0
                l(2) =   0
                l(3) =   1
                l(4) =   1
                l(5) =   2
                l(6) =   2
     Q(r) pseudized with  8 coefficients,  rinner =    1.000   1.000   1.000
                                                       1.000   1.000

     PseudoPot. # 2 for O  read from file:
     /storage/coda1/p-amedford6/0/shared/rich_project_chbe-medford/medford-share/data/pseudos_module/espresso/nninc/pbe/van/O.UPF
     MD5 check sum: 78c19812648e8988a0fe644b0f25305e
     Pseudo is Ultrasoft, Zval =  6.0
     Generated by new atomic code, or converted to UPF format
     Using radial grid of  737 points,  4 beta functions with: 
                l(1) =   0
                l(2) =   0
                l(3) =   1
                l(4) =   1
     Q(r) pseudized with  8 coefficients,  rinner =    0.800   0.800   0.800


     PseudoPot. # 3 for N  read from file:
     /storage/coda1/p-amedford6/0/shared/rich_project_chbe-medford/medford-share/data/pseudos_module/espresso/nninc/pbe/van/N.UPF
     MD5 check sum: 90d10febe142ad51ac9d5be1deb811c4
     Pseudo is Ultrasoft, Zval =  5.0
     Generated by new atomic code, or converted to UPF format
     Using radial grid of  729 points,  4 beta functions with: 
                l(1) =   0
                l(2) =   0
                l(3) =   1
                l(4) =   1
     Q(r) pseudized with  8 coefficients,  rinner =    0.800   0.800   0.800


     PseudoPot. # 4 for C  read from file:
     /storage/coda1/p-amedford6/0/shared/rich_project_chbe-medford/medford-share/data/pseudos_module/espresso/nninc/pbe/van/C.UPF
     MD5 check sum: 1a69bf6b8db32088f5b2163dbdb77a27
     Pseudo is Ultrasoft, Zval =  4.0
     Generated by new atomic code, or converted to UPF format
     Using radial grid of  721 points,  4 beta functions with: 
                l(1) =   0
                l(2) =   0
                l(3) =   1
                l(4) =   1
     Q(r) pseudized with  8 coefficients,  rinner =    0.800   0.800   0.800


     atomic species   valence    mass     pseudopotential
        Ti1           12.00    47.86700     Ti( 1.00)
        O1             6.00    15.99900     O ( 1.00)
        N1             5.00    14.00700     N ( 1.00)
        C1             4.00    12.01100     C ( 1.00)

     No symmetry found



   Cartesian axes

     site n.     atom                  positions (alat units)
         1           Ti1 tau(   1) = (   0.0004258   2.9801865   6.0000000  )
         2           Ti1 tau(   2) = (   3.2906075   1.4906267   6.0002472  )
         3           O1  tau(   3) = (   0.0006271   0.0005054   7.9858123  )
         4           O1  tau(   4) = (   3.2906025   0.0005020   7.3038282  )
         5           O1  tau(   5) = (   4.5942328   1.4918067   9.2879030  )
         6           O1  tau(   6) = (   1.9868534   1.4903216   9.2879459  )
         7           Ti1 tau(   7) = (   3.2907910   2.8959150   9.1758416  )
         8           Ti1 tau(   8) = (   0.0015273   1.4827037   9.2680791  )
         9           O1  tau(   9) = (   3.2889285   5.9572048  11.3040972  )
        10           O1  tau(  10) = (   0.0116148   5.9584955  10.6183126  )
        11           O1  tau(  11) = (   1.3189323   1.4942761  12.6130295  )
        12           O1  tau(  12) = (   5.2997964   1.4884099  12.6250597  )
        13           Ti1 tau(  13) = (   6.4939836   2.9824287  12.7561987  )
        14           Ti1 tau(  14) = (   3.1682086   1.4887373  12.4699270  )
        15           O1  tau(  15) = (   0.0224291   5.9581829  14.5926458  )
        16           O1  tau(  16) = (   3.2893302   5.9536121  13.8847677  )
        17           O1  tau(  17) = (   4.5439212   1.4834749  16.0328965  )
        18           O1  tau(  18) = (   2.0755535   1.4836234  16.0228809  )
        19           Ti1 tau(  19) = (   3.3005686   2.9659170  15.6894391  )
        20           Ti1 tau(  20) = (   6.5401575   1.4426905  16.0647633  )
        21           O1  tau(  21) = (   3.2904802   0.0005063   4.7018136  )
        22           O1  tau(  22) = (   0.0258419   5.9532685  17.1653534  )
        23           O1  tau(  23) = (   1.3043587   1.4918075   6.0039043  )
        24           O1  tau(  24) = (   5.2767064   1.4903225   6.0039473  )
        25           Ti1 tau(  25) = (   0.0000382   5.9609847   6.0000000  )
        26           Ti1 tau(  26) = (   3.2902200   4.4714249   6.0002472  )
        27           O1  tau(  27) = (   0.0002396   2.9813036   7.9858123  )
        28           O1  tau(  28) = (   3.2902150   2.9813002   7.3038282  )
        29           O1  tau(  29) = (   4.5938453   4.4726049   9.2879030  )
        30           O1  tau(  30) = (   1.9864658   4.4711199   9.2879459  )
        31           Ti1 tau(  31) = (   3.2891106   5.8743827   9.1763621  )
        32           Ti1 tau(  32) = (   0.0006254   4.4649316   9.2693709  )
        33           O1  tau(  33) = (   3.2925136   2.9767646  11.3039470  )
        34           O1  tau(  34) = (   0.0092240   2.9805883  10.6323155  )
        35           O1  tau(  35) = (   1.3189435   4.4587261  12.6131553  )
        36           O1  tau(  36) = (   5.2992261   4.4686972  12.6254714  )
        37           Ti1 tau(  37) = (   6.4933837   0.0018553  12.7120694  )
        38           Ti1 tau(  38) = (   3.1687038   4.4682667  12.4696446  )
        39           O1  tau(  39) = (   6.5575253   2.9777116  14.6451287  )
        40           O1  tau(  40) = (   3.3026008   2.9720648  13.8804781  )
        41           O1  tau(  41) = (   4.5428380   4.4591099  16.0310608  )
        42           O1  tau(  42) = (   2.0745367   4.4570417  16.0198975  )
        43           Ti1 tau(  43) = (   3.2480854   5.9464808  15.6958456  )
        44           Ti1 tau(  44) = (   6.5385164   4.5051388  16.0519081  )
        45           O1  tau(  45) = (   3.2900926   2.9813045   4.7018136  )
        46           O1  tau(  46) = (   1.3039711   4.4726057   6.0039043  )
        47           O1  tau(  47) = (   5.2763189   4.4711207   6.0039473  )
        48           N1  tau(  48) = (   0.6527575   2.9932433  18.4779999  )
        49           C1  tau(  49) = (   1.2395031   3.0150465  19.5213309  )
        50           N1  tau(  50) = (   0.0963922   2.9773862  17.3183823  )

     number of k points=    10  Fermi-Dirac smearing, width (Ry)=  0.0073
                       cart. coord. in units 2pi/alat
        k(    1) = (   0.0000000   0.0000000   0.0000000), wk =   0.1250000
        k(    2) = (   0.0000000   0.0419351   0.0000000), wk =   0.2500000
        k(    3) = (   0.0000000  -0.0838702   0.0000000), wk =   0.1250000
        k(    4) = (   0.0379955   0.0000049   0.0000000), wk =   0.2500000
        k(    5) = (   0.0379955   0.0419400   0.0000000), wk =   0.2500000
        k(    6) = (   0.0379955  -0.0838652   0.0000000), wk =   0.2500000
        k(    7) = (   0.0379955  -0.0419301   0.0000000), wk =   0.2500000
        k(    8) = (  -0.0759910  -0.0000099   0.0000000), wk =   0.1250000
        k(    9) = (  -0.0759910   0.0419252   0.0000000), wk =   0.2500000
        k(   10) = (  -0.0759910  -0.0838800   0.0000000), wk =   0.1250000

     Dense  grid:   566857 G-vectors     FFT dimensions: (  72,  64, 270)

     Smooth grid:   143421 G-vectors     FFT dimensions: (  45,  40, 180)

     Estimated max dynamical RAM per process >     359.92 MB

     Estimated total dynamical RAM >       3.51 GB
     Cannot read rho : file not found

     Initial potential from superposition of free atoms

     starting charge  375.99919, renormalised to  392.00000

     negative rho (up, down):  1.742E-02 0.000E+00


     %%%%%%%%%%%%%%%%%%%%%%%%%%%%%%%%%%%%%%%%%%%%%%%%%%%%%%%%%%%%%%%%%%%%%%%%
     %                                                                      %
     % You are using vdW-DF, which was implemented by the Thonhauser group. %
     % Please cite the following two papers that made this development      %
     % possible and the two reviews that describe the various versions:     %
     %                                                                      %
     %   T. Thonhauser et al., PRL 115, 136402 (2015).                      %
     %   T. Thonhauser et al., PRB 76, 125112 (2007).                       %
     %   K. Berland et al., Rep. Prog. Phys. 78, 066501 (2015).             %
     %   D.C. Langreth et al., J. Phys.: Condens. Matter 21, 084203 (2009). %
     %                                                                      %
     %                                                                      %
     % If you are calculating the stress with vdW-DF, please also cite:     %
     %                                                                      %
     %   R. Sabatini et al., J. Phys.: Condens. Matter 24, 424209 (2012).   %
     %                                                                      %
     %%%%%%%%%%%%%%%%%%%%%%%%%%%%%%%%%%%%%%%%%%%%%%%%%%%%%%%%%%%%%%%%%%%%%%%%


 
     Adding external electric field

     Computed dipole along edir(3) : 
        Dipole               -6.0010 Ry au,        -15.2530 Debye
        Dipole field         -0.0113 Ry au, 
 
        Potential amp.        1.0498 Ry
        Total length         46.3494 bohr
 
     Starting wfcs are  296 atomic wfcs
  @ DRIVER MODE: Message from server: STATUS
  @ DRIVER MODE: Message from server: POSDATA
  @ DRIVER MODE: Reading and sharing cell 
  @ DRIVER MODE: Reading and sharing positions 
  @ DRIVER MODE: Received positions 

     total cpu time spent up to now is       20.1 secs

     Self-consistent Calculation

     iteration #  1     ecut=    29.40 Ry     beta= 0.05
     Davidson diagonalization with overlap
     c_bands:  3 eigenvalues not converged
     c_bands:  1 eigenvalues not converged
     c_bands:  3 eigenvalues not converged
     c_bands:  1 eigenvalues not converged
     c_bands:  1 eigenvalues not converged
     c_bands:  3 eigenvalues not converged
     ethr =  1.00E-05,  avg # of iterations = 19.5

     negative rho (up, down):  1.675E-02 0.000E+00
 
     Adding external electric field

     Computed dipole along edir(3) : 
        Dipole               24.9702 Ry au,         63.4680 Debye
        Dipole field          0.0471 Ry au, 
 
        Potential amp.       -4.3682 Ry
        Total length         46.3494 bohr
 

     total cpu time spent up to now is       82.0 secs

     total energy              =   -2797.83405927 Ry
     estimated scf accuracy    <    1528.87236423 Ry

     iteration #  2     ecut=    29.40 Ry     beta= 0.05
     Davidson diagonalization with overlap
     c_bands:  1 eigenvalues not converged
     c_bands:  1 eigenvalues not converged
     ethr =  1.00E-02,  avg # of iterations = 19.0

     negative rho (up, down):  6.524E-03 0.000E+00
 
     Adding external electric field

     Computed dipole along edir(3) : 
        Dipole               -2.6277 Ry au,         -6.6790 Debye
        Dipole field         -0.0050 Ry au, 
 
        Potential amp.        0.4597 Ry
        Total length         46.3494 bohr
 

     total cpu time spent up to now is      172.9 secs

     total energy              =   -2651.06075985 Ry
     estimated scf accuracy    <   36557.03493745 Ry

     iteration #  3     ecut=    29.40 Ry     beta= 0.05
     Davidson diagonalization with overlap
     c_bands:  1 eigenvalues not converged
     ethr =  1.00E-02,  avg # of iterations = 14.4

     negative rho (up, down):  6.563E-03 0.000E+00
 
     Adding external electric field

     Computed dipole along edir(3) : 
        Dipole               -3.5863 Ry au,         -9.1155 Debye
        Dipole field         -0.0068 Ry au, 
 
        Potential amp.        0.6274 Ry
        Total length         46.3494 bohr
 

     total cpu time spent up to now is      244.9 secs

     total energy              =   -2922.56770787 Ry
     estimated scf accuracy    <    1213.96002904 Ry

     iteration #  4     ecut=    29.40 Ry     beta= 0.05
     Davidson diagonalization with overlap
     ethr =  1.00E-02,  avg # of iterations = 11.2

     negative rho (up, down):  6.564E-03 0.000E+00
 
     Adding external electric field

     Computed dipole along edir(3) : 
        Dipole               -4.0401 Ry au,        -10.2690 Debye
        Dipole field         -0.0076 Ry au, 
 
        Potential amp.        0.7068 Ry
        Total length         46.3494 bohr
 

     total cpu time spent up to now is      275.7 secs

     total energy              =   -2928.79938829 Ry
     estimated scf accuracy    <     250.75886928 Ry

     iteration #  5     ecut=    29.40 Ry     beta= 0.05
     Davidson diagonalization with overlap
     c_bands:  1 eigenvalues not converged
     ethr =  1.00E-02,  avg # of iterations =  7.4

     negative rho (up, down):  6.540E-03 0.000E+00
 
     Adding external electric field

     Computed dipole along edir(3) : 
        Dipole               -4.2165 Ry au,        -10.7174 Debye
        Dipole field         -0.0080 Ry au, 
 
        Potential amp.        0.7376 Ry
        Total length         46.3494 bohr
 

     total cpu time spent up to now is      301.0 secs

     total energy              =   -2930.37972554 Ry
     estimated scf accuracy    <     113.84586608 Ry

     iteration #  6     ecut=    29.40 Ry     beta= 0.05
     Davidson diagonalization with overlap
     ethr =  1.00E-02,  avg # of iterations =  7.9

     negative rho (up, down):  6.497E-03 0.000E+00
 
     Adding external electric field

     Computed dipole along edir(3) : 
        Dipole               -3.9361 Ry au,        -10.0045 Debye
        Dipole field         -0.0074 Ry au, 
 
        Potential amp.        0.6886 Ry
        Total length         46.3494 bohr
 

     total cpu time spent up to now is      320.3 secs

     total energy              =   -2934.60007743 Ry
     estimated scf accuracy    <      23.61301634 Ry

     iteration #  7     ecut=    29.40 Ry     beta= 0.05
     Davidson diagonalization with overlap
     ethr =  6.02E-03,  avg # of iterations =  4.6

     negative rho (up, down):  6.456E-03 0.000E+00
 
     Adding external electric field

     Computed dipole along edir(3) : 
        Dipole               -3.6210 Ry au,         -9.2038 Debye
        Dipole field         -0.0068 Ry au, 
 
        Potential amp.        0.6334 Ry
        Total length         46.3494 bohr
 

     total cpu time spent up to now is      341.8 secs

     total energy              =   -2936.08877519 Ry
     estimated scf accuracy    <       8.93335058 Ry

     iteration #  8     ecut=    29.40 Ry     beta= 0.05
     Davidson diagonalization with overlap
     ethr =  2.28E-03,  avg # of iterations =  6.3

     negative rho (up, down):  6.454E-03 0.000E+00
 
     Adding external electric field

     Computed dipole along edir(3) : 
        Dipole               -2.8032 Ry au,         -7.1251 Debye
        Dipole field         -0.0053 Ry au, 
 
        Potential amp.        0.4904 Ry
        Total length         46.3494 bohr
 

     total cpu time spent up to now is      357.4 secs

     total energy              =   -2936.40963960 Ry
     estimated scf accuracy    <       7.84321219 Ry

     iteration #  9     ecut=    29.40 Ry     beta= 0.05
     Davidson diagonalization with overlap
     ethr =  2.00E-03,  avg # of iterations =  3.4

     negative rho (up, down):  6.440E-03 0.000E+00
 
     Adding external electric field

     Computed dipole along edir(3) : 
        Dipole               -2.1792 Ry au,         -5.5391 Debye
        Dipole field         -0.0041 Ry au, 
 
        Potential amp.        0.3812 Ry
        Total length         46.3494 bohr
 

     total cpu time spent up to now is      376.0 secs

     total energy              =   -2937.95221532 Ry
     estimated scf accuracy    <      41.47167490 Ry

     iteration # 10     ecut=    29.40 Ry     beta= 0.05
     Davidson diagonalization with overlap
     c_bands:  1 eigenvalues not converged
     c_bands:  3 eigenvalues not converged
     c_bands:  1 eigenvalues not converged
     c_bands:  5 eigenvalues not converged
     c_bands:  1 eigenvalues not converged
     c_bands:  2 eigenvalues not converged
     c_bands:  1 eigenvalues not converged
     c_bands:  2 eigenvalues not converged
     c_bands:  2 eigenvalues not converged
     ethr =  2.00E-03,  avg # of iterations = 18.4

     negative rho (up, down):  6.408E-03 0.000E+00
 
     Adding external electric field

     Computed dipole along edir(3) : 
        Dipole               -1.4874 Ry au,         -3.7805 Debye
        Dipole field         -0.0028 Ry au, 
 
        Potential amp.        0.2602 Ry
        Total length         46.3494 bohr
 

     total cpu time spent up to now is      411.2 secs

     total energy              =   -2939.86947275 Ry
     estimated scf accuracy    <     161.68632303 Ry

     iteration # 11     ecut=    29.40 Ry     beta= 0.05
     Davidson diagonalization with overlap
     ethr =  2.00E-03,  avg # of iterations =  4.2

     negative rho (up, down):  6.515E-03 0.000E+00
 
     Adding external electric field

     Computed dipole along edir(3) : 
        Dipole               -2.3169 Ry au,         -5.8890 Debye
        Dipole field         -0.0044 Ry au, 
 
        Potential amp.        0.4053 Ry
        Total length         46.3494 bohr
 

     total cpu time spent up to now is      429.0 secs

     total energy              =   -2929.67657699 Ry
     estimated scf accuracy    <     264.73621419 Ry

     iteration # 12     ecut=    29.40 Ry     beta= 0.05
     Davidson diagonalization with overlap
     ethr =  2.00E-03,  avg # of iterations = 13.0

     negative rho (up, down):  6.446E-03 0.000E+00
 
     Adding external electric field

     Computed dipole along edir(3) : 
        Dipole               -2.7115 Ry au,         -6.8919 Debye
        Dipole field         -0.0051 Ry au, 
 
        Potential amp.        0.4743 Ry
        Total length         46.3494 bohr
 

     total cpu time spent up to now is      483.3 secs

     total energy              =   -2935.19243427 Ry
     estimated scf accuracy    <       3.62222055 Ry

     iteration # 13     ecut=    29.40 Ry     beta= 0.05
     Davidson diagonalization with overlap
     ethr =  9.24E-04,  avg # of iterations =  3.9

     negative rho (up, down):  6.447E-03 0.000E+00
 
     Adding external electric field

     Computed dipole along edir(3) : 
        Dipole               -2.6592 Ry au,         -6.7590 Debye
        Dipole field         -0.0050 Ry au, 
 
        Potential amp.        0.4652 Ry
        Total length         46.3494 bohr
 

     total cpu time spent up to now is      503.9 secs

     total energy              =   -2935.11881661 Ry
     estimated scf accuracy    <       1.79842464 Ry

     iteration # 14     ecut=    29.40 Ry     beta= 0.05
     Davidson diagonalization with overlap
     ethr =  4.59E-04,  avg # of iterations =  4.9

     negative rho (up, down):  6.513E-03 0.000E+00
 
     Adding external electric field

     Computed dipole along edir(3) : 
        Dipole               -1.8559 Ry au,         -4.7173 Debye
        Dipole field         -0.0035 Ry au, 
 
        Potential amp.        0.3247 Ry
        Total length         46.3494 bohr
 

     total cpu time spent up to now is      530.0 secs

     total energy              =   -2935.34232025 Ry
     estimated scf accuracy    <       0.76914448 Ry

     iteration # 15     ecut=    29.40 Ry     beta= 0.05
     Davidson diagonalization with overlap
     ethr =  1.96E-04,  avg # of iterations =  7.8

     negative rho (up, down):  6.533E-03 0.000E+00
 
     Adding external electric field

     Computed dipole along edir(3) : 
        Dipole               -1.7909 Ry au,         -4.5520 Debye
        Dipole field         -0.0034 Ry au, 
 
        Potential amp.        0.3133 Ry
        Total length         46.3494 bohr
 

     total cpu time spent up to now is      560.9 secs

     total energy              =   -2935.48002515 Ry
     estimated scf accuracy    <       2.04781773 Ry

     iteration # 16     ecut=    29.40 Ry     beta= 0.05
     Davidson diagonalization with overlap
     ethr =  1.96E-04,  avg # of iterations =  1.7

     negative rho (up, down):  6.908E-03 0.000E+00
 
     Adding external electric field

     Computed dipole along edir(3) : 
        Dipole               -1.7069 Ry au,         -4.3384 Debye
        Dipole field         -0.0032 Ry au, 
 
        Potential amp.        0.2986 Ry
        Total length         46.3494 bohr
 

     total cpu time spent up to now is      581.2 secs

     total energy              =   -2934.93544150 Ry
     estimated scf accuracy    <       1.93794051 Ry

     iteration # 17     ecut=    29.40 Ry     beta= 0.05
     Davidson diagonalization with overlap
     c_bands:  1 eigenvalues not converged
     ethr =  1.96E-04,  avg # of iterations =  9.9

     negative rho (up, down):  7.114E-03 0.000E+00
 
     Adding external electric field

     Computed dipole along edir(3) : 
        Dipole               -1.5458 Ry au,         -3.9290 Debye
        Dipole field         -0.0029 Ry au, 
 
        Potential amp.        0.2704 Ry
        Total length         46.3494 bohr
 

     total cpu time spent up to now is      631.6 secs

     total energy              =   -2935.45522097 Ry
     estimated scf accuracy    <       2.13133572 Ry

     iteration # 18     ecut=    29.40 Ry     beta= 0.05
     Davidson diagonalization with overlap
     ethr =  1.96E-04,  avg # of iterations =  2.5

     negative rho (up, down):  7.451E-03 0.000E+00
 
     Adding external electric field

     Computed dipole along edir(3) : 
        Dipole               -1.3385 Ry au,         -3.4021 Debye
        Dipole field         -0.0025 Ry au, 
 
        Potential amp.        0.2341 Ry
        Total length         46.3494 bohr
 

     total cpu time spent up to now is      651.7 secs

     total energy              =   -2935.36638116 Ry
     estimated scf accuracy    <       1.39904622 Ry

     iteration # 19     ecut=    29.40 Ry     beta= 0.05
     Davidson diagonalization with overlap
     ethr =  1.96E-04,  avg # of iterations =  4.4

     negative rho (up, down):  7.612E-03 0.000E+00
 
     Adding external electric field

     Computed dipole along edir(3) : 
        Dipole               -1.1970 Ry au,         -3.0424 Debye
        Dipole field         -0.0023 Ry au, 
 
        Potential amp.        0.2094 Ry
        Total length         46.3494 bohr
 

     total cpu time spent up to now is      677.2 secs

     total energy              =   -2935.37877225 Ry
     estimated scf accuracy    <       0.79244947 Ry

     iteration # 20     ecut=    29.40 Ry     beta= 0.05
     Davidson diagonalization with overlap
     ethr =  1.96E-04,  avg # of iterations =  1.8

     negative rho (up, down):  7.946E-03 0.000E+00
 
     Adding external electric field

     Computed dipole along edir(3) : 
        Dipole               -0.8659 Ry au,         -2.2009 Debye
        Dipole field         -0.0016 Ry au, 
 
        Potential amp.        0.1515 Ry
        Total length         46.3494 bohr
 

     total cpu time spent up to now is      691.1 secs

     total energy              =   -2935.16589188 Ry
     estimated scf accuracy    <       0.66349116 Ry

     iteration # 21     ecut=    29.40 Ry     beta= 0.05
     Davidson diagonalization with overlap
     ethr =  1.69E-04,  avg # of iterations =  9.9

     negative rho (up, down):  7.615E-03 0.000E+00
 
     Adding external electric field

     Computed dipole along edir(3) : 
        Dipole               -1.0211 Ry au,         -2.5953 Debye
        Dipole field         -0.0019 Ry au, 
 
        Potential amp.        0.1786 Ry
        Total length         46.3494 bohr
 

     total cpu time spent up to now is      731.3 secs

     total energy              =   -2935.34466915 Ry
     estimated scf accuracy    <       0.56927700 Ry

     iteration # 22     ecut=    29.40 Ry     beta= 0.05
     Davidson diagonalization with overlap
     c_bands:  2 eigenvalues not converged
     ethr =  1.45E-04,  avg # of iterations =  7.2

     negative rho (up, down):  7.780E-03 0.000E+00
 
     Adding external electric field

     Computed dipole along edir(3) : 
        Dipole               -1.0585 Ry au,         -2.6904 Debye
        Dipole field         -0.0020 Ry au, 
 
        Potential amp.        0.1852 Ry
        Total length         46.3494 bohr
 

     total cpu time spent up to now is      749.5 secs

     total energy              =   -2935.30848816 Ry
     estimated scf accuracy    <       0.36340420 Ry

     iteration # 23     ecut=    29.40 Ry     beta= 0.05
     Davidson diagonalization with overlap
     c_bands:  1 eigenvalues not converged
     ethr =  9.27E-05,  avg # of iterations = 10.6

     negative rho (up, down):  7.778E-03 0.000E+00
 
     Adding external electric field

     Computed dipole along edir(3) : 
        Dipole               -1.0692 Ry au,         -2.7175 Debye
        Dipole field         -0.0020 Ry au, 
 
        Potential amp.        0.1870 Ry
        Total length         46.3494 bohr
 

     total cpu time spent up to now is      775.9 secs

     total energy              =   -2935.32252483 Ry
     estimated scf accuracy    <       0.09562546 Ry

     iteration # 24     ecut=    29.40 Ry     beta= 0.05
     Davidson diagonalization with overlap
     c_bands:  1 eigenvalues not converged
     c_bands:  3 eigenvalues not converged
     c_bands:  2 eigenvalues not converged
     ethr =  2.44E-05,  avg # of iterations = 11.9

     negative rho (up, down):  8.862E-03 0.000E+00
 
     Adding external electric field

     Computed dipole along edir(3) : 
        Dipole               -0.9317 Ry au,         -2.3681 Debye
        Dipole field         -0.0018 Ry au, 
 
        Potential amp.        0.1630 Ry
        Total length         46.3494 bohr
 

     total cpu time spent up to now is      805.8 secs

     total energy              =   -2935.32383611 Ry
     estimated scf accuracy    <       0.04809213 Ry

     iteration # 25     ecut=    29.40 Ry     beta= 0.05
     Davidson diagonalization with overlap
     c_bands:  1 eigenvalues not converged
     c_bands:  1 eigenvalues not converged
     c_bands:  5 eigenvalues not converged
     c_bands:  1 eigenvalues not converged
     c_bands:  5 eigenvalues not converged
     c_bands:  1 eigenvalues not converged
     ethr =  1.23E-05,  avg # of iterations = 15.2

     negative rho (up, down):  1.092E-02 0.000E+00
 
     Adding external electric field

     Computed dipole along edir(3) : 
        Dipole               -0.8330 Ry au,         -2.1173 Debye
        Dipole field         -0.0016 Ry au, 
 
        Potential amp.        0.1457 Ry
        Total length         46.3494 bohr
 

     total cpu time spent up to now is      845.9 secs

     total energy              =   -2935.33291727 Ry
     estimated scf accuracy    <       0.02529159 Ry

     iteration # 26     ecut=    29.40 Ry     beta= 0.05
     Davidson diagonalization with overlap
     c_bands:  2 eigenvalues not converged
     c_bands:  3 eigenvalues not converged
     c_bands:  1 eigenvalues not converged
     c_bands:  1 eigenvalues not converged
     c_bands:  2 eigenvalues not converged
     c_bands:  3 eigenvalues not converged
     c_bands:  4 eigenvalues not converged
     ethr =  6.45E-06,  avg # of iterations = 16.3

     negative rho (up, down):  1.046E-02 0.000E+00
 
     Adding external electric field

     Computed dipole along edir(3) : 
        Dipole               -0.8494 Ry au,         -2.1589 Debye
        Dipole field         -0.0016 Ry au, 
 
        Potential amp.        0.1486 Ry
        Total length         46.3494 bohr
 

     total cpu time spent up to now is      879.3 secs

     total energy              =   -2935.33234634 Ry
     estimated scf accuracy    <       0.01944764 Ry

     iteration # 27     ecut=    29.40 Ry     beta= 0.05
     Davidson diagonalization with overlap
     c_bands:  1 eigenvalues not converged
     c_bands:  2 eigenvalues not converged
     ethr =  4.96E-06,  avg # of iterations = 10.3

     negative rho (up, down):  1.277E-02 0.000E+00
 
     Adding external electric field

     Computed dipole along edir(3) : 
        Dipole               -0.7813 Ry au,         -1.9859 Debye
        Dipole field         -0.0015 Ry au, 
 
        Potential amp.        0.1367 Ry
        Total length         46.3494 bohr
 

     total cpu time spent up to now is      903.2 secs

     total energy              =   -2935.33492749 Ry
     estimated scf accuracy    <       0.00881001 Ry

     iteration # 28     ecut=    29.40 Ry     beta= 0.05
     Davidson diagonalization with overlap
     c_bands:  2 eigenvalues not converged
     c_bands:  1 eigenvalues not converged
     ethr =  2.25E-06,  avg # of iterations = 10.0

     negative rho (up, down):  1.364E-02 0.000E+00
 
     Adding external electric field

     Computed dipole along edir(3) : 
        Dipole               -0.7895 Ry au,         -2.0067 Debye
        Dipole field         -0.0015 Ry au, 
 
        Potential amp.        0.1381 Ry
        Total length         46.3494 bohr
 

     total cpu time spent up to now is      921.2 secs

     total energy              =   -2935.33473552 Ry
     estimated scf accuracy    <       0.00545860 Ry

     iteration # 29     ecut=    29.40 Ry     beta= 0.05
     Davidson diagonalization with overlap
     c_bands:  3 eigenvalues not converged
     c_bands:  1 eigenvalues not converged
     c_bands:  1 eigenvalues not converged
     c_bands:  2 eigenvalues not converged
     ethr =  1.39E-06,  avg # of iterations = 15.4

     negative rho (up, down):  1.397E-02 0.000E+00
 
     Adding external electric field

     Computed dipole along edir(3) : 
        Dipole               -0.7902 Ry au,         -2.0086 Debye
        Dipole field         -0.0015 Ry au, 
 
        Potential amp.        0.1382 Ry
        Total length         46.3494 bohr
 

     total cpu time spent up to now is      965.1 secs

     total energy              =   -2935.33607913 Ry
     estimated scf accuracy    <       0.01508692 Ry

     iteration # 30     ecut=    29.40 Ry     beta= 0.05
     Davidson diagonalization with overlap
     c_bands:  1 eigenvalues not converged
     ethr =  1.39E-06,  avg # of iterations =  6.6

     negative rho (up, down):  1.565E-02 0.000E+00
 
     Adding external electric field

     Computed dipole along edir(3) : 
        Dipole               -0.7834 Ry au,         -1.9913 Debye
        Dipole field         -0.0015 Ry au, 
 
        Potential amp.        0.1371 Ry
        Total length         46.3494 bohr
 

     total cpu time spent up to now is      985.9 secs

     total energy              =   -2935.33508418 Ry
     estimated scf accuracy    <       0.00920435 Ry

     iteration # 31     ecut=    29.40 Ry     beta= 0.05
     Davidson diagonalization with overlap
     c_bands:  2 eigenvalues not converged
     c_bands:  1 eigenvalues not converged
     c_bands:  1 eigenvalues not converged
     ethr =  1.39E-06,  avg # of iterations = 14.5

     negative rho (up, down):  1.558E-02 0.000E+00
 
     Adding external electric field

     Computed dipole along edir(3) : 
        Dipole               -0.7843 Ry au,         -1.9935 Debye
        Dipole field         -0.0015 Ry au, 
 
        Potential amp.        0.1372 Ry
        Total length         46.3494 bohr
 

     total cpu time spent up to now is     1019.9 secs

     total energy              =   -2935.33591700 Ry
     estimated scf accuracy    <       0.00164133 Ry

     iteration # 32     ecut=    29.40 Ry     beta= 0.05
     Davidson diagonalization with overlap
     c_bands:  1 eigenvalues not converged
     ethr =  4.19E-07,  avg # of iterations =  6.2

     negative rho (up, down):  1.541E-02 0.000E+00
 
     Adding external electric field

     Computed dipole along edir(3) : 
        Dipole               -0.7875 Ry au,         -2.0015 Debye
        Dipole field         -0.0015 Ry au, 
 
        Potential amp.        0.1378 Ry
        Total length         46.3494 bohr
 

     total cpu time spent up to now is     1046.5 secs

     total energy              =   -2935.33588624 Ry
     estimated scf accuracy    <       0.00120507 Ry

     iteration # 33     ecut=    29.40 Ry     beta= 0.05
     Davidson diagonalization with overlap
     c_bands:  1 eigenvalues not converged
     ethr =  3.07E-07,  avg # of iterations =  7.5

     negative rho (up, down):  1.525E-02 0.000E+00
 
     Adding external electric field

     Computed dipole along edir(3) : 
        Dipole               -0.8030 Ry au,         -2.0411 Debye
        Dipole field         -0.0015 Ry au, 
 
        Potential amp.        0.1405 Ry
        Total length         46.3494 bohr
 

     total cpu time spent up to now is     1064.5 secs

     total energy              =   -2935.33592271 Ry
     estimated scf accuracy    <       0.00068747 Ry

     iteration # 34     ecut=    29.40 Ry     beta= 0.05
     Davidson diagonalization with overlap
     c_bands:  1 eigenvalues not converged
     ethr =  1.75E-07,  avg # of iterations =  7.0

     negative rho (up, down):  1.614E-02 0.000E+00
 
     Adding external electric field

     Computed dipole along edir(3) : 
        Dipole               -0.7934 Ry au,         -2.0167 Debye
        Dipole field         -0.0015 Ry au, 
 
        Potential amp.        0.1388 Ry
        Total length         46.3494 bohr
 

     total cpu time spent up to now is     1082.8 secs

     total energy              =   -2935.33606587 Ry
     estimated scf accuracy    <       0.00042358 Ry

     iteration # 35     ecut=    29.40 Ry     beta= 0.05
     Davidson diagonalization with overlap
     ethr =  1.08E-07,  avg # of iterations =  6.7

     negative rho (up, down):  1.592E-02 0.000E+00
 
     Adding external electric field

     Computed dipole along edir(3) : 
        Dipole               -0.7958 Ry au,         -2.0226 Debye
        Dipole field         -0.0015 Ry au, 
 
        Potential amp.        0.1392 Ry
        Total length         46.3494 bohr
 

     total cpu time spent up to now is     1128.5 secs

     total energy              =   -2935.33614710 Ry
     estimated scf accuracy    <       0.00050616 Ry

     iteration # 36     ecut=    29.40 Ry     beta= 0.05
     Davidson diagonalization with overlap
     ethr =  1.08E-07,  avg # of iterations =  5.3

     negative rho (up, down):  1.629E-02 0.000E+00
 
     Adding external electric field

     Computed dipole along edir(3) : 
        Dipole               -0.7874 Ry au,         -2.0013 Debye
        Dipole field         -0.0015 Ry au, 
 
        Potential amp.        0.1377 Ry
        Total length         46.3494 bohr
 

     total cpu time spent up to now is     1150.5 secs

     total energy              =   -2935.33623471 Ry
     estimated scf accuracy    <       0.00016400 Ry

     iteration # 37     ecut=    29.40 Ry     beta= 0.05
     Davidson diagonalization with overlap
     ethr =  4.18E-08,  avg # of iterations =  8.2

     negative rho (up, down):  1.705E-02 0.000E+00
 
     Adding external electric field

     Computed dipole along edir(3) : 
        Dipole               -0.7794 Ry au,         -1.9810 Debye
        Dipole field         -0.0015 Ry au, 
 
        Potential amp.        0.1363 Ry
        Total length         46.3494 bohr
 

     total cpu time spent up to now is     1185.2 secs

     total energy              =   -2935.33628388 Ry
     estimated scf accuracy    <       0.00054512 Ry

     iteration # 38     ecut=    29.40 Ry     beta= 0.05
     Davidson diagonalization with overlap
     ethr =  4.18E-08,  avg # of iterations =  6.6

     negative rho (up, down):  1.704E-02 0.000E+00
 
     Adding external electric field

     Computed dipole along edir(3) : 
        Dipole               -0.7828 Ry au,         -1.9896 Debye
        Dipole field         -0.0015 Ry au, 
 
        Potential amp.        0.1369 Ry
        Total length         46.3494 bohr
 

     total cpu time spent up to now is     1219.5 secs

     total energy              =   -2935.33638529 Ry
     estimated scf accuracy    <       0.00005746 Ry

     iteration # 39     ecut=    29.40 Ry     beta= 0.05
     Davidson diagonalization with overlap
     ethr =  1.47E-08,  avg # of iterations =  5.9

     negative rho (up, down):  1.711E-02 0.000E+00
 
     Adding external electric field

     Computed dipole along edir(3) : 
        Dipole               -0.7794 Ry au,         -1.9809 Debye
        Dipole field         -0.0015 Ry au, 
 
        Potential amp.        0.1363 Ry
        Total length         46.3494 bohr
 

     total cpu time spent up to now is     1250.8 secs

     total energy              =   -2935.33641580 Ry
     estimated scf accuracy    <       0.00005977 Ry

     iteration # 40     ecut=    29.40 Ry     beta= 0.05
     Davidson diagonalization with overlap
     ethr =  1.47E-08,  avg # of iterations =  5.8

     negative rho (up, down):  1.708E-02 0.000E+00
 
     Adding external electric field

     Computed dipole along edir(3) : 
        Dipole               -0.7795 Ry au,         -1.9812 Debye
        Dipole field         -0.0015 Ry au, 
 
        Potential amp.        0.1364 Ry
        Total length         46.3494 bohr
 

     total cpu time spent up to now is     1275.9 secs

     total energy              =   -2935.33645564 Ry
     estimated scf accuracy    <       0.00004474 Ry

     iteration # 41     ecut=    29.40 Ry     beta= 0.05
     Davidson diagonalization with overlap
     ethr =  1.14E-08,  avg # of iterations =  2.4

     negative rho (up, down):  1.702E-02 0.000E+00
 
     Adding external electric field

     Computed dipole along edir(3) : 
        Dipole               -0.7805 Ry au,         -1.9839 Debye
        Dipole field         -0.0015 Ry au, 
 
        Potential amp.        0.1365 Ry
        Total length         46.3494 bohr
 

     total cpu time spent up to now is     1295.5 secs

     total energy              =   -2935.33648059 Ry
     estimated scf accuracy    <       0.00002741 Ry

     iteration # 42     ecut=    29.40 Ry     beta= 0.05
     Davidson diagonalization with overlap
     ethr =  6.99E-09,  avg # of iterations =  6.6

     negative rho (up, down):  1.698E-02 0.000E+00
 
     Adding external electric field

     Computed dipole along edir(3) : 
        Dipole               -0.7809 Ry au,         -1.9849 Debye
        Dipole field         -0.0015 Ry au, 
 
        Potential amp.        0.1366 Ry
        Total length         46.3494 bohr
 

     total cpu time spent up to now is     1319.2 secs

     total energy              =   -2935.33650751 Ry
     estimated scf accuracy    <       0.00000929 Ry

     iteration # 43     ecut=    29.40 Ry     beta= 0.05
     Davidson diagonalization with overlap
     ethr =  2.37E-09,  avg # of iterations =  3.0

     negative rho (up, down):  1.696E-02 0.000E+00
 
     Adding external electric field

     Computed dipole along edir(3) : 
        Dipole               -0.7813 Ry au,         -1.9859 Debye
        Dipole field         -0.0015 Ry au, 
 
        Potential amp.        0.1367 Ry
        Total length         46.3494 bohr
 

     total cpu time spent up to now is     1342.2 secs

     total energy              =   -2935.33652968 Ry
     estimated scf accuracy    <       0.00000794 Ry

     iteration # 44     ecut=    29.40 Ry     beta= 0.05
     Davidson diagonalization with overlap
     ethr =  2.03E-09,  avg # of iterations =  6.0

     negative rho (up, down):  1.697E-02 0.000E+00
 
     Adding external electric field

     Computed dipole along edir(3) : 
        Dipole               -0.7815 Ry au,         -1.9864 Debye
        Dipole field         -0.0015 Ry au, 
 
        Potential amp.        0.1367 Ry
        Total length         46.3494 bohr
 

     total cpu time spent up to now is     1359.9 secs

     total energy              =   -2935.33654944 Ry
     estimated scf accuracy    <       0.00000525 Ry

     iteration # 45     ecut=    29.40 Ry     beta= 0.05
     Davidson diagonalization with overlap
     ethr =  1.34E-09,  avg # of iterations =  7.8

     negative rho (up, down):  1.694E-02 0.000E+00
 
     Adding external electric field

     Computed dipole along edir(3) : 
        Dipole               -0.7815 Ry au,         -1.9863 Debye
        Dipole field         -0.0015 Ry au, 
 
        Potential amp.        0.1367 Ry
        Total length         46.3494 bohr
 

     total cpu time spent up to now is     1401.9 secs

     total energy              =   -2935.33656857 Ry
     estimated scf accuracy    <       0.00000616 Ry

     iteration # 46     ecut=    29.40 Ry     beta= 0.05
     Davidson diagonalization with overlap
     ethr =  1.34E-09,  avg # of iterations =  3.2

     negative rho (up, down):  1.692E-02 0.000E+00
 
     Adding external electric field

     Computed dipole along edir(3) : 
        Dipole               -0.7814 Ry au,         -1.9861 Debye
        Dipole field         -0.0015 Ry au, 
 
        Potential amp.        0.1367 Ry
        Total length         46.3494 bohr
 

     total cpu time spent up to now is     1422.5 secs

     total energy              =   -2935.33658480 Ry
     estimated scf accuracy    <       0.00000291 Ry

     iteration # 47     ecut=    29.40 Ry     beta= 0.05
     Davidson diagonalization with overlap
     ethr =  7.43E-10,  avg # of iterations =  5.7

     negative rho (up, down):  1.690E-02 0.000E+00
 
     Adding external electric field

     Computed dipole along edir(3) : 
        Dipole               -0.7817 Ry au,         -1.9870 Debye
        Dipole field         -0.0015 Ry au, 
 
        Potential amp.        0.1368 Ry
        Total length         46.3494 bohr
 

     total cpu time spent up to now is     1441.0 secs

     total energy              =   -2935.33660013 Ry
     estimated scf accuracy    <       0.00000087 Ry

     iteration # 48     ecut=    29.40 Ry     beta= 0.05
     Davidson diagonalization with overlap
     ethr =  2.21E-10,  avg # of iterations =  6.1

     negative rho (up, down):  1.688E-02 0.000E+00
 
     Adding external electric field

     Computed dipole along edir(3) : 
        Dipole               -0.7819 Ry au,         -1.9874 Debye
        Dipole field         -0.0015 Ry au, 
 
        Potential amp.        0.1368 Ry
        Total length         46.3494 bohr
 

     total cpu time spent up to now is     1473.4 secs

     total energy              =   -2935.33661393 Ry
     estimated scf accuracy    <       0.00000097 Ry

     iteration # 49     ecut=    29.40 Ry     beta= 0.05
     Davidson diagonalization with overlap
     ethr =  2.21E-10,  avg # of iterations =  4.5

     negative rho (up, down):  1.689E-02 0.000E+00
 
     Adding external electric field

     Computed dipole along edir(3) : 
        Dipole               -0.7818 Ry au,         -1.9871 Debye
        Dipole field         -0.0015 Ry au, 
 
        Potential amp.        0.1368 Ry
        Total length         46.3494 bohr
 

     total cpu time spent up to now is     1500.4 secs

     total energy              =   -2935.33662603 Ry
     estimated scf accuracy    <       0.00000113 Ry

     iteration # 50     ecut=    29.40 Ry     beta= 0.05
     Davidson diagonalization with overlap
     ethr =  2.21E-10,  avg # of iterations =  5.1

     negative rho (up, down):  1.690E-02 0.000E+00
 
     Adding external electric field

     Computed dipole along edir(3) : 
        Dipole               -0.7818 Ry au,         -1.9871 Debye
        Dipole field         -0.0015 Ry au, 
 
        Potential amp.        0.1368 Ry
        Total length         46.3494 bohr
 

     total cpu time spent up to now is     1522.5 secs

     total energy              =   -2935.33663720 Ry
     estimated scf accuracy    <       0.00000032 Ry

     iteration # 51     ecut=    29.40 Ry     beta= 0.05
     Davidson diagonalization with overlap
     ethr =  8.11E-11,  avg # of iterations =  4.5

     negative rho (up, down):  1.690E-02 0.000E+00
 
     Adding external electric field

     Computed dipole along edir(3) : 
        Dipole               -0.7818 Ry au,         -1.9871 Debye
        Dipole field         -0.0015 Ry au, 
 
        Potential amp.        0.1368 Ry
        Total length         46.3494 bohr
 

     total cpu time spent up to now is     1543.5 secs

     total energy              =   -2935.33664706 Ry
     estimated scf accuracy    <       0.00000012 Ry

     iteration # 52     ecut=    29.40 Ry     beta= 0.05
     Davidson diagonalization with overlap
     ethr =  3.00E-11,  avg # of iterations =  5.5

     negative rho (up, down):  1.700E-02 0.000E+00
 
     Adding external electric field

     Computed dipole along edir(3) : 
        Dipole               -0.7813 Ry au,         -1.9860 Debye
        Dipole field         -0.0015 Ry au, 
 
        Potential amp.        0.1367 Ry
        Total length         46.3494 bohr
 

     total cpu time spent up to now is     1576.0 secs

     End of self-consistent calculation

          k = 0.0000 0.0000 0.0000 ( 18029 PWs)   bands (ev):

   -57.2966 -57.2628 -56.6427 -56.6086 -56.6050 -56.5714 -56.5530 -56.5175
   -56.3482 -56.3133 -56.2719 -56.2315 -56.0495 -56.0155 -55.8255 -55.7862
   -33.7367 -33.5815 -33.5534 -33.4636 -33.3715 -33.3615 -33.1078 -33.0936
   -33.0885 -32.9116 -32.8716 -32.8566 -32.8149 -32.8131 -32.8123 -32.8080
   -32.7825 -32.7712 -32.7700 -32.7675 -32.7549 -32.7419 -32.7332 -32.7160
   -32.7127 -32.6860 -32.6849 -32.6649 -32.5844 -32.5176 -32.4886 -32.4495
   -32.4468 -32.4455 -32.4203 -32.4165 -32.3878 -32.3823 -32.3644 -32.3585
   -32.2646 -32.1799 -32.0689 -32.0526 -32.0490 -32.0372 -31.9951 -31.8926
   -17.9685 -17.5398 -17.2482 -17.0160 -16.7725 -16.7064 -16.6655 -16.6333
   -16.5852 -16.5288 -16.5130 -16.4423 -16.3402 -16.2988 -16.2175 -16.1202
   -16.1143 -16.0791 -16.0127 -15.9155 -15.9091 -15.9083 -15.8411 -15.8410
   -15.7045 -15.6517 -15.5241 -15.5177 -15.4113 -15.1910 -14.5493 -14.4373
   -12.8725  -5.8935  -5.0774  -4.7414  -4.5415  -4.4458  -4.3225  -4.2834
    -4.2278  -4.0117  -3.9353  -3.9346  -3.8765  -3.8158  -3.6674  -3.6663
    -3.6209  -3.5978  -3.5645  -3.5080  -3.5042  -3.4765  -3.4719  -3.2997
    -3.2378  -3.2214  -3.2175  -3.2023  -3.0981  -3.0426  -3.0318  -3.0186
    -3.0005  -2.9703  -2.8489  -2.8094  -2.7656  -2.7512  -2.7419  -2.5910
    -2.5866  -2.5827  -2.4828  -2.4731  -2.3884  -2.3035  -2.1850  -2.1255
    -2.0788  -2.0481  -2.0231  -1.8734  -1.8451  -1.7886  -1.7340  -1.6839
    -1.6239  -1.5995  -1.5725  -1.5514  -1.4955  -1.4088  -1.3530  -1.3095
    -1.2490  -1.2308  -1.1010  -1.0905  -1.0753  -1.0635  -1.0013  -0.9467
    -0.9128  -0.8721  -0.8657  -0.8479  -0.7436  -0.6356  -0.6211  -0.5720
    -0.4614  -0.4475  -0.3849  -0.3397  -0.2515  -0.2115  -0.1383  -0.0867
    -0.0295  -0.0279   0.0101   0.1210   0.1759   0.2002   0.5280   0.5686
     0.6596   0.8312   1.2779   1.7167   1.9540   2.0899   2.3982   2.4403
     2.5490   2.8690   2.8836   2.9923   3.0062   3.0396

          k = 0.0000 0.0419 0.0000 ( 17933 PWs)   bands (ev):

   -57.2916 -57.2677 -56.6378 -56.6134 -56.6000 -56.5762 -56.5477 -56.5226
   -56.3430 -56.3183 -56.2678 -56.2356 -56.0445 -56.0204 -55.8211 -55.7905
   -33.6831 -33.5772 -33.5571 -33.4501 -33.4176 -33.3849 -33.0558 -33.0373
   -33.0348 -32.8979 -32.8618 -32.8449 -32.8288 -32.8133 -32.8046 -32.7979
   -32.7833 -32.7688 -32.7679 -32.7636 -32.7608 -32.7557 -32.7481 -32.7451
   -32.7287 -32.7176 -32.6777 -32.6637 -32.5707 -32.5107 -32.5028 -32.4750
   -32.4567 -32.4457 -32.4399 -32.4188 -32.3934 -32.3786 -32.3618 -32.3246
   -32.2522 -32.1922 -32.1257 -32.0701 -32.0370 -32.0342 -32.0029 -31.9307
   -17.9638 -17.4170 -17.1199 -16.9103 -16.7889 -16.6968 -16.6468 -16.5909
   -16.5541 -16.5130 -16.4296 -16.4068 -16.3923 -16.3585 -16.2441 -16.1786
   -16.1604 -16.1237 -15.9983 -15.9663 -15.9550 -15.8957 -15.8573 -15.8281
   -15.7061 -15.6851 -15.5788 -15.5337 -15.4332 -15.2739 -14.5555 -14.4779
   -12.8747  -5.8551  -4.8958  -4.5609  -4.3743  -4.2863  -4.1783  -4.1152
    -4.1100  -3.9806  -3.9140  -3.9031  -3.8190  -3.7417  -3.7026  -3.6602
    -3.6347  -3.6265  -3.5572  -3.5171  -3.5020  -3.4726  -3.4668  -3.4334
    -3.4234  -3.3889  -3.3293  -3.2937  -3.2287  -3.2060  -3.1926  -3.1242
    -3.0553  -3.0455  -2.9651  -2.9019  -2.7505  -2.7044  -2.6465  -2.5628
    -2.4966  -2.4535  -2.3716  -2.3287  -2.2805  -2.1512  -2.1116  -2.0397
    -2.0321  -1.9990  -1.8913  -1.8805  -1.8277  -1.7932  -1.7641  -1.6725
    -1.6307  -1.6136  -1.5602  -1.4952  -1.3826  -1.3549  -1.3302  -1.3132
    -1.2676  -1.2466  -1.2203  -1.1595  -1.1149  -1.1022  -1.0357  -0.9777
    -0.9598  -0.9275  -0.8639  -0.7972  -0.7384  -0.7209  -0.6769  -0.6560
    -0.5972  -0.5945  -0.5254  -0.5053  -0.3974  -0.3483  -0.3069  -0.2592
    -0.1955  -0.0753   0.0829   0.1260   0.1884   0.2909   0.4547   0.4768
     0.5640   0.8352   1.2581   1.6405   2.2007   2.2270   2.3953   2.6654
     2.7186   2.7469   2.8107   2.8630   2.8852   2.8977

          k = 0.0000-0.0839 0.0000 ( 17884 PWs)   bands (ev):

   -57.2797 -57.2795 -56.6282 -56.6229 -56.5888 -56.5873 -56.5360 -56.5343
   -56.3315 -56.3298 -56.2621 -56.2412 -56.0325 -56.0323 -55.8147 -55.7968
   -33.5672 -33.5669 -33.5518 -33.5517 -33.4176 -33.4174 -32.9313 -32.9257
   -32.9053 -32.9026 -32.9024 -32.9013 -32.8650 -32.8634 -32.8282 -32.8261
   -32.8166 -32.8106 -32.7821 -32.7806 -32.7614 -32.7601 -32.7423 -32.7401
   -32.6747 -32.6733 -32.6148 -32.6133 -32.5993 -32.5794 -32.5414 -32.5308
   -32.4869 -32.4725 -32.4347 -32.4228 -32.3701 -32.3699 -32.2615 -32.2614
   -32.2595 -32.2224 -32.2223 -32.1130 -32.0304 -32.0118 -32.0065 -31.9843
   -17.9594 -17.1133 -17.1117 -16.8052 -16.8013 -16.6765 -16.6756 -16.5461
   -16.5437 -16.5027 -16.5026 -16.3156 -16.3115 -16.2981 -16.2882 -16.2153
   -16.2075 -16.1936 -16.1839 -16.0346 -16.0222 -15.8317 -15.8301 -15.7352
   -15.7203 -15.7143 -15.6494 -15.5579 -15.4379 -15.4096 -14.5407 -14.5406
   -12.8769  -5.8151  -4.4443  -4.4442  -4.1387  -4.1296  -3.9952  -3.9879
    -3.9790  -3.9783  -3.9391  -3.9331  -3.8828  -3.8796  -3.7313  -3.6815
    -3.6792  -3.6724  -3.6624  -3.6512  -3.6046  -3.5967  -3.4706  -3.4522
    -3.4491  -3.4296  -3.3226  -3.3112  -3.2155  -3.1462  -3.1313  -3.0873
    -3.0299  -2.9340  -2.9236  -2.7718  -2.7487  -2.6813  -2.6772  -2.6661
    -2.6428  -2.4578  -2.4295  -2.4242  -2.2155  -2.1937  -2.0819  -2.0633
    -2.0190  -2.0044  -1.9125  -1.9064  -1.8164  -1.8010  -1.6690  -1.6548
    -1.5493  -1.5334  -1.5240  -1.5186  -1.4044  -1.3807  -1.3691  -1.2889
    -1.2760  -1.2719  -1.2212  -1.1356  -1.1093  -1.0885  -0.9767  -0.9737
    -0.9519  -0.9287  -0.9118  -0.8425  -0.8179  -0.8031  -0.7777  -0.7450
    -0.6888  -0.6371  -0.6231  -0.6022  -0.5851  -0.5260  -0.4836  -0.3818
    -0.3544   0.0537   0.0688   0.2122   0.2672   0.3280   0.3282   0.4281
     0.4321   0.8394   1.2507   1.5557   2.4350   2.4355   2.5824   2.5828
     2.6625   2.6626   2.9289   2.9309   2.9414   2.9502

          k = 0.0380 0.0000 0.0000 ( 17913 PWs)   bands (ev):

   -57.2964 -57.2627 -56.6425 -56.6085 -56.6050 -56.5713 -56.5528 -56.5174
   -56.3481 -56.3132 -56.2718 -56.2314 -56.0494 -56.0154 -55.8254 -55.7861
   -33.7374 -33.5813 -33.5533 -33.4613 -33.3712 -33.3612 -33.1080 -33.0940
   -33.0926 -32.8914 -32.8709 -32.8567 -32.8160 -32.8123 -32.8079 -32.8063
   -32.7963 -32.7919 -32.7716 -32.7586 -32.7553 -32.7407 -32.7332 -32.7130
   -32.6995 -32.6857 -32.6847 -32.6648 -32.5808 -32.5268 -32.4896 -32.4491
   -32.4464 -32.4449 -32.4198 -32.4162 -32.3877 -32.3849 -32.3635 -32.3567
   -32.2644 -32.1798 -32.0686 -32.0522 -32.0485 -32.0403 -31.9941 -31.8923
   -17.9673 -17.4378 -17.1761 -16.9482 -16.8642 -16.8176 -16.6297 -16.5876
   -16.5498 -16.5280 -16.4883 -16.4310 -16.3709 -16.3417 -16.3131 -16.1681
   -16.1140 -16.0776 -16.0352 -15.9701 -15.9474 -15.9420 -15.7456 -15.7370
   -15.7275 -15.6990 -15.5718 -15.4989 -15.4095 -15.1904 -14.5464 -14.4370
   -12.8720  -5.8811  -4.7949  -4.6047  -4.4233  -4.3120  -4.2574  -4.1872
    -4.1763  -4.0746  -4.0325  -4.0224  -3.8867  -3.8302  -3.7721  -3.6471
    -3.6237  -3.6171  -3.5262  -3.4710  -3.4690  -3.4273  -3.3387  -3.3173
    -3.2818  -3.2214  -3.2108  -3.1642  -3.0314  -3.0035  -2.9317  -2.9101
    -2.8909  -2.8484  -2.8048  -2.7837  -2.7324  -2.6795  -2.6265  -2.6108
    -2.5863  -2.5827  -2.5248  -2.4823  -2.3320  -2.2818  -2.2613  -2.1798
    -2.1741  -2.1208  -2.0152  -2.0014  -1.9284  -1.8746  -1.8577  -1.8499
    -1.6778  -1.6180  -1.5507  -1.5196  -1.5097  -1.4218  -1.3959  -1.3517
    -1.3125  -1.2971  -1.2219  -1.1662  -1.0585  -1.0392  -1.0077  -0.9595
    -0.9129  -0.8837  -0.8267  -0.7848  -0.7585  -0.7457  -0.7001  -0.6407
    -0.5717  -0.5444  -0.5007  -0.3616  -0.3305  -0.2428  -0.2300  -0.1294
    -0.0819  -0.0358  -0.0232  -0.0131   0.0764   0.1717   0.4207   0.4791
     0.5332   0.8332   1.2815   1.6382   2.0743   2.1186   2.4000   2.5382
     2.5399   2.7563   2.8407   2.9471   2.9891   3.0104

          k = 0.0380 0.0419 0.0000 ( 17878 PWs)   bands (ev):

   -57.2915 -57.2677 -56.6376 -56.6133 -56.6000 -56.5762 -56.5476 -56.5226
   -56.3429 -56.3183 -56.2677 -56.2356 -56.0444 -56.0204 -55.8210 -55.7905
   -33.6838 -33.5770 -33.5572 -33.4483 -33.4177 -33.3846 -33.0561 -33.0402
   -33.0371 -32.8806 -32.8611 -32.8449 -32.8174 -32.8133 -32.8045 -32.7980
   -32.7912 -32.7833 -32.7645 -32.7632 -32.7610 -32.7568 -32.7549 -32.7466
   -32.7441 -32.6893 -32.6776 -32.6636 -32.5677 -32.5183 -32.5028 -32.4752
   -32.4577 -32.4450 -32.4397 -32.4187 -32.3931 -32.3807 -32.3608 -32.3241
   -32.2521 -32.1923 -32.1256 -32.0698 -32.0378 -32.0356 -32.0024 -31.9306
   -17.9631 -17.3215 -17.0525 -16.8581 -16.8527 -16.7391 -16.6841 -16.5126
   -16.5071 -16.4832 -16.4665 -16.4288 -16.4082 -16.3314 -16.3262 -16.2477
   -16.1197 -16.0738 -16.0238 -16.0158 -15.9915 -15.9021 -15.8749 -15.8132
   -15.7790 -15.6668 -15.6115 -15.5190 -15.4301 -15.2741 -14.5535 -14.4781
   -12.8744  -5.8486  -4.6176  -4.4285  -4.2709  -4.1596  -4.0998  -4.0519
    -4.0168  -3.9020  -3.8885  -3.8502  -3.7911  -3.7579  -3.7066  -3.6754
    -3.6563  -3.6191  -3.5340  -3.5201  -3.4820  -3.4639  -3.4420  -3.4214
    -3.3769  -3.3344  -3.2880  -3.2316  -3.1769  -3.1441  -3.1139  -3.0764
    -3.0531  -2.9648  -2.9291  -2.8806  -2.8262  -2.6839  -2.6203  -2.5541
    -2.4619  -2.4283  -2.3653  -2.3476  -2.2847  -2.2354  -2.1780  -2.1129
    -2.0990  -2.0373  -1.9798  -1.9332  -1.8698  -1.8255  -1.8124  -1.7603
    -1.7382  -1.6899  -1.6080  -1.5647  -1.5231  -1.4609  -1.4454  -1.4111
    -1.3776  -1.3377  -1.3120  -1.2291  -1.2233  -1.2018  -1.0873  -1.0470
    -1.0232  -1.0054  -0.8887  -0.8636  -0.7867  -0.7697  -0.6995  -0.6769
    -0.6485  -0.5425  -0.5334  -0.5160  -0.4284  -0.3435  -0.2833  -0.2669
    -0.1326  -0.0833   0.0091   0.0696   0.2049   0.2972   0.4008   0.4463
     0.4814   0.8371   1.2659   1.6289   2.1916   2.3510   2.4553   2.5909
     2.7052   2.8242   2.8335   2.8882   2.9396   2.9856

          k = 0.0380-0.0839 0.0000 ( 17916 PWs)   bands (ev):

   -57.2797 -57.2795 -56.6282 -56.6228 -56.5889 -56.5874 -56.5360 -56.5343
   -56.3315 -56.3298 -56.2621 -56.2412 -56.0325 -56.0324 -55.8147 -55.7969
   -33.5672 -33.5669 -33.5524 -33.5524 -33.4168 -33.4166 -32.9320 -32.9266
   -32.9144 -32.9118 -32.9028 -32.9016 -32.8431 -32.8419 -32.8281 -32.8259
   -32.8169 -32.8108 -32.7822 -32.7807 -32.7733 -32.7721 -32.7423 -32.7403
   -32.6749 -32.6735 -32.6156 -32.6142 -32.5951 -32.5760 -32.5398 -32.5296
   -32.4908 -32.4765 -32.4347 -32.4228 -32.3708 -32.3707 -32.2615 -32.2613
   -32.2595 -32.2224 -32.2223 -32.1129 -32.0313 -32.0125 -32.0065 -31.9844
   -17.9590 -17.0456 -17.0438 -16.7567 -16.7537 -16.7050 -16.7034 -16.5857
   -16.5813 -16.4992 -16.4971 -16.2983 -16.2950 -16.2729 -16.2637 -16.2056
   -16.1959 -16.1646 -16.1503 -16.0804 -16.0697 -15.9116 -15.9059 -15.8230
   -15.8014 -15.6911 -15.6216 -15.5474 -15.4337 -15.4065 -14.5405 -14.5404
   -12.8768  -5.8146  -4.2346  -4.2334  -4.0194  -4.0114  -3.9710  -3.9607
    -3.9009  -3.8957  -3.8636  -3.8610  -3.6941  -3.6834  -3.6603  -3.6542
    -3.6039  -3.5932  -3.5744  -3.5531  -3.5472  -3.5012  -3.4579  -3.4518
    -3.3767  -3.3755  -3.3443  -3.3302  -3.1622  -3.1241  -3.0879  -3.0560
    -3.0165  -2.8882  -2.8852  -2.8482  -2.8301  -2.8179  -2.7915  -2.5822
    -2.5609  -2.5211  -2.4597  -2.4415  -2.3321  -2.3205  -2.2923  -2.2860
    -2.1227  -2.0971  -2.0160  -1.9666  -1.8270  -1.8022  -1.7751  -1.7542
    -1.7369  -1.6993  -1.6136  -1.5971  -1.5230  -1.5003  -1.4971  -1.4662
    -1.4260  -1.3932  -1.2866  -1.2420  -1.2029  -1.1627  -1.1005  -1.0657
    -1.0069  -0.9973  -0.9655  -0.9216  -0.9001  -0.8895  -0.8609  -0.7675
    -0.7003  -0.6736  -0.5625  -0.4935  -0.4542  -0.4043  -0.3557  -0.2355
    -0.2295   0.0391   0.0449   0.2281   0.2325   0.3400   0.3410   0.4102
     0.4131   0.8415   1.2579   1.6085   2.4369   2.4382   2.6106   2.6123
     2.8328   2.8335   2.8954   2.9083   2.9331   2.9458

          k = 0.0380-0.0419 0.0000 ( 17876 PWs)   bands (ev):

   -57.2915 -57.2677 -56.6376 -56.6133 -56.6000 -56.5762 -56.5476 -56.5226
   -56.3429 -56.3183 -56.2677 -56.2355 -56.0444 -56.0204 -55.8210 -55.7905
   -33.6838 -33.5770 -33.5572 -33.4483 -33.4177 -33.3846 -33.0561 -33.0402
   -33.0371 -32.8806 -32.8611 -32.8449 -32.8174 -32.8133 -32.8045 -32.7979
   -32.7912 -32.7833 -32.7645 -32.7632 -32.7610 -32.7568 -32.7548 -32.7466
   -32.7440 -32.6893 -32.6776 -32.6636 -32.5677 -32.5183 -32.5027 -32.4752
   -32.4577 -32.4450 -32.4397 -32.4187 -32.3931 -32.3807 -32.3608 -32.3241
   -32.2521 -32.1923 -32.1256 -32.0697 -32.0375 -32.0361 -32.0024 -31.9305
   -17.9631 -17.3213 -17.0525 -16.8581 -16.8535 -16.7390 -16.6838 -16.5126
   -16.5073 -16.4828 -16.4667 -16.4285 -16.4083 -16.3317 -16.3263 -16.2474
   -16.1196 -16.0734 -16.0238 -16.0152 -15.9919 -15.9027 -15.8756 -15.8126
   -15.7787 -15.6668 -15.6118 -15.5189 -15.4301 -15.2740 -14.5535 -14.4782
   -12.8744  -5.8486  -4.6169  -4.4276  -4.2723  -4.1578  -4.1006  -4.0519
    -4.0185  -3.9019  -3.8810  -3.8556  -3.7909  -3.7568  -3.7214  -3.6747
    -3.6534  -3.6146  -3.5337  -3.5220  -3.4836  -3.4650  -3.4368  -3.4169
    -3.3731  -3.3388  -3.2891  -3.2311  -3.1775  -3.1377  -3.1203  -3.0770
    -3.0514  -2.9667  -2.9305  -2.8828  -2.8185  -2.6813  -2.6259  -2.5520
    -2.4757  -2.4262  -2.3640  -2.3469  -2.2817  -2.2328  -2.1750  -2.1136
    -2.0953  -2.0353  -1.9807  -1.9357  -1.8699  -1.8263  -1.8176  -1.7621
    -1.7354  -1.6814  -1.6067  -1.5674  -1.5226  -1.4671  -1.4498  -1.4096
    -1.3736  -1.3321  -1.3120  -1.2300  -1.2176  -1.2041  -1.0878  -1.0557
    -1.0259  -1.0032  -0.8847  -0.8648  -0.7938  -0.7669  -0.6974  -0.6733
    -0.6524  -0.5431  -0.5324  -0.5156  -0.4291  -0.3449  -0.2833  -0.2676
    -0.1331  -0.0827   0.0112   0.0699   0.2048   0.2978   0.4005   0.4465
     0.4803   0.8372   1.2659   1.6290   2.1923   2.3512   2.4555   2.5895
     2.7055   2.8230   2.8280   2.8905   2.9809   3.0959

          k =-0.0760-0.0000 0.0000 ( 17886 PWs)   bands (ev):

   -57.2964 -57.2627 -56.6423 -56.6085 -56.6051 -56.5713 -56.5528 -56.5174
   -56.3480 -56.3132 -56.2718 -56.2314 -56.0493 -56.0154 -55.8254 -55.7861
   -33.7382 -33.5812 -33.5532 -33.4591 -33.3715 -33.3612 -33.1084 -33.0975
   -33.0935 -32.8707 -32.8571 -32.8449 -32.8387 -32.8171 -32.8121 -32.8078
   -32.8073 -32.7999 -32.7718 -32.7565 -32.7488 -32.7399 -32.7332 -32.7137
   -32.6877 -32.6857 -32.6847 -32.6647 -32.5772 -32.5369 -32.4910 -32.4490
   -32.4461 -32.4447 -32.4193 -32.4161 -32.3877 -32.3875 -32.3628 -32.3555
   -32.2643 -32.1797 -32.0687 -32.0524 -32.0484 -32.0429 -31.9935 -31.8923
   -17.9662 -17.2703 -17.1271 -16.9473 -16.8827 -16.8748 -16.6259 -16.6147
   -16.5532 -16.5287 -16.4692 -16.4575 -16.3436 -16.3263 -16.3058 -16.2467
   -16.1123 -16.0949 -16.0806 -16.0619 -16.0567 -15.8568 -15.8272 -15.7045
   -15.6677 -15.6605 -15.5989 -15.4926 -15.4084 -15.1900 -14.5437 -14.4366
   -12.8715  -5.8698  -4.5770  -4.4105  -4.4043  -4.3889  -4.1623  -4.1155
    -4.0680  -4.0673  -3.9879  -3.8632  -3.8310  -3.7805  -3.7174  -3.7069
    -3.6375  -3.5636  -3.4314  -3.4277  -3.3580  -3.3292  -3.3021  -3.2705
    -3.2387  -3.2228  -3.1593  -3.1571  -3.0306  -2.9893  -2.9680  -2.9595
    -2.9254  -2.8233  -2.7569  -2.7480  -2.7373  -2.7054  -2.6593  -2.6047
    -2.5779  -2.5527  -2.5023  -2.4840  -2.4019  -2.3418  -2.2797  -2.2431
    -2.2224  -2.1603  -2.1442  -2.0850  -1.9010  -1.8943  -1.8562  -1.8111
    -1.7783  -1.7505  -1.7235  -1.5787  -1.5219  -1.4574  -1.4317  -1.4258
    -1.4010  -1.3001  -1.2884  -1.2846  -1.2324  -1.1842  -1.0372  -0.9689
    -0.9567  -0.8649  -0.8407  -0.8354  -0.8029  -0.7793  -0.6567  -0.6081
    -0.5244  -0.4912  -0.4616  -0.4158  -0.3836  -0.3340  -0.2704  -0.1588
    -0.1444  -0.1266   0.0050   0.0346   0.0891   0.1487   0.2927   0.3142
     0.4210   0.8353   1.2836   1.5745   2.0660   2.1924   2.2860   2.3994
     2.6005   2.6429   2.8887   2.9278   2.9500   3.0320

          k =-0.0760 0.0419 0.0000 ( 17914 PWs)   bands (ev):

   -57.2915 -57.2677 -56.6375 -56.6133 -56.6002 -56.5762 -56.5476 -56.5226
   -56.3429 -56.3183 -56.2677 -56.2356 -56.0444 -56.0204 -55.8210 -55.7905
   -33.6847 -33.5770 -33.5572 -33.4467 -33.4179 -33.3846 -33.0565 -33.0452
   -33.0374 -32.8617 -32.8456 -32.8406 -32.8339 -32.8133 -32.8044 -32.8034
   -32.7952 -32.7836 -32.7700 -32.7688 -32.7650 -32.7635 -32.7515 -32.7455
   -32.7425 -32.6777 -32.6749 -32.6636 -32.5649 -32.5266 -32.5030 -32.4757
   -32.4589 -32.4447 -32.4397 -32.4186 -32.3929 -32.3830 -32.3601 -32.3236
   -32.2521 -32.1923 -32.1257 -32.0696 -32.0400 -32.0363 -32.0020 -31.9306
   -17.9624 -17.1592 -17.0150 -16.9044 -16.8215 -16.7906 -16.6870 -16.5714
   -16.5093 -16.4496 -16.4222 -16.4073 -16.4014 -16.3574 -16.2945 -16.2620
   -16.1166 -16.1061 -16.0939 -16.0613 -16.0105 -15.9505 -15.8763 -15.8501
   -15.7823 -15.6475 -15.6232 -15.5132 -15.4276 -15.2745 -14.5516 -14.4785
   -12.8741  -5.8427  -4.4077  -4.2450  -4.1984  -4.1065  -3.9754  -3.9509
    -3.8660  -3.8300  -3.8275  -3.7924  -3.7745  -3.6891  -3.6559  -3.6215
    -3.5691  -3.5654  -3.5522  -3.5096  -3.4842  -3.4632  -3.4365  -3.4218
    -3.3360  -3.2667  -3.2294  -3.2146  -3.1308  -3.0861  -3.0258  -2.9713
    -2.9384  -2.9097  -2.8738  -2.8353  -2.8124  -2.7494  -2.6971  -2.5531
    -2.5332  -2.4634  -2.3960  -2.3833  -2.3596  -2.2799  -2.1810  -2.1502
    -2.1458  -2.1252  -2.1019  -2.0660  -2.0150  -2.0081  -1.9007  -1.7984
    -1.7791  -1.7597  -1.6898  -1.6783  -1.6210  -1.6178  -1.5774  -1.5709
    -1.4703  -1.4500  -1.3977  -1.3661  -1.2726  -1.2576  -1.1873  -1.1609
    -1.1330  -1.0780  -0.9944  -0.9758  -0.9047  -0.7747  -0.6798  -0.5989
    -0.5718  -0.5495  -0.4689  -0.3966  -0.3479  -0.3359  -0.2092  -0.1823
    -0.1023  -0.0774  -0.0341   0.0586   0.2196   0.2552   0.3318   0.3726
     0.4477   0.8390   1.2736   1.6250   2.1972   2.3646   2.3788   2.4956
     2.7695   2.8118   2.8884   2.9300   2.9544   3.0078

          k =-0.0760-0.0839 0.0000 ( 17948 PWs)   bands (ev):

   -57.2797 -57.2796 -56.6281 -56.6227 -56.5890 -56.5875 -56.5360 -56.5343
   -56.3315 -56.3298 -56.2622 -56.2412 -56.0325 -56.0324 -55.8147 -55.7969
   -33.5672 -33.5669 -33.5531 -33.5530 -33.4159 -33.4157 -32.9320 -32.9265
   -32.9212 -32.9190 -32.9030 -32.9018 -32.8280 -32.8257 -32.8175 -32.8114
   -32.8099 -32.8070 -32.8007 -32.7997 -32.7821 -32.7806 -32.7424 -32.7403
   -32.6751 -32.6737 -32.6165 -32.6150 -32.5906 -32.5722 -32.5382 -32.5283
   -32.4951 -32.4808 -32.4348 -32.4228 -32.3715 -32.3714 -32.2615 -32.2613
   -32.2595 -32.2224 -32.2223 -32.1129 -32.0322 -32.0131 -32.0065 -31.9845
   -17.9587 -16.9012 -16.8972 -16.8453 -16.8448 -16.6840 -16.6800 -16.6089
   -16.6045 -16.4952 -16.4858 -16.2810 -16.2700 -16.2650 -16.2639 -16.1727
   -16.1537 -16.1482 -16.1399 -16.0461 -16.0410 -15.9930 -15.9919 -15.9786
   -15.9343 -15.6755 -15.6066 -15.5414 -15.4304 -15.4039 -14.5403 -14.5402
   -12.8768  -5.8142  -4.0389  -4.0332  -3.9852  -3.9763  -3.8982  -3.8934
    -3.7558  -3.7523  -3.7089  -3.7040  -3.6023  -3.5722  -3.5660  -3.5634
    -3.4939  -3.4518  -3.4455  -3.4186  -3.4083  -3.3982  -3.3411  -3.3356
    -3.3001  -3.2949  -3.2136  -3.2106  -3.1701  -3.1676  -3.1275  -3.0977
    -3.0528  -2.9698  -2.9358  -2.9335  -2.9208  -2.8708  -2.8407  -2.6572
    -2.6476  -2.6291  -2.5265  -2.5214  -2.4565  -2.3525  -2.3423  -2.2966
    -2.2166  -2.2027  -2.0511  -2.0457  -2.0311  -2.0178  -1.9908  -1.9079
    -1.8667  -1.8120  -1.7201  -1.6878  -1.6467  -1.6184  -1.5936  -1.5819
    -1.5650  -1.5526  -1.4197  -1.4159  -1.3616  -1.3323  -1.2891  -1.2644
    -1.1554  -1.1174  -1.0175  -0.9069  -0.8964  -0.8723  -0.8610  -0.7507
    -0.6470  -0.6381  -0.4387  -0.3678  -0.2787  -0.2397  -0.2231  -0.0869
    -0.0727  -0.0343  -0.0225   0.1829   0.2407   0.3657   0.3702   0.3822
     0.3826   0.8435   1.2647   1.6609   2.5033   2.5039   2.5596   2.5599
     2.8610   2.8644   2.9289   2.9445   2.9958   2.9967

     the Fermi energy is     1.8675 ev

!    total energy              =   -2935.33673800 Ry
     estimated scf accuracy    <       0.00000006 Ry
     smearing contrib. (-TS)   =      -0.00938265 Ry
     internal energy E=F+TS    =   -2935.32735535 Ry

     The total energy is F=E-TS. E is the sum of the following terms:
     one-electron contribution =  -24516.21873701 Ry
     hartree contribution      =   12336.19288822 Ry
     xc contribution           =    -482.58867461 Ry
     ewald contribution        =    9727.28601599 Ry
     electric field correction =       0.00115206 Ry

     convergence has been achieved in  52 iterations

     Forces acting on atoms (cartesian axes, Ry/au):

     atom    1 type  1   force =     0.00006092   -0.00039165    0.11601489
     atom    2 type  1   force =    -0.00007041   -0.00058823   -0.16491964
     atom    3 type  2   force =     0.00017896   -0.00006467   -0.05547895
     atom    4 type  2   force =    -0.00004065   -0.00058535    0.03458088
     atom    5 type  2   force =    -0.01584495    0.00098905   -0.00636604
     atom    6 type  2   force =     0.01752929    0.00172602   -0.00681380
     atom    7 type  1   force =     0.00078147   -0.00311715    0.01329550
     atom    8 type  1   force =    -0.00039802    0.00375295    0.09546191
     atom    9 type  2   force =    -0.00005142    0.00004959    0.00020485
     atom   10 type  2   force =    -0.00228504    0.00158382   -0.05952129
     atom   11 type  2   force =    -0.00019737   -0.00013914    0.00013502
     atom   12 type  2   force =     0.00008235   -0.00052228    0.00008499
     atom   13 type  1   force =    -0.00025222   -0.00011974    0.00023253
     atom   14 type  1   force =     0.00007966   -0.00046980   -0.00009919
     atom   15 type  2   force =    -0.00034098   -0.00016134   -0.00000190
     atom   16 type  2   force =     0.00016039    0.00015695   -0.00022281
     atom   17 type  2   force =     0.00037187    0.00011414    0.00015662
     atom   18 type  2   force =    -0.00027143    0.00004843   -0.00025445
     atom   19 type  1   force =    -0.00032338    0.00011100    0.00038165
     atom   20 type  1   force =     0.00027227    0.00018837   -0.00118424
     atom   21 type  2   force =     0.00005702    0.00001263    0.10062825
     atom   22 type  2   force =    -0.00010070    0.00016489   -0.00042495
     atom   23 type  2   force =    -0.07664661   -0.00002863   -0.03124219
     atom   24 type  2   force =     0.07651095    0.00038934   -0.03125090
     atom   25 type  1   force =     0.00008493   -0.00041816    0.11578060
     atom   26 type  1   force =    -0.00007561   -0.00034235   -0.16490014
     atom   27 type  2   force =     0.00034130   -0.00030737   -0.05438550
     atom   28 type  2   force =    -0.00001992   -0.00040524    0.03454582
     atom   29 type  2   force =    -0.01626658    0.00135093   -0.00645870
     atom   30 type  2   force =     0.01784540    0.00154085   -0.00694682
     atom   31 type  1   force =     0.00068421   -0.00038608    0.01254873
     atom   32 type  1   force =    -0.00027964   -0.00631768    0.09607125
     atom   33 type  2   force =    -0.00018796   -0.00011687   -0.00048015
     atom   34 type  2   force =    -0.00268143    0.00109251   -0.06820266
     atom   35 type  2   force =    -0.00014508    0.00032803    0.00027457
     atom   36 type  2   force =    -0.00000204    0.00034613    0.00014378
     atom   37 type  1   force =    -0.00006723   -0.00021299   -0.00040373
     atom   38 type  1   force =    -0.00015186   -0.00018055    0.00008674
     atom   39 type  2   force =    -0.00001756   -0.00021876    0.00035016
     atom   40 type  2   force =    -0.00007880    0.00009657   -0.00004054
     atom   41 type  2   force =     0.00035509    0.00027615    0.00020818
     atom   42 type  2   force =    -0.00023944    0.00031680   -0.00020330
     atom   43 type  1   force =     0.00000254    0.00045441    0.00066654
     atom   44 type  1   force =     0.00019877   -0.00015637   -0.00060041
     atom   45 type  2   force =     0.00006182    0.00000130    0.10061907
     atom   46 type  2   force =    -0.07665588    0.00000147   -0.03121899
     atom   47 type  2   force =     0.07650290    0.00043946   -0.03124230
     atom   48 type  3   force =     0.01221497    0.00026815    0.01905382
     atom   49 type  4   force =    -0.00758008   -0.00048136   -0.01358274
     atom   50 type  3   force =    -0.00310480   -0.00006817   -0.00508003

     Total force =     0.407882     Total SCF correction =     0.000634
  @ DRIVER MODE: Message from server: STATUS
  @ DRIVER MODE: Message from server: GETFORCE
  @ DRIVER MODE: Returning v,forces,stress,ensemble 

     Writing output data file ./calc.save/
  @ DRIVER MODE: Message from server: EXIT
  @ DRIVE MODE: Exiting  
 
     init_run     :     16.38s CPU     18.04s WALL (       1 calls)
     electrons    :   1448.98s CPU   1555.92s WALL (       1 calls)
     forces       :      2.24s CPU      2.38s WALL (       1 calls)

     Called by init_run:
     wfcinit      :     10.13s CPU     11.62s WALL (       1 calls)
     potinit      :      5.61s CPU      5.69s WALL (       1 calls)
     hinit0       :      0.28s CPU      0.29s WALL (       1 calls)

     Called by electrons:
     c_bands      :   1261.78s CPU   1350.51s WALL (      52 calls)
     sum_band     :    136.94s CPU    148.87s WALL (      52 calls)
     v_of_rho     :     35.26s CPU     37.75s WALL (      53 calls)
     newd         :     13.09s CPU     16.00s WALL (      53 calls)
     mix_rho      :      6.16s CPU      6.87s WALL (      52 calls)
     vdW_kernel   :      4.57s CPU      4.59s WALL (       1 calls)

     Called by c_bands:
     init_us_2    :      4.87s CPU      4.95s WALL (    1060 calls)
     cegterg      :   1246.27s CPU   1333.97s WALL (     520 calls)

     Called by *egterg:
     cdiaghg      :    269.89s CPU    295.18s WALL (    4657 calls)
     h_psi        :    680.69s CPU    731.24s WALL (    4667 calls)
     s_psi        :     46.09s CPU     46.76s WALL (    4667 calls)
     g_psi        :      1.31s CPU      1.33s WALL (    4137 calls)

     Called by h_psi:
     h_psi:calbec :     57.40s CPU     59.60s WALL (    4667 calls)
     vloc_psi     :    574.61s CPU    622.21s WALL (    4667 calls)
     add_vuspsi   :     46.49s CPU     47.06s WALL (    4667 calls)

     General routines
     calbec       :     75.11s CPU     77.86s WALL (    5227 calls)
     fft          :     20.42s CPU     21.18s WALL (    3339 calls)
     ffts         :      0.21s CPU      0.21s WALL (     105 calls)
     fftw         :    657.10s CPU    713.36s WALL (  699762 calls)
     interpolate  :      0.51s CPU      0.54s WALL (      53 calls)
     davcio       :      0.00s CPU      0.10s WALL (      10 calls)
 
     Parallel routines
 
     PWSCF        :  24m29.38s CPU  26m18.72s WALL

 
   This run was terminated on:  23: 5: 3   8Sep2021            

=------------------------------------------------------------------------------=
   JOB DONE.
=------------------------------------------------------------------------------=
