
     Program PWSCF v.6.7GPU starts on 26Sep2021 at  2:27:17 

     This program is part of the open-source Quantum ESPRESSO suite
     for quantum simulation of materials; please cite
         "P. Giannozzi et al., J. Phys.:Condens. Matter 21 395502 (2009);
         "P. Giannozzi et al., J. Phys.:Condens. Matter 29 465901 (2017);
         "P. Giannozzi et al., J. Chem. Phys. 152 154105 (2020);
          URL http://www.quantum-espresso.org", 
     in publications or presentations arising from this work. More details at
     http://www.quantum-espresso.org/quote

     Parallel version (MPI), running on     8 processors

     MPI processes distributed on     1 nodes
     R & G space division:  proc/nbgrp/npool/nimage =       8
     Reading input from /storage/home/hcoda1/3/ntian30/research/carbon/CxH_vib/H2O_calc/ads_slab/CH3ON2H2O_a/out_0024/pw.inp
Warning: card &CELL ignored
Warning: card   CELL_DYNAMICS='IPI', ignored
Warning: card / ignored

     Current dimensions of program PWSCF are:
     Max number of different atomic species (ntypx) = 10
     Max number of k-points (npk) =  40000
     Max angular momentum in pseudopotentials (lmaxx) =  3
     Presently no symmetry can be used with electric field

     Message from routine cell_base_init:
     DEPRECATED: use true lattice parameter, not A to a.u. conversion factor

     **************************************************************************
     Initializing libbeef V0.1.2 with the BEEF-vdW functional.
     Citation: Wellendorff et al., PRB 85, 235149 (2012).
     **************************************************************************


     IMPORTANT: XC functional enforced from input :
     Exchange-correlation= BEEF-VDW
                           (   1   4  43  14   2   0   0)
     Any further DFT definition will be discarded
     Please, verify this is what you really want


     Subspace diagonalization in iterative solution of the eigenvalue problem:
     one sub-group per band group will be used
     scalapack distributed-memory algorithm (size of sub-group:  2*  2 procs)

  @ DRIVER MODE: Connecting to 
 qe_1139763_2971672.sched-torque.pace.gatech.eduqpe7dj3k_scratch
  using UNIX socket
  @ DRIVER MODE: Message from server: STATUS
  @ DRIVER MODE: Message from server: INIT
  @ DRIVER MODE: Receiving replica           0          -1
  @ DRIVER MODE: Receiving encoded integer          25
  @ DRIVER MODE:  SCF:  T  FORCE:  T  STRESS:  F  VC:  F  ENSEMBLE:  F
  @ DRIVER MODE:  SCF:  T  FORCE:  T  STRESS:  F  VC:  F  ENSEMBLE:  F
 
     Parallelization info
     --------------------
     sticks:   dense  smooth     PW     G-vecs:    dense   smooth      PW
     Min         409     164     47                70857    17926    2743
     Max         411     165     48                70858    17931    2751
     Sum        3275    1317    379               566857   143421   21985
 
     Using Slab Decomposition
 


     bravais-lattice index     =            0
     lattice parameter (alat)  =       1.8897  a.u.
     unit-cell volume          =    6658.9804 (a.u.)^3
     number of atoms/cell      =           57
     number of atomic types    =            5
     number of electrons       =       409.00
     number of Kohn-Sham states=          214
     kinetic-energy cutoff     =      29.3995  Ry
     charge density cutoff     =     293.9946  Ry
     scf convergence threshold =      7.3E-08
     mixing beta               =       0.0500
     number of iterations used =            8  plain     mixing
     Exchange-correlation= BEEF-VDW
                           (   1   4  43  14   2   0   0)

     celldm(1)=   1.889726  celldm(2)=   0.000000  celldm(3)=   0.000000
     celldm(4)=   0.000000  celldm(5)=   0.000000  celldm(6)=   0.000000

     crystal axes: (cart. coord. in units of alat)
               a(1) = (   6.579727   0.000000   0.000000 )  
               a(2) = (  -0.000775   5.961596   0.000000 )  
               a(3) = (   0.000000   0.000000  25.155947 )  

     reciprocal axes: (cart. coord. in units 2 pi/alat)
               b(1) = (  0.151982  0.000020  0.000000 )  
               b(2) = (  0.000000  0.167740  0.000000 )  
               b(3) = (  0.000000  0.000000  0.039752 )  


     PseudoPot. # 1 for Ti read from file:
     /storage/coda1/p-amedford6/0/shared/rich_project_chbe-medford/medford-share/data/pseudos_module/espresso/nninc/pbe/van/Ti.UPF
     MD5 check sum: 8e4df49b7f0d34bbd5052bf3f5ea0213
     Pseudo is Ultrasoft, Zval = 12.0
     Generated by new atomic code, or converted to UPF format
     Using radial grid of  851 points,  6 beta functions with: 
                l(1) =   0
                l(2) =   0
                l(3) =   1
                l(4) =   1
                l(5) =   2
                l(6) =   2
     Q(r) pseudized with  8 coefficients,  rinner =    1.000   1.000   1.000
                                                       1.000   1.000

     PseudoPot. # 2 for O  read from file:
     /storage/coda1/p-amedford6/0/shared/rich_project_chbe-medford/medford-share/data/pseudos_module/espresso/nninc/pbe/van/O.UPF
     MD5 check sum: 78c19812648e8988a0fe644b0f25305e
     Pseudo is Ultrasoft, Zval =  6.0
     Generated by new atomic code, or converted to UPF format
     Using radial grid of  737 points,  4 beta functions with: 
                l(1) =   0
                l(2) =   0
                l(3) =   1
                l(4) =   1
     Q(r) pseudized with  8 coefficients,  rinner =    0.800   0.800   0.800


     PseudoPot. # 3 for C  read from file:
     /storage/coda1/p-amedford6/0/shared/rich_project_chbe-medford/medford-share/data/pseudos_module/espresso/nninc/pbe/van/C.UPF
     MD5 check sum: 1a69bf6b8db32088f5b2163dbdb77a27
     Pseudo is Ultrasoft, Zval =  4.0
     Generated by new atomic code, or converted to UPF format
     Using radial grid of  721 points,  4 beta functions with: 
                l(1) =   0
                l(2) =   0
                l(3) =   1
                l(4) =   1
     Q(r) pseudized with  8 coefficients,  rinner =    0.800   0.800   0.800


     PseudoPot. # 4 for H  read from file:
     /storage/coda1/p-amedford6/0/shared/rich_project_chbe-medford/medford-share/data/pseudos_module/espresso/nninc/pbe/van/H.UPF
     MD5 check sum: b5ee9d7bfd3a09ee7748110bda690ff7
     Pseudo is Ultrasoft, Zval =  1.0
     Generated by new atomic code, or converted to UPF format
     Using radial grid of  615 points,  1 beta functions with: 
                l(1) =   0
     Q(r) pseudized with  8 coefficients,  rinner =    0.800

     PseudoPot. # 5 for N  read from file:
     /storage/coda1/p-amedford6/0/shared/rich_project_chbe-medford/medford-share/data/pseudos_module/espresso/nninc/pbe/van/N.UPF
     MD5 check sum: 90d10febe142ad51ac9d5be1deb811c4
     Pseudo is Ultrasoft, Zval =  5.0
     Generated by new atomic code, or converted to UPF format
     Using radial grid of  729 points,  4 beta functions with: 
                l(1) =   0
                l(2) =   0
                l(3) =   1
                l(4) =   1
     Q(r) pseudized with  8 coefficients,  rinner =    0.800   0.800   0.800


     atomic species   valence    mass     pseudopotential
        Ti1           12.00    47.86700     Ti( 1.00)
        O1             6.00    15.99900     O ( 1.00)
        C1             4.00    12.01100     C ( 1.00)
        H1             1.00     1.00800     H ( 1.00)
        N1             5.00    14.00700     N ( 1.00)

     No symmetry found



   Cartesian axes

     site n.     atom                  positions (alat units)
         1           Ti1 tau(   1) = (   0.0004258   2.9801865   6.0000000  )
         2           Ti1 tau(   2) = (   3.2906075   1.4906267   6.0002472  )
         3           O1  tau(   3) = (   0.0006271   0.0005054   7.9858123  )
         4           O1  tau(   4) = (   3.2906025   0.0005020   7.3038282  )
         5           O1  tau(   5) = (   4.5942328   1.4918067   9.2879030  )
         6           O1  tau(   6) = (   1.9868534   1.4903216   9.2879459  )
         7           Ti1 tau(   7) = (   3.3113259   3.0354369   9.1618307  )
         8           Ti1 tau(   8) = (   0.0141821   1.6139659   9.3625064  )
         9           O1  tau(   9) = (   3.2964399   0.0287090  11.3517035  )
        10           O1  tau(  10) = (   0.0046459   0.0167322  10.6079620  )
        11           O1  tau(  11) = (   1.2916403   1.5142126  12.6509924  )
        12           O1  tau(  12) = (   5.2954765   1.5212855  12.6445515  )
        13           Ti1 tau(  13) = (   0.0303381   3.0181167  12.7741416  )
        14           Ti1 tau(  14) = (   3.3376880   1.5190318  12.5019279  )
        15           O1  tau(  15) = (   6.5702980   0.0162101  14.7136675  )
        16           O1  tau(  16) = (   3.3118210   0.0215951  13.9605728  )
        17           O1  tau(  17) = (   4.5586303   1.5408398  16.0643691  )
        18           O1  tau(  18) = (   2.0376984   1.5397913  16.0346728  )
        19           Ti1 tau(  19) = (   3.2806018   3.0126274  15.6982083  )
        20           Ti1 tau(  20) = (   0.0204579   1.3876160  16.0921805  )
        21           O1  tau(  21) = (   3.2904802   0.0005063   4.7018136  )
        22           O1  tau(  22) = (   0.0362274   0.0182013  17.2505027  )
        23           O1  tau(  23) = (   1.3043587   1.4918075   6.0039043  )
        24           O1  tau(  24) = (   5.2767064   1.4903225   6.0039473  )
        25           Ti1 tau(  25) = (   0.0000382   5.9609847   6.0000000  )
        26           Ti1 tau(  26) = (   3.2902200   4.4714249   6.0002472  )
        27           O1  tau(  27) = (   0.0002396   2.9813036   7.9858123  )
        28           O1  tau(  28) = (   3.2902150   2.9813002   7.3038282  )
        29           O1  tau(  29) = (   4.5938453   4.4726049   9.2879030  )
        30           O1  tau(  30) = (   1.9864658   4.4711199   9.2879459  )
        31           Ti1 tau(  31) = (   3.2918133   0.0584897   9.1554610  )
        32           Ti1 tau(  32) = (   0.0176696   4.5429683   9.2683582  )
        33           O1  tau(  33) = (   3.2944385   3.0046939  11.3531965  )
        34           O1  tau(  34) = (   0.0071923   2.9964285  10.5824339  )
        35           O1  tau(  35) = (   1.2923070   4.5060354  12.6395470  )
        36           O1  tau(  36) = (   5.2930342   4.4972821  12.6335129  )
        37           Ti1 tau(  37) = (   0.0360028   0.0369787  12.5252624  )
        38           Ti1 tau(  38) = (   3.3378333   4.5109478  12.5016189  )
        39           O1  tau(  39) = (   0.0182598   3.0415135  14.6926035  )
        40           O1  tau(  40) = (   3.2973286   3.0139918  13.9115332  )
        41           O1  tau(  41) = (   4.5518717   4.4752506  16.0920674  )
        42           O1  tau(  42) = (   2.0385343   4.4722040  16.0556704  )
        43           Ti1 tau(  43) = (   3.3273276   0.0437280  15.7880462  )
        44           Ti1 tau(  44) = (   0.0148993   4.5306414  15.9319406  )
        45           O1  tau(  45) = (   3.2900926   2.9813045   4.7018136  )
        46           O1  tau(  46) = (   1.3039711   4.4726057   6.0039043  )
        47           O1  tau(  47) = (   5.2763189   4.4711207   6.0039473  )
        48           C1  tau(  48) = (   6.0619278   3.0088867  18.6555636  )
        49           O1  tau(  49) = (   6.5788924   2.9994598  17.3400993  )
        50           H1  tau(  50) = (   4.9713474   2.8828304  18.6515055  )
        51           H1  tau(  51) = (   6.4909130   2.1836263  19.2413859  )
        52           H1  tau(  52) = (   6.3070107   3.9563896  19.1453893  )
        53           N1  tau(  53) = (   5.9950546   3.0301018  22.7159517  )
        54           N1  tau(  54) = (   5.2276613   3.1827328  21.9368001  )
        55           O1  tau(  55) = (   3.1818816   0.0591848  18.2205797  )
        56           H1  tau(  56) = (   3.8437189   5.3938241  18.5518935  )
        57           H1  tau(  57) = (   2.3086839   5.6188137  18.3735615  )

     number of k points=    10  Fermi-Dirac smearing, width (Ry)=  0.0073
                       cart. coord. in units 2pi/alat
        k(    1) = (   0.0000000   0.0000000   0.0000000), wk =   0.1250000
        k(    2) = (   0.0000000   0.0419351   0.0000000), wk =   0.2500000
        k(    3) = (   0.0000000  -0.0838702   0.0000000), wk =   0.1250000
        k(    4) = (   0.0379955   0.0000049   0.0000000), wk =   0.2500000
        k(    5) = (   0.0379955   0.0419400   0.0000000), wk =   0.2500000
        k(    6) = (   0.0379955  -0.0838652   0.0000000), wk =   0.2500000
        k(    7) = (   0.0379955  -0.0419301   0.0000000), wk =   0.2500000
        k(    8) = (  -0.0759910  -0.0000099   0.0000000), wk =   0.1250000
        k(    9) = (  -0.0759910   0.0419252   0.0000000), wk =   0.2500000
        k(   10) = (  -0.0759910  -0.0838800   0.0000000), wk =   0.1250000

     Dense  grid:   566857 G-vectors     FFT dimensions: (  72,  64, 270)

     Smooth grid:   143421 G-vectors     FFT dimensions: (  45,  40, 180)

     Estimated max dynamical RAM per process >     462.31 MB

     Estimated total dynamical RAM >       3.61 GB
     Cannot read rho : file not found

     Initial potential from superposition of free atoms

     starting charge  392.99914, renormalised to  409.00000

     negative rho (up, down):  9.745E-03 0.000E+00


     %%%%%%%%%%%%%%%%%%%%%%%%%%%%%%%%%%%%%%%%%%%%%%%%%%%%%%%%%%%%%%%%%%%%%%%%
     %                                                                      %
     % You are using vdW-DF, which was implemented by the Thonhauser group. %
     % Please cite the following two papers that made this development      %
     % possible and the two reviews that describe the various versions:     %
     %                                                                      %
     %   T. Thonhauser et al., PRL 115, 136402 (2015).                      %
     %   T. Thonhauser et al., PRB 76, 125112 (2007).                       %
     %   K. Berland et al., Rep. Prog. Phys. 78, 066501 (2015).             %
     %   D.C. Langreth et al., J. Phys.: Condens. Matter 21, 084203 (2009). %
     %                                                                      %
     %                                                                      %
     % If you are calculating the stress with vdW-DF, please also cite:     %
     %                                                                      %
     %   R. Sabatini et al., J. Phys.: Condens. Matter 24, 424209 (2012).   %
     %                                                                      %
     %%%%%%%%%%%%%%%%%%%%%%%%%%%%%%%%%%%%%%%%%%%%%%%%%%%%%%%%%%%%%%%%%%%%%%%%


 
     Adding external electric field

     Computed dipole along edir(3) : 
        Dipole              -18.5723 Ry au,        -47.2060 Debye
        Dipole field         -0.0350 Ry au, 
 
        Potential amp.        3.2489 Ry
        Total length         46.3494 bohr
 
     Starting wfcs are  309 atomic wfcs
  @ DRIVER MODE: Message from server: STATUS
  @ DRIVER MODE: Message from server: POSDATA
  @ DRIVER MODE: Reading and sharing cell 
  @ DRIVER MODE: Reading and sharing positions 
  @ DRIVER MODE: Received positions 

     total cpu time spent up to now is       16.1 secs

     Self-consistent Calculation

     iteration #  1     ecut=    29.40 Ry     beta= 0.05
     Davidson diagonalization with overlap
     c_bands:  3 eigenvalues not converged
     c_bands:  2 eigenvalues not converged
     c_bands:  2 eigenvalues not converged
     c_bands:  5 eigenvalues not converged
     c_bands:  5 eigenvalues not converged
     c_bands:  5 eigenvalues not converged
     c_bands:  1 eigenvalues not converged
     c_bands:  3 eigenvalues not converged
     ethr =  1.00E-05,  avg # of iterations = 28.5

     negative rho (up, down):  6.861E-03 0.000E+00
 
     Adding external electric field

     Computed dipole along edir(3) : 
        Dipole               65.1207 Ry au,        165.5204 Debye
        Dipole field          0.1229 Ry au, 
 
        Potential amp.      -11.3919 Ry
        Total length         46.3494 bohr
 

     total cpu time spent up to now is       86.9 secs

     total energy              =   -2113.12290738 Ry
     estimated scf accuracy    <   10297.64645592 Ry

     iteration #  2     ecut=    29.40 Ry     beta= 0.05
     Davidson diagonalization with overlap
     ethr =  1.00E-02,  avg # of iterations = 30.7

     negative rho (up, down):  1.217E-04 0.000E+00
 
     Adding external electric field

     Computed dipole along edir(3) : 
        Dipole               -1.8705 Ry au,         -4.7543 Debye
        Dipole field         -0.0035 Ry au, 
 
        Potential amp.        0.3272 Ry
        Total length         46.3494 bohr
 

     total cpu time spent up to now is      219.8 secs

     total energy              =   -2413.96526768 Ry
     estimated scf accuracy    <   86852.74175135 Ry

     iteration #  3     ecut=    29.40 Ry     beta= 0.05
     Davidson diagonalization with overlap
     ethr =  1.00E-02,  avg # of iterations = 17.0

     negative rho (up, down):  1.518E-04 0.000E+00
 
     Adding external electric field

     Computed dipole along edir(3) : 
        Dipole               -5.0659 Ry au,        -12.8762 Debye
        Dipole field         -0.0096 Ry au, 
 
        Potential amp.        0.8862 Ry
        Total length         46.3494 bohr
 

     total cpu time spent up to now is      288.0 secs

     total energy              =   -2999.74867954 Ry
     estimated scf accuracy    <    9495.85760886 Ry

     iteration #  4     ecut=    29.40 Ry     beta= 0.05
     Davidson diagonalization with overlap
     ethr =  1.00E-02,  avg # of iterations = 12.4

     negative rho (up, down):  1.598E-04 0.000E+00
 
     Adding external electric field

     Computed dipole along edir(3) : 
        Dipole               -6.2548 Ry au,        -15.8982 Debye
        Dipole field         -0.0118 Ry au, 
 
        Potential amp.        1.0942 Ry
        Total length         46.3494 bohr
 

     total cpu time spent up to now is      323.9 secs

     total energy              =   -3009.01546622 Ry
     estimated scf accuracy    <    2678.00724879 Ry

     iteration #  5     ecut=    29.40 Ry     beta= 0.05
     Davidson diagonalization with overlap
     ethr =  1.00E-02,  avg # of iterations =  2.5

     negative rho (up, down):  1.837E-04 0.000E+00
 
     Adding external electric field

     Computed dipole along edir(3) : 
        Dipole               -8.0899 Ry au,        -20.5624 Debye
        Dipole field         -0.0153 Ry au, 
 
        Potential amp.        1.4152 Ry
        Total length         46.3494 bohr
 

     total cpu time spent up to now is      338.3 secs

     total energy              =   -2964.94329853 Ry
     estimated scf accuracy    <    2607.06883925 Ry

     iteration #  6     ecut=    29.40 Ry     beta= 0.05
     Davidson diagonalization with overlap
     c_bands:  1 eigenvalues not converged
     ethr =  1.00E-02,  avg # of iterations = 15.0

     negative rho (up, down):  1.565E-04 0.000E+00
 
     Adding external electric field

     Computed dipole along edir(3) : 
        Dipole               -4.9497 Ry au,        -12.5810 Debye
        Dipole field         -0.0093 Ry au, 
 
        Potential amp.        0.8659 Ry
        Total length         46.3494 bohr
 

     total cpu time spent up to now is      377.0 secs

     total energy              =   -3009.15015572 Ry
     estimated scf accuracy    <     200.12424721 Ry

     iteration #  7     ecut=    29.40 Ry     beta= 0.05
     Davidson diagonalization with overlap
     ethr =  1.00E-02,  avg # of iterations =  2.6

     negative rho (up, down):  1.536E-04 0.000E+00
 
     Adding external electric field

     Computed dipole along edir(3) : 
        Dipole               -3.3051 Ry au,         -8.4006 Debye
        Dipole field         -0.0062 Ry au, 
 
        Potential amp.        0.5782 Ry
        Total length         46.3494 bohr
 

     total cpu time spent up to now is      391.9 secs

     total energy              =   -3010.79623050 Ry
     estimated scf accuracy    <     101.74631084 Ry

     iteration #  8     ecut=    29.40 Ry     beta= 0.05
     Davidson diagonalization with overlap
     ethr =  1.00E-02,  avg # of iterations =  3.9

     negative rho (up, down):  1.542E-04 0.000E+00
 
     Adding external electric field

     Computed dipole along edir(3) : 
        Dipole               -3.1328 Ry au,         -7.9627 Debye
        Dipole field         -0.0059 Ry au, 
 
        Potential amp.        0.5480 Ry
        Total length         46.3494 bohr
 

     total cpu time spent up to now is      407.7 secs

     total energy              =   -3010.57077586 Ry
     estimated scf accuracy    <     186.63599607 Ry

     iteration #  9     ecut=    29.40 Ry     beta= 0.05
     Davidson diagonalization with overlap
     ethr =  1.00E-02,  avg # of iterations =  3.7

     negative rho (up, down):  1.637E-04 0.000E+00
 
     Adding external electric field

     Computed dipole along edir(3) : 
        Dipole               -0.9944 Ry au,         -2.5276 Debye
        Dipole field         -0.0019 Ry au, 
 
        Potential amp.        0.1740 Ry
        Total length         46.3494 bohr
 

     total cpu time spent up to now is      422.9 secs

     total energy              =   -3013.09936608 Ry
     estimated scf accuracy    <     120.70882617 Ry

     iteration # 10     ecut=    29.40 Ry     beta= 0.05
     Davidson diagonalization with overlap
     c_bands:  2 eigenvalues not converged
     ethr =  1.00E-02,  avg # of iterations = 10.7

     negative rho (up, down):  1.738E-04 0.000E+00
 
     Adding external electric field

     Computed dipole along edir(3) : 
        Dipole               -0.7620 Ry au,         -1.9368 Debye
        Dipole field         -0.0014 Ry au, 
 
        Potential amp.        0.1333 Ry
        Total length         46.3494 bohr
 

     total cpu time spent up to now is      444.8 secs

     total energy              =   -3012.86866617 Ry
     estimated scf accuracy    <    1380.88002503 Ry

     iteration # 11     ecut=    29.40 Ry     beta= 0.05
     Davidson diagonalization with overlap
     ethr =  1.00E-02,  avg # of iterations =  4.4

     negative rho (up, down):  2.155E-04 0.000E+00
 
     Adding external electric field

     Computed dipole along edir(3) : 
        Dipole               -0.3469 Ry au,         -0.8816 Debye
        Dipole field         -0.0007 Ry au, 
 
        Potential amp.        0.0607 Ry
        Total length         46.3494 bohr
 

     total cpu time spent up to now is      460.5 secs

     total energy              =   -2988.53417622 Ry
     estimated scf accuracy    <    1133.83038142 Ry

     iteration # 12     ecut=    29.40 Ry     beta= 0.05
     Davidson diagonalization with overlap
     ethr =  1.00E-02,  avg # of iterations =  8.7

     negative rho (up, down):  2.063E-04 0.000E+00
 
     Adding external electric field

     Computed dipole along edir(3) : 
        Dipole                0.2119 Ry au,          0.5386 Debye
        Dipole field          0.0004 Ry au, 
 
        Potential amp.       -0.0371 Ry
        Total length         46.3494 bohr
 

     total cpu time spent up to now is      485.8 secs

     total energy              =   -3010.01391319 Ry
     estimated scf accuracy    <      84.51173131 Ry

     iteration # 13     ecut=    29.40 Ry     beta= 0.05
     Davidson diagonalization with overlap
     ethr =  1.00E-02,  avg # of iterations =  1.1

     negative rho (up, down):  2.055E-04 0.000E+00
 
     Adding external electric field

     Computed dipole along edir(3) : 
        Dipole               -0.0796 Ry au,         -0.2023 Debye
        Dipole field         -0.0002 Ry au, 
 
        Potential amp.        0.0139 Ry
        Total length         46.3494 bohr
 

     total cpu time spent up to now is      499.4 secs

     total energy              =   -3010.66244853 Ry
     estimated scf accuracy    <     280.17937545 Ry

     iteration # 14     ecut=    29.40 Ry     beta= 0.05
     Davidson diagonalization with overlap
     ethr =  1.00E-02,  avg # of iterations =  1.0

     negative rho (up, down):  2.182E-04 0.000E+00
 
     Adding external electric field

     Computed dipole along edir(3) : 
        Dipole               -3.0101 Ry au,         -7.6509 Debye
        Dipole field         -0.0057 Ry au, 
 
        Potential amp.        0.5266 Ry
        Total length         46.3494 bohr
 

     total cpu time spent up to now is      512.8 secs

     total energy              =   -3006.70918161 Ry
     estimated scf accuracy    <     285.73562010 Ry

     iteration # 15     ecut=    29.40 Ry     beta= 0.05
     Davidson diagonalization with overlap
     ethr =  1.00E-02,  avg # of iterations =  2.0

     negative rho (up, down):  2.246E-04 0.000E+00
 
     Adding external electric field

     Computed dipole along edir(3) : 
        Dipole               -3.2054 Ry au,         -8.1472 Debye
        Dipole field         -0.0060 Ry au, 
 
        Potential amp.        0.5607 Ry
        Total length         46.3494 bohr
 

     total cpu time spent up to now is      526.8 secs

     total energy              =   -3008.98672988 Ry
     estimated scf accuracy    <      27.41518779 Ry

     iteration # 16     ecut=    29.40 Ry     beta= 0.05
     Davidson diagonalization with overlap
     ethr =  6.70E-03,  avg # of iterations =  1.2

     negative rho (up, down):  3.494E-04 0.000E+00
 
     Adding external electric field

     Computed dipole along edir(3) : 
        Dipole               -4.5006 Ry au,        -11.4393 Debye
        Dipole field         -0.0085 Ry au, 
 
        Potential amp.        0.7873 Ry
        Total length         46.3494 bohr
 

     total cpu time spent up to now is      540.6 secs

     total energy              =   -3006.34793838 Ry
     estimated scf accuracy    <      18.01613913 Ry

     iteration # 17     ecut=    29.40 Ry     beta= 0.05
     Davidson diagonalization with overlap
     ethr =  4.40E-03,  avg # of iterations =  5.0

     negative rho (up, down):  3.791E-04 0.000E+00
 
     Adding external electric field

     Computed dipole along edir(3) : 
        Dipole               -5.2039 Ry au,        -13.2271 Debye
        Dipole field         -0.0098 Ry au, 
 
        Potential amp.        0.9103 Ry
        Total length         46.3494 bohr
 

     total cpu time spent up to now is      557.2 secs

     total energy              =   -3008.63095239 Ry
     estimated scf accuracy    <      17.97327205 Ry

     iteration # 18     ecut=    29.40 Ry     beta= 0.05
     Davidson diagonalization with overlap
     c_bands:  5 eigenvalues not converged
     c_bands:  2 eigenvalues not converged
     ethr =  4.39E-03,  avg # of iterations = 15.2

     negative rho (up, down):  4.687E-04 0.000E+00
 
     Adding external electric field

     Computed dipole along edir(3) : 
        Dipole               -5.1507 Ry au,        -13.0917 Debye
        Dipole field         -0.0097 Ry au, 
 
        Potential amp.        0.9010 Ry
        Total length         46.3494 bohr
 

     total cpu time spent up to now is      586.5 secs

     total energy              =   -3021.54557150 Ry
     estimated scf accuracy    <     695.38237060 Ry

     iteration # 19     ecut=    29.40 Ry     beta= 0.05
     Davidson diagonalization with overlap
     ethr =  4.39E-03,  avg # of iterations =  3.9

     negative rho (up, down):  3.663E-04 0.000E+00
 
     Adding external electric field

     Computed dipole along edir(3) : 
        Dipole               -4.9082 Ry au,        -12.4754 Debye
        Dipole field         -0.0093 Ry au, 
 
        Potential amp.        0.8586 Ry
        Total length         46.3494 bohr
 

     total cpu time spent up to now is      604.1 secs

     total energy              =   -3018.73280771 Ry
     estimated scf accuracy    <    1254.17687368 Ry

     iteration # 20     ecut=    29.40 Ry     beta= 0.05
     Davidson diagonalization with overlap
     ethr =  4.39E-03,  avg # of iterations =  1.5

     negative rho (up, down):  4.373E-04 0.000E+00
 
     Adding external electric field

     Computed dipole along edir(3) : 
        Dipole               -5.2091 Ry au,        -13.2402 Debye
        Dipole field         -0.0098 Ry au, 
 
        Potential amp.        0.9113 Ry
        Total length         46.3494 bohr
 

     total cpu time spent up to now is      617.7 secs

     total energy              =   -3022.32134408 Ry
     estimated scf accuracy    <    1157.49897242 Ry

     iteration # 21     ecut=    29.40 Ry     beta= 0.05
     Davidson diagonalization with overlap
     ethr =  4.39E-03,  avg # of iterations =  4.2

     negative rho (up, down):  4.519E-04 0.000E+00
 
     Adding external electric field

     Computed dipole along edir(3) : 
        Dipole               -4.4065 Ry au,        -11.2003 Debye
        Dipole field         -0.0083 Ry au, 
 
        Potential amp.        0.7709 Ry
        Total length         46.3494 bohr
 

     total cpu time spent up to now is      634.0 secs

     total energy              =   -3016.87223793 Ry
     estimated scf accuracy    <    1464.17255457 Ry

     iteration # 22     ecut=    29.40 Ry     beta= 0.05
     Davidson diagonalization with overlap
     ethr =  4.39E-03,  avg # of iterations =  1.5

     negative rho (up, down):  5.101E-04 0.000E+00
 
     Adding external electric field

     Computed dipole along edir(3) : 
        Dipole               -4.2072 Ry au,        -10.6937 Debye
        Dipole field         -0.0079 Ry au, 
 
        Potential amp.        0.7360 Ry
        Total length         46.3494 bohr
 

     total cpu time spent up to now is      648.4 secs

     total energy              =   -3009.00239311 Ry
     estimated scf accuracy    <    1161.28819881 Ry

     iteration # 23     ecut=    29.40 Ry     beta= 0.05
     Davidson diagonalization with overlap
     ethr =  4.39E-03,  avg # of iterations =  2.3

     negative rho (up, down):  4.170E-04 0.000E+00
 
     Adding external electric field

     Computed dipole along edir(3) : 
        Dipole               -2.8193 Ry au,         -7.1661 Debye
        Dipole field         -0.0053 Ry au, 
 
        Potential amp.        0.4932 Ry
        Total length         46.3494 bohr
 

     total cpu time spent up to now is      662.5 secs

     total energy              =   -3001.86795522 Ry
     estimated scf accuracy    <     528.31825495 Ry

     iteration # 24     ecut=    29.40 Ry     beta= 0.05
     Davidson diagonalization with overlap
     c_bands:  1 eigenvalues not converged
     c_bands:  2 eigenvalues not converged
     ethr =  4.39E-03,  avg # of iterations = 12.2

     negative rho (up, down):  5.611E-04 0.000E+00
 
     Adding external electric field

     Computed dipole along edir(3) : 
        Dipole               -3.4045 Ry au,         -8.6534 Debye
        Dipole field         -0.0064 Ry au, 
 
        Potential amp.        0.5956 Ry
        Total length         46.3494 bohr
 

     total cpu time spent up to now is      684.1 secs

     total energy              =   -3006.00521941 Ry
     estimated scf accuracy    <      69.31368609 Ry

     iteration # 25     ecut=    29.40 Ry     beta= 0.05
     Davidson diagonalization with overlap
     ethr =  4.39E-03,  avg # of iterations =  2.9

     negative rho (up, down):  5.785E-04 0.000E+00
 
     Adding external electric field

     Computed dipole along edir(3) : 
        Dipole               -3.5841 Ry au,         -9.1098 Debye
        Dipole field         -0.0068 Ry au, 
 
        Potential amp.        0.6270 Ry
        Total length         46.3494 bohr
 

     total cpu time spent up to now is      698.5 secs

     total energy              =   -3008.72480865 Ry
     estimated scf accuracy    <     124.98453019 Ry

     iteration # 26     ecut=    29.40 Ry     beta= 0.05
     Davidson diagonalization with overlap
     ethr =  4.39E-03,  avg # of iterations =  1.1

     negative rho (up, down):  6.463E-04 0.000E+00
 
     Adding external electric field

     Computed dipole along edir(3) : 
        Dipole               -1.0094 Ry au,         -2.5657 Debye
        Dipole field         -0.0019 Ry au, 
 
        Potential amp.        0.1766 Ry
        Total length         46.3494 bohr
 

     total cpu time spent up to now is      712.8 secs

     total energy              =   -3004.09041340 Ry
     estimated scf accuracy    <     368.85095395 Ry

     iteration # 27     ecut=    29.40 Ry     beta= 0.05
     Davidson diagonalization with overlap
     c_bands:  1 eigenvalues not converged
     ethr =  4.39E-03,  avg # of iterations = 13.1

     negative rho (up, down):  5.652E-04 0.000E+00
 
     Adding external electric field

     Computed dipole along edir(3) : 
        Dipole               -1.0083 Ry au,         -2.5628 Debye
        Dipole field         -0.0019 Ry au, 
 
        Potential amp.        0.1764 Ry
        Total length         46.3494 bohr
 

     total cpu time spent up to now is      733.0 secs

     total energy              =   -3005.89814919 Ry
     estimated scf accuracy    <      50.03865940 Ry

     iteration # 28     ecut=    29.40 Ry     beta= 0.05
     Davidson diagonalization with overlap
     ethr =  4.39E-03,  avg # of iterations =  4.2

     negative rho (up, down):  6.423E-04 0.000E+00
 
     Adding external electric field

     Computed dipole along edir(3) : 
        Dipole               -0.8591 Ry au,         -2.1837 Debye
        Dipole field         -0.0016 Ry au, 
 
        Potential amp.        0.1503 Ry
        Total length         46.3494 bohr
 

     total cpu time spent up to now is      749.2 secs

     total energy              =   -3006.53045401 Ry
     estimated scf accuracy    <      12.34140161 Ry

     iteration # 29     ecut=    29.40 Ry     beta= 0.05
     Davidson diagonalization with overlap
     ethr =  3.02E-03,  avg # of iterations =  5.3

     negative rho (up, down):  7.729E-04 0.000E+00
 
     Adding external electric field

     Computed dipole along edir(3) : 
        Dipole               -0.7677 Ry au,         -1.9512 Debye
        Dipole field         -0.0014 Ry au, 
 
        Potential amp.        0.1343 Ry
        Total length         46.3494 bohr
 

     total cpu time spent up to now is      764.7 secs

     total energy              =   -3006.20627450 Ry
     estimated scf accuracy    <      11.46105259 Ry

     iteration # 30     ecut=    29.40 Ry     beta= 0.05
     Davidson diagonalization with overlap
     ethr =  2.80E-03,  avg # of iterations =  1.1

     negative rho (up, down):  1.330E-03 0.000E+00
 
     Adding external electric field

     Computed dipole along edir(3) : 
        Dipole               -0.9585 Ry au,         -2.4362 Debye
        Dipole field         -0.0018 Ry au, 
 
        Potential amp.        0.1677 Ry
        Total length         46.3494 bohr
 

     total cpu time spent up to now is      778.7 secs

     total energy              =   -3005.97454447 Ry
     estimated scf accuracy    <       6.91837636 Ry

     iteration # 31     ecut=    29.40 Ry     beta= 0.05
     Davidson diagonalization with overlap
     ethr =  1.69E-03,  avg # of iterations =  5.9

     negative rho (up, down):  1.338E-03 0.000E+00
 
     Adding external electric field

     Computed dipole along edir(3) : 
        Dipole               -1.2061 Ry au,         -3.0656 Debye
        Dipole field         -0.0023 Ry au, 
 
        Potential amp.        0.2110 Ry
        Total length         46.3494 bohr
 

     total cpu time spent up to now is      795.0 secs

     total energy              =   -3006.36808041 Ry
     estimated scf accuracy    <       1.88968062 Ry

     iteration # 32     ecut=    29.40 Ry     beta= 0.05
     Davidson diagonalization with overlap
     c_bands:  3 eigenvalues not converged
     c_bands:  5 eigenvalues not converged
     c_bands:  1 eigenvalues not converged
     c_bands:  4 eigenvalues not converged
     c_bands:  2 eigenvalues not converged
     c_bands:  1 eigenvalues not converged
     c_bands:  1 eigenvalues not converged
     c_bands:  1 eigenvalues not converged
     c_bands:  2 eigenvalues not converged
     ethr =  4.62E-04,  avg # of iterations = 20.0

     negative rho (up, down):  1.119E-03 0.000E+00
 
     Adding external electric field

     Computed dipole along edir(3) : 
        Dipole               -1.0358 Ry au,         -2.6327 Debye
        Dipole field         -0.0020 Ry au, 
 
        Potential amp.        0.1812 Ry
        Total length         46.3494 bohr
 

     total cpu time spent up to now is      821.9 secs

     total energy              =   -3006.60337537 Ry
     estimated scf accuracy    <       1.08543162 Ry

     iteration # 33     ecut=    29.40 Ry     beta= 0.05
     Davidson diagonalization with overlap
     ethr =  2.65E-04,  avg # of iterations =  4.5

     negative rho (up, down):  7.793E-04 0.000E+00
 
     Adding external electric field

     Computed dipole along edir(3) : 
        Dipole               -0.4850 Ry au,         -1.2327 Debye
        Dipole field         -0.0009 Ry au, 
 
        Potential amp.        0.0848 Ry
        Total length         46.3494 bohr
 

     total cpu time spent up to now is      836.9 secs

     total energy              =   -3006.50685033 Ry
     estimated scf accuracy    <       0.91138795 Ry

     iteration # 34     ecut=    29.40 Ry     beta= 0.05
     Davidson diagonalization with overlap
     c_bands:  1 eigenvalues not converged
     c_bands:  3 eigenvalues not converged
     c_bands:  1 eigenvalues not converged
     c_bands:  2 eigenvalues not converged
     ethr =  2.23E-04,  avg # of iterations = 14.7

     negative rho (up, down):  8.115E-04 0.000E+00
 
     Adding external electric field

     Computed dipole along edir(3) : 
        Dipole               -0.3684 Ry au,         -0.9364 Debye
        Dipole field         -0.0007 Ry au, 
 
        Potential amp.        0.0644 Ry
        Total length         46.3494 bohr
 

     total cpu time spent up to now is      857.6 secs

     total energy              =   -3006.48422304 Ry
     estimated scf accuracy    <       0.47919604 Ry

     iteration # 35     ecut=    29.40 Ry     beta= 0.05
     Davidson diagonalization with overlap
     c_bands:  1 eigenvalues not converged
     c_bands:  2 eigenvalues not converged
     c_bands:  1 eigenvalues not converged
     ethr =  1.17E-04,  avg # of iterations = 17.7

     negative rho (up, down):  9.973E-04 0.000E+00
 
     Adding external electric field

     Computed dipole along edir(3) : 
        Dipole               -0.3363 Ry au,         -0.8547 Debye
        Dipole field         -0.0006 Ry au, 
 
        Potential amp.        0.0588 Ry
        Total length         46.3494 bohr
 

     total cpu time spent up to now is      881.4 secs

     total energy              =   -3006.52822429 Ry
     estimated scf accuracy    <       0.27673683 Ry

     iteration # 36     ecut=    29.40 Ry     beta= 0.05
     Davidson diagonalization with overlap
     c_bands:  2 eigenvalues not converged
     c_bands:  1 eigenvalues not converged
     c_bands:  1 eigenvalues not converged
     c_bands:  1 eigenvalues not converged
     ethr =  6.77E-05,  avg # of iterations = 15.5

     negative rho (up, down):  1.034E-03 0.000E+00
 
     Adding external electric field

     Computed dipole along edir(3) : 
        Dipole                0.2385 Ry au,          0.6061 Debye
        Dipole field          0.0004 Ry au, 
 
        Potential amp.       -0.0417 Ry
        Total length         46.3494 bohr
 

     total cpu time spent up to now is      904.3 secs

     total energy              =   -3006.51380655 Ry
     estimated scf accuracy    <       0.40508851 Ry

     iteration # 37     ecut=    29.40 Ry     beta= 0.05
     Davidson diagonalization with overlap
     ethr =  6.77E-05,  avg # of iterations =  6.5

     negative rho (up, down):  9.150E-04 0.000E+00
 
     Adding external electric field

     Computed dipole along edir(3) : 
        Dipole                0.7901 Ry au,          2.0083 Debye
        Dipole field          0.0015 Ry au, 
 
        Potential amp.       -0.1382 Ry
        Total length         46.3494 bohr
 

     total cpu time spent up to now is      921.2 secs

     total energy              =   -3006.49297448 Ry
     estimated scf accuracy    <       0.18765359 Ry

     iteration # 38     ecut=    29.40 Ry     beta= 0.05
     Davidson diagonalization with overlap
     c_bands:  2 eigenvalues not converged
     c_bands:  2 eigenvalues not converged
     c_bands:  2 eigenvalues not converged
     c_bands:  2 eigenvalues not converged
     c_bands:  1 eigenvalues not converged
     c_bands:  2 eigenvalues not converged
     c_bands:  1 eigenvalues not converged
     ethr =  4.59E-05,  avg # of iterations = 18.4

     negative rho (up, down):  9.603E-04 0.000E+00
 
     Adding external electric field

     Computed dipole along edir(3) : 
        Dipole                0.6671 Ry au,          1.6957 Debye
        Dipole field          0.0013 Ry au, 
 
        Potential amp.       -0.1167 Ry
        Total length         46.3494 bohr
 

     total cpu time spent up to now is      952.9 secs

     total energy              =   -3006.51852874 Ry
     estimated scf accuracy    <       0.40000029 Ry

     iteration # 39     ecut=    29.40 Ry     beta= 0.05
     Davidson diagonalization with overlap
     ethr =  4.59E-05,  avg # of iterations =  2.1

     negative rho (up, down):  1.387E-03 0.000E+00
 
     Adding external electric field

     Computed dipole along edir(3) : 
        Dipole                0.6123 Ry au,          1.5564 Debye
        Dipole field          0.0012 Ry au, 
 
        Potential amp.       -0.1071 Ry
        Total length         46.3494 bohr
 

     total cpu time spent up to now is      967.2 secs

     total energy              =   -3006.49227921 Ry
     estimated scf accuracy    <       0.21081338 Ry

     iteration # 40     ecut=    29.40 Ry     beta= 0.05
     Davidson diagonalization with overlap
     c_bands:  1 eigenvalues not converged
     c_bands:  5 eigenvalues not converged
     c_bands:  2 eigenvalues not converged
     c_bands:  3 eigenvalues not converged
     c_bands:  3 eigenvalues not converged
     c_bands:  1 eigenvalues not converged
     c_bands:  3 eigenvalues not converged
     ethr =  4.59E-05,  avg # of iterations = 19.5

     negative rho (up, down):  1.139E-03 0.000E+00
 
     Adding external electric field

     Computed dipole along edir(3) : 
        Dipole                1.0050 Ry au,          2.5545 Debye
        Dipole field          0.0019 Ry au, 
 
        Potential amp.       -0.1758 Ry
        Total length         46.3494 bohr
 

     total cpu time spent up to now is      998.1 secs

     total energy              =   -3006.47924183 Ry
     estimated scf accuracy    <       0.35886044 Ry

     iteration # 41     ecut=    29.40 Ry     beta= 0.05
     Davidson diagonalization with overlap
     c_bands:  3 eigenvalues not converged
     c_bands:  2 eigenvalues not converged
     c_bands:  1 eigenvalues not converged
     c_bands:  2 eigenvalues not converged
     c_bands:  3 eigenvalues not converged
     c_bands:  4 eigenvalues not converged
     c_bands:  1 eigenvalues not converged
     c_bands:  3 eigenvalues not converged
     c_bands:  1 eigenvalues not converged
     ethr =  4.59E-05,  avg # of iterations = 19.9

     negative rho (up, down):  1.525E-03 0.000E+00
 
     Adding external electric field

     Computed dipole along edir(3) : 
        Dipole                0.9839 Ry au,          2.5009 Debye
        Dipole field          0.0019 Ry au, 
 
        Potential amp.       -0.1721 Ry
        Total length         46.3494 bohr
 

     total cpu time spent up to now is     1025.5 secs

     total energy              =   -3006.50702069 Ry
     estimated scf accuracy    <       0.15301200 Ry

     iteration # 42     ecut=    29.40 Ry     beta= 0.05
     Davidson diagonalization with overlap
     c_bands:  1 eigenvalues not converged
     c_bands:  1 eigenvalues not converged
     c_bands:  1 eigenvalues not converged
     ethr =  3.74E-05,  avg # of iterations = 11.8

     negative rho (up, down):  1.661E-03 0.000E+00
 
     Adding external electric field

     Computed dipole along edir(3) : 
        Dipole                1.0262 Ry au,          2.6084 Debye
        Dipole field          0.0019 Ry au, 
 
        Potential amp.       -0.1795 Ry
        Total length         46.3494 bohr
 

     total cpu time spent up to now is     1044.1 secs

     total energy              =   -3006.51556464 Ry
     estimated scf accuracy    <       0.05570867 Ry

     iteration # 43     ecut=    29.40 Ry     beta= 0.05
     Davidson diagonalization with overlap
     ethr =  1.36E-05,  avg # of iterations = 13.1

     negative rho (up, down):  2.653E-03 0.000E+00
 
     Adding external electric field

     Computed dipole along edir(3) : 
        Dipole                1.0052 Ry au,          2.5549 Debye
        Dipole field          0.0019 Ry au, 
 
        Potential amp.       -0.1758 Ry
        Total length         46.3494 bohr
 

     total cpu time spent up to now is     1063.5 secs

     total energy              =   -3006.51837884 Ry
     estimated scf accuracy    <       0.01523716 Ry

     iteration # 44     ecut=    29.40 Ry     beta= 0.05
     Davidson diagonalization with overlap
     c_bands:  1 eigenvalues not converged
     c_bands:  1 eigenvalues not converged
     c_bands:  1 eigenvalues not converged
     c_bands:  2 eigenvalues not converged
     c_bands:  2 eigenvalues not converged
     c_bands:  2 eigenvalues not converged
     c_bands:  2 eigenvalues not converged
     c_bands:  1 eigenvalues not converged
     c_bands:  2 eigenvalues not converged
     ethr =  3.73E-06,  avg # of iterations = 19.4

     negative rho (up, down):  3.007E-03 0.000E+00
 
     Adding external electric field

     Computed dipole along edir(3) : 
        Dipole                1.0470 Ry au,          2.6613 Debye
        Dipole field          0.0020 Ry au, 
 
        Potential amp.       -0.1832 Ry
        Total length         46.3494 bohr
 

     total cpu time spent up to now is     1094.3 secs

     total energy              =   -3006.51840055 Ry
     estimated scf accuracy    <       0.01458828 Ry

     iteration # 45     ecut=    29.40 Ry     beta= 0.05
     Davidson diagonalization with overlap
     c_bands:  1 eigenvalues not converged
     c_bands:  1 eigenvalues not converged
     c_bands:  1 eigenvalues not converged
     c_bands:  2 eigenvalues not converged
     ethr =  3.57E-06,  avg # of iterations = 17.3

     negative rho (up, down):  3.064E-03 0.000E+00
 
     Adding external electric field

     Computed dipole along edir(3) : 
        Dipole                1.0413 Ry au,          2.6468 Debye
        Dipole field          0.0020 Ry au, 
 
        Potential amp.       -0.1822 Ry
        Total length         46.3494 bohr
 

     total cpu time spent up to now is     1119.0 secs

     total energy              =   -3006.51912149 Ry
     estimated scf accuracy    <       0.03078268 Ry

     iteration # 46     ecut=    29.40 Ry     beta= 0.05
     Davidson diagonalization with overlap
     c_bands:  1 eigenvalues not converged
     ethr =  3.57E-06,  avg # of iterations =  7.4

     negative rho (up, down):  5.071E-03 0.000E+00
 
     Adding external electric field

     Computed dipole along edir(3) : 
        Dipole                1.0728 Ry au,          2.7268 Debye
        Dipole field          0.0020 Ry au, 
 
        Potential amp.       -0.1877 Ry
        Total length         46.3494 bohr
 

     total cpu time spent up to now is     1135.6 secs

     total energy              =   -3006.51985564 Ry
     estimated scf accuracy    <       0.00428152 Ry

     iteration # 47     ecut=    29.40 Ry     beta= 0.05
     Davidson diagonalization with overlap
     c_bands:  2 eigenvalues not converged
     c_bands:  3 eigenvalues not converged
     c_bands:  5 eigenvalues not converged
     c_bands:  3 eigenvalues not converged
     c_bands:  2 eigenvalues not converged
     c_bands:  1 eigenvalues not converged
     c_bands:  2 eigenvalues not converged
     c_bands:  1 eigenvalues not converged
     ethr =  1.05E-06,  avg # of iterations = 19.7

     negative rho (up, down):  5.949E-03 0.000E+00
 
     Adding external electric field

     Computed dipole along edir(3) : 
        Dipole                1.0516 Ry au,          2.6729 Debye
        Dipole field          0.0020 Ry au, 
 
        Potential amp.       -0.1840 Ry
        Total length         46.3494 bohr
 

     total cpu time spent up to now is     1171.0 secs

     total energy              =   -3006.51968655 Ry
     estimated scf accuracy    <       0.03024009 Ry

     iteration # 48     ecut=    29.40 Ry     beta= 0.05
     Davidson diagonalization with overlap
     c_bands:  1 eigenvalues not converged
     c_bands:  1 eigenvalues not converged
     c_bands:  1 eigenvalues not converged
     c_bands:  3 eigenvalues not converged
     c_bands:  1 eigenvalues not converged
     c_bands:  2 eigenvalues not converged
     ethr =  1.05E-06,  avg # of iterations = 17.0

     negative rho (up, down):  6.848E-03 0.000E+00
 
     Adding external electric field

     Computed dipole along edir(3) : 
        Dipole                1.0173 Ry au,          2.5857 Debye
        Dipole field          0.0019 Ry au, 
 
        Potential amp.       -0.1780 Ry
        Total length         46.3494 bohr
 

     total cpu time spent up to now is     1198.9 secs

     total energy              =   -3006.52046373 Ry
     estimated scf accuracy    <       0.00251840 Ry

     iteration # 49     ecut=    29.40 Ry     beta= 0.05
     Davidson diagonalization with overlap
     c_bands:  1 eigenvalues not converged
     c_bands:  1 eigenvalues not converged
     c_bands:  1 eigenvalues not converged
     ethr =  6.16E-07,  avg # of iterations = 16.2

     negative rho (up, down):  7.344E-03 0.000E+00
 
     Adding external electric field

     Computed dipole along edir(3) : 
        Dipole                1.0271 Ry au,          2.6105 Debye
        Dipole field          0.0019 Ry au, 
 
        Potential amp.       -0.1797 Ry
        Total length         46.3494 bohr
 

     total cpu time spent up to now is     1226.4 secs

     total energy              =   -3006.52099315 Ry
     estimated scf accuracy    <       0.00120720 Ry

     iteration # 50     ecut=    29.40 Ry     beta= 0.05
     Davidson diagonalization with overlap
     ethr =  2.95E-07,  avg # of iterations =  1.6

     negative rho (up, down):  8.601E-03 0.000E+00
 
     Adding external electric field

     Computed dipole along edir(3) : 
        Dipole                1.0547 Ry au,          2.6809 Debye
        Dipole field          0.0020 Ry au, 
 
        Potential amp.       -0.1845 Ry
        Total length         46.3494 bohr
 

     total cpu time spent up to now is     1240.6 secs

     total energy              =   -3006.52095790 Ry
     estimated scf accuracy    <       0.00099558 Ry

     iteration # 51     ecut=    29.40 Ry     beta= 0.05
     Davidson diagonalization with overlap
     ethr =  2.43E-07,  avg # of iterations = 14.0

     negative rho (up, down):  9.259E-03 0.000E+00
 
     Adding external electric field

     Computed dipole along edir(3) : 
        Dipole                1.0322 Ry au,          2.6235 Debye
        Dipole field          0.0019 Ry au, 
 
        Potential amp.       -0.1806 Ry
        Total length         46.3494 bohr
 

     total cpu time spent up to now is     1265.7 secs

     total energy              =   -3006.52107947 Ry
     estimated scf accuracy    <       0.00049798 Ry

     iteration # 52     ecut=    29.40 Ry     beta= 0.05
     Davidson diagonalization with overlap
     ethr =  1.22E-07,  avg # of iterations = 13.4

     negative rho (up, down):  1.030E-02 0.000E+00
 
     Adding external electric field

     Computed dipole along edir(3) : 
        Dipole                1.0484 Ry au,          2.6648 Debye
        Dipole field          0.0020 Ry au, 
 
        Potential amp.       -0.1834 Ry
        Total length         46.3494 bohr
 

     total cpu time spent up to now is     1288.9 secs

     total energy              =   -3006.52113365 Ry
     estimated scf accuracy    <       0.00046579 Ry

     iteration # 53     ecut=    29.40 Ry     beta= 0.05
     Davidson diagonalization with overlap
     ethr =  1.14E-07,  avg # of iterations = 12.6

     negative rho (up, down):  1.056E-02 0.000E+00
 
     Adding external electric field

     Computed dipole along edir(3) : 
        Dipole                1.0394 Ry au,          2.6418 Debye
        Dipole field          0.0020 Ry au, 
 
        Potential amp.       -0.1818 Ry
        Total length         46.3494 bohr
 

     total cpu time spent up to now is     1310.3 secs

     total energy              =   -3006.52116699 Ry
     estimated scf accuracy    <       0.00019695 Ry

     iteration # 54     ecut=    29.40 Ry     beta= 0.05
     Davidson diagonalization with overlap
     ethr =  4.82E-08,  avg # of iterations =  6.0

     negative rho (up, down):  1.025E-02 0.000E+00
 
     Adding external electric field

     Computed dipole along edir(3) : 
        Dipole                1.0154 Ry au,          2.5809 Debye
        Dipole field          0.0019 Ry au, 
 
        Potential amp.       -0.1776 Ry
        Total length         46.3494 bohr
 

     total cpu time spent up to now is     1328.4 secs

     total energy              =   -3006.52114182 Ry
     estimated scf accuracy    <       0.00015511 Ry

     iteration # 55     ecut=    29.40 Ry     beta= 0.05
     Davidson diagonalization with overlap
     ethr =  3.79E-08,  avg # of iterations =  9.7

     negative rho (up, down):  1.042E-02 0.000E+00
 
     Adding external electric field

     Computed dipole along edir(3) : 
        Dipole                1.0018 Ry au,          2.5463 Debye
        Dipole field          0.0019 Ry au, 
 
        Potential amp.       -0.1752 Ry
        Total length         46.3494 bohr
 

     total cpu time spent up to now is     1347.5 secs

     total energy              =   -3006.52115742 Ry
     estimated scf accuracy    <       0.00004655 Ry

     iteration # 56     ecut=    29.40 Ry     beta= 0.05
     Davidson diagonalization with overlap
     c_bands:  1 eigenvalues not converged
     c_bands:  1 eigenvalues not converged
     ethr =  1.14E-08,  avg # of iterations = 14.4

     negative rho (up, down):  1.065E-02 0.000E+00
 
     Adding external electric field

     Computed dipole along edir(3) : 
        Dipole                1.0096 Ry au,          2.5663 Debye
        Dipole field          0.0019 Ry au, 
 
        Potential amp.       -0.1766 Ry
        Total length         46.3494 bohr
 

     total cpu time spent up to now is     1374.6 secs

     total energy              =   -3006.52117323 Ry
     estimated scf accuracy    <       0.00009154 Ry

     iteration # 57     ecut=    29.40 Ry     beta= 0.05
     Davidson diagonalization with overlap
     ethr =  1.14E-08,  avg # of iterations = 13.1

     negative rho (up, down):  1.071E-02 0.000E+00
 
     Adding external electric field

     Computed dipole along edir(3) : 
        Dipole                1.0023 Ry au,          2.5475 Debye
        Dipole field          0.0019 Ry au, 
 
        Potential amp.       -0.1753 Ry
        Total length         46.3494 bohr
 

     total cpu time spent up to now is     1400.2 secs

     total energy              =   -3006.52119372 Ry
     estimated scf accuracy    <       0.00002112 Ry

     iteration # 58     ecut=    29.40 Ry     beta= 0.05
     Davidson diagonalization with overlap
     c_bands:  1 eigenvalues not converged
     ethr =  5.16E-09,  avg # of iterations = 13.7

     negative rho (up, down):  1.060E-02 0.000E+00
 
     Adding external electric field

     Computed dipole along edir(3) : 
        Dipole                0.9979 Ry au,          2.5364 Debye
        Dipole field          0.0019 Ry au, 
 
        Potential amp.       -0.1746 Ry
        Total length         46.3494 bohr
 

     total cpu time spent up to now is     1423.0 secs

     total energy              =   -3006.52120650 Ry
     estimated scf accuracy    <       0.00000546 Ry

     iteration # 59     ecut=    29.40 Ry     beta= 0.05
     Davidson diagonalization with overlap
     ethr =  1.33E-09,  avg # of iterations =  9.5

     negative rho (up, down):  1.068E-02 0.000E+00
 
     Adding external electric field

     Computed dipole along edir(3) : 
        Dipole                0.9983 Ry au,          2.5374 Debye
        Dipole field          0.0019 Ry au, 
 
        Potential amp.       -0.1746 Ry
        Total length         46.3494 bohr
 

     total cpu time spent up to now is     1446.8 secs

     total energy              =   -3006.52121792 Ry
     estimated scf accuracy    <       0.00000316 Ry

     iteration # 60     ecut=    29.40 Ry     beta= 0.05
     Davidson diagonalization with overlap
     ethr =  7.72E-10,  avg # of iterations =  1.8

     negative rho (up, down):  1.086E-02 0.000E+00
 
     Adding external electric field

     Computed dipole along edir(3) : 
        Dipole                0.9982 Ry au,          2.5372 Debye
        Dipole field          0.0019 Ry au, 
 
        Potential amp.       -0.1746 Ry
        Total length         46.3494 bohr
 

     total cpu time spent up to now is     1461.6 secs

     total energy              =   -3006.52122768 Ry
     estimated scf accuracy    <       0.00000244 Ry

     iteration # 61     ecut=    29.40 Ry     beta= 0.05
     Davidson diagonalization with overlap
     ethr =  5.97E-10,  avg # of iterations = 11.3

     negative rho (up, down):  1.086E-02 0.000E+00
 
     Adding external electric field

     Computed dipole along edir(3) : 
        Dipole                0.9973 Ry au,          2.5350 Debye
        Dipole field          0.0019 Ry au, 
 
        Potential amp.       -0.1745 Ry
        Total length         46.3494 bohr
 

     total cpu time spent up to now is     1481.7 secs

     total energy              =   -3006.52123609 Ry
     estimated scf accuracy    <       0.00000147 Ry

     iteration # 62     ecut=    29.40 Ry     beta= 0.05
     Davidson diagonalization with overlap
     ethr =  3.60E-10,  avg # of iterations =  6.6

     negative rho (up, down):  1.081E-02 0.000E+00
 
     Adding external electric field

     Computed dipole along edir(3) : 
        Dipole                0.9960 Ry au,          2.5317 Debye
        Dipole field          0.0019 Ry au, 
 
        Potential amp.       -0.1742 Ry
        Total length         46.3494 bohr
 

     total cpu time spent up to now is     1498.3 secs

     total energy              =   -3006.52124358 Ry
     estimated scf accuracy    <       0.00000101 Ry

     iteration # 63     ecut=    29.40 Ry     beta= 0.05
     Davidson diagonalization with overlap
     ethr =  2.47E-10,  avg # of iterations = 13.0

     negative rho (up, down):  1.087E-02 0.000E+00
 
     Adding external electric field

     Computed dipole along edir(3) : 
        Dipole                0.9966 Ry au,          2.5332 Debye
        Dipole field          0.0019 Ry au, 
 
        Potential amp.       -0.1743 Ry
        Total length         46.3494 bohr
 

     total cpu time spent up to now is     1524.1 secs

     total energy              =   -3006.52125033 Ry
     estimated scf accuracy    <       0.00000104 Ry

     iteration # 64     ecut=    29.40 Ry     beta= 0.05
     Davidson diagonalization with overlap
     ethr =  2.47E-10,  avg # of iterations = 10.7

     negative rho (up, down):  1.086E-02 0.000E+00
 
     Adding external electric field

     Computed dipole along edir(3) : 
        Dipole                0.9960 Ry au,          2.5316 Debye
        Dipole field          0.0019 Ry au, 
 
        Potential amp.       -0.1742 Ry
        Total length         46.3494 bohr
 

     total cpu time spent up to now is     1546.3 secs

     total energy              =   -3006.52125650 Ry
     estimated scf accuracy    <       0.00000026 Ry

     iteration # 65     ecut=    29.40 Ry     beta= 0.05
     Davidson diagonalization with overlap
     ethr =  6.28E-11,  avg # of iterations = 12.4

     negative rho (up, down):  1.086E-02 0.000E+00
 
     Adding external electric field

     Computed dipole along edir(3) : 
        Dipole                0.9958 Ry au,          2.5311 Debye
        Dipole field          0.0019 Ry au, 
 
        Potential amp.       -0.1742 Ry
        Total length         46.3494 bohr
 

     total cpu time spent up to now is     1571.5 secs

     total energy              =   -3006.52126203 Ry
     estimated scf accuracy    <       0.00000014 Ry

     iteration # 66     ecut=    29.40 Ry     beta= 0.05
     Davidson diagonalization with overlap
     ethr =  3.30E-11,  avg # of iterations =  4.4

     negative rho (up, down):  1.087E-02 0.000E+00
 
     Adding external electric field

     Computed dipole along edir(3) : 
        Dipole                0.9956 Ry au,          2.5306 Debye
        Dipole field          0.0019 Ry au, 
 
        Potential amp.       -0.1742 Ry
        Total length         46.3494 bohr
 

     total cpu time spent up to now is     1587.2 secs

     total energy              =   -3006.52126697 Ry
     estimated scf accuracy    <       0.00000010 Ry

     iteration # 67     ecut=    29.40 Ry     beta= 0.05
     Davidson diagonalization with overlap
     c_bands:  1 eigenvalues not converged
     ethr =  2.50E-11,  avg # of iterations = 14.9

     negative rho (up, down):  1.086E-02 0.000E+00
 
     Adding external electric field

     Computed dipole along edir(3) : 
        Dipole                0.9959 Ry au,          2.5312 Debye
        Dipole field          0.0019 Ry au, 
 
        Potential amp.       -0.1742 Ry
        Total length         46.3494 bohr
 

     total cpu time spent up to now is     1616.7 secs

     total energy              =   -3006.52127144 Ry
     estimated scf accuracy    <       0.00000008 Ry

     iteration # 68     ecut=    29.40 Ry     beta= 0.05
     Davidson diagonalization with overlap
     ethr =  2.03E-11,  avg # of iterations = 12.9

     negative rho (up, down):  1.093E-02 0.000E+00
 
     Adding external electric field

     Computed dipole along edir(3) : 
        Dipole                0.9954 Ry au,          2.5301 Debye
        Dipole field          0.0019 Ry au, 
 
        Potential amp.       -0.1741 Ry
        Total length         46.3494 bohr
 

     total cpu time spent up to now is     1639.5 secs

     End of self-consistent calculation

          k = 0.0000 0.0000 0.0000 ( 18029 PWs)   bands (ev):

   -55.2862 -55.2518 -55.2503 -55.2155 -55.1928 -55.1779 -55.1697 -55.1341
   -55.0833 -55.0650 -55.0498 -55.0417 -55.0078 -54.9540 -54.2930 -54.2589
   -31.8088 -31.7554 -31.6790 -31.6468 -31.6252 -31.5779 -31.5607 -31.5574
   -31.5210 -31.5159 -31.4794 -31.4657 -31.4592 -31.4503 -31.4459 -31.4332
   -31.4274 -31.3909 -31.3857 -31.3777 -31.3739 -31.3552 -31.3508 -31.3420
   -31.3343 -31.3279 -31.3124 -31.2907 -31.2804 -31.2749 -31.2716 -31.2645
   -31.2611 -31.2457 -31.2330 -31.2230 -31.2210 -31.1863 -31.1714 -31.1509
   -31.1386 -31.1373 -30.7022 -30.6064 -30.5840 -30.5188 -30.4328 -30.3216
   -21.4234 -18.7336 -17.1989 -16.0011 -15.7305 -15.5702 -15.4392 -15.4040
   -15.2170 -15.0953 -14.9627 -14.9386 -14.8847 -14.8574 -14.8231 -14.8124
   -14.8074 -14.7953 -14.7870 -14.7405 -14.7060 -14.6884 -14.6879 -14.6645
   -14.6159 -14.5622 -14.4973 -14.4325 -14.4037 -14.3619 -14.2928 -14.2847
   -12.7936 -12.6757  -9.1151  -6.6004  -6.5268  -4.5618  -4.5507  -3.9201
    -3.7490  -3.4682  -3.3647  -3.2843  -3.2128  -3.1905  -3.1688  -3.0934
    -2.9819  -2.8465  -2.7508  -2.5116  -2.4564  -2.4136  -2.3820  -2.3530
    -2.1962  -2.1711  -2.1027  -2.0916  -2.0828  -2.0721  -2.0452  -2.0161
    -1.9904  -1.9588  -1.8993  -1.8758  -1.8048  -1.6741  -1.6655  -1.6335
    -1.5869  -1.5707  -1.5690  -1.5424  -1.4984  -1.4795  -1.4548  -1.4495
    -1.3526  -1.2598  -1.2173  -1.1222  -1.0434  -0.9705  -0.8480  -0.8094
    -0.7363  -0.7032  -0.6867  -0.6331  -0.5840  -0.5735  -0.5151  -0.4682
    -0.3605  -0.3160  -0.2760  -0.2382  -0.1877  -0.1434  -0.0727  -0.0393
    -0.0069  -0.0024   0.0188   0.2171   0.2284   0.2796   0.2924   0.3895
     0.4420   0.4766   0.4899   0.4990   0.5369   0.6124   0.6681   0.6766
     0.7084   0.7441   0.7636   0.8096   0.8503   0.9030   0.9325   0.9670
     1.0338   1.0740   1.2282   1.3223   1.3669   1.4828   1.6398   1.7312
     1.8049   1.9052   2.3179   2.3752   3.8952   3.9292   3.9560   3.9742
     4.0424   4.1413   4.2579   4.3488   4.3583   4.3888

          k = 0.0000 0.0419 0.0000 ( 17933 PWs)   bands (ev):

   -55.2815 -55.2548 -55.2466 -55.2206 -55.1914 -55.1766 -55.1654 -55.1384
   -55.0846 -55.0635 -55.0508 -55.0368 -55.0126 -54.9552 -54.2879 -54.2638
   -31.7515 -31.7015 -31.6357 -31.5943 -31.5737 -31.5724 -31.5479 -31.5433
   -31.4859 -31.4845 -31.4742 -31.4663 -31.4660 -31.4409 -31.4372 -31.4341
   -31.4321 -31.4211 -31.4187 -31.4034 -31.3730 -31.3646 -31.3605 -31.3487
   -31.3375 -31.3211 -31.3164 -31.3150 -31.2897 -31.2861 -31.2807 -31.2765
   -31.2719 -31.2652 -31.2644 -31.2368 -31.2330 -31.2074 -31.1956 -31.1905
   -31.1717 -31.1342 -30.6482 -30.6029 -30.5870 -30.5063 -30.4453 -30.3787
   -21.4233 -18.7333 -17.1842 -15.8673 -15.6104 -15.4627 -15.3467 -15.2987
   -15.1766 -15.1219 -15.0361 -14.9297 -14.9153 -14.8749 -14.8565 -14.8087
   -14.8023 -14.7821 -14.7660 -14.7482 -14.7334 -14.7265 -14.6954 -14.6795
   -14.6092 -14.6011 -14.5490 -14.4896 -14.4626 -14.4228 -14.3649 -14.3403
   -12.7970 -12.7148  -9.1163  -6.6000  -6.5268  -4.5610  -4.5544  -3.8729
    -3.7307  -3.4731  -3.2800  -3.1876  -3.0704  -3.0315  -3.0005  -2.9685
    -2.9006  -2.6918  -2.5372  -2.4747  -2.4386  -2.3357  -2.2995  -2.2697
    -2.2569  -2.2095  -2.1919  -2.1861  -2.1719  -2.1476  -2.1158  -2.0430
    -2.0334  -2.0156  -2.0008  -1.9698  -1.9627  -1.8469  -1.7898  -1.7566
    -1.7459  -1.6753  -1.6713  -1.5498  -1.5368  -1.4978  -1.4208  -1.3646
    -1.2756  -1.1355  -1.0482  -1.0166  -0.9588  -0.9467  -0.9139  -0.7200
    -0.6480  -0.6372  -0.5388  -0.5187  -0.4731  -0.4143  -0.4064  -0.3236
    -0.2959  -0.2770  -0.2330  -0.2136  -0.1716  -0.1450  -0.0937  -0.0560
    -0.0254   0.0116   0.0812   0.1235   0.1723   0.2142   0.2307   0.2809
     0.3201   0.3953   0.4118   0.4361   0.4824   0.5352   0.5476   0.5903
     0.6005   0.6116   0.6515   0.7323   0.8026   0.8347   0.8927   0.9214
     1.0233   1.0429   1.0977   1.1211   1.1525   1.3415   1.3979   1.6848
     1.9203   1.9944   2.2664   2.2878   4.0595   4.0750   4.1493   4.1624
     4.2237   4.2626   4.2762   4.2897   4.3700   4.4146

          k = 0.0000-0.0839 0.0000 ( 17884 PWs)   bands (ev):

   -55.2740 -55.2623 -55.2359 -55.2313 -55.1899 -55.1754 -55.1589 -55.1448
   -55.0859 -55.0621 -55.0518 -55.0270 -55.0225 -54.9565 -54.2764 -54.2753
   -31.6201 -31.6035 -31.5768 -31.5761 -31.5654 -31.5636 -31.5472 -31.5136
   -31.5073 -31.4809 -31.4739 -31.4589 -31.4408 -31.4375 -31.4329 -31.4309
   -31.4276 -31.4082 -31.4022 -31.4012 -31.3946 -31.3825 -31.3752 -31.3693
   -31.3630 -31.3383 -31.3321 -31.3296 -31.3239 -31.3156 -31.2948 -31.2896
   -31.2879 -31.2762 -31.2751 -31.2724 -31.2623 -31.2536 -31.2344 -31.1925
   -31.1820 -31.1314 -30.5954 -30.5941 -30.5157 -30.5148 -30.4763 -30.4753
   -21.4233 -18.7330 -17.1696 -15.5518 -15.5067 -15.3337 -15.3081 -15.1994
   -15.1862 -15.1064 -15.0945 -15.0545 -15.0370 -14.9535 -14.9105 -14.8015
   -14.7868 -14.7808 -14.7188 -14.7061 -14.6833 -14.6818 -14.6671 -14.6339
   -14.6220 -14.6075 -14.6028 -14.5904 -14.5204 -14.4972 -14.4757 -14.4732
   -12.7784 -12.7766  -9.1174  -6.5996  -6.5267  -4.5605  -4.5582  -3.8252
    -3.7193  -3.4792  -3.2749  -3.0288  -2.7639  -2.7002  -2.6662  -2.6395
    -2.6147  -2.5982  -2.5883  -2.5602  -2.5483  -2.5109  -2.4289  -2.3916
    -2.3742  -2.3265  -2.3210  -2.2512  -2.2064  -2.1855  -2.1510  -2.1219
    -2.0881  -2.0549  -2.0444  -1.9911  -1.9500  -1.9144  -1.8902  -1.8477
    -1.7927  -1.6280  -1.6092  -1.5931  -1.3783  -1.3262  -1.2142  -1.1938
    -1.1651  -1.1528  -1.0110  -0.9833  -0.9384  -0.9127  -0.7560  -0.7372
    -0.6947  -0.6817  -0.6747  -0.6368  -0.5919  -0.5623  -0.5345  -0.5009
    -0.3332  -0.3051  -0.2019  -0.0989  -0.0743   0.0083   0.0411   0.0687
     0.1053   0.1088   0.1250   0.1780   0.2089   0.2420   0.2644   0.2906
     0.2972   0.3107   0.3147   0.3302   0.3933   0.4129   0.4609   0.4773
     0.5229   0.5361   0.5555   0.5651   0.6359   0.6658   0.7317   0.7762
     0.9390   0.9498   0.9574   0.9734   1.2981   1.3216   1.4138   1.4623
     2.0564   2.0595   2.2072   2.2101   4.1461   4.2012   4.2148   4.2477
     4.2891   4.3128   4.4300   4.4387   4.4767   4.4923

          k = 0.0380 0.0000 0.0000 ( 17913 PWs)   bands (ev):

   -55.2861 -55.2517 -55.2502 -55.2154 -55.1925 -55.1779 -55.1697 -55.1340
   -55.0832 -55.0647 -55.0497 -55.0417 -55.0077 -54.9539 -54.2929 -54.2588
   -31.8090 -31.7563 -31.6792 -31.6514 -31.6286 -31.5778 -31.5607 -31.5572
   -31.5245 -31.5162 -31.4661 -31.4606 -31.4582 -31.4429 -31.4350 -31.4331
   -31.4272 -31.3863 -31.3842 -31.3774 -31.3738 -31.3629 -31.3600 -31.3506
   -31.3340 -31.3117 -31.3093 -31.2898 -31.2808 -31.2732 -31.2709 -31.2644
   -31.2610 -31.2509 -31.2321 -31.2292 -31.2244 -31.1854 -31.1711 -31.1491
   -31.1438 -31.1394 -30.7017 -30.6098 -30.5820 -30.5186 -30.4326 -30.3214
   -21.4233 -18.7333 -17.1972 -15.9262 -15.6400 -15.4916 -15.4442 -15.3171
   -15.2264 -15.1445 -15.0025 -14.9801 -14.9747 -14.9646 -14.9309 -14.9073
   -14.8344 -14.8303 -14.7890 -14.7436 -14.6916 -14.6530 -14.6179 -14.5535
   -14.5447 -14.5172 -14.5121 -14.4771 -14.4044 -14.3691 -14.3550 -14.2911
   -12.7903 -12.6754  -9.1150  -6.6011  -6.5215  -4.5625  -4.5505  -3.9025
    -3.7449  -3.5147  -3.2857  -3.2784  -3.0255  -2.9889  -2.9334  -2.9143
    -2.8963  -2.7749  -2.7432  -2.7149  -2.5065  -2.4762  -2.4358  -2.3693
    -2.3583  -2.2773  -2.1207  -2.1087  -2.0942  -2.0106  -1.9616  -1.9494
    -1.8977  -1.8581  -1.8356  -1.8145  -1.7922  -1.6929  -1.6278  -1.6217
    -1.5481  -1.5369  -1.5251  -1.4799  -1.4161  -1.3629  -1.3013  -1.2682
    -1.2575  -1.2383  -1.2010  -1.0942  -1.0473  -0.9627  -0.9298  -0.8332
    -0.7752  -0.7231  -0.7115  -0.6743  -0.6620  -0.6386  -0.5607  -0.5299
    -0.4968  -0.4698  -0.3654  -0.2970  -0.1872  -0.1390  -0.0753  -0.0519
    -0.0232   0.0276   0.0942   0.1152   0.1880   0.2243   0.2951   0.3579
     0.4139   0.4265   0.4349   0.4544   0.4823   0.5201   0.5715   0.5844
     0.6163   0.6283   0.7216   0.7544   0.7919   0.8506   0.8923   0.9301
     0.9882   1.0109   1.0458   1.1171   1.3662   1.4091   1.6428   1.6751
     1.7431   1.8732   2.2018   2.2877   3.9415   3.9885   4.1526   4.1767
     4.2094   4.2245   4.2418   4.2776   4.3504   4.3807

          k = 0.0380 0.0419 0.0000 ( 17878 PWs)   bands (ev):

   -55.2815 -55.2548 -55.2464 -55.2206 -55.1912 -55.1767 -55.1655 -55.1383
   -55.0845 -55.0634 -55.0508 -55.0368 -55.0126 -54.9552 -54.2878 -54.2638
   -31.7517 -31.7024 -31.6360 -31.5995 -31.5773 -31.5722 -31.5480 -31.5432
   -31.4862 -31.4847 -31.4746 -31.4698 -31.4504 -31.4373 -31.4344 -31.4294
   -31.4272 -31.4210 -31.4187 -31.3937 -31.3730 -31.3643 -31.3643 -31.3592
   -31.3449 -31.3198 -31.3192 -31.2986 -31.2867 -31.2847 -31.2835 -31.2758
   -31.2720 -31.2660 -31.2645 -31.2421 -31.2335 -31.2060 -31.2018 -31.1906
   -31.1717 -31.1403 -30.6478 -30.6056 -30.5860 -30.5061 -30.4453 -30.3786
   -21.4233 -18.7331 -17.1831 -15.7988 -15.5261 -15.3936 -15.3431 -15.2181
   -15.1820 -15.1226 -15.0712 -14.9853 -14.9669 -14.9213 -14.8913 -14.8827
   -14.8557 -14.8041 -14.7838 -14.7350 -14.7305 -14.7065 -14.6603 -14.6213
   -14.5922 -14.5881 -14.5659 -14.5305 -14.4790 -14.4190 -14.4134 -14.3625
   -12.7946 -12.7151  -9.1160  -6.6007  -6.5227  -4.5619  -4.5542  -3.8650
    -3.7247  -3.4957  -3.2775  -3.1308  -2.9709  -2.8427  -2.7707  -2.7562
    -2.7238  -2.6229  -2.5601  -2.5239  -2.4210  -2.3377  -2.3020  -2.2606
    -2.2349  -2.2228  -2.1683  -2.1472  -2.1309  -2.0956  -2.0674  -2.0274
    -2.0215  -2.0074  -1.9796  -1.9342  -1.8891  -1.8538  -1.7878  -1.7540
    -1.7159  -1.6258  -1.5972  -1.5411  -1.4733  -1.4335  -1.3346  -1.3007
    -1.2591  -1.2091  -1.0684  -1.0225  -0.9806  -0.9100  -0.8070  -0.7455
    -0.7178  -0.7026  -0.6206  -0.5922  -0.5453  -0.5206  -0.4985  -0.4497
    -0.3878  -0.3421  -0.3010  -0.2629  -0.2101  -0.1892  -0.1369  -0.1033
    -0.0518  -0.0189   0.0066   0.0446   0.0659   0.1053   0.1459   0.1793
     0.2268   0.2601   0.2849   0.3082   0.3768   0.4147   0.4522   0.4977
     0.5430   0.6012   0.6371   0.7205   0.8442   0.8704   0.9114   0.9488
     1.0203   1.0401   1.0692   1.1123   1.1809   1.2881   1.3535   1.6264
     1.9327   1.9988   2.1880   2.2637   4.0521   4.1509   4.1764   4.1884
     4.2711   4.3078   4.3410   4.3846   4.4002   4.4308

          k = 0.0380-0.0839 0.0000 ( 17916 PWs)   bands (ev):

   -55.2740 -55.2623 -55.2359 -55.2312 -55.1898 -55.1756 -55.1590 -55.1449
   -55.0859 -55.0620 -55.0519 -55.0270 -55.0225 -54.9565 -54.2764 -54.2753
   -31.6204 -31.6039 -31.5775 -31.5766 -31.5657 -31.5642 -31.5473 -31.5140
   -31.5075 -31.4845 -31.4839 -31.4707 -31.4416 -31.4314 -31.4205 -31.4168
   -31.4119 -31.4056 -31.4016 -31.4010 -31.3934 -31.3886 -31.3750 -31.3664
   -31.3570 -31.3449 -31.3404 -31.3391 -31.3340 -31.3167 -31.2910 -31.2856
   -31.2762 -31.2752 -31.2734 -31.2721 -31.2626 -31.2427 -31.2417 -31.2037
   -31.1820 -31.1389 -30.5964 -30.5950 -30.5156 -30.5147 -30.4763 -30.4753
   -21.4233 -18.7328 -17.1690 -15.5135 -15.4510 -15.2766 -15.2464 -15.1623
   -15.1344 -15.1101 -15.0879 -15.0216 -15.0037 -14.9509 -14.9410 -14.8207
   -14.8125 -14.7917 -14.7795 -14.7486 -14.7065 -14.7009 -14.6751 -14.6684
   -14.6537 -14.6474 -14.6411 -14.5749 -14.5420 -14.5208 -14.5089 -14.4747
   -12.7782 -12.7763  -9.1172  -6.6004  -6.5234  -4.5613  -4.5581  -3.8272
    -3.7135  -3.4869  -3.2729  -3.0140  -2.7547  -2.5864  -2.5075  -2.4644
    -2.4535  -2.4251  -2.4161  -2.4028  -2.3570  -2.3442  -2.3375  -2.3188
    -2.2921  -2.2677  -2.2363  -2.2094  -2.1471  -2.1257  -2.1124  -2.0727
    -2.0548  -2.0482  -2.0290  -2.0086  -1.9505  -1.9352  -1.8791  -1.8256
    -1.8006  -1.6839  -1.4370  -1.4249  -1.3780  -1.3031  -1.2355  -1.1859
    -1.1653  -1.1490  -1.1156  -1.0718  -1.0414  -1.0310  -0.9909  -0.9391
    -0.9072  -0.8604  -0.8264  -0.7873  -0.7627  -0.5846  -0.4637  -0.4248
    -0.3838  -0.3371  -0.2720  -0.2406  -0.2153  -0.1879  -0.1310  -0.0607
    -0.0438  -0.0152  -0.0059   0.0233   0.0476   0.0858   0.1193   0.1462
     0.1662   0.1813   0.2064   0.2584   0.2667   0.3790   0.4441   0.5090
     0.5459   0.5857   0.6909   0.7525   0.7659   0.8101   0.8466   0.8584
     0.9126   0.9417   1.0236   1.0683   1.2461   1.2642   1.3976   1.4391
     2.0716   2.0741   2.1972   2.2015   4.1141   4.1428   4.2471   4.2585
     4.2793   4.2968   4.4588   4.4737   4.4961   4.5205

          k = 0.0380-0.0419 0.0000 ( 17876 PWs)   bands (ev):

   -55.2815 -55.2548 -55.2464 -55.2206 -55.1912 -55.1767 -55.1655 -55.1383
   -55.0845 -55.0634 -55.0508 -55.0368 -55.0126 -54.9552 -54.2878 -54.2638
   -31.7517 -31.7024 -31.6360 -31.5995 -31.5774 -31.5722 -31.5480 -31.5432
   -31.4862 -31.4847 -31.4746 -31.4697 -31.4504 -31.4373 -31.4342 -31.4296
   -31.4265 -31.4210 -31.4187 -31.3936 -31.3731 -31.3643 -31.3642 -31.3595
   -31.3448 -31.3200 -31.3190 -31.2991 -31.2933 -31.2852 -31.2796 -31.2747
   -31.2705 -31.2646 -31.2642 -31.2438 -31.2329 -31.2047 -31.2018 -31.1920
   -31.1717 -31.1403 -30.6478 -30.6056 -30.5860 -30.5061 -30.4453 -30.3786
   -21.4233 -18.7330 -17.1831 -15.7988 -15.5260 -15.3935 -15.3428 -15.2181
   -15.1821 -15.1225 -15.0720 -14.9832 -14.9675 -14.9234 -14.8925 -14.8821
   -14.8550 -14.8041 -14.7852 -14.7326 -14.7294 -14.7060 -14.6609 -14.6219
   -14.5922 -14.5886 -14.5654 -14.5306 -14.4783 -14.4199 -14.4138 -14.3620
   -12.7946 -12.7151  -9.1161  -6.6007  -6.5221  -4.5618  -4.5542  -3.8659
    -3.7249  -3.5024  -3.2781  -3.1278  -2.9647  -2.8425  -2.7716  -2.7589
    -2.7227  -2.6216  -2.5609  -2.5200  -2.4225  -2.3388  -2.3014  -2.2637
    -2.2387  -2.2216  -2.1669  -2.1465  -2.1319  -2.0958  -2.0612  -2.0302
    -2.0218  -2.0048  -1.9797  -1.9304  -1.8908  -1.8521  -1.7872  -1.7534
    -1.7236  -1.6218  -1.5985  -1.5243  -1.4838  -1.4390  -1.3196  -1.2942
    -1.2562  -1.2057  -1.0673  -1.0224  -0.9991  -0.9072  -0.8054  -0.7478
    -0.7261  -0.7040  -0.6160  -0.5930  -0.5455  -0.5273  -0.5017  -0.4524
    -0.3848  -0.3427  -0.3086  -0.2715  -0.2100  -0.1930  -0.1447  -0.1037
    -0.0444  -0.0292   0.0076   0.0420   0.0747   0.1078   0.1380   0.1686
     0.2345   0.2570   0.2911   0.3138   0.3781   0.4117   0.4566   0.5035
     0.5427   0.5996   0.6436   0.7197   0.8489   0.8702   0.9181   0.9687
     1.0033   1.0353   1.0752   1.1084   1.1822   1.2894   1.3569   1.6266
     1.9325   1.9989   2.1876   2.2644   4.0553   4.1579   4.1768   4.1962
     4.2596   4.3051   4.3300   4.3757   4.4004   4.4329

          k =-0.0760-0.0000 0.0000 ( 17886 PWs)   bands (ev):

   -55.2861 -55.2516 -55.2502 -55.2154 -55.1924 -55.1780 -55.1697 -55.1340
   -55.0832 -55.0645 -55.0497 -55.0418 -55.0077 -54.9539 -54.2928 -54.2588
   -31.8092 -31.7572 -31.6795 -31.6559 -31.6319 -31.5777 -31.5608 -31.5570
   -31.5281 -31.5165 -31.4659 -31.4593 -31.4400 -31.4331 -31.4275 -31.4223
   -31.4122 -31.4001 -31.3855 -31.3798 -31.3773 -31.3753 -31.3735 -31.3510
   -31.3339 -31.3114 -31.2897 -31.2817 -31.2737 -31.2723 -31.2683 -31.2650
   -31.2609 -31.2573 -31.2559 -31.2295 -31.2275 -31.1849 -31.1709 -31.1489
   -31.1443 -31.1437 -30.7013 -30.6131 -30.5806 -30.5186 -30.4325 -30.3215
   -21.4233 -18.7330 -17.1956 -15.8224 -15.5736 -15.3974 -15.3775 -15.2845
   -15.1957 -15.1697 -15.0831 -15.0563 -15.0478 -15.0406 -14.9716 -14.9148
   -14.9051 -14.8911 -14.7758 -14.7515 -14.6927 -14.6184 -14.5965 -14.5939
   -14.5848 -14.5459 -14.4697 -14.4513 -14.4279 -14.3547 -14.3169 -14.2925
   -12.7871 -12.6751  -9.1149  -6.6017  -6.5162  -4.5634  -4.5504  -3.8872
    -3.7409  -3.5507  -3.2808  -3.2615  -3.0006  -2.9172  -2.8544  -2.7408
    -2.6637  -2.6388  -2.6364  -2.5490  -2.5266  -2.5120  -2.4990  -2.4555
    -2.3156  -2.1291  -2.1212  -2.0891  -2.0604  -1.9545  -1.8434  -1.8364
    -1.8270  -1.7784  -1.7691  -1.7553  -1.7035  -1.6882  -1.6226  -1.5881
    -1.5673  -1.5319  -1.5071  -1.4690  -1.4595  -1.4453  -1.4298  -1.3942
    -1.3060  -1.1652  -1.0276  -1.0080  -0.9547  -0.9277  -0.9201  -0.8640
    -0.8566  -0.8064  -0.7670  -0.7409  -0.6476  -0.6304  -0.5828  -0.5790
    -0.5400  -0.5378  -0.4551  -0.4251  -0.3989  -0.3645  -0.0984  -0.0511
    -0.0300   0.0288   0.0594   0.0681   0.0734   0.1504   0.2043   0.2578
     0.2840   0.3048   0.3666   0.4127   0.4597   0.4896   0.5096   0.5287
     0.5670   0.6504   0.6652   0.7400   0.7657   0.8068   0.8382   0.8652
     0.9271   1.0477   1.1803   1.1870   1.3036   1.3950   1.4316   1.6572
     1.7654   1.8476   2.0636   2.2238   3.9411   3.9627   4.0104   4.1088
     4.1781   4.1930   4.3066   4.3300   4.3416   4.3622

          k =-0.0760 0.0419 0.0000 ( 17914 PWs)   bands (ev):

   -55.2815 -55.2548 -55.2464 -55.2206 -55.1910 -55.1768 -55.1655 -55.1383
   -55.0845 -55.0633 -55.0508 -55.0369 -55.0126 -54.9552 -54.2879 -54.2638
   -31.7521 -31.7034 -31.6363 -31.6047 -31.5812 -31.5723 -31.5480 -31.5433
   -31.4864 -31.4849 -31.4761 -31.4723 -31.4382 -31.4345 -31.4275 -31.4224
   -31.4217 -31.4188 -31.4062 -31.3875 -31.3835 -31.3768 -31.3726 -31.3642
   -31.3460 -31.3243 -31.3186 -31.2887 -31.2855 -31.2817 -31.2749 -31.2698
   -31.2652 -31.2648 -31.2622 -31.2589 -31.2507 -31.2028 -31.1990 -31.1959
   -31.1717 -31.1470 -30.6476 -30.6084 -30.5853 -30.5062 -30.4453 -30.3787
   -21.4233 -18.7328 -17.1820 -15.7051 -15.4595 -15.3092 -15.2759 -15.2086
   -15.1446 -15.1145 -15.0839 -15.0301 -15.0127 -14.9948 -14.9378 -14.9262
   -14.8863 -14.8717 -14.7690 -14.7610 -14.7201 -14.6900 -14.6665 -14.6496
   -14.6309 -14.5900 -14.5679 -14.5331 -14.4909 -14.4147 -14.4125 -14.3660
   -12.7924 -12.7155  -9.1160  -6.6015  -6.5182  -4.5628  -4.5541  -3.8598
    -3.7189  -3.5189  -3.2758  -3.1182  -2.9557  -2.7555  -2.5879  -2.5520
    -2.4933  -2.4359  -2.3620  -2.3495  -2.3313  -2.3237  -2.3057  -2.2965
    -2.2394  -2.2244  -2.2137  -2.1344  -2.0908  -2.0682  -2.0025  -1.9973
    -1.9734  -1.9305  -1.9049  -1.8566  -1.8346  -1.8205  -1.7512  -1.7227
    -1.6803  -1.6456  -1.6119  -1.4386  -1.4080  -1.3603  -1.3494  -1.3118
    -1.2862  -1.1775  -1.0643  -1.0344  -0.9629  -0.8918  -0.8522  -0.7942
    -0.7785  -0.7673  -0.7020  -0.6618  -0.6315  -0.5836  -0.5719  -0.5239
    -0.5053  -0.4878  -0.4678  -0.4240  -0.3782  -0.3623  -0.3313  -0.2602
    -0.2242  -0.1449  -0.1023  -0.0485  -0.0318   0.0146   0.0525   0.0966
     0.1509   0.1601   0.1998   0.2160   0.3361   0.3843   0.3914   0.4498
     0.5955   0.6094   0.6329   0.8295   0.8645   0.8711   0.9502   0.9806
     1.0568   1.1250   1.1583   1.2011   1.2267   1.2741   1.3032   1.4606
     1.9480   2.0019   2.1126   2.2489   4.0086   4.0537   4.1067   4.1795
     4.2123   4.2242   4.3385   4.3680   4.4632   4.4972

          k =-0.0760-0.0839 0.0000 ( 17948 PWs)   bands (ev):

   -55.2740 -55.2623 -55.2358 -55.2312 -55.1897 -55.1757 -55.1591 -55.1449
   -55.0859 -55.0620 -55.0520 -55.0270 -55.0226 -54.9566 -54.2764 -54.2753
   -31.6207 -31.6042 -31.5782 -31.5770 -31.5661 -31.5647 -31.5473 -31.5146
   -31.5077 -31.4908 -31.4875 -31.4771 -31.4419 -31.4315 -31.4113 -31.4070
   -31.4020 -31.3998 -31.3984 -31.3922 -31.3894 -31.3860 -31.3746 -31.3662
   -31.3599 -31.3514 -31.3503 -31.3489 -31.3433 -31.3179 -31.2919 -31.2790
   -31.2762 -31.2752 -31.2721 -31.2635 -31.2549 -31.2423 -31.2327 -31.2234
   -31.1819 -31.1481 -30.5974 -30.5960 -30.5156 -30.5147 -30.4763 -30.4754
   -21.4233 -18.7326 -17.1684 -15.4691 -15.3600 -15.2310 -15.1664 -15.1436
   -15.1169 -15.0641 -15.0478 -14.9922 -14.9879 -14.9374 -14.9312 -14.8881
   -14.8813 -14.8274 -14.7993 -14.7901 -14.7612 -14.7284 -14.7124 -14.7116
   -14.6715 -14.6501 -14.6413 -14.6108 -14.6035 -14.5415 -14.5039 -14.4713
   -12.7780 -12.7761  -9.1170  -6.6012  -6.5201  -4.5622  -4.5580  -3.8294
    -3.7080  -3.4940  -3.2711  -3.0023  -2.7546  -2.5717  -2.4804  -2.4116
    -2.3585  -2.3406  -2.2309  -2.2064  -2.1767  -2.1419  -2.1193  -2.1085
    -2.0911  -2.0821  -2.0749  -2.0574  -2.0239  -2.0040  -1.9780  -1.9531
    -1.9380  -1.9145  -1.8969  -1.8895  -1.8647  -1.8369  -1.8301  -1.8273
    -1.7644  -1.7245  -1.5665  -1.5215  -1.5001  -1.4102  -1.3907  -1.3741
    -1.3486  -1.3346  -1.3180  -1.1990  -1.1479  -1.1192  -1.0117  -0.9936
    -0.9676  -0.8290  -0.8051  -0.7729  -0.7449  -0.7029  -0.6330  -0.6095
    -0.5544  -0.5412  -0.4397  -0.4026  -0.3778  -0.3644  -0.2683  -0.2461
    -0.2410  -0.2149  -0.1520  -0.1193  -0.0750  -0.0451  -0.0144   0.0102
     0.0562   0.0760   0.1699   0.1902   0.2264   0.2694   0.3633   0.5298
     0.6230   0.7331   0.7590   0.8057   0.8663   0.9084   0.9580   1.0125
     1.0596   1.0668   1.1291   1.1664   1.2514   1.2652   1.2686   1.3369
     2.0925   2.0928   2.1805   2.1896   4.1365   4.1448   4.2020   4.2215
     4.3609   4.3671   4.3806   4.3882   4.4828   4.5456

     the Fermi energy is     3.8651 ev

!    total energy              =   -3006.52131248 Ry
     estimated scf accuracy    <       0.00000003 Ry
     smearing contrib. (-TS)   =      -0.02294603 Ry
     internal energy E=F+TS    =   -3006.49836644 Ry

     The total energy is F=E-TS. E is the sum of the following terms:
     one-electron contribution =  -22562.62199140 Ry
     hartree contribution      =   11380.64433689 Ry
     xc contribution           =    -501.14180022 Ry
     ewald contribution        =    8676.61921847 Ry
     electric field correction =       0.00186982 Ry

     convergence has been achieved in  68 iterations

     Forces acting on atoms (cartesian axes, Ry/au):

     atom    1 type  1   force =    -0.00015255   -0.00167487    0.10543683
     atom    2 type  1   force =    -0.00020959    0.00113693   -0.17915416
     atom    3 type  2   force =     0.00020456   -0.00553666   -0.03234968
     atom    4 type  2   force =     0.00010354    0.00071785    0.04628245
     atom    5 type  2   force =    -0.01804466    0.00052334    0.00422921
     atom    6 type  2   force =     0.01843792   -0.00044890    0.00409723
     atom    7 type  1   force =     0.00007640    0.00019892    0.00003594
     atom    8 type  1   force =     0.00007190    0.00031884   -0.00014200
     atom    9 type  2   force =     0.00017565    0.00034687   -0.00005659
     atom   10 type  2   force =     0.00017102   -0.00000532    0.00003359
     atom   11 type  2   force =     0.00004222   -0.00035029   -0.00037564
     atom   12 type  2   force =    -0.00005601   -0.00052485   -0.00051429
     atom   13 type  1   force =     0.00046988    0.00023964    0.00006503
     atom   14 type  1   force =    -0.00026426   -0.00047176   -0.00043514
     atom   15 type  2   force =     0.00005408   -0.00058731    0.00035655
     atom   16 type  2   force =    -0.00008583    0.00030397   -0.00024212
     atom   17 type  2   force =    -0.00042024   -0.00061016    0.00005036
     atom   18 type  2   force =     0.00003808   -0.00048480    0.00017653
     atom   19 type  1   force =     0.00041912   -0.00029042   -0.00007901
     atom   20 type  1   force =    -0.00008505   -0.00090572   -0.00077797
     atom   21 type  2   force =    -0.00003043    0.00009639    0.10395779
     atom   22 type  2   force =    -0.00001095   -0.00055277    0.00039515
     atom   23 type  2   force =    -0.06942928    0.00052396   -0.02946193
     atom   24 type  2   force =     0.06918339    0.00098258   -0.02951557
     atom   25 type  1   force =    -0.00004152    0.00156613    0.11485999
     atom   26 type  1   force =    -0.00022714   -0.00048407   -0.17917248
     atom   27 type  2   force =     0.00021362    0.00414725   -0.02604751
     atom   28 type  2   force =     0.00042786    0.00093337    0.04806619
     atom   29 type  2   force =    -0.01631635    0.00162468    0.00383954
     atom   30 type  2   force =     0.01736781    0.00217692    0.00361028
     atom   31 type  1   force =    -0.00014282    0.00009341   -0.00024822
     atom   32 type  1   force =     0.00011667   -0.00007834    0.00024582
     atom   33 type  2   force =     0.00029036   -0.00050986    0.00021606
     atom   34 type  2   force =    -0.00004130   -0.00030939   -0.00027439
     atom   35 type  2   force =    -0.00046724   -0.00013497    0.00001955
     atom   36 type  2   force =     0.00054612    0.00002052    0.00001009
     atom   37 type  1   force =     0.00046015   -0.00074030   -0.00006631
     atom   38 type  1   force =    -0.00037206   -0.00002622   -0.00037919
     atom   39 type  2   force =    -0.00042595   -0.00049095   -0.00043650
     atom   40 type  2   force =     0.00035775   -0.00040965   -0.00026393
     atom   41 type  2   force =    -0.00017442   -0.00004038    0.00003574
     atom   42 type  2   force =    -0.00033885   -0.00022235    0.00003913
     atom   43 type  1   force =     0.00025833    0.00010659    0.00143087
     atom   44 type  1   force =     0.00002120   -0.00016376   -0.00082915
     atom   45 type  2   force =    -0.00003454    0.00008156    0.10400312
     atom   46 type  2   force =    -0.06903095   -0.00107095   -0.02952197
     atom   47 type  2   force =     0.06884713   -0.00062839   -0.02959972
     atom   48 type  3   force =     0.00163049   -0.00319312    0.00401328
     atom   49 type  2   force =     0.00010636   -0.00059012    0.00055622
     atom   50 type  4   force =    -0.00033393   -0.00014731    0.00000207
     atom   51 type  4   force =    -0.00157885    0.00355385   -0.00459810
     atom   52 type  4   force =    -0.00024467    0.00070777   -0.00073593
     atom   53 type  5   force =    -0.00107092   -0.00018041   -0.00110477
     atom   54 type  5   force =     0.00051859    0.00038050    0.00082058
     atom   55 type  2   force =     0.00070901   -0.00003297    0.00035255
     atom   56 type  4   force =    -0.00156033    0.00013808   -0.00065071
     atom   57 type  4   force =    -0.00012853    0.00097740   -0.00020477

     Total force =     0.374645     Total SCF correction =     0.000363
  @ DRIVER MODE: Message from server: STATUS
  @ DRIVER MODE: Message from server: GETFORCE
  @ DRIVER MODE: Returning v,forces,stress,ensemble 

     Writing output data file ./calc.save/
  @ DRIVER MODE: Message from server: EXIT
  @ DRIVE MODE: Exiting  
 
     init_run     :     14.11s CPU     14.67s WALL (       1 calls)
     electrons    :   1580.03s CPU   1623.41s WALL (       1 calls)
     forces       :      3.16s CPU      3.33s WALL (       1 calls)

     Called by init_run:
     wfcinit      :      6.19s CPU      6.43s WALL (       1 calls)
     potinit      :      7.00s CPU      7.13s WALL (       1 calls)
     hinit0       :      0.41s CPU      0.43s WALL (       1 calls)

     Called by electrons:
     c_bands      :   1363.94s CPU   1391.15s WALL (      68 calls)
     sum_band     :    147.86s CPU    155.53s WALL (      68 calls)
     v_of_rho     :     50.70s CPU     53.00s WALL (      69 calls)
     newd         :     19.52s CPU     24.98s WALL (      69 calls)
     mix_rho      :      3.51s CPU      4.10s WALL (      68 calls)
     vdW_kernel   :      5.93s CPU      5.96s WALL (       1 calls)

     Called by c_bands:
     init_us_2    :      6.84s CPU      7.00s WALL (    1380 calls)
     cegterg      :   1339.94s CPU   1366.21s WALL (     696 calls)

     Called by *egterg:
     cdiaghg      :    246.61s CPU    250.25s WALL (    7506 calls)
     h_psi        :    691.62s CPU    706.35s WALL (    7521 calls)
     s_psi        :     88.46s CPU     89.18s WALL (    7521 calls)
     g_psi        :      2.39s CPU      2.42s WALL (    6815 calls)

     Called by h_psi:
     h_psi:calbec :     87.94s CPU     89.96s WALL (    7521 calls)
     vloc_psi     :    512.07s CPU    519.94s WALL (    7521 calls)
     add_vuspsi   :     88.63s CPU     91.34s WALL (    7521 calls)

     General routines
     calbec       :    114.13s CPU    116.40s WALL (    8241 calls)
     fft          :     26.80s CPU     27.11s WALL (    4347 calls)
     ffts         :      0.25s CPU      0.26s WALL (     137 calls)
     fftw         :    569.13s CPU    578.00s WALL ( 1002072 calls)
     interpolate  :      0.66s CPU      0.67s WALL (      69 calls)
     davcio       :      0.00s CPU      0.56s WALL (      10 calls)
 
     Parallel routines
 
     PWSCF        :  26m38.58s CPU  27m25.31s WALL

 
   This run was terminated on:   2:54:42  26Sep2021            

=------------------------------------------------------------------------------=
   JOB DONE.
=------------------------------------------------------------------------------=
