
     Program PWSCF v.6.7GPU starts on 23Aug2021 at 18:51:56 

     This program is part of the open-source Quantum ESPRESSO suite
     for quantum simulation of materials; please cite
         "P. Giannozzi et al., J. Phys.:Condens. Matter 21 395502 (2009);
         "P. Giannozzi et al., J. Phys.:Condens. Matter 29 465901 (2017);
         "P. Giannozzi et al., J. Chem. Phys. 152 154105 (2020);
          URL http://www.quantum-espresso.org", 
     in publications or presentations arising from this work. More details at
     http://www.quantum-espresso.org/quote

     Parallel version (MPI), running on     6 processors

     MPI processes distributed on     1 nodes
     R & G space division:  proc/nbgrp/npool/nimage =       6
     Reading input from /storage/home/hcoda1/3/ntian30/research/carbon/CH_vib/ads_slab/CHN2H_a/out_0012/pw.inp
Warning: card &CELL ignored
Warning: card   CELL_DYNAMICS='IPI', ignored
Warning: card / ignored

     Current dimensions of program PWSCF are:
     Max number of different atomic species (ntypx) = 10
     Max number of k-points (npk) =  40000
     Max angular momentum in pseudopotentials (lmaxx) =  3
     Presently no symmetry can be used with electric field

     Message from routine cell_base_init:
     DEPRECATED: use true lattice parameter, not A to a.u. conversion factor

     **************************************************************************
     Initializing libbeef V0.1.2 with the BEEF-vdW functional.
     Citation: Wellendorff et al., PRB 85, 235149 (2012).
     **************************************************************************


     IMPORTANT: XC functional enforced from input :
     Exchange-correlation= BEEF-VDW
                           (   1   4  43  14   2   0   0)
     Any further DFT definition will be discarded
     Please, verify this is what you really want


     Subspace diagonalization in iterative solution of the eigenvalue problem:
     one sub-group per band group will be used
     scalapack distributed-memory algorithm (size of sub-group:  2*  2 procs)

  @ DRIVER MODE: Connecting to 
 qe_1139763_2632792.sched-torque.pace.gatech.eduk6acp6ab_scratch
  using UNIX socket
  @ DRIVER MODE: Message from server: STATUS
  @ DRIVER MODE: Message from server: INIT
  @ DRIVER MODE: Receiving replica           0          -1
  @ DRIVER MODE: Receiving encoded integer          25
  @ DRIVER MODE:  SCF:  T  FORCE:  T  STRESS:  F  VC:  F  ENSEMBLE:  F
  @ DRIVER MODE:  SCF:  T  FORCE:  T  STRESS:  F  VC:  F  ENSEMBLE:  F
 
     Parallelization info
     --------------------
     sticks:   dense  smooth     PW     G-vecs:    dense   smooth      PW
     Min         545     219     63                94473    23902    3663
     Max         546     222     64                94484    23905    3665
     Sum        3275    1317    379               566857   143421   21985
 
     Using Slab Decomposition
 


     bravais-lattice index     =            0
     lattice parameter (alat)  =       1.8897  a.u.
     unit-cell volume          =    6658.9804 (a.u.)^3
     number of atoms/cell      =           52
     number of atomic types    =            5
     number of electrons       =       394.00
     number of Kohn-Sham states=          207
     kinetic-energy cutoff     =      29.3995  Ry
     charge density cutoff     =     293.9946  Ry
     scf convergence threshold =      7.3E-08
     mixing beta               =       0.0500
     number of iterations used =            8  plain     mixing
     Exchange-correlation= BEEF-VDW
                           (   1   4  43  14   2   0   0)

     celldm(1)=   1.889726  celldm(2)=   0.000000  celldm(3)=   0.000000
     celldm(4)=   0.000000  celldm(5)=   0.000000  celldm(6)=   0.000000

     crystal axes: (cart. coord. in units of alat)
               a(1) = (   6.579727   0.000000   0.000000 )  
               a(2) = (  -0.000775   5.961596   0.000000 )  
               a(3) = (   0.000000   0.000000  25.155947 )  

     reciprocal axes: (cart. coord. in units 2 pi/alat)
               b(1) = (  0.151982  0.000020  0.000000 )  
               b(2) = (  0.000000  0.167740  0.000000 )  
               b(3) = (  0.000000  0.000000  0.039752 )  


     PseudoPot. # 1 for Ti read from file:
     /storage/coda1/p-amedford6/0/shared/rich_project_chbe-medford/medford-share/data/pseudos_module/espresso/nninc/pbe/van/Ti.UPF
     MD5 check sum: 8e4df49b7f0d34bbd5052bf3f5ea0213
     Pseudo is Ultrasoft, Zval = 12.0
     Generated by new atomic code, or converted to UPF format
     Using radial grid of  851 points,  6 beta functions with: 
                l(1) =   0
                l(2) =   0
                l(3) =   1
                l(4) =   1
                l(5) =   2
                l(6) =   2
     Q(r) pseudized with  8 coefficients,  rinner =    1.000   1.000   1.000
                                                       1.000   1.000

     PseudoPot. # 2 for O  read from file:
     /storage/coda1/p-amedford6/0/shared/rich_project_chbe-medford/medford-share/data/pseudos_module/espresso/nninc/pbe/van/O.UPF
     MD5 check sum: 78c19812648e8988a0fe644b0f25305e
     Pseudo is Ultrasoft, Zval =  6.0
     Generated by new atomic code, or converted to UPF format
     Using radial grid of  737 points,  4 beta functions with: 
                l(1) =   0
                l(2) =   0
                l(3) =   1
                l(4) =   1
     Q(r) pseudized with  8 coefficients,  rinner =    0.800   0.800   0.800


     PseudoPot. # 3 for N  read from file:
     /storage/coda1/p-amedford6/0/shared/rich_project_chbe-medford/medford-share/data/pseudos_module/espresso/nninc/pbe/van/N.UPF
     MD5 check sum: 90d10febe142ad51ac9d5be1deb811c4
     Pseudo is Ultrasoft, Zval =  5.0
     Generated by new atomic code, or converted to UPF format
     Using radial grid of  729 points,  4 beta functions with: 
                l(1) =   0
                l(2) =   0
                l(3) =   1
                l(4) =   1
     Q(r) pseudized with  8 coefficients,  rinner =    0.800   0.800   0.800


     PseudoPot. # 4 for C  read from file:
     /storage/coda1/p-amedford6/0/shared/rich_project_chbe-medford/medford-share/data/pseudos_module/espresso/nninc/pbe/van/C.UPF
     MD5 check sum: 1a69bf6b8db32088f5b2163dbdb77a27
     Pseudo is Ultrasoft, Zval =  4.0
     Generated by new atomic code, or converted to UPF format
     Using radial grid of  721 points,  4 beta functions with: 
                l(1) =   0
                l(2) =   0
                l(3) =   1
                l(4) =   1
     Q(r) pseudized with  8 coefficients,  rinner =    0.800   0.800   0.800


     PseudoPot. # 5 for H  read from file:
     /storage/coda1/p-amedford6/0/shared/rich_project_chbe-medford/medford-share/data/pseudos_module/espresso/nninc/pbe/van/H.UPF
     MD5 check sum: b5ee9d7bfd3a09ee7748110bda690ff7
     Pseudo is Ultrasoft, Zval =  1.0
     Generated by new atomic code, or converted to UPF format
     Using radial grid of  615 points,  1 beta functions with: 
                l(1) =   0
     Q(r) pseudized with  8 coefficients,  rinner =    0.800

     atomic species   valence    mass     pseudopotential
        Ti1           12.00    47.86700     Ti( 1.00)
        O1             6.00    15.99900     O ( 1.00)
        N1             5.00    14.00700     N ( 1.00)
        C1             4.00    12.01100     C ( 1.00)
        H1             1.00     1.00800     H ( 1.00)

     No symmetry found



   Cartesian axes

     site n.     atom                  positions (alat units)
         1           Ti1 tau(   1) = (   0.0004258   2.9801865   6.0000000  )
         2           Ti1 tau(   2) = (   3.2906075   1.4906267   6.0002472  )
         3           O1  tau(   3) = (   0.0006271   0.0005054   7.9858123  )
         4           O1  tau(   4) = (   3.2906025   0.0005020   7.3038282  )
         5           O1  tau(   5) = (   4.5942328   1.4918067   9.2879030  )
         6           O1  tau(   6) = (   1.9868534   1.4903216   9.2879459  )
         7           Ti1 tau(   7) = (   3.2907910   2.8959150   9.1758416  )
         8           Ti1 tau(   8) = (   0.0015273   1.4827037   9.2680791  )
         9           O1  tau(   9) = (   3.3079035   5.9465650  11.3667630  )
        10           O1  tau(  10) = (   0.0116148   5.9584955  10.6183126  )
        11           O1  tau(  11) = (   1.3159687   1.4802111  12.6598234  )
        12           O1  tau(  12) = (   5.3141237   1.4785834  12.6569702  )
        13           Ti1 tau(  13) = (   0.0356438   2.9569522  12.5500042  )
        14           Ti1 tau(  14) = (   3.3321116   1.4682926  12.5176941  )
        15           O1  tau(  15) = (   0.0287262   5.9365737  14.6848071  )
        16           O1  tau(  16) = (   3.3260766   5.9477468  13.9918032  )
        17           O1  tau(  17) = (   4.5788076   1.5006004  16.1778977  )
        18           O1  tau(  18) = (   2.0653823   1.4932191  16.1519216  )
        19           Ti1 tau(  19) = (   3.3252840   2.9629899  15.7366588  )
        20           Ti1 tau(  20) = (   0.0567170   1.3280226  15.9864722  )
        21           O1  tau(  21) = (   3.2904802   0.0005063   4.7018136  )
        22           O1  tau(  22) = (   0.0395201   5.9563027  17.2132275  )
        23           O1  tau(  23) = (   1.3043587   1.4918075   6.0039043  )
        24           O1  tau(  24) = (   5.2767064   1.4903225   6.0039473  )
        25           Ti1 tau(  25) = (   0.0000382   5.9609847   6.0000000  )
        26           Ti1 tau(  26) = (   3.2902200   4.4714249   6.0002472  )
        27           O1  tau(  27) = (   0.0002396   2.9813036   7.9858123  )
        28           O1  tau(  28) = (   3.2902150   2.9813002   7.3038282  )
        29           O1  tau(  29) = (   4.5938453   4.4726049   9.2879030  )
        30           O1  tau(  30) = (   1.9864658   4.4711199   9.2879459  )
        31           Ti1 tau(  31) = (   3.2891106   5.8743827   9.1763621  )
        32           Ti1 tau(  32) = (   0.0006254   4.4649316   9.2693709  )
        33           O1  tau(  33) = (   3.3109971   2.9638951  11.3609806  )
        34           O1  tau(  34) = (   0.0092240   2.9805883  10.6323155  )
        35           O1  tau(  35) = (   1.3172493   4.4579999  12.6547637  )
        36           O1  tau(  36) = (   5.3123203   4.4599931  12.6537913  )
        37           Ti1 tau(  37) = (   0.0349292   5.9384232  12.5038109  )
        38           Ti1 tau(  38) = (   3.3308216   4.4462378  12.5132791  )
        39           O1  tau(  39) = (   0.0262156   2.9786664  14.8481040  )
        40           O1  tau(  40) = (   3.3240488   2.9673873  13.9486158  )
        41           O1  tau(  41) = (   4.5778164   4.4375445  16.1741249  )
        42           O1  tau(  42) = (   2.0647505   4.4412733  16.1578575  )
        43           Ti1 tau(  43) = (   3.3314326   5.9455663  15.7867969  )
        44           Ti1 tau(  44) = (   0.0345939   4.5236910  15.9072353  )
        45           O1  tau(  45) = (   3.2900926   2.9813045   4.7018136  )
        46           O1  tau(  46) = (   1.3039711   4.4726057   6.0039043  )
        47           O1  tau(  47) = (   5.2763189   4.4711207   6.0039473  )
        48           N1  tau(  48) = (   0.8843530   3.1395628  18.6524426  )
        49           C1  tau(  49) = (   1.8908588   3.1194352  19.2934450  )
        50           H1  tau(  50) = (   2.4245030   3.8971110  19.8100181  )
        51           N1  tau(  51) = (   6.5588057   2.9807634  17.7841789  )
        52           H1  tau(  52) = (   5.6432114   2.8891999  18.2270943  )

     number of k points=    10  Fermi-Dirac smearing, width (Ry)=  0.0073
                       cart. coord. in units 2pi/alat
        k(    1) = (   0.0000000   0.0000000   0.0000000), wk =   0.1250000
        k(    2) = (   0.0000000   0.0419351   0.0000000), wk =   0.2500000
        k(    3) = (   0.0000000  -0.0838702   0.0000000), wk =   0.1250000
        k(    4) = (   0.0379955   0.0000049   0.0000000), wk =   0.2500000
        k(    5) = (   0.0379955   0.0419400   0.0000000), wk =   0.2500000
        k(    6) = (   0.0379955  -0.0838652   0.0000000), wk =   0.2500000
        k(    7) = (   0.0379955  -0.0419301   0.0000000), wk =   0.2500000
        k(    8) = (  -0.0759910  -0.0000099   0.0000000), wk =   0.1250000
        k(    9) = (  -0.0759910   0.0419252   0.0000000), wk =   0.2500000
        k(   10) = (  -0.0759910  -0.0838800   0.0000000), wk =   0.1250000

     Dense  grid:   566857 G-vectors     FFT dimensions: (  72,  64, 270)

     Smooth grid:   143421 G-vectors     FFT dimensions: (  45,  40, 180)

     Estimated max dynamical RAM per process >     600.94 MB

     Estimated total dynamical RAM >       3.52 GB
     Cannot read rho : file not found

     Initial potential from superposition of free atoms

     starting charge  377.99917, renormalised to  394.00000

     negative rho (up, down):  1.651E-02 0.000E+00


     %%%%%%%%%%%%%%%%%%%%%%%%%%%%%%%%%%%%%%%%%%%%%%%%%%%%%%%%%%%%%%%%%%%%%%%%
     %                                                                      %
     % You are using vdW-DF, which was implemented by the Thonhauser group. %
     % Please cite the following two papers that made this development      %
     % possible and the two reviews that describe the various versions:     %
     %                                                                      %
     %   T. Thonhauser et al., PRL 115, 136402 (2015).                      %
     %   T. Thonhauser et al., PRB 76, 125112 (2007).                       %
     %   K. Berland et al., Rep. Prog. Phys. 78, 066501 (2015).             %
     %   D.C. Langreth et al., J. Phys.: Condens. Matter 21, 084203 (2009). %
     %                                                                      %
     %                                                                      %
     % If you are calculating the stress with vdW-DF, please also cite:     %
     %                                                                      %
     %   R. Sabatini et al., J. Phys.: Condens. Matter 24, 424209 (2012).   %
     %                                                                      %
     %%%%%%%%%%%%%%%%%%%%%%%%%%%%%%%%%%%%%%%%%%%%%%%%%%%%%%%%%%%%%%%%%%%%%%%%


 
     Adding external electric field

     Computed dipole along edir(3) : 
        Dipole               -8.5027 Ry au,        -21.6117 Debye
        Dipole field         -0.0160 Ry au, 
 
        Potential amp.        1.4874 Ry
        Total length         46.3494 bohr
 
     Starting wfcs are  298 atomic wfcs
  @ DRIVER MODE: Message from server: STATUS
  @ DRIVER MODE: Message from server: POSDATA
  @ DRIVER MODE: Reading and sharing cell 
  @ DRIVER MODE: Reading and sharing positions 
  @ DRIVER MODE: Received positions 

     total cpu time spent up to now is       18.6 secs

     Self-consistent Calculation

     iteration #  1     ecut=    29.40 Ry     beta= 0.05
     Davidson diagonalization with overlap
     c_bands:  1 eigenvalues not converged
     c_bands:  1 eigenvalues not converged
     c_bands:  2 eigenvalues not converged
     c_bands:  2 eigenvalues not converged
     c_bands:  2 eigenvalues not converged
     c_bands:  1 eigenvalues not converged
     ethr =  1.00E-05,  avg # of iterations = 19.0

     negative rho (up, down):  1.501E-02 0.000E+00
 
     Adding external electric field

     Computed dipole along edir(3) : 
        Dipole               37.3562 Ry au,         94.9499 Debye
        Dipole field          0.0705 Ry au, 
 
        Potential amp.       -6.5349 Ry
        Total length         46.3494 bohr
 

     total cpu time spent up to now is       84.1 secs

     total energy              =   -2624.26856432 Ry
     estimated scf accuracy    <    3488.57723640 Ry

     iteration #  2     ecut=    29.40 Ry     beta= 0.05
     Davidson diagonalization with overlap
     c_bands:  2 eigenvalues not converged
     ethr =  1.00E-02,  avg # of iterations = 21.5

     negative rho (up, down):  5.190E-03 0.000E+00
 
     Adding external electric field

     Computed dipole along edir(3) : 
        Dipole               -3.2929 Ry au,         -8.3697 Debye
        Dipole field         -0.0062 Ry au, 
 
        Potential amp.        0.5760 Ry
        Total length         46.3494 bohr
 

     total cpu time spent up to now is      199.0 secs

     total energy              =   -2457.40745243 Ry
     estimated scf accuracy    <   63076.80428753 Ry

     iteration #  3     ecut=    29.40 Ry     beta= 0.05
     Davidson diagonalization with overlap
     ethr =  1.00E-02,  avg # of iterations = 15.5

     negative rho (up, down):  5.249E-03 0.000E+00
 
     Adding external electric field

     Computed dipole along edir(3) : 
        Dipole               -5.0435 Ry au,        -12.8193 Debye
        Dipole field         -0.0095 Ry au, 
 
        Potential amp.        0.8823 Ry
        Total length         46.3494 bohr
 

     total cpu time spent up to now is      275.0 secs

     total energy              =   -2916.68518091 Ry
     estimated scf accuracy    <    3597.24521673 Ry

     iteration #  4     ecut=    29.40 Ry     beta= 0.05
     Davidson diagonalization with overlap
     c_bands:  3 eigenvalues not converged
     c_bands:  3 eigenvalues not converged
     ethr =  1.00E-02,  avg # of iterations = 16.0

     negative rho (up, down):  5.278E-03 0.000E+00
 
     Adding external electric field

     Computed dipole along edir(3) : 
        Dipole               -5.8308 Ry au,        -14.8204 Debye
        Dipole field         -0.0110 Ry au, 
 
        Potential amp.        1.0200 Ry
        Total length         46.3494 bohr
 

     total cpu time spent up to now is      310.7 secs

     total energy              =   -2932.45676061 Ry
     estimated scf accuracy    <     449.84534985 Ry

     iteration #  5     ecut=    29.40 Ry     beta= 0.05
     Davidson diagonalization with overlap
     ethr =  1.00E-02,  avg # of iterations =  7.2

     negative rho (up, down):  5.273E-03 0.000E+00
 
     Adding external electric field

     Computed dipole along edir(3) : 
        Dipole               -6.2248 Ry au,        -15.8219 Debye
        Dipole field         -0.0117 Ry au, 
 
        Potential amp.        1.0889 Ry
        Total length         46.3494 bohr
 

     total cpu time spent up to now is      331.9 secs

     total energy              =   -2933.96594018 Ry
     estimated scf accuracy    <     174.78118142 Ry

     iteration #  6     ecut=    29.40 Ry     beta= 0.05
     Davidson diagonalization with overlap
     ethr =  1.00E-02,  avg # of iterations =  4.8

     negative rho (up, down):  5.290E-03 0.000E+00
 
     Adding external electric field

     Computed dipole along edir(3) : 
        Dipole               -6.1300 Ry au,        -15.5808 Debye
        Dipole field         -0.0116 Ry au, 
 
        Potential amp.        1.0723 Ry
        Total length         46.3494 bohr
 

     total cpu time spent up to now is      352.0 secs

     total energy              =   -2935.50378179 Ry
     estimated scf accuracy    <      89.76511277 Ry

     iteration #  7     ecut=    29.40 Ry     beta= 0.05
     Davidson diagonalization with overlap
     ethr =  1.00E-02,  avg # of iterations =  3.9

     negative rho (up, down):  5.308E-03 0.000E+00
 
     Adding external electric field

     Computed dipole along edir(3) : 
        Dipole               -5.5786 Ry au,        -14.1795 Debye
        Dipole field         -0.0105 Ry au, 
 
        Potential amp.        0.9759 Ry
        Total length         46.3494 bohr
 

     total cpu time spent up to now is      371.1 secs

     total energy              =   -2936.03996978 Ry
     estimated scf accuracy    <      43.46043158 Ry

     iteration #  8     ecut=    29.40 Ry     beta= 0.05
     Davidson diagonalization with overlap
     ethr =  1.00E-02,  avg # of iterations =  2.5

     negative rho (up, down):  5.431E-03 0.000E+00
 
     Adding external electric field

     Computed dipole along edir(3) : 
        Dipole               -3.3531 Ry au,         -8.5227 Debye
        Dipole field         -0.0063 Ry au, 
 
        Potential amp.        0.5866 Ry
        Total length         46.3494 bohr
 

     total cpu time spent up to now is      389.3 secs

     total energy              =   -2936.59402535 Ry
     estimated scf accuracy    <      18.16901371 Ry

     iteration #  9     ecut=    29.40 Ry     beta= 0.05
     Davidson diagonalization with overlap
     ethr =  4.61E-03,  avg # of iterations =  5.4

     negative rho (up, down):  5.697E-03 0.000E+00
 
     Adding external electric field

     Computed dipole along edir(3) : 
        Dipole               -1.4827 Ry au,         -3.7687 Debye
        Dipole field         -0.0028 Ry au, 
 
        Potential amp.        0.2594 Ry
        Total length         46.3494 bohr
 

     total cpu time spent up to now is      409.5 secs

     total energy              =   -2937.03153484 Ry
     estimated scf accuracy    <       8.44413927 Ry

     iteration # 10     ecut=    29.40 Ry     beta= 0.05
     Davidson diagonalization with overlap
     c_bands:  1 eigenvalues not converged
     c_bands:  1 eigenvalues not converged
     ethr =  2.14E-03,  avg # of iterations = 17.2

     negative rho (up, down):  5.719E-03 0.000E+00
 
     Adding external electric field

     Computed dipole along edir(3) : 
        Dipole               -1.4406 Ry au,         -3.6615 Debye
        Dipole field         -0.0027 Ry au, 
 
        Potential amp.        0.2520 Ry
        Total length         46.3494 bohr
 

     total cpu time spent up to now is      443.2 secs

     total energy              =   -2939.49338769 Ry
     estimated scf accuracy    <      85.80335267 Ry

     iteration # 11     ecut=    29.40 Ry     beta= 0.05
     Davidson diagonalization with overlap
     ethr =  2.14E-03,  avg # of iterations =  1.2

     negative rho (up, down):  5.598E-03 0.000E+00
 
     Adding external electric field

     Computed dipole along edir(3) : 
        Dipole               -2.4752 Ry au,         -6.2912 Debye
        Dipole field         -0.0047 Ry au, 
 
        Potential amp.        0.4330 Ry
        Total length         46.3494 bohr
 

     total cpu time spent up to now is      460.7 secs

     total energy              =   -2936.39711886 Ry
     estimated scf accuracy    <      75.93033722 Ry

     iteration # 12     ecut=    29.40 Ry     beta= 0.05
     Davidson diagonalization with overlap
     ethr =  2.14E-03,  avg # of iterations =  9.7

     negative rho (up, down):  5.542E-03 0.000E+00
 
     Adding external electric field

     Computed dipole along edir(3) : 
        Dipole               -2.4964 Ry au,         -6.3452 Debye
        Dipole field         -0.0047 Ry au, 
 
        Potential amp.        0.4367 Ry
        Total length         46.3494 bohr
 

     total cpu time spent up to now is      483.8 secs

     total energy              =   -2937.95909684 Ry
     estimated scf accuracy    <       4.34688014 Ry

     iteration # 13     ecut=    29.40 Ry     beta= 0.05
     Davidson diagonalization with overlap
     ethr =  1.10E-03,  avg # of iterations =  1.9

     negative rho (up, down):  5.576E-03 0.000E+00
 
     Adding external electric field

     Computed dipole along edir(3) : 
        Dipole               -1.1221 Ry au,         -2.8522 Debye
        Dipole field         -0.0021 Ry au, 
 
        Potential amp.        0.1963 Ry
        Total length         46.3494 bohr
 

     total cpu time spent up to now is      502.3 secs

     total energy              =   -2937.91263334 Ry
     estimated scf accuracy    <       3.44083923 Ry

     iteration # 14     ecut=    29.40 Ry     beta= 0.05
     Davidson diagonalization with overlap
     ethr =  8.73E-04,  avg # of iterations =  5.3

     negative rho (up, down):  5.604E-03 0.000E+00
 
     Adding external electric field

     Computed dipole along edir(3) : 
        Dipole               -1.3491 Ry au,         -3.4290 Debye
        Dipole field         -0.0025 Ry au, 
 
        Potential amp.        0.2360 Ry
        Total length         46.3494 bohr
 

     total cpu time spent up to now is      522.4 secs

     total energy              =   -2937.00323227 Ry
     estimated scf accuracy    <      40.24538891 Ry

     iteration # 15     ecut=    29.40 Ry     beta= 0.05
     Davidson diagonalization with overlap
     ethr =  8.73E-04,  avg # of iterations =  6.8

     negative rho (up, down):  5.886E-03 0.000E+00
 
     Adding external electric field

     Computed dipole along edir(3) : 
        Dipole               -0.1517 Ry au,         -0.3855 Debye
        Dipole field         -0.0003 Ry au, 
 
        Potential amp.        0.0265 Ry
        Total length         46.3494 bohr
 

     total cpu time spent up to now is      543.5 secs

     total energy              =   -2937.75503355 Ry
     estimated scf accuracy    <       1.64368850 Ry

     iteration # 16     ecut=    29.40 Ry     beta= 0.05
     Davidson diagonalization with overlap
     c_bands:  2 eigenvalues not converged
     c_bands:  1 eigenvalues not converged
     c_bands:  1 eigenvalues not converged
     c_bands:  2 eigenvalues not converged
     c_bands:  1 eigenvalues not converged
     c_bands:  1 eigenvalues not converged
     c_bands:  2 eigenvalues not converged
     c_bands:  1 eigenvalues not converged
     c_bands:  2 eigenvalues not converged
     c_bands:  2 eigenvalues not converged
     ethr =  4.17E-04,  avg # of iterations = 20.0

     negative rho (up, down):  5.956E-03 0.000E+00
 
     Adding external electric field

     Computed dipole along edir(3) : 
        Dipole               -0.5204 Ry au,         -1.3227 Debye
        Dipole field         -0.0010 Ry au, 
 
        Potential amp.        0.0910 Ry
        Total length         46.3494 bohr
 

     total cpu time spent up to now is      579.5 secs

     total energy              =   -2937.83052628 Ry
     estimated scf accuracy    <       3.37879965 Ry

     iteration # 17     ecut=    29.40 Ry     beta= 0.05
     Davidson diagonalization with overlap
     ethr =  4.17E-04,  avg # of iterations =  4.8

     negative rho (up, down):  6.159E-03 0.000E+00
 
     Adding external electric field

     Computed dipole along edir(3) : 
        Dipole               -0.0941 Ry au,         -0.2392 Debye
        Dipole field         -0.0002 Ry au, 
 
        Potential amp.        0.0165 Ry
        Total length         46.3494 bohr
 

     total cpu time spent up to now is      598.6 secs

     total energy              =   -2937.69038296 Ry
     estimated scf accuracy    <       1.12777915 Ry

     iteration # 18     ecut=    29.40 Ry     beta= 0.05
     Davidson diagonalization with overlap
     c_bands:  1 eigenvalues not converged
     c_bands:  2 eigenvalues not converged
     c_bands:  2 eigenvalues not converged
     c_bands:  1 eigenvalues not converged
     ethr =  2.86E-04,  avg # of iterations = 11.5

     negative rho (up, down):  6.136E-03 0.000E+00
 
     Adding external electric field

     Computed dipole along edir(3) : 
        Dipole               -0.0226 Ry au,         -0.0575 Debye
        Dipole field         -0.0000 Ry au, 
 
        Potential amp.        0.0040 Ry
        Total length         46.3494 bohr
 

     total cpu time spent up to now is      626.4 secs

     total energy              =   -2937.85457447 Ry
     estimated scf accuracy    <       2.52810114 Ry

     iteration # 19     ecut=    29.40 Ry     beta= 0.05
     Davidson diagonalization with overlap
     ethr =  2.86E-04,  avg # of iterations =  1.6

     negative rho (up, down):  6.099E-03 0.000E+00
 
     Adding external electric field

     Computed dipole along edir(3) : 
        Dipole                0.1175 Ry au,          0.2985 Debye
        Dipole field          0.0002 Ry au, 
 
        Potential amp.       -0.0205 Ry
        Total length         46.3494 bohr
 

     total cpu time spent up to now is      644.1 secs

     total energy              =   -2937.80220483 Ry
     estimated scf accuracy    <       2.18133926 Ry

     iteration # 20     ecut=    29.40 Ry     beta= 0.05
     Davidson diagonalization with overlap
     ethr =  2.86E-04,  avg # of iterations =  1.0

     negative rho (up, down):  6.181E-03 0.000E+00
 
     Adding external electric field

     Computed dipole along edir(3) : 
        Dipole                0.4309 Ry au,          1.0953 Debye
        Dipole field          0.0008 Ry au, 
 
        Potential amp.       -0.0754 Ry
        Total length         46.3494 bohr
 

     total cpu time spent up to now is      660.9 secs

     total energy              =   -2937.77824077 Ry
     estimated scf accuracy    <       0.55186537 Ry

     iteration # 21     ecut=    29.40 Ry     beta= 0.05
     Davidson diagonalization with overlap
     c_bands:  2 eigenvalues not converged
     ethr =  1.40E-04,  avg # of iterations =  8.8

     negative rho (up, down):  6.295E-03 0.000E+00
 
     Adding external electric field

     Computed dipole along edir(3) : 
        Dipole                0.7604 Ry au,          1.9327 Debye
        Dipole field          0.0014 Ry au, 
 
        Potential amp.       -0.1330 Ry
        Total length         46.3494 bohr
 

     total cpu time spent up to now is      683.2 secs

     total energy              =   -2937.80985846 Ry
     estimated scf accuracy    <       0.20703935 Ry

     iteration # 22     ecut=    29.40 Ry     beta= 0.05
     Davidson diagonalization with overlap
     c_bands:  1 eigenvalues not converged
     c_bands:  2 eigenvalues not converged
     c_bands:  1 eigenvalues not converged
     c_bands:  1 eigenvalues not converged
     c_bands:  1 eigenvalues not converged
     c_bands:  1 eigenvalues not converged
     ethr =  5.25E-05,  avg # of iterations = 19.4

     negative rho (up, down):  6.596E-03 0.000E+00
 
     Adding external electric field

     Computed dipole along edir(3) : 
        Dipole                0.9112 Ry au,          2.3161 Debye
        Dipole field          0.0017 Ry au, 
 
        Potential amp.       -0.1594 Ry
        Total length         46.3494 bohr
 

     total cpu time spent up to now is      714.0 secs

     total energy              =   -2937.79545439 Ry
     estimated scf accuracy    <       0.52093787 Ry

     iteration # 23     ecut=    29.40 Ry     beta= 0.05
     Davidson diagonalization with overlap
     ethr =  5.25E-05,  avg # of iterations =  8.1

     negative rho (up, down):  7.143E-03 0.000E+00
 
     Adding external electric field

     Computed dipole along edir(3) : 
        Dipole                0.8058 Ry au,          2.0482 Debye
        Dipole field          0.0015 Ry au, 
 
        Potential amp.       -0.1410 Ry
        Total length         46.3494 bohr
 

     total cpu time spent up to now is      735.7 secs

     total energy              =   -2937.79468635 Ry
     estimated scf accuracy    <       0.21738231 Ry

     iteration # 24     ecut=    29.40 Ry     beta= 0.05
     Davidson diagonalization with overlap
     c_bands:  1 eigenvalues not converged
     c_bands:  3 eigenvalues not converged
     c_bands:  2 eigenvalues not converged
     c_bands:  3 eigenvalues not converged
     c_bands:  2 eigenvalues not converged
     c_bands:  1 eigenvalues not converged
     c_bands:  1 eigenvalues not converged
     ethr =  5.25E-05,  avg # of iterations = 19.3

     negative rho (up, down):  7.153E-03 0.000E+00
 
     Adding external electric field

     Computed dipole along edir(3) : 
        Dipole                0.7839 Ry au,          1.9924 Debye
        Dipole field          0.0015 Ry au, 
 
        Potential amp.       -0.1371 Ry
        Total length         46.3494 bohr
 

     total cpu time spent up to now is      770.4 secs

     total energy              =   -2937.82806873 Ry
     estimated scf accuracy    <       2.30512991 Ry

     iteration # 25     ecut=    29.40 Ry     beta= 0.05
     Davidson diagonalization with overlap
     c_bands:  3 eigenvalues not converged
     ethr =  5.25E-05,  avg # of iterations =  4.3

     negative rho (up, down):  7.109E-03 0.000E+00
 
     Adding external electric field

     Computed dipole along edir(3) : 
        Dipole                0.8527 Ry au,          2.1674 Debye
        Dipole field          0.0016 Ry au, 
 
        Potential amp.       -0.1492 Ry
        Total length         46.3494 bohr
 

     total cpu time spent up to now is      789.6 secs

     total energy              =   -2937.77556359 Ry
     estimated scf accuracy    <       1.77964387 Ry

     iteration # 26     ecut=    29.40 Ry     beta= 0.05
     Davidson diagonalization with overlap
     c_bands:  1 eigenvalues not converged
     c_bands:  2 eigenvalues not converged
     c_bands:  2 eigenvalues not converged
     c_bands:  3 eigenvalues not converged
     c_bands:  2 eigenvalues not converged
     ethr =  5.25E-05,  avg # of iterations = 15.2

     negative rho (up, down):  7.022E-03 0.000E+00
 
     Adding external electric field

     Computed dipole along edir(3) : 
        Dipole                0.8775 Ry au,          2.2304 Debye
        Dipole field          0.0017 Ry au, 
 
        Potential amp.       -0.1535 Ry
        Total length         46.3494 bohr
 

     total cpu time spent up to now is      817.9 secs

     total energy              =   -2937.80516486 Ry
     estimated scf accuracy    <       0.35533876 Ry

     iteration # 27     ecut=    29.40 Ry     beta= 0.05
     Davidson diagonalization with overlap
     c_bands:  1 eigenvalues not converged
     c_bands:  1 eigenvalues not converged
     c_bands:  2 eigenvalues not converged
     ethr =  5.25E-05,  avg # of iterations = 10.1

     negative rho (up, down):  7.311E-03 0.000E+00
 
     Adding external electric field

     Computed dipole along edir(3) : 
        Dipole                1.0037 Ry au,          2.5513 Debye
        Dipole field          0.0019 Ry au, 
 
        Potential amp.       -0.1756 Ry
        Total length         46.3494 bohr
 

     total cpu time spent up to now is      839.0 secs

     total energy              =   -2937.80495302 Ry
     estimated scf accuracy    <       0.25507252 Ry

     iteration # 28     ecut=    29.40 Ry     beta= 0.05
     Davidson diagonalization with overlap
     ethr =  5.25E-05,  avg # of iterations =  3.1

     negative rho (up, down):  7.981E-03 0.000E+00
 
     Adding external electric field

     Computed dipole along edir(3) : 
        Dipole                1.1599 Ry au,          2.9483 Debye
        Dipole field          0.0022 Ry au, 
 
        Potential amp.       -0.2029 Ry
        Total length         46.3494 bohr
 

     total cpu time spent up to now is      858.2 secs

     total energy              =   -2937.80158397 Ry
     estimated scf accuracy    <       0.20957310 Ry

     iteration # 29     ecut=    29.40 Ry     beta= 0.05
     Davidson diagonalization with overlap
     ethr =  5.25E-05,  avg # of iterations = 10.8

     negative rho (up, down):  8.692E-03 0.000E+00
 
     Adding external electric field

     Computed dipole along edir(3) : 
        Dipole                1.1531 Ry au,          2.9309 Debye
        Dipole field          0.0022 Ry au, 
 
        Potential amp.       -0.2017 Ry
        Total length         46.3494 bohr
 

     total cpu time spent up to now is      881.1 secs

     total energy              =   -2937.80455142 Ry
     estimated scf accuracy    <       0.15417677 Ry

     iteration # 30     ecut=    29.40 Ry     beta= 0.05
     Davidson diagonalization with overlap
     c_bands:  2 eigenvalues not converged
     ethr =  3.91E-05,  avg # of iterations =  5.9

     negative rho (up, down):  1.140E-02 0.000E+00
 
     Adding external electric field

     Computed dipole along edir(3) : 
        Dipole                1.1619 Ry au,          2.9533 Debye
        Dipole field          0.0022 Ry au, 
 
        Potential amp.       -0.2033 Ry
        Total length         46.3494 bohr
 

     total cpu time spent up to now is      900.9 secs

     total energy              =   -2937.80376508 Ry
     estimated scf accuracy    <       0.04362903 Ry

     iteration # 31     ecut=    29.40 Ry     beta= 0.05
     Davidson diagonalization with overlap
     c_bands:  1 eigenvalues not converged
     c_bands:  2 eigenvalues not converged
     c_bands:  4 eigenvalues not converged
     c_bands:  2 eigenvalues not converged
     c_bands:  1 eigenvalues not converged
     c_bands:  1 eigenvalues not converged
     ethr =  1.11E-05,  avg # of iterations = 18.4

     negative rho (up, down):  1.179E-02 0.000E+00
 
     Adding external electric field

     Computed dipole along edir(3) : 
        Dipole                1.2160 Ry au,          3.0907 Debye
        Dipole field          0.0023 Ry au, 
 
        Potential amp.       -0.2127 Ry
        Total length         46.3494 bohr
 

     total cpu time spent up to now is      932.3 secs

     total energy              =   -2937.80868519 Ry
     estimated scf accuracy    <       0.05320310 Ry

     iteration # 32     ecut=    29.40 Ry     beta= 0.05
     Davidson diagonalization with overlap
     ethr =  1.11E-05,  avg # of iterations =  5.1

     negative rho (up, down):  1.305E-02 0.000E+00
 
     Adding external electric field

     Computed dipole along edir(3) : 
        Dipole                1.3229 Ry au,          3.3625 Debye
        Dipole field          0.0025 Ry au, 
 
        Potential amp.       -0.2314 Ry
        Total length         46.3494 bohr
 

     total cpu time spent up to now is      951.7 secs

     total energy              =   -2937.80511826 Ry
     estimated scf accuracy    <       0.03101083 Ry

     iteration # 33     ecut=    29.40 Ry     beta= 0.05
     Davidson diagonalization with overlap
     c_bands:  2 eigenvalues not converged
     ethr =  7.87E-06,  avg # of iterations =  9.7

     negative rho (up, down):  1.241E-02 0.000E+00
 
     Adding external electric field

     Computed dipole along edir(3) : 
        Dipole                1.2505 Ry au,          3.1784 Debye
        Dipole field          0.0024 Ry au, 
 
        Potential amp.       -0.2188 Ry
        Total length         46.3494 bohr
 

     total cpu time spent up to now is      974.3 secs

     total energy              =   -2937.80692270 Ry
     estimated scf accuracy    <       0.01098085 Ry

     iteration # 34     ecut=    29.40 Ry     beta= 0.05
     Davidson diagonalization with overlap
     c_bands:  1 eigenvalues not converged
     c_bands:  2 eigenvalues not converged
     c_bands:  2 eigenvalues not converged
     c_bands:  1 eigenvalues not converged
     c_bands:  2 eigenvalues not converged
     ethr =  2.79E-06,  avg # of iterations = 15.6

     negative rho (up, down):  1.328E-02 0.000E+00
 
     Adding external electric field

     Computed dipole along edir(3) : 
        Dipole                1.2622 Ry au,          3.2083 Debye
        Dipole field          0.0024 Ry au, 
 
        Potential amp.       -0.2208 Ry
        Total length         46.3494 bohr
 

     total cpu time spent up to now is     1000.6 secs

     total energy              =   -2937.80715940 Ry
     estimated scf accuracy    <       0.00632150 Ry

     iteration # 35     ecut=    29.40 Ry     beta= 0.05
     Davidson diagonalization with overlap
     c_bands:  2 eigenvalues not converged
     ethr =  1.60E-06,  avg # of iterations = 14.3

     negative rho (up, down):  1.357E-02 0.000E+00
 
     Adding external electric field

     Computed dipole along edir(3) : 
        Dipole                1.2744 Ry au,          3.2391 Debye
        Dipole field          0.0024 Ry au, 
 
        Potential amp.       -0.2229 Ry
        Total length         46.3494 bohr
 

     total cpu time spent up to now is     1026.5 secs

     total energy              =   -2937.80752417 Ry
     estimated scf accuracy    <       0.00419204 Ry

     iteration # 36     ecut=    29.40 Ry     beta= 0.05
     Davidson diagonalization with overlap
     c_bands:  2 eigenvalues not converged
     ethr =  1.06E-06,  avg # of iterations =  8.2

     negative rho (up, down):  1.485E-02 0.000E+00
 
     Adding external electric field

     Computed dipole along edir(3) : 
        Dipole                1.3178 Ry au,          3.3494 Debye
        Dipole field          0.0025 Ry au, 
 
        Potential amp.       -0.2305 Ry
        Total length         46.3494 bohr
 

     total cpu time spent up to now is     1048.1 secs

     total energy              =   -2937.80776247 Ry
     estimated scf accuracy    <       0.00164707 Ry

     iteration # 37     ecut=    29.40 Ry     beta= 0.05
     Davidson diagonalization with overlap
     c_bands:  1 eigenvalues not converged
     c_bands:  1 eigenvalues not converged
     c_bands:  1 eigenvalues not converged
     c_bands:  1 eigenvalues not converged
     ethr =  4.18E-07,  avg # of iterations = 18.0

     negative rho (up, down):  1.436E-02 0.000E+00
 
     Adding external electric field

     Computed dipole along edir(3) : 
        Dipole                1.2574 Ry au,          3.1961 Debye
        Dipole field          0.0024 Ry au, 
 
        Potential amp.       -0.2200 Ry
        Total length         46.3494 bohr
 

     total cpu time spent up to now is     1083.4 secs

     total energy              =   -2937.80732334 Ry
     estimated scf accuracy    <       0.00483798 Ry

     iteration # 38     ecut=    29.40 Ry     beta= 0.05
     Davidson diagonalization with overlap
     ethr =  4.18E-07,  avg # of iterations = 13.5

     negative rho (up, down):  1.504E-02 0.000E+00
 
     Adding external electric field

     Computed dipole along edir(3) : 
        Dipole                1.2798 Ry au,          3.2528 Debye
        Dipole field          0.0024 Ry au, 
 
        Potential amp.       -0.2239 Ry
        Total length         46.3494 bohr
 

     total cpu time spent up to now is     1115.7 secs

     total energy              =   -2937.80789320 Ry
     estimated scf accuracy    <       0.00116410 Ry

     iteration # 39     ecut=    29.40 Ry     beta= 0.05
     Davidson diagonalization with overlap
     ethr =  2.95E-07,  avg # of iterations =  8.6

     negative rho (up, down):  1.519E-02 0.000E+00
 
     Adding external electric field

     Computed dipole along edir(3) : 
        Dipole                1.2762 Ry au,          3.2439 Debye
        Dipole field          0.0024 Ry au, 
 
        Potential amp.       -0.2233 Ry
        Total length         46.3494 bohr
 

     total cpu time spent up to now is     1138.1 secs

     total energy              =   -2937.80803002 Ry
     estimated scf accuracy    <       0.00023953 Ry

     iteration # 40     ecut=    29.40 Ry     beta= 0.05
     Davidson diagonalization with overlap
     c_bands:  1 eigenvalues not converged
     c_bands:  1 eigenvalues not converged
     ethr =  6.08E-08,  avg # of iterations = 12.8

     negative rho (up, down):  1.566E-02 0.000E+00
 
     Adding external electric field

     Computed dipole along edir(3) : 
        Dipole                1.2786 Ry au,          3.2498 Debye
        Dipole field          0.0024 Ry au, 
 
        Potential amp.       -0.2237 Ry
        Total length         46.3494 bohr
 

     total cpu time spent up to now is     1164.0 secs

     total energy              =   -2937.80811251 Ry
     estimated scf accuracy    <       0.00014670 Ry

     iteration # 41     ecut=    29.40 Ry     beta= 0.05
     Davidson diagonalization with overlap
     ethr =  3.72E-08,  avg # of iterations =  6.9

     negative rho (up, down):  1.595E-02 0.000E+00
 
     Adding external electric field

     Computed dipole along edir(3) : 
        Dipole                1.2870 Ry au,          3.2712 Debye
        Dipole field          0.0024 Ry au, 
 
        Potential amp.       -0.2251 Ry
        Total length         46.3494 bohr
 

     total cpu time spent up to now is     1186.9 secs

     total energy              =   -2937.80816624 Ry
     estimated scf accuracy    <       0.00009040 Ry

     iteration # 42     ecut=    29.40 Ry     beta= 0.05
     Davidson diagonalization with overlap
     ethr =  2.29E-08,  avg # of iterations = 13.5

     negative rho (up, down):  1.596E-02 0.000E+00
 
     Adding external electric field

     Computed dipole along edir(3) : 
        Dipole                1.2862 Ry au,          3.2691 Debye
        Dipole field          0.0024 Ry au, 
 
        Potential amp.       -0.2250 Ry
        Total length         46.3494 bohr
 

     total cpu time spent up to now is     1216.6 secs

     total energy              =   -2937.80820833 Ry
     estimated scf accuracy    <       0.00013324 Ry

     iteration # 43     ecut=    29.40 Ry     beta= 0.05
     Davidson diagonalization with overlap
     ethr =  2.29E-08,  avg # of iterations =  1.0

     negative rho (up, down):  1.594E-02 0.000E+00
 
     Adding external electric field

     Computed dipole along edir(3) : 
        Dipole                1.2844 Ry au,          3.2646 Debye
        Dipole field          0.0024 Ry au, 
 
        Potential amp.       -0.2247 Ry
        Total length         46.3494 bohr
 

     total cpu time spent up to now is     1233.8 secs

     total energy              =   -2937.80821823 Ry
     estimated scf accuracy    <       0.00010889 Ry

     iteration # 44     ecut=    29.40 Ry     beta= 0.05
     Davidson diagonalization with overlap
     ethr =  2.29E-08,  avg # of iterations =  9.9

     negative rho (up, down):  1.628E-02 0.000E+00
 
     Adding external electric field

     Computed dipole along edir(3) : 
        Dipole                1.2849 Ry au,          3.2659 Debye
        Dipole field          0.0024 Ry au, 
 
        Potential amp.       -0.2248 Ry
        Total length         46.3494 bohr
 

     total cpu time spent up to now is     1257.0 secs

     total energy              =   -2937.80825303 Ry
     estimated scf accuracy    <       0.00003623 Ry

     iteration # 45     ecut=    29.40 Ry     beta= 0.05
     Davidson diagonalization with overlap
     ethr =  9.20E-09,  avg # of iterations = 11.9

     negative rho (up, down):  1.626E-02 0.000E+00
 
     Adding external electric field

     Computed dipole along edir(3) : 
        Dipole                1.2869 Ry au,          3.2711 Debye
        Dipole field          0.0024 Ry au, 
 
        Potential amp.       -0.2251 Ry
        Total length         46.3494 bohr
 

     total cpu time spent up to now is     1287.5 secs

     total energy              =   -2937.80827515 Ry
     estimated scf accuracy    <       0.00004227 Ry

     iteration # 46     ecut=    29.40 Ry     beta= 0.05
     Davidson diagonalization with overlap
     ethr =  9.20E-09,  avg # of iterations =  5.0

     negative rho (up, down):  1.626E-02 0.000E+00
 
     Adding external electric field

     Computed dipole along edir(3) : 
        Dipole                1.2883 Ry au,          3.2745 Debye
        Dipole field          0.0024 Ry au, 
 
        Potential amp.       -0.2254 Ry
        Total length         46.3494 bohr
 

     total cpu time spent up to now is     1307.8 secs

     total energy              =   -2937.80829311 Ry
     estimated scf accuracy    <       0.00001200 Ry

     iteration # 47     ecut=    29.40 Ry     beta= 0.05
     Davidson diagonalization with overlap
     ethr =  3.04E-09,  avg # of iterations = 11.8

     negative rho (up, down):  1.629E-02 0.000E+00
 
     Adding external electric field

     Computed dipole along edir(3) : 
        Dipole                1.2882 Ry au,          3.2742 Debye
        Dipole field          0.0024 Ry au, 
 
        Potential amp.       -0.2253 Ry
        Total length         46.3494 bohr
 

     total cpu time spent up to now is     1336.9 secs

     total energy              =   -2937.80831073 Ry
     estimated scf accuracy    <       0.00000588 Ry

     iteration # 48     ecut=    29.40 Ry     beta= 0.05
     Davidson diagonalization with overlap
     ethr =  1.49E-09,  avg # of iterations =  8.6

     negative rho (up, down):  1.631E-02 0.000E+00
 
     Adding external electric field

     Computed dipole along edir(3) : 
        Dipole                1.2892 Ry au,          3.2767 Debye
        Dipole field          0.0024 Ry au, 
 
        Potential amp.       -0.2255 Ry
        Total length         46.3494 bohr
 

     total cpu time spent up to now is     1363.4 secs

     total energy              =   -2937.80832563 Ry
     estimated scf accuracy    <       0.00000409 Ry

     iteration # 49     ecut=    29.40 Ry     beta= 0.05
     Davidson diagonalization with overlap
     ethr =  1.04E-09,  avg # of iterations =  8.4

     negative rho (up, down):  1.632E-02 0.000E+00
 
     Adding external electric field

     Computed dipole along edir(3) : 
        Dipole                1.2899 Ry au,          3.2787 Debye
        Dipole field          0.0024 Ry au, 
 
        Potential amp.       -0.2257 Ry
        Total length         46.3494 bohr
 

     total cpu time spent up to now is     1386.1 secs

     total energy              =   -2937.80833865 Ry
     estimated scf accuracy    <       0.00000146 Ry

     iteration # 50     ecut=    29.40 Ry     beta= 0.05
     Davidson diagonalization with overlap
     c_bands:  1 eigenvalues not converged
     c_bands:  1 eigenvalues not converged
     ethr =  3.70E-10,  avg # of iterations = 15.8

     negative rho (up, down):  1.631E-02 0.000E+00
 
     Adding external electric field

     Computed dipole along edir(3) : 
        Dipole                1.2896 Ry au,          3.2779 Debye
        Dipole field          0.0024 Ry au, 
 
        Potential amp.       -0.2256 Ry
        Total length         46.3494 bohr
 

     total cpu time spent up to now is     1421.5 secs

     total energy              =   -2937.80835021 Ry
     estimated scf accuracy    <       0.00000315 Ry

     iteration # 51     ecut=    29.40 Ry     beta= 0.05
     Davidson diagonalization with overlap
     ethr =  3.70E-10,  avg # of iterations =  2.2

     negative rho (up, down):  1.628E-02 0.000E+00
 
     Adding external electric field

     Computed dipole along edir(3) : 
        Dipole                1.2886 Ry au,          3.2753 Debye
        Dipole field          0.0024 Ry au, 
 
        Potential amp.       -0.2254 Ry
        Total length         46.3494 bohr
 

     total cpu time spent up to now is     1439.9 secs

     total energy              =   -2937.80835986 Ry
     estimated scf accuracy    <       0.00000222 Ry

     iteration # 52     ecut=    29.40 Ry     beta= 0.05
     Davidson diagonalization with overlap
     c_bands:  1 eigenvalues not converged
     ethr =  3.70E-10,  avg # of iterations = 13.1

     negative rho (up, down):  1.627E-02 0.000E+00
 
     Adding external electric field

     Computed dipole along edir(3) : 
        Dipole                1.2887 Ry au,          3.2756 Debye
        Dipole field          0.0024 Ry au, 
 
        Potential amp.       -0.2254 Ry
        Total length         46.3494 bohr
 

     total cpu time spent up to now is     1472.1 secs

     total energy              =   -2937.80836949 Ry
     estimated scf accuracy    <       0.00000114 Ry

     iteration # 53     ecut=    29.40 Ry     beta= 0.05
     Davidson diagonalization with overlap
     ethr =  2.89E-10,  avg # of iterations =  5.8

     negative rho (up, down):  1.624E-02 0.000E+00
 
     Adding external electric field

     Computed dipole along edir(3) : 
        Dipole                1.2885 Ry au,          3.2751 Debye
        Dipole field          0.0024 Ry au, 
 
        Potential amp.       -0.2254 Ry
        Total length         46.3494 bohr
 

     total cpu time spent up to now is     1492.4 secs

     total energy              =   -2937.80837792 Ry
     estimated scf accuracy    <       0.00000054 Ry

     iteration # 54     ecut=    29.40 Ry     beta= 0.05
     Davidson diagonalization with overlap
     c_bands:  1 eigenvalues not converged
     ethr =  1.38E-10,  avg # of iterations = 13.2

     negative rho (up, down):  1.622E-02 0.000E+00
 
     Adding external electric field

     Computed dipole along edir(3) : 
        Dipole                1.2880 Ry au,          3.2739 Debye
        Dipole field          0.0024 Ry au, 
 
        Potential amp.       -0.2253 Ry
        Total length         46.3494 bohr
 

     total cpu time spent up to now is     1524.3 secs

     total energy              =   -2937.80838549 Ry
     estimated scf accuracy    <       0.00000066 Ry

     iteration # 55     ecut=    29.40 Ry     beta= 0.05
     Davidson diagonalization with overlap
     ethr =  1.38E-10,  avg # of iterations =  4.1

     negative rho (up, down):  1.622E-02 0.000E+00
 
     Adding external electric field

     Computed dipole along edir(3) : 
        Dipole                1.2877 Ry au,          3.2731 Debye
        Dipole field          0.0024 Ry au, 
 
        Potential amp.       -0.2253 Ry
        Total length         46.3494 bohr
 

     total cpu time spent up to now is     1543.9 secs

     total energy              =   -2937.80839223 Ry
     estimated scf accuracy    <       0.00000032 Ry

     iteration # 56     ecut=    29.40 Ry     beta= 0.05
     Davidson diagonalization with overlap
     c_bands:  1 eigenvalues not converged
     ethr =  8.16E-11,  avg # of iterations = 11.7

     negative rho (up, down):  1.620E-02 0.000E+00
 
     Adding external electric field

     Computed dipole along edir(3) : 
        Dipole                1.2876 Ry au,          3.2727 Debye
        Dipole field          0.0024 Ry au, 
 
        Potential amp.       -0.2252 Ry
        Total length         46.3494 bohr
 

     total cpu time spent up to now is     1575.3 secs

     total energy              =   -2937.80839848 Ry
     estimated scf accuracy    <       0.00000037 Ry

     iteration # 57     ecut=    29.40 Ry     beta= 0.05
     Davidson diagonalization with overlap
     c_bands:  1 eigenvalues not converged
     ethr =  8.16E-11,  avg # of iterations =  9.6

     negative rho (up, down):  1.619E-02 0.000E+00
 
     Adding external electric field

     Computed dipole along edir(3) : 
        Dipole                1.2873 Ry au,          3.2721 Debye
        Dipole field          0.0024 Ry au, 
 
        Potential amp.       -0.2252 Ry
        Total length         46.3494 bohr
 

     total cpu time spent up to now is     1600.9 secs

     total energy              =   -2937.80840406 Ry
     estimated scf accuracy    <       0.00000008 Ry

     iteration # 58     ecut=    29.40 Ry     beta= 0.05
     Davidson diagonalization with overlap
     ethr =  1.98E-11,  avg # of iterations = 11.3

     negative rho (up, down):  1.619E-02 0.000E+00
 
     Adding external electric field

     Computed dipole along edir(3) : 
        Dipole                1.2873 Ry au,          3.2719 Debye
        Dipole field          0.0024 Ry au, 
 
        Potential amp.       -0.2252 Ry
        Total length         46.3494 bohr
 

     total cpu time spent up to now is     1632.2 secs

     total energy              =   -2937.80840903 Ry
     estimated scf accuracy    <       0.00000010 Ry

     iteration # 59     ecut=    29.40 Ry     beta= 0.05
     Davidson diagonalization with overlap
     ethr =  1.98E-11,  avg # of iterations =  2.0

     negative rho (up, down):  1.619E-02 0.000E+00
 
     Adding external electric field

     Computed dipole along edir(3) : 
        Dipole                1.2872 Ry au,          3.2716 Debye
        Dipole field          0.0024 Ry au, 
 
        Potential amp.       -0.2252 Ry
        Total length         46.3494 bohr
 

     total cpu time spent up to now is     1650.9 secs

     total energy              =   -2937.80841349 Ry
     estimated scf accuracy    <       0.00000009 Ry

     iteration # 60     ecut=    29.40 Ry     beta= 0.05
     Davidson diagonalization with overlap
     ethr =  1.98E-11,  avg # of iterations =  7.0

     negative rho (up, down):  1.628E-02 0.000E+00
 
     Adding external electric field

     Computed dipole along edir(3) : 
        Dipole                1.2875 Ry au,          3.2725 Debye
        Dipole field          0.0024 Ry au, 
 
        Potential amp.       -0.2252 Ry
        Total length         46.3494 bohr
 

     total cpu time spent up to now is     1674.8 secs

     End of self-consistent calculation

          k = 0.0000 0.0000 0.0000 ( 18029 PWs)   bands (ev):

   -55.4384 -55.4024 -55.4021 -55.3680 -55.3318 -55.3159 -55.2728 -55.2511
   -55.2463 -55.2361 -55.2286 -55.2166 -55.1952 -55.1687 -54.4201 -54.3861
   -32.0074 -31.8927 -31.8320 -31.8016 -31.7577 -31.7499 -31.7403 -31.7315
   -31.6918 -31.6850 -31.6475 -31.6467 -31.6393 -31.6121 -31.5928 -31.5745
   -31.5701 -31.5638 -31.5555 -31.5498 -31.5147 -31.5141 -31.5046 -31.4961
   -31.4815 -31.4592 -31.4534 -31.4519 -31.4462 -31.4426 -31.4396 -31.4252
   -31.4173 -31.4108 -31.4053 -31.4003 -31.3792 -31.3657 -31.3639 -31.3579
   -31.3373 -31.2754 -30.8290 -30.7361 -30.7140 -30.6455 -30.5587 -30.4478
   -20.2197 -16.2530 -15.9805 -15.8363 -15.7134 -15.6287 -15.5021 -15.4619
   -15.3445 -15.3098 -15.2303 -15.1551 -15.0877 -15.0854 -15.0688 -15.0411
   -14.9901 -14.9736 -14.9710 -14.9287 -14.9266 -14.8846 -14.8651 -14.8311
   -14.8132 -14.7943 -14.7766 -14.6545 -14.5849 -14.5262 -14.1650 -12.9230
   -12.8057  -8.8335  -7.1756  -5.4189  -4.7081  -3.5980  -3.4381  -3.3510
    -3.3347  -3.3319  -3.1662  -3.0385  -2.8109  -2.7726  -2.6995  -2.6451
    -2.6272  -2.6053  -2.4275  -2.4031  -2.3435  -2.3162  -2.2788  -2.2486
    -2.2237  -2.2029  -2.1961  -2.1778  -2.1642  -2.0031  -1.9046  -1.8736
    -1.8381  -1.8241  -1.7645  -1.7314  -1.7257  -1.7236  -1.7146  -1.6714
    -1.6521  -1.6039  -1.5021  -1.4687  -1.4413  -1.3193  -1.3037  -1.1562
    -1.0710  -0.9864  -0.9790  -0.9122  -0.9064  -0.8735  -0.8221  -0.7977
    -0.7738  -0.6402  -0.5699  -0.5116  -0.4972  -0.4528  -0.4075  -0.3715
    -0.2781  -0.2140  -0.2062  -0.1942  -0.0294  -0.0152   0.0317   0.0813
     0.1056   0.1544   0.1793   0.2490   0.2832   0.3286   0.3589   0.4555
     0.4946   0.5155   0.5290   0.5488   0.5611   0.6217   0.6884   0.7069
     0.7551   0.8108   0.9232   1.1207   1.1827   1.1958   1.5120   1.5460
     1.6023   1.7875   2.1773   2.2250   3.6618   3.7332   3.7970   3.8121
     3.8210   3.8974   4.0713   4.1449   4.1607   4.1672   4.1785

          k = 0.0000 0.0419 0.0000 ( 17933 PWs)   bands (ev):

   -55.4331 -55.4075 -55.3971 -55.3729 -55.3302 -55.3121 -55.2764 -55.2460
   -55.2442 -55.2376 -55.2236 -55.2216 -55.2000 -55.1707 -54.4151 -54.3910
   -31.9501 -31.8386 -31.7946 -31.7473 -31.7466 -31.7004 -31.6919 -31.6907
   -31.6869 -31.6864 -31.6669 -31.6386 -31.6362 -31.6274 -31.6127 -31.5842
   -31.5709 -31.5598 -31.5552 -31.5415 -31.5354 -31.5116 -31.5054 -31.4910
   -31.4774 -31.4749 -31.4732 -31.4599 -31.4598 -31.4569 -31.4560 -31.4489
   -31.4216 -31.4199 -31.4169 -31.4154 -31.4026 -31.3968 -31.3923 -31.3732
   -31.3669 -31.3171 -30.7748 -30.7327 -30.7169 -30.6329 -30.5713 -30.5050
   -20.2192 -16.1216 -15.8630 -15.7391 -15.6456 -15.5209 -15.4702 -15.4191
   -15.3425 -15.3128 -15.2807 -15.2204 -15.1667 -15.1100 -15.0706 -15.0337
   -14.9953 -14.9842 -14.9387 -14.9262 -14.9139 -14.8903 -14.8796 -14.8700
   -14.8313 -14.8199 -14.7934 -14.7109 -14.6409 -14.5855 -14.2848 -12.9266
   -12.8450  -8.8342  -7.1752  -5.4172  -4.6984  -3.4072  -3.2724  -3.1958
    -3.1762  -3.1576  -3.0199  -2.8110  -2.7564  -2.6748  -2.6578  -2.5725
    -2.5666  -2.5370  -2.4912  -2.4442  -2.4123  -2.4099  -2.3890  -2.3656
    -2.3006  -2.2862  -2.2241  -2.2040  -2.1674  -2.1504  -2.0193  -1.9964
    -1.9793  -1.9758  -1.9175  -1.8819  -1.8623  -1.7676  -1.7323  -1.6883
    -1.6023  -1.5025  -1.3931  -1.3574  -1.3423  -1.2124  -1.1780  -1.1273
    -1.1005  -0.9824  -0.9380  -0.8164  -0.7913  -0.7436  -0.6819  -0.6415
    -0.6127  -0.5695  -0.5626  -0.4635  -0.4236  -0.4007  -0.3729  -0.3321
    -0.2889  -0.2562  -0.2420  -0.2122  -0.1074  -0.0558  -0.0056   0.0018
     0.0527   0.0794   0.1054   0.1854   0.2388   0.2712   0.3045   0.3290
     0.3325   0.3767   0.4130   0.4383   0.5465   0.5799   0.6150   0.6885
     0.6975   0.7934   0.8639   0.8809   0.9644   1.0822   1.2125   1.4207
     1.7870   1.8645   2.1320   2.1356   3.8549   3.8765   3.8902   3.9449
     3.9868   4.0431   4.0667   4.0766   4.1089   4.1609   4.1885

          k = 0.0000-0.0839 0.0000 ( 17884 PWs)   bands (ev):

   -55.4215 -55.4190 -55.3851 -55.3849 -55.3286 -55.3073 -55.2811 -55.2422
   -55.2390 -55.2349 -55.2327 -55.2122 -55.2114 -55.1728 -54.4031 -54.4029
   -31.8118 -31.8089 -31.7499 -31.7306 -31.7062 -31.7061 -31.6956 -31.6771
   -31.6769 -31.6393 -31.6286 -31.6243 -31.6122 -31.6067 -31.6016 -31.5860
   -31.5587 -31.5563 -31.5515 -31.5462 -31.5445 -31.5211 -31.5126 -31.5083
   -31.5075 -31.5071 -31.5006 -31.4986 -31.4984 -31.4834 -31.4702 -31.4678
   -31.4661 -31.4652 -31.4574 -31.4195 -31.3983 -31.3969 -31.3925 -31.3916
   -31.3696 -31.3678 -30.7246 -30.7245 -30.6417 -30.6416 -30.6021 -30.6021
   -20.2187 -15.8330 -15.7719 -15.6152 -15.5717 -15.5075 -15.4446 -15.4230
   -15.3378 -15.2988 -15.2962 -15.2649 -15.2447 -15.2007 -15.1680 -15.0335
   -15.0288 -15.0151 -14.9273 -14.9244 -14.9218 -14.8516 -14.8440 -14.8381
   -14.8347 -14.7807 -14.7733 -14.7311 -14.7248 -14.6720 -14.4990 -12.9078
   -12.9076  -8.8349  -7.1749  -5.4155  -4.6910  -2.9841  -2.9396  -2.8967
    -2.8834  -2.8584  -2.8482  -2.8205  -2.7900  -2.7447  -2.7173  -2.7150
    -2.6098  -2.5838  -2.5782  -2.5519  -2.5356  -2.4691  -2.4227  -2.3861
    -2.3632  -2.3084  -2.2848  -2.2727  -2.2626  -2.2404  -2.1226  -2.1042
    -2.0617  -2.0129  -1.9406  -1.8751  -1.8188  -1.8065  -1.6634  -1.5499
    -1.4694  -1.4466  -1.3306  -1.2449  -1.2041  -1.1908  -1.1762  -0.9999
    -0.9226  -0.9084  -0.9010  -0.8842  -0.8442  -0.8235  -0.7935  -0.7873
    -0.7371  -0.6642  -0.6499  -0.5670  -0.4449  -0.3793  -0.2830  -0.2179
    -0.1940  -0.1540  -0.1477  -0.1214  -0.0606  -0.0441  -0.0399   0.0018
     0.0359   0.0730   0.0889   0.0960   0.1560   0.1779   0.1994   0.2324
     0.2629   0.3253   0.3353   0.3484   0.3517   0.3936   0.4213   0.5748
     0.7210   0.7769   0.7800   0.7838   0.9572   1.0313   1.1385   1.1746
     1.9292   1.9297   2.0679   2.0682   3.8659   3.9539   3.9683   3.9858
     3.9887   4.0716   4.1407   4.1429   4.2482   4.2647   4.2717

          k = 0.0380 0.0000 0.0000 ( 17913 PWs)   bands (ev):

   -55.4383 -55.4023 -55.4020 -55.3679 -55.3316 -55.3158 -55.2727 -55.2508
   -55.2461 -55.2361 -55.2287 -55.2165 -55.1951 -55.1686 -54.4200 -54.3860
   -32.0075 -31.8935 -31.8321 -31.8070 -31.7576 -31.7529 -31.7445 -31.7317
   -31.6915 -31.6849 -31.6466 -31.6393 -31.6301 -31.6121 -31.5924 -31.5679
   -31.5637 -31.5565 -31.5518 -31.5305 -31.5146 -31.5139 -31.5131 -31.5045
   -31.4812 -31.4592 -31.4531 -31.4525 -31.4497 -31.4425 -31.4323 -31.4265
   -31.4246 -31.4172 -31.4114 -31.4013 -31.3832 -31.3641 -31.3634 -31.3579
   -31.3379 -31.2754 -30.8285 -30.7396 -30.7119 -30.6453 -30.5586 -30.4476
   -20.2195 -16.1770 -15.8937 -15.8102 -15.6890 -15.5268 -15.5053 -15.4808
   -15.3632 -15.3109 -15.2306 -15.2045 -15.1929 -15.1535 -15.1184 -15.1125
   -15.0880 -15.0498 -15.0212 -14.9451 -14.8845 -14.8345 -14.8096 -14.7781
   -14.7662 -14.7281 -14.6799 -14.6643 -14.6548 -14.6149 -14.1638 -12.9196
   -12.8054  -8.8260  -7.1862  -5.4118  -4.7093  -3.4982  -3.2902  -3.1986
    -3.1126  -3.0718  -3.0408  -3.0189  -2.9483  -2.8067  -2.7947  -2.7507
    -2.6924  -2.5853  -2.5149  -2.4771  -2.3751  -2.3700  -2.2228  -2.2034
    -2.1800  -2.1135  -2.0991  -2.0677  -2.0307  -1.9763  -1.8995  -1.8352
    -1.8160  -1.7806  -1.7336  -1.7152  -1.6863  -1.6790  -1.6447  -1.6124
    -1.5439  -1.5169  -1.4722  -1.4436  -1.3680  -1.3069  -1.2453  -1.2121
    -1.0869  -1.0654  -1.0213  -0.9381  -0.9117  -0.8685  -0.8576  -0.8389
    -0.7782  -0.7497  -0.7448  -0.5406  -0.5163  -0.4432  -0.3948  -0.3591
    -0.3049  -0.2921  -0.2751  -0.1300  -0.0804  -0.0503  -0.0271   0.0344
     0.0680   0.1106   0.1686   0.1948   0.2399   0.2497   0.2962   0.3355
     0.3589   0.3719   0.3975   0.4342   0.5348   0.5540   0.6509   0.6574
     0.6705   0.7981   0.8128   0.9078   1.0395   1.2296   1.4067   1.5176
     1.6142   1.7564   2.0649   2.1422   3.6799   3.7564   3.9037   3.9771
     3.9802   4.0542   4.0604   4.1005   4.1341   4.1563   4.1745

          k = 0.0380 0.0419 0.0000 ( 17878 PWs)   bands (ev):

   -55.4330 -55.4075 -55.3970 -55.3729 -55.3301 -55.3120 -55.2764 -55.2457
   -55.2441 -55.2376 -55.2238 -55.2215 -55.2000 -55.1707 -54.4150 -54.3910
   -31.9503 -31.8395 -31.7948 -31.7536 -31.7466 -31.7033 -31.6930 -31.6913
   -31.6895 -31.6867 -31.6671 -31.6389 -31.6280 -31.6216 -31.6128 -31.5745
   -31.5710 -31.5552 -31.5478 -31.5383 -31.5185 -31.5117 -31.5068 -31.5052
   -31.4769 -31.4728 -31.4727 -31.4600 -31.4569 -31.4548 -31.4519 -31.4475
   -31.4326 -31.4263 -31.4176 -31.4122 -31.4089 -31.4030 -31.3919 -31.3785
   -31.3669 -31.3169 -30.7744 -30.7354 -30.7159 -30.6327 -30.5714 -30.5048
   -20.2190 -16.0519 -15.7809 -15.7383 -15.5981 -15.4723 -15.4336 -15.4179
   -15.3497 -15.3156 -15.2976 -15.2196 -15.1923 -15.1373 -15.1046 -15.0964
   -15.0850 -15.0158 -14.9975 -14.9718 -14.9286 -14.8729 -14.8588 -14.8229
   -14.7828 -14.7744 -14.7585 -14.7226 -14.7024 -14.6687 -14.2840 -12.9243
   -12.8453  -8.8264  -7.1858  -5.4138  -4.6978  -3.3227  -3.1307  -3.0317
    -2.9516  -2.9142  -2.8718  -2.8181  -2.7802  -2.7018  -2.6611  -2.6027
    -2.5410  -2.4994  -2.4697  -2.4488  -2.4123  -2.3566  -2.3280  -2.2949
    -2.2460  -2.2267  -2.2105  -2.1861  -2.1280  -2.1207  -2.0608  -2.0015
    -1.9477  -1.9169  -1.8776  -1.8449  -1.8210  -1.7540  -1.7042  -1.6257
    -1.5122  -1.4891  -1.4348  -1.4111  -1.2436  -1.2134  -1.1803  -1.1232
    -1.0589  -0.9941  -0.9334  -0.8998  -0.8503  -0.8202  -0.7873  -0.7779
    -0.6968  -0.6472  -0.6125  -0.5569  -0.5056  -0.4869  -0.4064  -0.3867
    -0.3466  -0.3252  -0.2572  -0.1962  -0.1803  -0.1444  -0.1116  -0.0749
    -0.0660  -0.0473   0.0130   0.0576   0.1254   0.1525   0.1726   0.2276
     0.2579   0.3038   0.3596   0.4170   0.5011   0.6029   0.6344   0.6802
     0.7489   0.7553   0.8320   0.9042   0.9825   1.0273   1.1635   1.3700
     1.7979   1.8680   2.0542   2.1172   3.8443   3.8605   3.8901   3.9664
     4.0096   4.0418   4.0863   4.0966   4.1789   4.2302   4.2477

          k = 0.0380-0.0839 0.0000 ( 17916 PWs)   bands (ev):

   -55.4215 -55.4190 -55.3851 -55.3849 -55.3285 -55.3074 -55.2811 -55.2420
   -55.2391 -55.2348 -55.2325 -55.2123 -55.2115 -55.1729 -54.4031 -54.4029
   -31.8121 -31.8091 -31.7502 -31.7307 -31.7070 -31.7069 -31.6957 -31.6772
   -31.6770 -31.6407 -31.6394 -31.6299 -31.6270 -31.5884 -31.5830 -31.5771
   -31.5638 -31.5612 -31.5560 -31.5456 -31.5405 -31.5220 -31.5136 -31.5094
   -31.5060 -31.5056 -31.4989 -31.4928 -31.4804 -31.4784 -31.4678 -31.4675
   -31.4655 -31.4651 -31.4578 -31.4245 -31.4103 -31.4089 -31.3925 -31.3916
   -31.3778 -31.3668 -30.7257 -30.7256 -30.6417 -30.6415 -30.6021 -30.6021
   -20.2186 -15.7859 -15.7332 -15.5919 -15.5202 -15.5054 -15.4028 -15.3715
   -15.3286 -15.2870 -15.2805 -15.2670 -15.2332 -15.1592 -15.1277 -15.0576
   -15.0513 -15.0050 -15.0031 -14.9947 -14.9415 -14.8993 -14.8808 -14.8663
   -14.8566 -14.8007 -14.7921 -14.7808 -14.7779 -14.6590 -14.4916 -12.9075
   -12.9074  -8.8268  -7.1851  -5.4164  -4.6910  -2.9661  -2.8941  -2.8613
    -2.7048  -2.6977  -2.6785  -2.6334  -2.5963  -2.5910  -2.5573  -2.5214
    -2.5184  -2.5147  -2.5046  -2.4692  -2.4651  -2.4026  -2.3935  -2.3583
    -2.3195  -2.3048  -2.2721  -2.2605  -2.1916  -2.1593  -2.1188  -2.1084
    -2.0702  -2.0400  -1.9942  -1.8007  -1.7829  -1.6530  -1.6268  -1.5072
    -1.4441  -1.4270  -1.3862  -1.3628  -1.3272  -1.2850  -1.2603  -1.1749
    -1.1642  -1.1096  -1.1074  -0.9979  -0.9856  -0.8717  -0.8119  -0.7991
    -0.7581  -0.7419  -0.6689  -0.6291  -0.4887  -0.4689  -0.4128  -0.3982
    -0.3323  -0.3175  -0.2608  -0.2309  -0.2265  -0.2193  -0.1386  -0.1181
    -0.0645  -0.0562  -0.0128   0.0093   0.0447   0.0726   0.0976   0.1663
     0.2934   0.3207   0.3742   0.4254   0.4871   0.5914   0.6369   0.6498
     0.6876   0.7228   0.8157   0.8287   0.9263   0.9684   1.1302   1.1632
     1.9426   1.9432   2.0581   2.0588   3.8500   3.8743   3.9101   3.9826
     4.0045   4.0697   4.1179   4.1344   4.2549   4.2648   4.3113

          k = 0.0380-0.0419 0.0000 ( 17876 PWs)   bands (ev):

   -55.4330 -55.4075 -55.3970 -55.3729 -55.3301 -55.3120 -55.2764 -55.2457
   -55.2441 -55.2376 -55.2238 -55.2215 -55.2000 -55.1707 -54.4150 -54.3910
   -31.9503 -31.8395 -31.7948 -31.7536 -31.7466 -31.7034 -31.6930 -31.6913
   -31.6895 -31.6867 -31.6671 -31.6389 -31.6280 -31.6216 -31.6128 -31.5745
   -31.5710 -31.5552 -31.5475 -31.5383 -31.5184 -31.5117 -31.5068 -31.5052
   -31.4769 -31.4728 -31.4727 -31.4603 -31.4569 -31.4563 -31.4519 -31.4475
   -31.4328 -31.4245 -31.4175 -31.4121 -31.4089 -31.4030 -31.3919 -31.3789
   -31.3669 -31.3169 -30.7744 -30.7354 -30.7159 -30.6327 -30.5714 -30.5048
   -20.2190 -16.0520 -15.7810 -15.7384 -15.5963 -15.4725 -15.4324 -15.4176
   -15.3513 -15.3168 -15.2972 -15.2192 -15.1948 -15.1378 -15.1047 -15.0968
   -15.0858 -15.0076 -15.0027 -14.9718 -14.9281 -14.8728 -14.8585 -14.8233
   -14.7826 -14.7750 -14.7578 -14.7225 -14.7028 -14.6690 -14.2837 -12.9243
   -12.8453  -8.8263  -7.1853  -5.4144  -4.7000  -3.3227  -3.1305  -3.0319
    -2.9530  -2.9136  -2.8712  -2.8168  -2.7797  -2.6996  -2.6636  -2.6025
    -2.5403  -2.4986  -2.4691  -2.4481  -2.4127  -2.3568  -2.3278  -2.2935
    -2.2460  -2.2257  -2.2071  -2.1862  -2.1272  -2.1203  -2.0614  -2.0015
    -1.9494  -1.9249  -1.8870  -1.8504  -1.8203  -1.7374  -1.7090  -1.6255
    -1.5126  -1.4905  -1.4333  -1.4120  -1.2496  -1.2137  -1.1830  -1.1234
    -1.0622  -0.9914  -0.9284  -0.8939  -0.8520  -0.8186  -0.7861  -0.7816
    -0.6953  -0.6457  -0.6126  -0.5461  -0.5076  -0.4853  -0.4069  -0.3867
    -0.3483  -0.3221  -0.2501  -0.1985  -0.1815  -0.1418  -0.1146  -0.0751
    -0.0549  -0.0483   0.0128   0.0585   0.1283   0.1477   0.1799   0.2345
     0.2496   0.3055   0.3532   0.4130   0.5010   0.6017   0.6311   0.6800
     0.7458   0.7544   0.8301   0.8970   0.9822   1.0274   1.1638   1.3702
     1.7979   1.8680   2.0540   2.1178   3.8418   3.8625   3.8906   3.9549
     4.0089   4.0674   4.0918   4.1030   4.1754   4.2275   4.2487

          k =-0.0760-0.0000 0.0000 ( 17886 PWs)   bands (ev):

   -55.4382 -55.4022 -55.4020 -55.3679 -55.3316 -55.3158 -55.2727 -55.2505
   -55.2460 -55.2362 -55.2289 -55.2165 -55.1951 -55.1686 -54.4200 -54.3860
   -32.0077 -31.8945 -31.8324 -31.8122 -31.7574 -31.7558 -31.7485 -31.7320
   -31.6914 -31.6849 -31.6466 -31.6393 -31.6121 -31.6046 -31.5923 -31.5635
   -31.5623 -31.5487 -31.5397 -31.5386 -31.5145 -31.5138 -31.5045 -31.4931
   -31.4817 -31.4632 -31.4599 -31.4597 -31.4529 -31.4510 -31.4427 -31.4253
   -31.4250 -31.4173 -31.4138 -31.4037 -31.3854 -31.3632 -31.3627 -31.3580
   -31.3389 -31.2755 -30.8281 -30.7430 -30.7106 -30.6452 -30.5585 -30.4476
   -20.2193 -16.0628 -15.8857 -15.7143 -15.6433 -15.5134 -15.4803 -15.4453
   -15.3308 -15.3105 -15.2718 -15.2568 -15.2315 -15.1996 -15.1972 -15.1576
   -15.1544 -15.1449 -15.0551 -14.8945 -14.8824 -14.8389 -14.8220 -14.8092
   -14.7800 -14.7408 -14.6856 -14.6821 -14.5883 -14.5777 -14.1629 -12.9166
   -12.8051  -8.8185  -7.1972  -5.4052  -4.7105  -3.4699  -3.2589  -3.0677
    -3.0007  -2.9166  -2.8955  -2.8724  -2.8224  -2.8137  -2.8073  -2.7290
    -2.6890  -2.6733  -2.5023  -2.3732  -2.3342  -2.2730  -2.1868  -2.0709
    -2.0598  -2.0512  -1.9969  -1.9694  -1.9556  -1.9257  -1.9111  -1.8265
    -1.7972  -1.7894  -1.7726  -1.7575  -1.7326  -1.7267  -1.7041  -1.6492
    -1.5510  -1.5298  -1.5144  -1.4168  -1.2551  -1.2344  -1.1216  -1.1080
    -1.0710  -1.0548  -1.0450  -1.0082  -0.9690  -0.9412  -0.9211  -0.8861
    -0.8413  -0.7628  -0.7329  -0.7000  -0.6986  -0.6311  -0.5673  -0.3763
    -0.3388  -0.3322  -0.2996  -0.1769  -0.1706  -0.1376  -0.0550  -0.0304
     0.0056   0.0856   0.1032   0.1477   0.1698   0.2194   0.2349   0.2655
     0.2709   0.3184   0.3575   0.3669   0.4247   0.4884   0.5686   0.6251
     0.7082   0.7374   0.8947   0.9050   1.0721   1.1278   1.2502   1.5227
     1.6355   1.7316   1.9348   2.0870   3.6816   3.7180   3.7963   3.9387
     3.9482   4.0347   4.0446   4.1082   4.1505   4.1805   4.2057

          k =-0.0760 0.0419 0.0000 ( 17914 PWs)   bands (ev):

   -55.4329 -55.4075 -55.3970 -55.3729 -55.3301 -55.3121 -55.2764 -55.2455
   -55.2440 -55.2378 -55.2240 -55.2215 -55.2001 -55.1707 -54.4150 -54.3910
   -31.9506 -31.8405 -31.7951 -31.7598 -31.7467 -31.7065 -31.6965 -31.6921
   -31.6904 -31.6867 -31.6671 -31.6392 -31.6277 -31.6130 -31.6039 -31.5713
   -31.5653 -31.5551 -31.5360 -31.5327 -31.5263 -31.5116 -31.5053 -31.4814
   -31.4784 -31.4728 -31.4719 -31.4678 -31.4643 -31.4595 -31.4569 -31.4551
   -31.4287 -31.4221 -31.4174 -31.4166 -31.4137 -31.4094 -31.3931 -31.3846
   -31.3670 -31.3169 -30.7742 -30.7383 -30.7152 -30.6327 -30.5714 -30.5049
   -20.2189 -15.9457 -15.7996 -15.6356 -15.5534 -15.4710 -15.4046 -15.3654
   -15.3508 -15.3213 -15.2436 -15.2204 -15.2111 -15.1779 -15.1671 -15.1350
   -15.1259 -15.1195 -15.0484 -14.9876 -14.9476 -14.8760 -14.8581 -14.8526
   -14.8045 -14.7744 -14.7541 -14.7283 -14.6840 -14.6771 -14.2831 -12.9222
   -12.8456  -8.8186  -7.1962  -5.4114  -4.6995  -3.3030  -3.1040  -2.8170
    -2.8121  -2.7135  -2.7071  -2.6797  -2.6388  -2.6269  -2.5953  -2.5704
    -2.5366  -2.4725  -2.4478  -2.4008  -2.3899  -2.3629  -2.2904  -2.2515
    -2.2010  -2.1599  -2.1235  -2.1053  -2.0296  -2.0121  -1.9992  -1.9821
    -1.9719  -1.9153  -1.8907  -1.8670  -1.8083  -1.6338  -1.6181  -1.5985
    -1.5804  -1.5524  -1.4232  -1.3980  -1.2127  -1.1888  -1.1550  -1.1163
    -1.0555  -1.0239  -1.0068  -0.9884  -0.9337  -0.9179  -0.8333  -0.8185
    -0.7972  -0.7363  -0.7115  -0.6641  -0.6578  -0.6505  -0.6211  -0.5799
    -0.5198  -0.4925  -0.4047  -0.3554  -0.3183  -0.2250  -0.2196  -0.2011
    -0.1563  -0.1241  -0.0769   0.0105   0.0269   0.1122   0.1484   0.1966
     0.3189   0.3248   0.3410   0.3834   0.5224   0.5945   0.6413   0.7154
     0.8220   0.8473   0.8518   0.9550   1.0138   1.0609   1.0893   1.2349
     1.8130   1.8704   1.9766   2.1064   3.8353   3.8537   3.8811   3.8981
     3.9392   3.9874   4.0434   4.0604   4.1476   4.1891   4.2869

          k =-0.0760-0.0839 0.0000 ( 17948 PWs)   bands (ev):

   -55.4215 -55.4190 -55.3851 -55.3849 -55.3285 -55.3074 -55.2812 -55.2418
   -55.2394 -55.2346 -55.2324 -55.2125 -55.2117 -55.1729 -54.4031 -54.4030
   -31.8124 -31.8094 -31.7505 -31.7309 -31.7078 -31.7077 -31.6959 -31.6772
   -31.6770 -31.6489 -31.6396 -31.6340 -31.6310 -31.5905 -31.5686 -31.5655
   -31.5654 -31.5575 -31.5569 -31.5464 -31.5336 -31.5244 -31.5140 -31.5101
   -31.5060 -31.5046 -31.5043 -31.4991 -31.4756 -31.4678 -31.4673 -31.4652
   -31.4483 -31.4456 -31.4451 -31.4363 -31.4353 -31.4302 -31.3926 -31.3917
   -31.3870 -31.3668 -30.7267 -30.7266 -30.6416 -30.6415 -30.6021 -30.6021
   -20.2184 -15.7087 -15.6883 -15.6294 -15.4231 -15.4193 -15.4084 -15.3944
   -15.3441 -15.2357 -15.2135 -15.2005 -15.1829 -15.1407 -15.1371 -15.1209
   -15.1113 -15.0119 -15.0097 -15.0076 -15.0062 -14.9437 -14.9358 -14.9220
   -14.8875 -14.8844 -14.8553 -14.7854 -14.7825 -14.6503 -14.4854 -12.9073
   -12.9072  -8.8187  -7.1952  -5.4173  -4.6910  -2.9636  -2.8933  -2.8502
    -2.6406  -2.6178  -2.6032  -2.5199  -2.4710  -2.4089  -2.4014  -2.3952
    -2.3358  -2.3005  -2.2870  -2.2687  -2.2607  -2.2435  -2.2218  -2.2108
    -2.1648  -2.1534  -2.1438  -2.1091  -2.0955  -2.0772  -2.0520  -2.0330
    -2.0187  -2.0131  -1.9930  -1.8332  -1.7814  -1.7348  -1.6807  -1.6738
    -1.6302  -1.6227  -1.5286  -1.4939  -1.4651  -1.4376  -1.4290  -1.2371
    -1.2223  -1.1698  -1.1652  -1.1415  -0.9856  -0.9656  -0.9496  -0.9326
    -0.8871  -0.8045  -0.7980  -0.7609  -0.6535  -0.6235  -0.6158  -0.5663
    -0.4460  -0.4230  -0.4008  -0.3950  -0.3892  -0.2962  -0.2791  -0.2700
    -0.2380  -0.2046  -0.1538  -0.1474  -0.0947   0.0877   0.1323   0.1978
     0.2770   0.4449   0.4850   0.5121   0.5533   0.6146   0.6875   0.7032
     0.7683   0.8623   0.8770   0.9070   0.9792   1.0322   1.0400   1.0643
     1.9603   1.9611   2.0449   2.0450   3.8335   3.8433   3.9063   3.9434
     3.9916   4.0779   4.1807   4.1956   4.2404   4.2415   4.3237

     the Fermi energy is     3.7156 ev

!    total energy              =   -2937.80845453 Ry
     estimated scf accuracy    <       0.00000005 Ry
     smearing contrib. (-TS)   =      -0.03815230 Ry
     internal energy E=F+TS    =   -2937.77030223 Ry

     The total energy is F=E-TS. E is the sum of the following terms:
     one-electron contribution =  -24090.37934361 Ry
     hartree contribution      =   12135.22786319 Ry
     xc contribution           =    -484.37953597 Ry
     ewald contribution        =    9501.75758585 Ry
     electric field correction =       0.00312831 Ry

     convergence has been achieved in  60 iterations

     Forces acting on atoms (cartesian axes, Ry/au):

     atom    1 type  1   force =     0.00005887   -0.00012042    0.09406884
     atom    2 type  1   force =    -0.00015836   -0.00023115   -0.17762194
     atom    3 type  2   force =     0.00011090   -0.00019363   -0.02136301
     atom    4 type  2   force =     0.00002589   -0.00183814    0.05753413
     atom    5 type  2   force =    -0.01068057   -0.00139231    0.00632877
     atom    6 type  2   force =     0.01275014   -0.00074609    0.00661120
     atom    7 type  1   force =     0.00011276    0.00198363   -0.01406819
     atom    8 type  1   force =    -0.00046328    0.00582430    0.00395004
     atom    9 type  2   force =     0.00036216    0.00023068   -0.00007888
     atom   10 type  2   force =    -0.00023992    0.00022909   -0.00512474
     atom   11 type  2   force =     0.00003901   -0.00015926   -0.00045182
     atom   12 type  2   force =    -0.00028289    0.00000355    0.00008187
     atom   13 type  1   force =    -0.00025736    0.00002011   -0.00031415
     atom   14 type  1   force =    -0.00008351    0.00014666   -0.00017390
     atom   15 type  2   force =    -0.00049850   -0.00038832   -0.00012413
     atom   16 type  2   force =    -0.00017924    0.00019201    0.00003933
     atom   17 type  2   force =     0.00001134   -0.00015957   -0.00009006
     atom   18 type  2   force =    -0.00040001   -0.00012547   -0.00048469
     atom   19 type  1   force =    -0.00027267    0.00015834   -0.00020843
     atom   20 type  1   force =    -0.00034595   -0.00024446    0.00046374
     atom   21 type  2   force =     0.00001987    0.00002066    0.10380537
     atom   22 type  2   force =    -0.00000743    0.00009333   -0.00008458
     atom   23 type  2   force =    -0.07064472   -0.00008128   -0.02704970
     atom   24 type  2   force =     0.07053973    0.00036337   -0.02710034
     atom   25 type  1   force =     0.00001758   -0.00009007    0.09369809
     atom   26 type  1   force =    -0.00013464   -0.00016142   -0.17768302
     atom   27 type  2   force =     0.00013634   -0.00025288   -0.02035949
     atom   28 type  2   force =     0.00006837   -0.00155565    0.05700676
     atom   29 type  2   force =    -0.01103457   -0.00053492    0.00635274
     atom   30 type  2   force =     0.01295724   -0.00027256    0.00664448
     atom   31 type  1   force =     0.00029703    0.00520812   -0.01483901
     atom   32 type  1   force =    -0.00039313   -0.00657862    0.00413289
     atom   33 type  2   force =     0.00015658    0.00008288   -0.00031187
     atom   34 type  2   force =     0.00035712   -0.00103917   -0.00202997
     atom   35 type  2   force =    -0.00032093    0.00015554   -0.00021626
     atom   36 type  2   force =    -0.00002920    0.00000682    0.00011630
     atom   37 type  1   force =    -0.00007854    0.00024684   -0.00016378
     atom   38 type  1   force =     0.00005965    0.00025733    0.00019862
     atom   39 type  2   force =    -0.00007638    0.00019611    0.00014965
     atom   40 type  2   force =    -0.00029843    0.00009417   -0.00020425
     atom   41 type  2   force =    -0.00017870   -0.00011370    0.00014375
     atom   42 type  2   force =    -0.00019925    0.00015280   -0.00021824
     atom   43 type  1   force =    -0.00019968    0.00011268   -0.00008226
     atom   44 type  1   force =     0.00004949   -0.00018816   -0.00033874
     atom   45 type  2   force =     0.00001148   -0.00000621    0.10381620
     atom   46 type  2   force =    -0.07065959   -0.00004059   -0.02706367
     atom   47 type  2   force =     0.07053731    0.00039842   -0.02709973
     atom   48 type  3   force =     0.01553189    0.00085771    0.01131778
     atom   49 type  4   force =    -0.02007381   -0.00538185   -0.01481421
     atom   50 type  5   force =     0.00265741    0.00508646    0.00295315
     atom   51 type  3   force =     0.00171684   -0.00074094    0.00011535
     atom   52 type  5   force =    -0.00039375    0.00051525    0.00023398

     Total force =     0.367432     Total SCF correction =     0.000968
  @ DRIVER MODE: Message from server: STATUS
  @ DRIVER MODE: Message from server: GETFORCE
  @ DRIVER MODE: Returning v,forces,stress,ensemble 

     Writing output data file ./calc.save/
  @ DRIVER MODE: Message from server: EXIT
  @ DRIVE MODE: Exiting  
 
     init_run     :     18.03s CPU     18.39s WALL (       1 calls)
     electrons    :   1621.84s CPU   1656.14s WALL (       1 calls)
     forces       :      3.87s CPU      4.03s WALL (       1 calls)

     Called by init_run:
     wfcinit      :      8.00s CPU      8.11s WALL (       1 calls)
     potinit      :      9.03s CPU      9.12s WALL (       1 calls)
     hinit0       :      0.48s CPU      0.50s WALL (       1 calls)

     Called by electrons:
     c_bands      :   1367.69s CPU   1385.48s WALL (      60 calls)
     sum_band     :    170.65s CPU    178.58s WALL (      60 calls)
     v_of_rho     :     63.51s CPU     65.72s WALL (      61 calls)
     newd         :     25.65s CPU     32.07s WALL (      61 calls)
     mix_rho      :      2.38s CPU      2.41s WALL (      60 calls)
     vdW_kernel   :      7.63s CPU      7.65s WALL (       1 calls)

     Called by c_bands:
     init_us_2    :      9.09s CPU      9.14s WALL (    1220 calls)
     cegterg      :   1341.02s CPU   1358.34s WALL (     610 calls)

     Called by *egterg:
     cdiaghg      :    183.62s CPU    184.60s WALL (    6398 calls)
     h_psi        :    745.72s CPU    756.77s WALL (    6408 calls)
     s_psi        :     99.65s CPU    100.05s WALL (    6408 calls)
     g_psi        :      2.68s CPU      2.70s WALL (    5788 calls)

     Called by h_psi:
     h_psi:calbec :     93.39s CPU     94.59s WALL (    6408 calls)
     vloc_psi     :    549.04s CPU    554.43s WALL (    6408 calls)
     add_vuspsi   :     99.49s CPU    101.26s WALL (    6408 calls)

     General routines
     calbec       :    122.99s CPU    124.31s WALL (    7048 calls)
     fft          :     35.83s CPU     36.01s WALL (    3843 calls)
     ffts         :      0.20s CPU      0.21s WALL (     121 calls)
     fftw         :    600.65s CPU    606.36s WALL (  822618 calls)
     interpolate  :      0.64s CPU      0.65s WALL (      61 calls)
     davcio       :      0.00s CPU      0.22s WALL (      10 calls)
 
     Parallel routines
 
     PWSCF        :  27m24.03s CPU  27m59.39s WALL

 
   This run was terminated on:  19:19:55  23Aug2021            

=------------------------------------------------------------------------------=
   JOB DONE.
=------------------------------------------------------------------------------=
