
     Program PWSCF v.6.7GPU starts on  9Sep2021 at  6:14:41 

     This program is part of the open-source Quantum ESPRESSO suite
     for quantum simulation of materials; please cite
         "P. Giannozzi et al., J. Phys.:Condens. Matter 21 395502 (2009);
         "P. Giannozzi et al., J. Phys.:Condens. Matter 29 465901 (2017);
         "P. Giannozzi et al., J. Chem. Phys. 152 154105 (2020);
          URL http://www.quantum-espresso.org", 
     in publications or presentations arising from this work. More details at
     http://www.quantum-espresso.org/quote

     Parallel version (MPI), running on    10 processors

     MPI processes distributed on     1 nodes
     R & G space division:  proc/nbgrp/npool/nimage =      10
     Reading input from /storage/home/hcoda1/3/ntian30/research/carbon/CxH_vib/CH2_calc/ads_slab/CH2NNHH_a/out_0025/pw.inp
Warning: card &CELL ignored
Warning: card   CELL_DYNAMICS='IPI', ignored
Warning: card / ignored

     Current dimensions of program PWSCF are:
     Max number of different atomic species (ntypx) = 10
     Max number of k-points (npk) =  40000
     Max angular momentum in pseudopotentials (lmaxx) =  3
     Presently no symmetry can be used with electric field

     Message from routine cell_base_init:
     DEPRECATED: use true lattice parameter, not A to a.u. conversion factor

     **************************************************************************
     Initializing libbeef V0.1.2 with the BEEF-vdW functional.
     Citation: Wellendorff et al., PRB 85, 235149 (2012).
     **************************************************************************


     IMPORTANT: XC functional enforced from input :
     Exchange-correlation= BEEF-VDW
                           (   1   4  43  14   2   0   0)
     Any further DFT definition will be discarded
     Please, verify this is what you really want


     Subspace diagonalization in iterative solution of the eigenvalue problem:
     one sub-group per band group will be used
     scalapack distributed-memory algorithm (size of sub-group:  3*  3 procs)

  @ DRIVER MODE: Connecting to 
 qe_1139763_2767391.sched-torque.pace.gatech.eduugttm9ai_scratch
  using UNIX socket
  @ DRIVER MODE: Message from server: STATUS
  @ DRIVER MODE: Message from server: INIT
  @ DRIVER MODE: Receiving replica           0          -1
  @ DRIVER MODE: Receiving encoded integer          25
  @ DRIVER MODE:  SCF:  T  FORCE:  T  STRESS:  F  VC:  F  ENSEMBLE:  F
  @ DRIVER MODE:  SCF:  T  FORCE:  T  STRESS:  F  VC:  F  ENSEMBLE:  F
 
     Parallelization info
     --------------------
     sticks:   dense  smooth     PW     G-vecs:    dense   smooth      PW
     Min         327     131     37                56683    14340    2191
     Max         328     133     38                56694    14346    2206
     Sum        3275    1317    379               566857   143421   21985
 
     Using Slab Decomposition
 


     bravais-lattice index     =            0
     lattice parameter (alat)  =       1.8897  a.u.
     unit-cell volume          =    6658.9804 (a.u.)^3
     number of atoms/cell      =           54
     number of atomic types    =            5
     number of electrons       =       396.00
     number of Kohn-Sham states=          208
     kinetic-energy cutoff     =      29.3995  Ry
     charge density cutoff     =     293.9946  Ry
     scf convergence threshold =      7.3E-08
     mixing beta               =       0.0500
     number of iterations used =            8  plain     mixing
     Exchange-correlation= BEEF-VDW
                           (   1   4  43  14   2   0   0)

     celldm(1)=   1.889726  celldm(2)=   0.000000  celldm(3)=   0.000000
     celldm(4)=   0.000000  celldm(5)=   0.000000  celldm(6)=   0.000000

     crystal axes: (cart. coord. in units of alat)
               a(1) = (   6.579727   0.000000   0.000000 )  
               a(2) = (  -0.000775   5.961596   0.000000 )  
               a(3) = (   0.000000   0.000000  25.155947 )  

     reciprocal axes: (cart. coord. in units 2 pi/alat)
               b(1) = (  0.151982  0.000020  0.000000 )  
               b(2) = (  0.000000  0.167740  0.000000 )  
               b(3) = (  0.000000  0.000000  0.039752 )  


     PseudoPot. # 1 for Ti read from file:
     /storage/coda1/p-amedford6/0/shared/rich_project_chbe-medford/medford-share/data/pseudos_module/espresso/nninc/pbe/van/Ti.UPF
     MD5 check sum: 8e4df49b7f0d34bbd5052bf3f5ea0213
     Pseudo is Ultrasoft, Zval = 12.0
     Generated by new atomic code, or converted to UPF format
     Using radial grid of  851 points,  6 beta functions with: 
                l(1) =   0
                l(2) =   0
                l(3) =   1
                l(4) =   1
                l(5) =   2
                l(6) =   2
     Q(r) pseudized with  8 coefficients,  rinner =    1.000   1.000   1.000
                                                       1.000   1.000

     PseudoPot. # 2 for O  read from file:
     /storage/coda1/p-amedford6/0/shared/rich_project_chbe-medford/medford-share/data/pseudos_module/espresso/nninc/pbe/van/O.UPF
     MD5 check sum: 78c19812648e8988a0fe644b0f25305e
     Pseudo is Ultrasoft, Zval =  6.0
     Generated by new atomic code, or converted to UPF format
     Using radial grid of  737 points,  4 beta functions with: 
                l(1) =   0
                l(2) =   0
                l(3) =   1
                l(4) =   1
     Q(r) pseudized with  8 coefficients,  rinner =    0.800   0.800   0.800


     PseudoPot. # 3 for N  read from file:
     /storage/coda1/p-amedford6/0/shared/rich_project_chbe-medford/medford-share/data/pseudos_module/espresso/nninc/pbe/van/N.UPF
     MD5 check sum: 90d10febe142ad51ac9d5be1deb811c4
     Pseudo is Ultrasoft, Zval =  5.0
     Generated by new atomic code, or converted to UPF format
     Using radial grid of  729 points,  4 beta functions with: 
                l(1) =   0
                l(2) =   0
                l(3) =   1
                l(4) =   1
     Q(r) pseudized with  8 coefficients,  rinner =    0.800   0.800   0.800


     PseudoPot. # 4 for C  read from file:
     /storage/coda1/p-amedford6/0/shared/rich_project_chbe-medford/medford-share/data/pseudos_module/espresso/nninc/pbe/van/C.UPF
     MD5 check sum: 1a69bf6b8db32088f5b2163dbdb77a27
     Pseudo is Ultrasoft, Zval =  4.0
     Generated by new atomic code, or converted to UPF format
     Using radial grid of  721 points,  4 beta functions with: 
                l(1) =   0
                l(2) =   0
                l(3) =   1
                l(4) =   1
     Q(r) pseudized with  8 coefficients,  rinner =    0.800   0.800   0.800


     PseudoPot. # 5 for H  read from file:
     /storage/coda1/p-amedford6/0/shared/rich_project_chbe-medford/medford-share/data/pseudos_module/espresso/nninc/pbe/van/H.UPF
     MD5 check sum: b5ee9d7bfd3a09ee7748110bda690ff7
     Pseudo is Ultrasoft, Zval =  1.0
     Generated by new atomic code, or converted to UPF format
     Using radial grid of  615 points,  1 beta functions with: 
                l(1) =   0
     Q(r) pseudized with  8 coefficients,  rinner =    0.800

     atomic species   valence    mass     pseudopotential
        Ti1           12.00    47.86700     Ti( 1.00)
        O1             6.00    15.99900     O ( 1.00)
        N1             5.00    14.00700     N ( 1.00)
        C1             4.00    12.01100     C ( 1.00)
        H1             1.00     1.00800     H ( 1.00)

     No symmetry found



   Cartesian axes

     site n.     atom                  positions (alat units)
         1           Ti1 tau(   1) = (   0.0004258   2.9801865   6.0000000  )
         2           Ti1 tau(   2) = (   3.2906075   1.4906267   6.0002472  )
         3           O1  tau(   3) = (   0.0006271   0.0005054   7.9858123  )
         4           O1  tau(   4) = (   3.2906025   0.0005020   7.3038282  )
         5           O1  tau(   5) = (   4.5942328   1.4918067   9.2879030  )
         6           O1  tau(   6) = (   1.9868534   1.4903216   9.2879459  )
         7           Ti1 tau(   7) = (   3.2907910   2.8959150   9.1758416  )
         8           Ti1 tau(   8) = (   0.0015273   1.4827037   9.2680791  )
         9           O1  tau(   9) = (   3.2741875   5.9357071  11.3735532  )
        10           O1  tau(  10) = (   0.0116148   5.9584955  10.6183126  )
        11           O1  tau(  11) = (   1.2759687   1.4857368  12.6615302  )
        12           O1  tau(  12) = (   5.2764777   1.4850508  12.6403612  )
        13           Ti1 tau(  13) = (   6.5724762   2.9646551  12.5117882  )
        14           Ti1 tau(  14) = (   3.2886223   1.4652571  12.5194246  )
        15           O1  tau(  15) = (   6.5416971   0.0664024  14.6986244  )
        16           O1  tau(  16) = (   3.2828258   5.9593040  13.9967703  )
        17           O1  tau(  17) = (   4.5136565   1.4796660  16.2299008  )
        18           O1  tau(  18) = (   2.0038615   1.4742267  16.2123189  )
        19           Ti1 tau(  19) = (   3.2480181   2.9445974  15.7466143  )
        20           Ti1 tau(  20) = (   6.5118905   1.3801257  16.1190456  )
        21           O1  tau(  21) = (   3.2904802   0.0005063   4.7018136  )
        22           O1  tau(  22) = (   6.5538845   5.8109167  17.2256470  )
        23           O1  tau(  23) = (   1.3043587   1.4918075   6.0039043  )
        24           O1  tau(  24) = (   5.2767064   1.4903225   6.0039473  )
        25           Ti1 tau(  25) = (   0.0000382   5.9609847   6.0000000  )
        26           Ti1 tau(  26) = (   3.2902200   4.4714249   6.0002472  )
        27           O1  tau(  27) = (   0.0002396   2.9813036   7.9858123  )
        28           O1  tau(  28) = (   3.2902150   2.9813002   7.3038282  )
        29           O1  tau(  29) = (   4.5938453   4.4726049   9.2879030  )
        30           O1  tau(  30) = (   1.9864658   4.4711199   9.2879459  )
        31           Ti1 tau(  31) = (   3.2891106   5.8743827   9.1763621  )
        32           Ti1 tau(  32) = (   0.0006254   4.4649316   9.2693709  )
        33           O1  tau(  33) = (   3.2754078   2.9701464  11.3677572  )
        34           O1  tau(  34) = (   0.0092240   2.9805883  10.6323155  )
        35           O1  tau(  35) = (   1.2711598   4.4556272  12.7031535  )
        36           O1  tau(  36) = (   5.2783420   4.4558858  12.6781970  )
        37           Ti1 tau(  37) = (   0.0002938   5.9583472  12.5066983  )
        38           Ti1 tau(  38) = (   3.2916940   4.4447674  12.5292973  )
        39           O1  tau(  39) = (   6.5347695   2.9176514  14.9891124  )
        40           O1  tau(  40) = (   3.2818703   2.9467213  13.9608579  )
        41           O1  tau(  41) = (   4.5039121   4.4250859  16.1805084  )
        42           O1  tau(  42) = (   2.0002864   4.4376668  16.1101511  )
        43           Ti1 tau(  43) = (   3.2613398   5.9375382  15.7939200  )
        44           Ti1 tau(  44) = (   0.0097882   4.6113729  15.8292928  )
        45           O1  tau(  45) = (   3.2900926   2.9813045   4.7018136  )
        46           O1  tau(  46) = (   1.3039711   4.4726057   6.0039043  )
        47           O1  tau(  47) = (   5.2763189   4.4711207   6.0039473  )
        48           N1  tau(  48) = (   6.5527080   2.6566917  18.2311642  )
        49           C1  tau(  49) = (   0.9950107   2.5313988  18.9921798  )
        50           H1  tau(  50) = (   0.9966315   2.9146593  20.0110098  )
        51           H1  tau(  51) = (   1.8622571   2.0164067  18.6108951  )
        52           N1  tau(  52) = (   5.3994651   3.2293427  18.7544413  )
        53           H1  tau(  53) = (   5.6216840   3.8708726  19.5154782  )
        54           H1  tau(  54) = (   4.9168071   3.7283298  18.0160565  )

     number of k points=    10  Fermi-Dirac smearing, width (Ry)=  0.0073
                       cart. coord. in units 2pi/alat
        k(    1) = (   0.0000000   0.0000000   0.0000000), wk =   0.1250000
        k(    2) = (   0.0000000   0.0419351   0.0000000), wk =   0.2500000
        k(    3) = (   0.0000000  -0.0838702   0.0000000), wk =   0.1250000
        k(    4) = (   0.0379955   0.0000049   0.0000000), wk =   0.2500000
        k(    5) = (   0.0379955   0.0419400   0.0000000), wk =   0.2500000
        k(    6) = (   0.0379955  -0.0838652   0.0000000), wk =   0.2500000
        k(    7) = (   0.0379955  -0.0419301   0.0000000), wk =   0.2500000
        k(    8) = (  -0.0759910  -0.0000099   0.0000000), wk =   0.1250000
        k(    9) = (  -0.0759910   0.0419252   0.0000000), wk =   0.2500000
        k(   10) = (  -0.0759910  -0.0838800   0.0000000), wk =   0.1250000

     Dense  grid:   566857 G-vectors     FFT dimensions: (  72,  64, 270)

     Smooth grid:   143421 G-vectors     FFT dimensions: (  45,  40, 180)

     Estimated max dynamical RAM per process >     363.73 MB

     Estimated total dynamical RAM >       3.55 GB
     Cannot read rho : file not found

     Initial potential from superposition of free atoms

     starting charge  379.99915, renormalised to  396.00000

     negative rho (up, down):  1.579E-02 0.000E+00


     %%%%%%%%%%%%%%%%%%%%%%%%%%%%%%%%%%%%%%%%%%%%%%%%%%%%%%%%%%%%%%%%%%%%%%%%
     %                                                                      %
     % You are using vdW-DF, which was implemented by the Thonhauser group. %
     % Please cite the following two papers that made this development      %
     % possible and the two reviews that describe the various versions:     %
     %                                                                      %
     %   T. Thonhauser et al., PRL 115, 136402 (2015).                      %
     %   T. Thonhauser et al., PRB 76, 125112 (2007).                       %
     %   K. Berland et al., Rep. Prog. Phys. 78, 066501 (2015).             %
     %   D.C. Langreth et al., J. Phys.: Condens. Matter 21, 084203 (2009). %
     %                                                                      %
     %                                                                      %
     % If you are calculating the stress with vdW-DF, please also cite:     %
     %                                                                      %
     %   R. Sabatini et al., J. Phys.: Condens. Matter 24, 424209 (2012).   %
     %                                                                      %
     %%%%%%%%%%%%%%%%%%%%%%%%%%%%%%%%%%%%%%%%%%%%%%%%%%%%%%%%%%%%%%%%%%%%%%%%


 
     Adding external electric field

     Computed dipole along edir(3) : 
        Dipole               -9.9798 Ry au,        -25.3661 Debye
        Dipole field         -0.0188 Ry au, 
 
        Potential amp.        1.7458 Ry
        Total length         46.3494 bohr
 
     Starting wfcs are  300 atomic wfcs
  @ DRIVER MODE: Message from server: STATUS
  @ DRIVER MODE: Message from server: POSDATA
  @ DRIVER MODE: Reading and sharing cell 
  @ DRIVER MODE: Reading and sharing positions 
  @ DRIVER MODE: Received positions 

     total cpu time spent up to now is       11.8 secs

     Self-consistent Calculation

     iteration #  1     ecut=    29.40 Ry     beta= 0.05
     Davidson diagonalization with overlap
     c_bands:  1 eigenvalues not converged
     c_bands:  2 eigenvalues not converged
     c_bands:  2 eigenvalues not converged
     c_bands:  1 eigenvalues not converged
     c_bands:  3 eigenvalues not converged
     c_bands:  2 eigenvalues not converged
     c_bands:  3 eigenvalues not converged
     c_bands:  2 eigenvalues not converged
     c_bands:  1 eigenvalues not converged
     c_bands:  1 eigenvalues not converged
     ethr =  1.00E-05,  avg # of iterations = 20.0

     negative rho (up, down):  1.239E-02 0.000E+00
 
     Adding external electric field

     Computed dipole along edir(3) : 
        Dipole               44.0001 Ry au,        111.8371 Debye
        Dipole field          0.0830 Ry au, 
 
        Potential amp.       -7.6971 Ry
        Total length         46.3494 bohr
 

     total cpu time spent up to now is       53.6 secs

     total energy              =   -2515.82358152 Ry
     estimated scf accuracy    <    4740.86361327 Ry

     iteration #  2     ecut=    29.40 Ry     beta= 0.05
     Davidson diagonalization with overlap
     ethr =  1.00E-02,  avg # of iterations = 23.6

     negative rho (up, down):  3.133E-03 0.000E+00
 
     Adding external electric field

     Computed dipole along edir(3) : 
        Dipole               -2.4319 Ry au,         -6.1813 Debye
        Dipole field         -0.0046 Ry au, 
 
        Potential amp.        0.4254 Ry
        Total length         46.3494 bohr
 

     total cpu time spent up to now is      129.5 secs

     total energy              =   -2462.00135097 Ry
     estimated scf accuracy    <   66979.18841711 Ry

     iteration #  3     ecut=    29.40 Ry     beta= 0.05
     Davidson diagonalization with overlap
     ethr =  1.00E-02,  avg # of iterations = 14.8

     negative rho (up, down):  3.201E-03 0.000E+00
 
     Adding external electric field

     Computed dipole along edir(3) : 
        Dipole               -4.6594 Ry au,        -11.8430 Debye
        Dipole field         -0.0088 Ry au, 
 
        Potential amp.        0.8151 Ry
        Total length         46.3494 bohr
 

     total cpu time spent up to now is      177.0 secs

     total energy              =   -2924.74881168 Ry
     estimated scf accuracy    <    4338.07021883 Ry

     iteration #  4     ecut=    29.40 Ry     beta= 0.05
     Davidson diagonalization with overlap
     c_bands:  1 eigenvalues not converged
     c_bands:  5 eigenvalues not converged
     ethr =  1.00E-02,  avg # of iterations = 15.8

     negative rho (up, down):  3.242E-03 0.000E+00
 
     Adding external electric field

     Computed dipole along edir(3) : 
        Dipole               -6.0717 Ry au,        -15.4328 Debye
        Dipole field         -0.0115 Ry au, 
 
        Potential amp.        1.0622 Ry
        Total length         46.3494 bohr
 

     total cpu time spent up to now is      197.4 secs

     total energy              =   -2928.43726297 Ry
     estimated scf accuracy    <    1344.56351709 Ry

     iteration #  5     ecut=    29.40 Ry     beta= 0.05
     Davidson diagonalization with overlap
     c_bands:  1 eigenvalues not converged
     ethr =  1.00E-02,  avg # of iterations = 12.3

     negative rho (up, down):  3.294E-03 0.000E+00
 
     Adding external electric field

     Computed dipole along edir(3) : 
        Dipole               -6.3715 Ry au,        -16.1948 Debye
        Dipole field         -0.0120 Ry au, 
 
        Potential amp.        1.1146 Ry
        Total length         46.3494 bohr
 

     total cpu time spent up to now is      213.9 secs

     total energy              =   -2935.11729540 Ry
     estimated scf accuracy    <     304.56356614 Ry

     iteration #  6     ecut=    29.40 Ry     beta= 0.05
     Davidson diagonalization with overlap
     ethr =  1.00E-02,  avg # of iterations =  3.4

     negative rho (up, down):  3.336E-03 0.000E+00
 
     Adding external electric field

     Computed dipole along edir(3) : 
        Dipole               -6.5387 Ry au,        -16.6198 Debye
        Dipole field         -0.0123 Ry au, 
 
        Potential amp.        1.1439 Ry
        Total length         46.3494 bohr
 

     total cpu time spent up to now is      225.1 secs

     total energy              =   -2934.92821126 Ry
     estimated scf accuracy    <     214.74308939 Ry

     iteration #  7     ecut=    29.40 Ry     beta= 0.05
     Davidson diagonalization with overlap
     ethr =  1.00E-02,  avg # of iterations =  2.7

     negative rho (up, down):  3.740E-03 0.000E+00
 
     Adding external electric field

     Computed dipole along edir(3) : 
        Dipole               -7.2041 Ry au,        -18.3110 Debye
        Dipole field         -0.0136 Ry au, 
 
        Potential amp.        1.2602 Ry
        Total length         46.3494 bohr
 

     total cpu time spent up to now is      236.0 secs

     total energy              =   -2928.72313761 Ry
     estimated scf accuracy    <     180.99700045 Ry

     iteration #  8     ecut=    29.40 Ry     beta= 0.05
     Davidson diagonalization with overlap
     ethr =  1.00E-02,  avg # of iterations =  5.7

     negative rho (up, down):  3.585E-03 0.000E+00
 
     Adding external electric field

     Computed dipole along edir(3) : 
        Dipole               -7.0912 Ry au,        -18.0240 Debye
        Dipole field         -0.0134 Ry au, 
 
        Potential amp.        1.2405 Ry
        Total length         46.3494 bohr
 

     total cpu time spent up to now is      252.0 secs

     total energy              =   -2944.45407238 Ry
     estimated scf accuracy    <     307.27681116 Ry

     iteration #  9     ecut=    29.40 Ry     beta= 0.05
     Davidson diagonalization with overlap
     ethr =  1.00E-02,  avg # of iterations =  1.4

     negative rho (up, down):  3.351E-03 0.000E+00
 
     Adding external electric field

     Computed dipole along edir(3) : 
        Dipole               -6.8551 Ry au,        -17.4240 Debye
        Dipole field         -0.0129 Ry au, 
 
        Potential amp.        1.1992 Ry
        Total length         46.3494 bohr
 

     total cpu time spent up to now is      262.4 secs

     total energy              =   -2943.69116910 Ry
     estimated scf accuracy    <     309.17594945 Ry

     iteration # 10     ecut=    29.40 Ry     beta= 0.05
     Davidson diagonalization with overlap
     ethr =  1.00E-02,  avg # of iterations =  1.5

     negative rho (up, down):  3.571E-03 0.000E+00
 
     Adding external electric field

     Computed dipole along edir(3) : 
        Dipole               -7.5175 Ry au,        -19.1075 Debye
        Dipole field         -0.0142 Ry au, 
 
        Potential amp.        1.3151 Ry
        Total length         46.3494 bohr
 

     total cpu time spent up to now is      272.9 secs

     total energy              =   -2947.17812425 Ry
     estimated scf accuracy    <     230.64405931 Ry

     iteration # 11     ecut=    29.40 Ry     beta= 0.05
     Davidson diagonalization with overlap
     ethr =  1.00E-02,  avg # of iterations =  4.8

     negative rho (up, down):  3.769E-03 0.000E+00
 
     Adding external electric field

     Computed dipole along edir(3) : 
        Dipole               -7.4387 Ry au,        -18.9073 Debye
        Dipole field         -0.0140 Ry au, 
 
        Potential amp.        1.3013 Ry
        Total length         46.3494 bohr
 

     total cpu time spent up to now is      286.9 secs

     total energy              =   -2949.26791177 Ry
     estimated scf accuracy    <    1054.86946478 Ry

     iteration # 12     ecut=    29.40 Ry     beta= 0.05
     Davidson diagonalization with overlap
     ethr =  1.00E-02,  avg # of iterations =  1.4

     negative rho (up, down):  2.922E-03 0.000E+00
 
     Adding external electric field

     Computed dipole along edir(3) : 
        Dipole               -7.3621 Ry au,        -18.7127 Debye
        Dipole field         -0.0139 Ry au, 
 
        Potential amp.        1.2879 Ry
        Total length         46.3494 bohr
 

     total cpu time spent up to now is      297.3 secs

     total energy              =   -2949.25103476 Ry
     estimated scf accuracy    <     985.16496714 Ry

     iteration # 13     ecut=    29.40 Ry     beta= 0.05
     Davidson diagonalization with overlap
     ethr =  1.00E-02,  avg # of iterations =  1.0

     negative rho (up, down):  5.226E-03 0.000E+00
 
     Adding external electric field

     Computed dipole along edir(3) : 
        Dipole               -7.0384 Ry au,        -17.8898 Debye
        Dipole field         -0.0133 Ry au, 
 
        Potential amp.        1.2313 Ry
        Total length         46.3494 bohr
 

     total cpu time spent up to now is      307.4 secs

     total energy              =   -2947.24599266 Ry
     estimated scf accuracy    <     977.25042589 Ry

     iteration # 14     ecut=    29.40 Ry     beta= 0.05
     Davidson diagonalization with overlap
     ethr =  1.00E-02,  avg # of iterations =  1.0

     negative rho (up, down):  4.145E-02 0.000E+00
 
     Adding external electric field

     Computed dipole along edir(3) : 
        Dipole               -5.3502 Ry au,        -13.5988 Debye
        Dipole field         -0.0101 Ry au, 
 
        Potential amp.        0.9359 Ry
        Total length         46.3494 bohr
 

     total cpu time spent up to now is      317.6 secs

     total energy              =   -2936.63011282 Ry
     estimated scf accuracy    <     860.17008355 Ry

     iteration # 15     ecut=    29.40 Ry     beta= 0.05
     Davidson diagonalization with overlap
     ethr =  1.00E-02,  avg # of iterations =  1.4

     negative rho (up, down):  6.888E-02 0.000E+00
 
     Adding external electric field

     Computed dipole along edir(3) : 
        Dipole               -4.8040 Ry au,        -12.2105 Debye
        Dipole field         -0.0091 Ry au, 
 
        Potential amp.        0.8404 Ry
        Total length         46.3494 bohr
 

     total cpu time spent up to now is      328.1 secs

     total energy              =   -2941.20650554 Ry
     estimated scf accuracy    <     117.34541265 Ry

     iteration # 16     ecut=    29.40 Ry     beta= 0.05
     Davidson diagonalization with overlap
     ethr =  1.00E-02,  avg # of iterations =  1.6

     negative rho (up, down):  1.125E-01 0.000E+00
 
     Adding external electric field

     Computed dipole along edir(3) : 
        Dipole               -5.6174 Ry au,        -14.2780 Debye
        Dipole field         -0.0106 Ry au, 
 
        Potential amp.        0.9827 Ry
        Total length         46.3494 bohr
 

     total cpu time spent up to now is      338.5 secs

     total energy              =   -2941.82424194 Ry
     estimated scf accuracy    <     107.27357448 Ry

     iteration # 17     ecut=    29.40 Ry     beta= 0.05
     Davidson diagonalization with overlap
     ethr =  1.00E-02,  avg # of iterations =  2.1

     negative rho (up, down):  2.688E-01 0.000E+00
 
     Adding external electric field

     Computed dipole along edir(3) : 
        Dipole               -4.3525 Ry au,        -11.0631 Debye
        Dipole field         -0.0082 Ry au, 
 
        Potential amp.        0.7614 Ry
        Total length         46.3494 bohr
 

     total cpu time spent up to now is      349.9 secs

     total energy              =   -2946.05650138 Ry
     estimated scf accuracy    <    1053.50902877 Ry

     iteration # 18     ecut=    29.40 Ry     beta= 0.05
     Davidson diagonalization with overlap
     ethr =  1.00E-02,  avg # of iterations =  2.1

     negative rho (up, down):  5.137E-01 0.000E+00
 
     Adding external electric field

     Computed dipole along edir(3) : 
        Dipole               -0.3241 Ry au,         -0.8237 Debye
        Dipole field         -0.0006 Ry au, 
 
        Potential amp.        0.0567 Ry
        Total length         46.3494 bohr
 

     total cpu time spent up to now is      361.0 secs

     total energy              =   -2918.97680081 Ry
     estimated scf accuracy    <    1005.21769214 Ry

     iteration # 19     ecut=    29.40 Ry     beta= 0.05
     Davidson diagonalization with overlap
     ethr =  1.00E-02,  avg # of iterations = 12.5

     negative rho (up, down):  3.114E-01 0.000E+00
 
     Adding external electric field

     Computed dipole along edir(3) : 
        Dipole               -0.8098 Ry au,         -2.0584 Debye
        Dipole field         -0.0015 Ry au, 
 
        Potential amp.        0.1417 Ry
        Total length         46.3494 bohr
 

     total cpu time spent up to now is      380.7 secs

     total energy              =   -2941.81590511 Ry
     estimated scf accuracy    <     528.96908967 Ry

     iteration # 20     ecut=    29.40 Ry     beta= 0.05
     Davidson diagonalization with overlap
     ethr =  1.00E-02,  avg # of iterations =  1.4

     negative rho (up, down):  2.868E-01 0.000E+00
 
     Adding external electric field

     Computed dipole along edir(3) : 
        Dipole               -1.1210 Ry au,         -2.8492 Debye
        Dipole field         -0.0021 Ry au, 
 
        Potential amp.        0.1961 Ry
        Total length         46.3494 bohr
 

     total cpu time spent up to now is      391.3 secs

     total energy              =   -2941.93428522 Ry
     estimated scf accuracy    <     247.31523954 Ry

     iteration # 21     ecut=    29.40 Ry     beta= 0.05
     Davidson diagonalization with overlap
     ethr =  1.00E-02,  avg # of iterations =  1.5

     negative rho (up, down):  1.750E-01 0.000E+00
 
     Adding external electric field

     Computed dipole along edir(3) : 
        Dipole               -3.8317 Ry au,         -9.7393 Debye
        Dipole field         -0.0072 Ry au, 
 
        Potential amp.        0.6703 Ry
        Total length         46.3494 bohr
 

     total cpu time spent up to now is      401.7 secs

     total energy              =   -2931.98150205 Ry
     estimated scf accuracy    <     233.57507967 Ry

     iteration # 22     ecut=    29.40 Ry     beta= 0.05
     Davidson diagonalization with overlap
     ethr =  1.00E-02,  avg # of iterations =  9.0

     negative rho (up, down):  7.463E-02 0.000E+00
 
     Adding external electric field

     Computed dipole along edir(3) : 
        Dipole               -6.1309 Ry au,        -15.5832 Debye
        Dipole field         -0.0116 Ry au, 
 
        Potential amp.        1.0725 Ry
        Total length         46.3494 bohr
 

     total cpu time spent up to now is      416.1 secs

     total energy              =   -2937.77134003 Ry
     estimated scf accuracy    <       9.17903778 Ry

     iteration # 23     ecut=    29.40 Ry     beta= 0.05
     Davidson diagonalization with overlap
     ethr =  2.32E-03,  avg # of iterations = 14.0

     negative rho (up, down):  6.800E-02 0.000E+00
 
     Adding external electric field

     Computed dipole along edir(3) : 
        Dipole               -5.7709 Ry au,        -14.6681 Debye
        Dipole field         -0.0109 Ry au, 
 
        Potential amp.        1.0095 Ry
        Total length         46.3494 bohr
 

     total cpu time spent up to now is      442.1 secs

     total energy              =   -2945.82808779 Ry
     estimated scf accuracy    <    1013.81133338 Ry

     iteration # 24     ecut=    29.40 Ry     beta= 0.05
     Davidson diagonalization with overlap
     ethr =  2.32E-03,  avg # of iterations =  1.2

     negative rho (up, down):  1.398E-01 0.000E+00
 
     Adding external electric field

     Computed dipole along edir(3) : 
        Dipole               -4.3938 Ry au,        -11.1678 Debye
        Dipole field         -0.0083 Ry au, 
 
        Potential amp.        0.7686 Ry
        Total length         46.3494 bohr
 

     total cpu time spent up to now is      452.4 secs

     total energy              =   -2936.87343268 Ry
     estimated scf accuracy    <     858.41441471 Ry

     iteration # 25     ecut=    29.40 Ry     beta= 0.05
     Davidson diagonalization with overlap
     ethr =  2.32E-03,  avg # of iterations =  7.1

     negative rho (up, down):  1.607E-01 0.000E+00
 
     Adding external electric field

     Computed dipole along edir(3) : 
        Dipole               -3.7538 Ry au,         -9.5413 Debye
        Dipole field         -0.0071 Ry au, 
 
        Potential amp.        0.6567 Ry
        Total length         46.3494 bohr
 

     total cpu time spent up to now is      465.3 secs

     total energy              =   -2939.89223140 Ry
     estimated scf accuracy    <     120.30151829 Ry

     iteration # 26     ecut=    29.40 Ry     beta= 0.05
     Davidson diagonalization with overlap
     ethr =  2.32E-03,  avg # of iterations =  2.8

     negative rho (up, down):  1.456E-01 0.000E+00
 
     Adding external electric field

     Computed dipole along edir(3) : 
        Dipole               -3.7092 Ry au,         -9.4278 Debye
        Dipole field         -0.0070 Ry au, 
 
        Potential amp.        0.6489 Ry
        Total length         46.3494 bohr
 

     total cpu time spent up to now is      476.3 secs

     total energy              =   -2940.05277634 Ry
     estimated scf accuracy    <      99.25533417 Ry

     iteration # 27     ecut=    29.40 Ry     beta= 0.05
     Davidson diagonalization with overlap
     ethr =  2.32E-03,  avg # of iterations =  7.7

     negative rho (up, down):  1.603E-01 0.000E+00
 
     Adding external electric field

     Computed dipole along edir(3) : 
        Dipole               -3.1359 Ry au,         -7.9707 Debye
        Dipole field         -0.0059 Ry au, 
 
        Potential amp.        0.5486 Ry
        Total length         46.3494 bohr
 

     total cpu time spent up to now is      488.9 secs

     total energy              =   -2939.80580097 Ry
     estimated scf accuracy    <      56.31006945 Ry

     iteration # 28     ecut=    29.40 Ry     beta= 0.05
     Davidson diagonalization with overlap
     ethr =  2.32E-03,  avg # of iterations =  6.5

     negative rho (up, down):  1.827E-01 0.000E+00
 
     Adding external electric field

     Computed dipole along edir(3) : 
        Dipole               -2.0446 Ry au,         -5.1968 Debye
        Dipole field         -0.0039 Ry au, 
 
        Potential amp.        0.3577 Ry
        Total length         46.3494 bohr
 

     total cpu time spent up to now is      501.2 secs

     total energy              =   -2940.01371279 Ry
     estimated scf accuracy    <      13.08873089 Ry

     iteration # 29     ecut=    29.40 Ry     beta= 0.05
     Davidson diagonalization with overlap
     ethr =  2.32E-03,  avg # of iterations =  9.0

     negative rho (up, down):  1.898E-01 0.000E+00
 
     Adding external electric field

     Computed dipole along edir(3) : 
        Dipole               -1.2350 Ry au,         -3.1391 Debye
        Dipole field         -0.0023 Ry au, 
 
        Potential amp.        0.2161 Ry
        Total length         46.3494 bohr
 

     total cpu time spent up to now is      514.2 secs

     total energy              =   -2940.38157602 Ry
     estimated scf accuracy    <       2.42178400 Ry

     iteration # 30     ecut=    29.40 Ry     beta= 0.05
     Davidson diagonalization with overlap
     c_bands:  5 eigenvalues not converged
     c_bands:  4 eigenvalues not converged
     c_bands:  5 eigenvalues not converged
     c_bands:  4 eigenvalues not converged
     ethr =  6.12E-04,  avg # of iterations = 24.6

     negative rho (up, down):  1.894E-01 0.000E+00
 
     Adding external electric field

     Computed dipole along edir(3) : 
        Dipole               -1.5106 Ry au,         -3.8396 Debye
        Dipole field         -0.0029 Ry au, 
 
        Potential amp.        0.2643 Ry
        Total length         46.3494 bohr
 

     total cpu time spent up to now is      540.4 secs

     total energy              =   -2940.61063909 Ry
     estimated scf accuracy    <       3.87295627 Ry

     iteration # 31     ecut=    29.40 Ry     beta= 0.05
     Davidson diagonalization with overlap
     ethr =  6.12E-04,  avg # of iterations =  1.9

     negative rho (up, down):  2.067E-01 0.000E+00
 
     Adding external electric field

     Computed dipole along edir(3) : 
        Dipole               -1.3262 Ry au,         -3.3708 Debye
        Dipole field         -0.0025 Ry au, 
 
        Potential amp.        0.2320 Ry
        Total length         46.3494 bohr
 

     total cpu time spent up to now is      551.1 secs

     total energy              =   -2940.37356167 Ry
     estimated scf accuracy    <       3.03218869 Ry

     iteration # 32     ecut=    29.40 Ry     beta= 0.05
     Davidson diagonalization with overlap
     c_bands:  1 eigenvalues not converged
     c_bands:  3 eigenvalues not converged
     ethr =  6.12E-04,  avg # of iterations = 16.5

     negative rho (up, down):  1.990E-01 0.000E+00
 
     Adding external electric field

     Computed dipole along edir(3) : 
        Dipole               -0.7219 Ry au,         -1.8348 Debye
        Dipole field         -0.0014 Ry au, 
 
        Potential amp.        0.1263 Ry
        Total length         46.3494 bohr
 

     total cpu time spent up to now is      569.9 secs

     total energy              =   -2940.45352938 Ry
     estimated scf accuracy    <       1.99595813 Ry

     iteration # 33     ecut=    29.40 Ry     beta= 0.05
     Davidson diagonalization with overlap
     ethr =  5.04E-04,  avg # of iterations =  8.0

     negative rho (up, down):  1.847E-01 0.000E+00
 
     Adding external electric field

     Computed dipole along edir(3) : 
        Dipole               -0.0281 Ry au,         -0.0714 Debye
        Dipole field         -0.0001 Ry au, 
 
        Potential amp.        0.0049 Ry
        Total length         46.3494 bohr
 

     total cpu time spent up to now is      582.5 secs

     total energy              =   -2940.36792817 Ry
     estimated scf accuracy    <       1.61215640 Ry

     iteration # 34     ecut=    29.40 Ry     beta= 0.05
     Davidson diagonalization with overlap
     c_bands:  1 eigenvalues not converged
     c_bands:  1 eigenvalues not converged
     c_bands:  1 eigenvalues not converged
     c_bands:  1 eigenvalues not converged
     c_bands:  2 eigenvalues not converged
     ethr =  4.07E-04,  avg # of iterations = 19.3

     negative rho (up, down):  1.746E-01 0.000E+00
 
     Adding external electric field

     Computed dipole along edir(3) : 
        Dipole               -0.2541 Ry au,         -0.6459 Debye
        Dipole field         -0.0005 Ry au, 
 
        Potential amp.        0.0445 Ry
        Total length         46.3494 bohr
 

     total cpu time spent up to now is      604.6 secs

     total energy              =   -2940.72230131 Ry
     estimated scf accuracy    <     124.91748776 Ry

     iteration # 35     ecut=    29.40 Ry     beta= 0.05
     Davidson diagonalization with overlap
     ethr =  4.07E-04,  avg # of iterations =  1.4

     negative rho (up, down):  1.647E-01 0.000E+00
 
     Adding external electric field

     Computed dipole along edir(3) : 
        Dipole               -0.4035 Ry au,         -1.0255 Debye
        Dipole field         -0.0008 Ry au, 
 
        Potential amp.        0.0706 Ry
        Total length         46.3494 bohr
 

     total cpu time spent up to now is      614.9 secs

     total energy              =   -2940.46281708 Ry
     estimated scf accuracy    <      56.71648710 Ry

     iteration # 36     ecut=    29.40 Ry     beta= 0.05
     Davidson diagonalization with overlap
     ethr =  4.07E-04,  avg # of iterations =  3.5

     negative rho (up, down):  1.497E-01 0.000E+00
 
     Adding external electric field

     Computed dipole along edir(3) : 
        Dipole               -0.6638 Ry au,         -1.6872 Debye
        Dipole field         -0.0013 Ry au, 
 
        Potential amp.        0.1161 Ry
        Total length         46.3494 bohr
 

     total cpu time spent up to now is      626.2 secs

     total energy              =   -2940.25311583 Ry
     estimated scf accuracy    <       6.83923108 Ry

     iteration # 37     ecut=    29.40 Ry     beta= 0.05
     Davidson diagonalization with overlap
     ethr =  4.07E-04,  avg # of iterations =  7.4

     negative rho (up, down):  1.322E-01 0.000E+00
 
     Adding external electric field

     Computed dipole along edir(3) : 
        Dipole               -0.5778 Ry au,         -1.4686 Debye
        Dipole field         -0.0011 Ry au, 
 
        Potential amp.        0.1011 Ry
        Total length         46.3494 bohr
 

     total cpu time spent up to now is      639.0 secs

     total energy              =   -2940.33851725 Ry
     estimated scf accuracy    <       1.05998771 Ry

     iteration # 38     ecut=    29.40 Ry     beta= 0.05
     Davidson diagonalization with overlap
     c_bands:  1 eigenvalues not converged
     c_bands:  1 eigenvalues not converged
     c_bands:  1 eigenvalues not converged
     c_bands:  4 eigenvalues not converged
     c_bands:  5 eigenvalues not converged
     ethr =  2.68E-04,  avg # of iterations = 19.1

     negative rho (up, down):  1.366E-01 0.000E+00
 
     Adding external electric field

     Computed dipole along edir(3) : 
        Dipole               -0.3705 Ry au,         -0.9417 Debye
        Dipole field         -0.0007 Ry au, 
 
        Potential amp.        0.0648 Ry
        Total length         46.3494 bohr
 

     total cpu time spent up to now is      656.6 secs

     total energy              =   -2940.37133483 Ry
     estimated scf accuracy    <       0.41456648 Ry

     iteration # 39     ecut=    29.40 Ry     beta= 0.05
     Davidson diagonalization with overlap
     ethr =  1.05E-04,  avg # of iterations =  8.6

     negative rho (up, down):  1.176E-01 0.000E+00
 
     Adding external electric field

     Computed dipole along edir(3) : 
        Dipole                0.0489 Ry au,          0.1242 Debye
        Dipole field          0.0001 Ry au, 
 
        Potential amp.       -0.0086 Ry
        Total length         46.3494 bohr
 

     total cpu time spent up to now is      669.6 secs

     total energy              =   -2940.38378857 Ry
     estimated scf accuracy    <       0.85186307 Ry

     iteration # 40     ecut=    29.40 Ry     beta= 0.05
     Davidson diagonalization with overlap
     c_bands:  1 eigenvalues not converged
     ethr =  1.05E-04,  avg # of iterations =  9.7

     negative rho (up, down):  9.223E-02 0.000E+00
 
     Adding external electric field

     Computed dipole along edir(3) : 
        Dipole                0.0615 Ry au,          0.1563 Debye
        Dipole field          0.0001 Ry au, 
 
        Potential amp.       -0.0108 Ry
        Total length         46.3494 bohr
 

     total cpu time spent up to now is      683.1 secs

     total energy              =   -2940.32535636 Ry
     estimated scf accuracy    <       1.01588904 Ry

     iteration # 41     ecut=    29.40 Ry     beta= 0.05
     Davidson diagonalization with overlap
     c_bands:  1 eigenvalues not converged
     c_bands:  4 eigenvalues not converged
     c_bands:  1 eigenvalues not converged
     c_bands:  3 eigenvalues not converged
     c_bands:  3 eigenvalues not converged
     c_bands:  1 eigenvalues not converged
     c_bands:  4 eigenvalues not converged
     ethr =  1.05E-04,  avg # of iterations = 20.6

     negative rho (up, down):  9.932E-02 0.000E+00
 
     Adding external electric field

     Computed dipole along edir(3) : 
        Dipole                0.1722 Ry au,          0.4378 Debye
        Dipole field          0.0003 Ry au, 
 
        Potential amp.       -0.0301 Ry
        Total length         46.3494 bohr
 

     total cpu time spent up to now is      703.7 secs

     total energy              =   -2940.36434620 Ry
     estimated scf accuracy    <       0.60911761 Ry

     iteration # 42     ecut=    29.40 Ry     beta= 0.05
     Davidson diagonalization with overlap
     ethr =  1.05E-04,  avg # of iterations =  5.8

     negative rho (up, down):  9.072E-02 0.000E+00
 
     Adding external electric field

     Computed dipole along edir(3) : 
        Dipole                0.2940 Ry au,          0.7473 Debye
        Dipole field          0.0006 Ry au, 
 
        Potential amp.       -0.0514 Ry
        Total length         46.3494 bohr
 

     total cpu time spent up to now is      715.3 secs

     total energy              =   -2940.37086556 Ry
     estimated scf accuracy    <       0.16903835 Ry

     iteration # 43     ecut=    29.40 Ry     beta= 0.05
     Davidson diagonalization with overlap
     c_bands:  3 eigenvalues not converged
     c_bands:  3 eigenvalues not converged
     c_bands:  1 eigenvalues not converged
     c_bands:  3 eigenvalues not converged
     ethr =  4.27E-05,  avg # of iterations = 18.9

     negative rho (up, down):  5.912E-02 0.000E+00
 
     Adding external electric field

     Computed dipole along edir(3) : 
        Dipole                0.7157 Ry au,          1.8191 Debye
        Dipole field          0.0014 Ry au, 
 
        Potential amp.       -0.1252 Ry
        Total length         46.3494 bohr
 

     total cpu time spent up to now is      732.8 secs

     total energy              =   -2940.36671878 Ry
     estimated scf accuracy    <       0.16522732 Ry

     iteration # 44     ecut=    29.40 Ry     beta= 0.05
     Davidson diagonalization with overlap
     ethr =  4.17E-05,  avg # of iterations =  8.6

     negative rho (up, down):  3.105E-02 0.000E+00
 
     Adding external electric field

     Computed dipole along edir(3) : 
        Dipole                1.0353 Ry au,          2.6314 Debye
        Dipole field          0.0020 Ry au, 
 
        Potential amp.       -0.1811 Ry
        Total length         46.3494 bohr
 

     total cpu time spent up to now is      746.0 secs

     total energy              =   -2940.35637364 Ry
     estimated scf accuracy    <       0.25728061 Ry

     iteration # 45     ecut=    29.40 Ry     beta= 0.05
     Davidson diagonalization with overlap
     c_bands:  1 eigenvalues not converged
     ethr =  4.17E-05,  avg # of iterations = 11.9

     negative rho (up, down):  3.579E-02 0.000E+00
 
     Adding external electric field

     Computed dipole along edir(3) : 
        Dipole                0.9198 Ry au,          2.3380 Debye
        Dipole field          0.0017 Ry au, 
 
        Potential amp.       -0.1609 Ry
        Total length         46.3494 bohr
 

     total cpu time spent up to now is      760.1 secs

     total energy              =   -2940.36331790 Ry
     estimated scf accuracy    <       0.24421277 Ry

     iteration # 46     ecut=    29.40 Ry     beta= 0.05
     Davidson diagonalization with overlap
     ethr =  4.17E-05,  avg # of iterations =  2.0

     negative rho (up, down):  3.461E-02 0.000E+00
 
     Adding external electric field

     Computed dipole along edir(3) : 
        Dipole                0.7932 Ry au,          2.0161 Debye
        Dipole field          0.0015 Ry au, 
 
        Potential amp.       -0.1388 Ry
        Total length         46.3494 bohr
 

     total cpu time spent up to now is      771.4 secs

     total energy              =   -2940.36455813 Ry
     estimated scf accuracy    <       0.05959746 Ry

     iteration # 47     ecut=    29.40 Ry     beta= 0.05
     Davidson diagonalization with overlap
     c_bands:  3 eigenvalues not converged
     c_bands:  1 eigenvalues not converged
     c_bands:  1 eigenvalues not converged
     c_bands:  1 eigenvalues not converged
     c_bands:  2 eigenvalues not converged
     ethr =  1.50E-05,  avg # of iterations = 15.5

     negative rho (up, down):  2.861E-02 0.000E+00
 
     Adding external electric field

     Computed dipole along edir(3) : 
        Dipole                1.0157 Ry au,          2.5817 Debye
        Dipole field          0.0019 Ry au, 
 
        Potential amp.       -0.1777 Ry
        Total length         46.3494 bohr
 

     total cpu time spent up to now is      788.1 secs

     total energy              =   -2940.36194750 Ry
     estimated scf accuracy    <       0.08138560 Ry

     iteration # 48     ecut=    29.40 Ry     beta= 0.05
     Davidson diagonalization with overlap
     c_bands:  2 eigenvalues not converged
     c_bands:  2 eigenvalues not converged
     c_bands:  1 eigenvalues not converged
     c_bands:  2 eigenvalues not converged
     c_bands:  1 eigenvalues not converged
     ethr =  1.50E-05,  avg # of iterations = 16.7

     negative rho (up, down):  2.752E-02 0.000E+00
 
     Adding external electric field

     Computed dipole along edir(3) : 
        Dipole                1.0801 Ry au,          2.7453 Debye
        Dipole field          0.0020 Ry au, 
 
        Potential amp.       -0.1889 Ry
        Total length         46.3494 bohr
 

     total cpu time spent up to now is      805.2 secs

     total energy              =   -2940.36646294 Ry
     estimated scf accuracy    <       0.06797212 Ry

     iteration # 49     ecut=    29.40 Ry     beta= 0.05
     Davidson diagonalization with overlap
     ethr =  1.50E-05,  avg # of iterations =  6.1

     negative rho (up, down):  2.138E-02 0.000E+00
 
     Adding external electric field

     Computed dipole along edir(3) : 
        Dipole                1.2541 Ry au,          3.1875 Debye
        Dipole field          0.0024 Ry au, 
 
        Potential amp.       -0.2194 Ry
        Total length         46.3494 bohr
 

     total cpu time spent up to now is      817.2 secs

     total energy              =   -2940.36736152 Ry
     estimated scf accuracy    <       0.02407056 Ry

     iteration # 50     ecut=    29.40 Ry     beta= 0.05
     Davidson diagonalization with overlap
     c_bands:  1 eigenvalues not converged
     c_bands:  1 eigenvalues not converged
     c_bands:  1 eigenvalues not converged
     c_bands:  1 eigenvalues not converged
     ethr =  6.08E-06,  avg # of iterations = 17.7

     negative rho (up, down):  1.877E-02 0.000E+00
 
     Adding external electric field

     Computed dipole along edir(3) : 
        Dipole                1.1716 Ry au,          2.9780 Debye
        Dipole field          0.0022 Ry au, 
 
        Potential amp.       -0.2050 Ry
        Total length         46.3494 bohr
 

     total cpu time spent up to now is      836.9 secs

     total energy              =   -2940.36283702 Ry
     estimated scf accuracy    <       0.05414749 Ry

     iteration # 51     ecut=    29.40 Ry     beta= 0.05
     Davidson diagonalization with overlap
     c_bands:  2 eigenvalues not converged
     ethr =  6.08E-06,  avg # of iterations = 10.6

     negative rho (up, down):  1.718E-02 0.000E+00
 
     Adding external electric field

     Computed dipole along edir(3) : 
        Dipole                1.1906 Ry au,          3.0262 Debye
        Dipole field          0.0022 Ry au, 
 
        Potential amp.       -0.2083 Ry
        Total length         46.3494 bohr
 

     total cpu time spent up to now is      851.7 secs

     total energy              =   -2940.36450086 Ry
     estimated scf accuracy    <       0.02060267 Ry

     iteration # 52     ecut=    29.40 Ry     beta= 0.05
     Davidson diagonalization with overlap
     c_bands:  1 eigenvalues not converged
     c_bands:  1 eigenvalues not converged
     c_bands:  1 eigenvalues not converged
     c_bands:  1 eigenvalues not converged
     c_bands:  2 eigenvalues not converged
     ethr =  5.20E-06,  avg # of iterations = 17.8

     negative rho (up, down):  1.727E-02 0.000E+00
 
     Adding external electric field

     Computed dipole along edir(3) : 
        Dipole                1.1967 Ry au,          3.0418 Debye
        Dipole field          0.0023 Ry au, 
 
        Potential amp.       -0.2093 Ry
        Total length         46.3494 bohr
 

     total cpu time spent up to now is      869.6 secs

     total energy              =   -2940.36563271 Ry
     estimated scf accuracy    <       0.02457493 Ry

     iteration # 53     ecut=    29.40 Ry     beta= 0.05
     Davidson diagonalization with overlap
     c_bands:  1 eigenvalues not converged
     ethr =  5.20E-06,  avg # of iterations =  5.4

     negative rho (up, down):  1.736E-02 0.000E+00
 
     Adding external electric field

     Computed dipole along edir(3) : 
        Dipole                1.1988 Ry au,          3.0469 Debye
        Dipole field          0.0023 Ry au, 
 
        Potential amp.       -0.2097 Ry
        Total length         46.3494 bohr
 

     total cpu time spent up to now is      881.3 secs

     total energy              =   -2940.36524312 Ry
     estimated scf accuracy    <       0.00334997 Ry

     iteration # 54     ecut=    29.40 Ry     beta= 0.05
     Davidson diagonalization with overlap
     c_bands:  2 eigenvalues not converged
     c_bands:  1 eigenvalues not converged
     c_bands:  2 eigenvalues not converged
     c_bands:  1 eigenvalues not converged
     c_bands:  2 eigenvalues not converged
     c_bands:  2 eigenvalues not converged
     ethr =  8.46E-07,  avg # of iterations = 18.7

     negative rho (up, down):  1.693E-02 0.000E+00
 
     Adding external electric field

     Computed dipole along edir(3) : 
        Dipole                1.2031 Ry au,          3.0579 Debye
        Dipole field          0.0023 Ry au, 
 
        Potential amp.       -0.2105 Ry
        Total length         46.3494 bohr
 

     total cpu time spent up to now is      904.0 secs

     total energy              =   -2940.36615539 Ry
     estimated scf accuracy    <       0.00821677 Ry

     iteration # 55     ecut=    29.40 Ry     beta= 0.05
     Davidson diagonalization with overlap
     ethr =  8.46E-07,  avg # of iterations =  8.7

     negative rho (up, down):  1.641E-02 0.000E+00
 
     Adding external electric field

     Computed dipole along edir(3) : 
        Dipole                1.2256 Ry au,          3.1153 Debye
        Dipole field          0.0023 Ry au, 
 
        Potential amp.       -0.2144 Ry
        Total length         46.3494 bohr
 

     total cpu time spent up to now is      916.8 secs

     total energy              =   -2940.36575125 Ry
     estimated scf accuracy    <       0.00400744 Ry

     iteration # 56     ecut=    29.40 Ry     beta= 0.05
     Davidson diagonalization with overlap
     c_bands:  1 eigenvalues not converged
     c_bands:  1 eigenvalues not converged
     ethr =  8.46E-07,  avg # of iterations = 15.4

     negative rho (up, down):  1.648E-02 0.000E+00
 
     Adding external electric field

     Computed dipole along edir(3) : 
        Dipole                1.2504 Ry au,          3.1782 Debye
        Dipole field          0.0024 Ry au, 
 
        Potential amp.       -0.2187 Ry
        Total length         46.3494 bohr
 

     total cpu time spent up to now is      936.3 secs

     total energy              =   -2940.36643806 Ry
     estimated scf accuracy    <       0.00131813 Ry

     iteration # 57     ecut=    29.40 Ry     beta= 0.05
     Davidson diagonalization with overlap
     ethr =  3.33E-07,  avg # of iterations =  4.1

     negative rho (up, down):  1.697E-02 0.000E+00
 
     Adding external electric field

     Computed dipole along edir(3) : 
        Dipole                1.2776 Ry au,          3.2473 Debye
        Dipole field          0.0024 Ry au, 
 
        Potential amp.       -0.2235 Ry
        Total length         46.3494 bohr
 

     total cpu time spent up to now is      947.8 secs

     total energy              =   -2940.36624399 Ry
     estimated scf accuracy    <       0.00119819 Ry

     iteration # 58     ecut=    29.40 Ry     beta= 0.05
     Davidson diagonalization with overlap
     c_bands:  1 eigenvalues not converged
     ethr =  3.03E-07,  avg # of iterations = 13.8

     negative rho (up, down):  1.674E-02 0.000E+00
 
     Adding external electric field

     Computed dipole along edir(3) : 
        Dipole                1.2653 Ry au,          3.2160 Debye
        Dipole field          0.0024 Ry au, 
 
        Potential amp.       -0.2213 Ry
        Total length         46.3494 bohr
 

     total cpu time spent up to now is      967.0 secs

     total energy              =   -2940.36644529 Ry
     estimated scf accuracy    <       0.00100966 Ry

     iteration # 59     ecut=    29.40 Ry     beta= 0.05
     Davidson diagonalization with overlap
     ethr =  2.55E-07,  avg # of iterations =  4.0

     negative rho (up, down):  1.674E-02 0.000E+00
 
     Adding external electric field

     Computed dipole along edir(3) : 
        Dipole                1.2719 Ry au,          3.2329 Debye
        Dipole field          0.0024 Ry au, 
 
        Potential amp.       -0.2225 Ry
        Total length         46.3494 bohr
 

     total cpu time spent up to now is      978.4 secs

     total energy              =   -2940.36640565 Ry
     estimated scf accuracy    <       0.00068152 Ry

     iteration # 60     ecut=    29.40 Ry     beta= 0.05
     Davidson diagonalization with overlap
     ethr =  1.72E-07,  avg # of iterations =  9.4

     negative rho (up, down):  1.674E-02 0.000E+00
 
     Adding external electric field

     Computed dipole along edir(3) : 
        Dipole                1.2763 Ry au,          3.2441 Debye
        Dipole field          0.0024 Ry au, 
 
        Potential amp.       -0.2233 Ry
        Total length         46.3494 bohr
 

     total cpu time spent up to now is      993.0 secs

     total energy              =   -2940.36646225 Ry
     estimated scf accuracy    <       0.00022474 Ry

     iteration # 61     ecut=    29.40 Ry     beta= 0.05
     Davidson diagonalization with overlap
     c_bands:  1 eigenvalues not converged
     ethr =  5.68E-08,  avg # of iterations = 12.9

     negative rho (up, down):  1.672E-02 0.000E+00
 
     Adding external electric field

     Computed dipole along edir(3) : 
        Dipole                1.2782 Ry au,          3.2487 Debye
        Dipole field          0.0024 Ry au, 
 
        Potential amp.       -0.2236 Ry
        Total length         46.3494 bohr
 

     total cpu time spent up to now is     1009.5 secs

     total energy              =   -2940.36648555 Ry
     estimated scf accuracy    <       0.00009205 Ry

     iteration # 62     ecut=    29.40 Ry     beta= 0.05
     Davidson diagonalization with overlap
     ethr =  2.32E-08,  avg # of iterations = 11.7

     negative rho (up, down):  1.656E-02 0.000E+00
 
     Adding external electric field

     Computed dipole along edir(3) : 
        Dipole                1.2698 Ry au,          3.2275 Debye
        Dipole field          0.0024 Ry au, 
 
        Potential amp.       -0.2221 Ry
        Total length         46.3494 bohr
 

     total cpu time spent up to now is     1024.1 secs

     total energy              =   -2940.36648401 Ry
     estimated scf accuracy    <       0.00008923 Ry

     iteration # 63     ecut=    29.40 Ry     beta= 0.05
     Davidson diagonalization with overlap
     ethr =  2.25E-08,  avg # of iterations =  4.0

     negative rho (up, down):  1.654E-02 0.000E+00
 
     Adding external electric field

     Computed dipole along edir(3) : 
        Dipole                1.2679 Ry au,          3.2228 Debye
        Dipole field          0.0024 Ry au, 
 
        Potential amp.       -0.2218 Ry
        Total length         46.3494 bohr
 

     total cpu time spent up to now is     1036.1 secs

     total energy              =   -2940.36648939 Ry
     estimated scf accuracy    <       0.00002685 Ry

     iteration # 64     ecut=    29.40 Ry     beta= 0.05
     Davidson diagonalization with overlap
     c_bands:  1 eigenvalues not converged
     ethr =  6.78E-09,  avg # of iterations = 13.9

     negative rho (up, down):  1.654E-02 0.000E+00
 
     Adding external electric field

     Computed dipole along edir(3) : 
        Dipole                1.2679 Ry au,          3.2226 Debye
        Dipole field          0.0024 Ry au, 
 
        Potential amp.       -0.2218 Ry
        Total length         46.3494 bohr
 

     total cpu time spent up to now is     1055.0 secs

     total energy              =   -2940.36650008 Ry
     estimated scf accuracy    <       0.00001382 Ry

     iteration # 65     ecut=    29.40 Ry     beta= 0.05
     Davidson diagonalization with overlap
     ethr =  3.49E-09,  avg # of iterations =  1.4

     negative rho (up, down):  1.649E-02 0.000E+00
 
     Adding external electric field

     Computed dipole along edir(3) : 
        Dipole                1.2653 Ry au,          3.2161 Debye
        Dipole field          0.0024 Ry au, 
 
        Potential amp.       -0.2213 Ry
        Total length         46.3494 bohr
 

     total cpu time spent up to now is     1065.5 secs

     total energy              =   -2940.36650262 Ry
     estimated scf accuracy    <       0.00001250 Ry

     iteration # 66     ecut=    29.40 Ry     beta= 0.05
     Davidson diagonalization with overlap
     ethr =  3.16E-09,  avg # of iterations = 15.4

     negative rho (up, down):  1.647E-02 0.000E+00
 
     Adding external electric field

     Computed dipole along edir(3) : 
        Dipole                1.2648 Ry au,          3.2149 Debye
        Dipole field          0.0024 Ry au, 
 
        Potential amp.       -0.2213 Ry
        Total length         46.3494 bohr
 

     total cpu time spent up to now is     1088.1 secs

     total energy              =   -2940.36650884 Ry
     estimated scf accuracy    <       0.00002390 Ry

     iteration # 67     ecut=    29.40 Ry     beta= 0.05
     Davidson diagonalization with overlap
     ethr =  3.16E-09,  avg # of iterations = 11.0

     negative rho (up, down):  1.646E-02 0.000E+00
 
     Adding external electric field

     Computed dipole along edir(3) : 
        Dipole                1.2649 Ry au,          3.2151 Debye
        Dipole field          0.0024 Ry au, 
 
        Potential amp.       -0.2213 Ry
        Total length         46.3494 bohr
 

     total cpu time spent up to now is     1104.6 secs

     total energy              =   -2940.36651515 Ry
     estimated scf accuracy    <       0.00000563 Ry

     iteration # 68     ecut=    29.40 Ry     beta= 0.05
     Davidson diagonalization with overlap
     ethr =  1.42E-09,  avg # of iterations =  6.1

     negative rho (up, down):  1.646E-02 0.000E+00
 
     Adding external electric field

     Computed dipole along edir(3) : 
        Dipole                1.2660 Ry au,          3.2178 Debye
        Dipole field          0.0024 Ry au, 
 
        Potential amp.       -0.2215 Ry
        Total length         46.3494 bohr
 

     total cpu time spent up to now is     1116.7 secs

     total energy              =   -2940.36651905 Ry
     estimated scf accuracy    <       0.00000389 Ry

     iteration # 69     ecut=    29.40 Ry     beta= 0.05
     Davidson diagonalization with overlap
     c_bands:  1 eigenvalues not converged
     ethr =  9.82E-10,  avg # of iterations = 13.7

     negative rho (up, down):  1.645E-02 0.000E+00
 
     Adding external electric field

     Computed dipole along edir(3) : 
        Dipole                1.2663 Ry au,          3.2187 Debye
        Dipole field          0.0024 Ry au, 
 
        Potential amp.       -0.2215 Ry
        Total length         46.3494 bohr
 

     total cpu time spent up to now is     1134.6 secs

     total energy              =   -2940.36652336 Ry
     estimated scf accuracy    <       0.00000190 Ry

     iteration # 70     ecut=    29.40 Ry     beta= 0.05
     Davidson diagonalization with overlap
     ethr =  4.80E-10,  avg # of iterations = 14.9

     negative rho (up, down):  1.644E-02 0.000E+00
 
     Adding external electric field

     Computed dipole along edir(3) : 
        Dipole                1.2665 Ry au,          3.2191 Debye
        Dipole field          0.0024 Ry au, 
 
        Potential amp.       -0.2216 Ry
        Total length         46.3494 bohr
 

     total cpu time spent up to now is     1155.1 secs

     total energy              =   -2940.36652711 Ry
     estimated scf accuracy    <       0.00000215 Ry

     iteration # 71     ecut=    29.40 Ry     beta= 0.05
     Davidson diagonalization with overlap
     ethr =  4.80E-10,  avg # of iterations =  2.6

     negative rho (up, down):  1.644E-02 0.000E+00
 
     Adding external electric field

     Computed dipole along edir(3) : 
        Dipole                1.2674 Ry au,          3.2214 Debye
        Dipole field          0.0024 Ry au, 
 
        Potential amp.       -0.2217 Ry
        Total length         46.3494 bohr
 

     total cpu time spent up to now is     1166.3 secs

     total energy              =   -2940.36652986 Ry
     estimated scf accuracy    <       0.00000178 Ry

     iteration # 72     ecut=    29.40 Ry     beta= 0.05
     Davidson diagonalization with overlap
     c_bands:  1 eigenvalues not converged
     c_bands:  1 eigenvalues not converged
     ethr =  4.49E-10,  avg # of iterations = 16.5

     negative rho (up, down):  1.643E-02 0.000E+00
 
     Adding external electric field

     Computed dipole along edir(3) : 
        Dipole                1.2674 Ry au,          3.2213 Debye
        Dipole field          0.0024 Ry au, 
 
        Potential amp.       -0.2217 Ry
        Total length         46.3494 bohr
 

     total cpu time spent up to now is     1185.5 secs

     total energy              =   -2940.36653284 Ry
     estimated scf accuracy    <       0.00000095 Ry

     iteration # 73     ecut=    29.40 Ry     beta= 0.05
     Davidson diagonalization with overlap
     ethr =  2.39E-10,  avg # of iterations =  1.9

     negative rho (up, down):  1.643E-02 0.000E+00
 
     Adding external electric field

     Computed dipole along edir(3) : 
        Dipole                1.2671 Ry au,          3.2207 Debye
        Dipole field          0.0024 Ry au, 
 
        Potential amp.       -0.2217 Ry
        Total length         46.3494 bohr
 

     total cpu time spent up to now is     1196.5 secs

     total energy              =   -2940.36653528 Ry
     estimated scf accuracy    <       0.00000079 Ry

     iteration # 74     ecut=    29.40 Ry     beta= 0.05
     Davidson diagonalization with overlap
     ethr =  1.99E-10,  avg # of iterations = 10.6

     negative rho (up, down):  1.641E-02 0.000E+00
 
     Adding external electric field

     Computed dipole along edir(3) : 
        Dipole                1.2670 Ry au,          3.2205 Debye
        Dipole field          0.0024 Ry au, 
 
        Potential amp.       -0.2217 Ry
        Total length         46.3494 bohr
 

     total cpu time spent up to now is     1212.8 secs

     total energy              =   -2940.36653749 Ry
     estimated scf accuracy    <       0.00000067 Ry

     iteration # 75     ecut=    29.40 Ry     beta= 0.05
     Davidson diagonalization with overlap
     ethr =  1.68E-10,  avg # of iterations = 11.6

     negative rho (up, down):  1.641E-02 0.000E+00
 
     Adding external electric field

     Computed dipole along edir(3) : 
        Dipole                1.2670 Ry au,          3.2203 Debye
        Dipole field          0.0024 Ry au, 
 
        Potential amp.       -0.2216 Ry
        Total length         46.3494 bohr
 

     total cpu time spent up to now is     1230.2 secs

     total energy              =   -2940.36653963 Ry
     estimated scf accuracy    <       0.00000027 Ry

     iteration # 76     ecut=    29.40 Ry     beta= 0.05
     Davidson diagonalization with overlap
     ethr =  6.86E-11,  avg # of iterations =  8.3

     negative rho (up, down):  1.641E-02 0.000E+00
 
     Adding external electric field

     Computed dipole along edir(3) : 
        Dipole                1.2668 Ry au,          3.2200 Debye
        Dipole field          0.0024 Ry au, 
 
        Potential amp.       -0.2216 Ry
        Total length         46.3494 bohr
 

     total cpu time spent up to now is     1243.3 secs

     total energy              =   -2940.36654141 Ry
     estimated scf accuracy    <       0.00000026 Ry

     iteration # 77     ecut=    29.40 Ry     beta= 0.05
     Davidson diagonalization with overlap
     ethr =  6.51E-11,  avg # of iterations =  8.6

     negative rho (up, down):  1.641E-02 0.000E+00
 
     Adding external electric field

     Computed dipole along edir(3) : 
        Dipole                1.2668 Ry au,          3.2199 Debye
        Dipole field          0.0024 Ry au, 
 
        Potential amp.       -0.2216 Ry
        Total length         46.3494 bohr
 

     total cpu time spent up to now is     1258.7 secs

     total energy              =   -2940.36654310 Ry
     estimated scf accuracy    <       0.00000008 Ry

     iteration # 78     ecut=    29.40 Ry     beta= 0.05
     Davidson diagonalization with overlap
     ethr =  2.06E-11,  avg # of iterations = 12.6

     negative rho (up, down):  1.644E-02 0.000E+00
 
     Adding external electric field

     Computed dipole along edir(3) : 
        Dipole                1.2652 Ry au,          3.2159 Debye
        Dipole field          0.0024 Ry au, 
 
        Potential amp.       -0.2213 Ry
        Total length         46.3494 bohr
 

     total cpu time spent up to now is     1273.6 secs

     End of self-consistent calculation

          k = 0.0000 0.0000 0.0000 ( 18029 PWs)   bands (ev):

   -55.4178 -55.3811 -55.3698 -55.3357 -55.2969 -55.2930 -55.2866 -55.2624
   -55.2356 -55.2194 -55.2013 -55.2009 -55.1675 -55.0498 -54.3973 -54.3633
   -31.9869 -31.8622 -31.8182 -31.7851 -31.7311 -31.7253 -31.7204 -31.7066
   -31.6589 -31.6512 -31.6280 -31.6268 -31.6147 -31.5880 -31.5729 -31.5676
   -31.5550 -31.5545 -31.5333 -31.5268 -31.5221 -31.5119 -31.4836 -31.4743
   -31.4663 -31.4633 -31.4381 -31.4278 -31.4268 -31.4199 -31.4185 -31.3997
   -31.3988 -31.3935 -31.3862 -31.3837 -31.3496 -31.3364 -31.3293 -31.3123
   -31.2714 -31.2140 -30.8066 -30.7126 -30.6906 -30.6230 -30.5363 -30.4253
   -18.5218 -16.2494 -15.9806 -15.8379 -15.7137 -15.6150 -15.4903 -15.4680
   -15.3407 -15.2558 -15.1424 -15.0970 -15.0868 -15.0832 -15.0503 -15.0228
   -14.9593 -14.9547 -14.9369 -14.9107 -14.8999 -14.8569 -14.8537 -14.8123
   -14.7918 -14.7895 -14.6633 -14.5745 -14.5041 -14.1801 -13.6933 -12.9000
   -12.7826  -8.7232  -6.4810  -6.0327  -4.0170  -3.5903  -3.4344  -3.3764
    -3.3363  -3.3096  -3.1857  -3.1601  -3.0230  -2.8257  -2.7764  -2.6874
    -2.6252  -2.6167  -2.5976  -2.4168  -2.4088  -2.3524  -2.3022  -2.2607
    -2.2381  -2.2241  -2.2050  -2.1796  -2.1690  -2.1590  -1.9854  -1.9690
    -1.8990  -1.8251  -1.8154  -1.7651  -1.7442  -1.7131  -1.7055  -1.6975
    -1.6521  -1.6322  -1.6026  -1.5539  -1.4289  -1.3374  -1.3051  -1.2221
    -1.0975  -1.0531  -1.0010  -0.9978  -0.9049  -0.8993  -0.8798  -0.7952
    -0.7618  -0.7111  -0.6398  -0.5714  -0.5145  -0.4562  -0.4087  -0.3985
    -0.3436  -0.2265  -0.2011  -0.1823  -0.1600  -0.0397  -0.0211   0.0188
     0.0936   0.1239   0.1247   0.2413   0.2677   0.3252   0.3293   0.4067
     0.4668   0.5117   0.5202   0.5397   0.5688   0.5718   0.6452   0.6595
     0.6898   0.7590   0.8070   0.9180   1.1482   1.1840   1.1971   1.5301
     1.5320   1.6254   1.8091   2.2012   2.2493   3.6814   3.7514   3.8260
     3.8323   3.8508   3.9189   4.1555   4.1738   4.1817   4.1871   4.2302

          k = 0.0000 0.0419 0.0000 ( 17933 PWs)   bands (ev):

   -55.4126 -55.3861 -55.3647 -55.3406 -55.2919 -55.2910 -55.2857 -55.2673
   -55.2306 -55.2213 -55.2061 -55.1961 -55.1723 -55.0504 -54.3923 -54.3682
   -31.9297 -31.8081 -31.7840 -31.7304 -31.7176 -31.6725 -31.6718 -31.6637
   -31.6606 -31.6539 -31.6491 -31.6161 -31.6101 -31.6083 -31.5901 -31.5643
   -31.5608 -31.5465 -31.5402 -31.5228 -31.5187 -31.5130 -31.5082 -31.4684
   -31.4661 -31.4621 -31.4568 -31.4416 -31.4413 -31.4397 -31.4351 -31.4272
   -31.4056 -31.4025 -31.3910 -31.3891 -31.3834 -31.3790 -31.3664 -31.3397
   -31.2701 -31.2512 -30.7524 -30.7092 -30.6935 -30.6104 -30.5489 -30.4825
   -18.5209 -16.1182 -15.8632 -15.7375 -15.6467 -15.5079 -15.4608 -15.4285
   -15.3281 -15.2777 -15.2228 -15.1818 -15.1064 -15.0923 -15.0472 -15.0019
   -14.9928 -14.9232 -14.9193 -14.9150 -14.8987 -14.8947 -14.8682 -14.8512
   -14.8280 -14.7843 -14.7193 -14.6297 -14.5639 -14.3132 -13.6925 -12.9036
   -12.8218  -8.7224  -6.4806  -6.0335  -4.0161  -3.3995  -3.2670  -3.2534
    -3.1799  -3.1338  -3.1296  -3.0168  -2.7987  -2.7580  -2.6778  -2.6528
    -2.5748  -2.5571  -2.5253  -2.4858  -2.4356  -2.4182  -2.3941  -2.3748
    -2.3541  -2.3019  -2.2912  -2.2139  -2.1882  -2.1569  -2.1375  -2.0391
    -2.0120  -1.9737  -1.9643  -1.9321  -1.8704  -1.8405  -1.7852  -1.7158
    -1.6930  -1.5692  -1.4516  -1.3952  -1.3480  -1.2847  -1.2172  -1.1656
    -1.0967  -1.0544  -0.9791  -0.8386  -0.7886  -0.7476  -0.7392  -0.7046
    -0.6557  -0.6136  -0.5717  -0.5608  -0.4575  -0.4191  -0.4063  -0.3491
    -0.3349  -0.2744  -0.2407  -0.2324  -0.2175  -0.1186  -0.0408  -0.0121
    -0.0064   0.0734   0.0791   0.1495   0.1954   0.2308   0.3077   0.3259
     0.3353   0.3868   0.3970   0.4185   0.5286   0.5401   0.6107   0.6254
     0.6930   0.7745   0.8286   0.8814   0.8912   0.9717   1.0783   1.2334
     1.4044   1.8090   1.8854   2.1561   2.1596   3.8719   3.8890   3.9153
     3.9729   4.0540   4.0586   4.0915   4.1131   4.1479   4.1878   4.2393

          k = 0.0000-0.0839 0.0000 ( 17884 PWs)   bands (ev):

   -55.4031 -55.3956 -55.3528 -55.3525 -55.2891 -55.2849 -55.2813 -55.2777
   -55.2235 -55.2201 -55.2165 -55.1844 -55.1839 -55.0510 -54.3803 -54.3800
   -31.7926 -31.7871 -31.7449 -31.6933 -31.6796 -31.6758 -31.6756 -31.6441
   -31.6440 -31.6139 -31.6074 -31.6026 -31.5909 -31.5901 -31.5884 -31.5553
   -31.5546 -31.5478 -31.5411 -31.5368 -31.5343 -31.5095 -31.5019 -31.4907
   -31.4904 -31.4830 -31.4808 -31.4745 -31.4742 -31.4695 -31.4535 -31.4533
   -31.4509 -31.4492 -31.4401 -31.4062 -31.3796 -31.3779 -31.3651 -31.3648
   -31.2930 -31.2686 -30.7013 -30.7010 -30.6193 -30.6192 -30.5798 -30.5795
   -18.5200 -15.8332 -15.7683 -15.6102 -15.5704 -15.5015 -15.4389 -15.4240
   -15.3202 -15.2886 -15.2752 -15.2361 -15.2014 -15.1667 -15.0236 -15.0209
   -15.0082 -15.0067 -14.9745 -14.8992 -14.8663 -14.8439 -14.8219 -14.8209
   -14.7667 -14.7607 -14.7090 -14.7066 -14.6901 -14.5672 -13.6924 -12.8845
   -12.8845  -8.7217  -6.4802  -6.0342  -4.0174  -3.2039  -2.9796  -2.9307
    -2.8902  -2.8730  -2.8513  -2.8434  -2.8279  -2.7574  -2.7287  -2.6911
    -2.6891  -2.6067  -2.5987  -2.5741  -2.5603  -2.5416  -2.4649  -2.4187
    -2.3838  -2.3647  -2.2986  -2.2837  -2.2663  -2.2373  -2.2216  -2.1299
    -2.0988  -2.0461  -2.0165  -1.9038  -1.8509  -1.7841  -1.7690  -1.6148
    -1.5298  -1.4935  -1.4524  -1.3100  -1.2851  -1.2198  -1.1869  -1.1756
    -0.9989  -0.9314  -0.9227  -0.9028  -0.8779  -0.8375  -0.8115  -0.8036
    -0.7899  -0.6773  -0.6401  -0.6318  -0.5651  -0.4547  -0.3951  -0.2625
    -0.2533  -0.2126  -0.1599  -0.1278  -0.0568  -0.0362  -0.0284  -0.0211
     0.0282   0.0755   0.1024   0.1095   0.1536   0.1673   0.2138   0.2280
     0.2492   0.2564   0.3312   0.3712   0.3721   0.3901   0.4005   0.4882
     0.6938   0.7634   0.7965   0.7971   0.8100   0.9452   1.0352   1.1470
     1.1522   1.9511   1.9517   2.0916   2.0919   3.9192   3.9570   3.9868
     4.0046   4.0311   4.1279   4.1632   4.1706   4.2598   4.2708   4.2844

          k = 0.0380 0.0000 0.0000 ( 17913 PWs)   bands (ev):

   -55.4176 -55.3810 -55.3697 -55.3356 -55.2968 -55.2925 -55.2869 -55.2623
   -55.2353 -55.2193 -55.2012 -55.2009 -55.1674 -55.0497 -54.3972 -54.3632
   -31.9870 -31.8631 -31.8183 -31.7904 -31.7318 -31.7293 -31.7228 -31.7069
   -31.6586 -31.6511 -31.6274 -31.6147 -31.6101 -31.5879 -31.5725 -31.5673
   -31.5481 -31.5399 -31.5260 -31.5198 -31.5127 -31.5118 -31.4920 -31.4833
   -31.4721 -31.4660 -31.4381 -31.4270 -31.4265 -31.4197 -31.4111 -31.4064
   -31.3995 -31.3987 -31.3934 -31.3853 -31.3483 -31.3361 -31.3292 -31.3128
   -31.2735 -31.2140 -30.8061 -30.7161 -30.6885 -30.6228 -30.5362 -30.4251
   -18.5212 -16.1721 -15.8956 -15.8116 -15.6934 -15.5144 -15.4988 -15.4795
   -15.3587 -15.2581 -15.2119 -15.1985 -15.1408 -15.1140 -15.1101 -15.0864
   -15.0558 -15.0095 -14.9652 -14.9007 -14.8524 -14.8179 -14.7931 -14.7818
   -14.7377 -14.6711 -14.6490 -14.6383 -14.5906 -14.1794 -13.6997 -12.8967
   -12.7823  -8.7138  -6.4628  -6.0394  -4.0363  -3.4818  -3.3118  -3.2485
    -3.2013  -3.1009  -3.0605  -3.0199  -3.0056  -2.9416  -2.8241  -2.7968
    -2.7512  -2.7000  -2.5668  -2.4911  -2.4687  -2.3684  -2.3510  -2.2085
    -2.1918  -2.1592  -2.1401  -2.0823  -2.0570  -2.0169  -1.9764  -1.9410
    -1.8194  -1.7870  -1.7728  -1.7447  -1.7150  -1.7097  -1.6706  -1.6592
    -1.5886  -1.5179  -1.5021  -1.4721  -1.3879  -1.3582  -1.2571  -1.2185
    -1.1425  -1.0714  -1.0455  -1.0166  -0.9443  -0.9161  -0.8632  -0.8305
    -0.8148  -0.7648  -0.7384  -0.7019  -0.5142  -0.4631  -0.4127  -0.3770
    -0.3126  -0.2955  -0.2753  -0.2595  -0.0999  -0.0914  -0.0543  -0.0071
     0.0285   0.0893   0.1103   0.1409   0.2087   0.2420   0.2786   0.3213
     0.3367   0.3534   0.4041   0.4410   0.5092   0.5441   0.5737   0.6173
     0.6416   0.7031   0.7840   0.8275   0.9034   1.0237   1.2478   1.3903
     1.5374   1.6372   1.7779   2.0886   2.1665   3.6982   3.7844   3.9467
     3.9802   4.0086   4.0740   4.1205   4.1315   4.1618   4.1709   4.1938

          k = 0.0380 0.0419 0.0000 ( 17878 PWs)   bands (ev):

   -55.4125 -55.3861 -55.3646 -55.3406 -55.2918 -55.2905 -55.2861 -55.2673
   -55.2304 -55.2213 -55.2060 -55.1961 -55.1723 -55.0503 -54.3922 -54.3682
   -31.9298 -31.8090 -31.7841 -31.7367 -31.7176 -31.6766 -31.6753 -31.6641
   -31.6607 -31.6537 -31.6494 -31.6103 -31.6088 -31.6018 -31.5902 -31.5607
   -31.5546 -31.5403 -31.5328 -31.5216 -31.5128 -31.5064 -31.5005 -31.4848
   -31.4737 -31.4617 -31.4543 -31.4422 -31.4399 -31.4375 -31.4281 -31.4276
   -31.4154 -31.4029 -31.3926 -31.3896 -31.3889 -31.3853 -31.3661 -31.3398
   -31.2725 -31.2509 -30.7520 -30.7120 -30.6925 -30.6102 -30.5489 -30.4824
   -18.5204 -16.0474 -15.7828 -15.7369 -15.5998 -15.4642 -15.4383 -15.4051
   -15.3386 -15.2938 -15.2184 -15.2098 -15.1589 -15.1055 -15.0892 -15.0641
   -15.0487 -15.0048 -14.9680 -14.9416 -14.8880 -14.8646 -14.8339 -14.7980
   -14.7899 -14.7400 -14.7071 -14.6972 -14.6444 -14.3123 -13.6964 -12.9012
   -12.8221  -8.7136  -6.4677  -6.0400  -4.0209  -3.3082  -3.2380  -3.1288
    -3.0347  -2.9559  -2.9053  -2.8474  -2.8156  -2.7701  -2.6971  -2.6624
    -2.6063  -2.5368  -2.4988  -2.4588  -2.4412  -2.4031  -2.3553  -2.3202
    -2.2807  -2.2402  -2.2220  -2.1914  -2.1713  -2.1179  -2.1107  -2.0486
    -2.0065  -1.9804  -1.9290  -1.8960  -1.8320  -1.8070  -1.7519  -1.7005
    -1.6256  -1.4871  -1.4350  -1.4140  -1.3850  -1.2455  -1.2019  -1.1446
    -1.1230  -1.0191  -0.9712  -0.8980  -0.8712  -0.8247  -0.8002  -0.7689
    -0.7181  -0.6996  -0.6650  -0.5958  -0.5373  -0.5118  -0.4752  -0.3942
    -0.3735  -0.3521  -0.3010  -0.2379  -0.2035  -0.1821  -0.1261  -0.1076
    -0.0742  -0.0483  -0.0346   0.0103   0.0525   0.1435   0.1520   0.2177
     0.2398   0.3020   0.3220   0.3992   0.4920   0.5363   0.5893   0.6790
     0.7157   0.7387   0.8177   0.8377   0.8746   1.0036   1.0192   1.1792
     1.3596   1.8198   1.8888   2.0782   2.1413   3.8630   3.8824   3.9061
     4.0208   4.0533   4.0897   4.1136   4.1595   4.2130   4.2479   4.2689

          k = 0.0380-0.0839 0.0000 ( 17916 PWs)   bands (ev):

   -55.4031 -55.3956 -55.3528 -55.3525 -55.2886 -55.2854 -55.2813 -55.2778
   -55.2235 -55.2200 -55.2164 -55.1845 -55.1840 -55.0510 -54.3804 -54.3801
   -31.7928 -31.7874 -31.7451 -31.6935 -31.6798 -31.6766 -31.6764 -31.6441
   -31.6441 -31.6199 -31.6141 -31.6110 -31.6085 -31.5638 -31.5616 -31.5596
   -31.5545 -31.5485 -31.5465 -31.5435 -31.5276 -31.5092 -31.4984 -31.4924
   -31.4919 -31.4738 -31.4734 -31.4688 -31.4630 -31.4626 -31.4599 -31.4591
   -31.4532 -31.4491 -31.4411 -31.4087 -31.3914 -31.3898 -31.3652 -31.3648
   -31.2927 -31.2717 -30.7023 -30.7021 -30.6192 -30.6191 -30.5798 -30.5795
   -18.5196 -15.7861 -15.7273 -15.5860 -15.5228 -15.4993 -15.3940 -15.3699
   -15.2959 -15.2903 -15.2808 -15.2245 -15.1571 -15.1257 -15.0492 -15.0405
   -15.0393 -15.0002 -14.9998 -14.9770 -14.9164 -14.8956 -14.8504 -14.8472
   -14.7869 -14.7813 -14.7594 -14.7585 -14.6751 -14.5571 -13.6959 -12.8843
   -12.8843  -8.7130  -6.4678  -6.0406  -4.0224  -3.2214  -2.9503  -2.8793
    -2.8605  -2.7060  -2.6829  -2.6687  -2.6346  -2.6011  -2.5979  -2.5563
    -2.5249  -2.5174  -2.4950  -2.4926  -2.4719  -2.4585  -2.3987  -2.3910
    -2.3367  -2.3173  -2.3029  -2.2767  -2.2384  -2.1819  -2.1531  -2.1176
    -2.0899  -2.0615  -2.0273  -1.9660  -1.8643  -1.6899  -1.6497  -1.5879
    -1.5302  -1.4571  -1.4266  -1.3794  -1.3509  -1.3174  -1.2763  -1.2322
    -1.1635  -1.1524  -1.0971  -1.0935  -1.0338  -0.9791  -0.8856  -0.8397
    -0.7657  -0.7519  -0.7024  -0.6942  -0.6045  -0.4904  -0.4512  -0.4114
    -0.3830  -0.3437  -0.2685  -0.2418  -0.2201  -0.2104  -0.1877  -0.1326
    -0.0590  -0.0525  -0.0296   0.0187   0.0553   0.0687   0.0918   0.1169
     0.2896   0.3096   0.3308   0.3649   0.4813   0.5002   0.6473   0.6505
     0.6949   0.7169   0.7825   0.8181   0.8334   0.9062   0.9535   1.1376
     1.1422   1.9645   1.9651   2.0821   2.0828   3.8452   3.9405   3.9656
     3.9989   4.0549   4.1074   4.1390   4.1694   4.2649   4.2877   4.3327

          k = 0.0380-0.0419 0.0000 ( 17876 PWs)   bands (ev):

   -55.4125 -55.3861 -55.3646 -55.3406 -55.2918 -55.2905 -55.2861 -55.2673
   -55.2304 -55.2213 -55.2060 -55.1961 -55.1723 -55.0503 -54.3922 -54.3682
   -31.9298 -31.8090 -31.7842 -31.7367 -31.7176 -31.6766 -31.6750 -31.6641
   -31.6608 -31.6537 -31.6493 -31.6103 -31.6090 -31.6016 -31.5902 -31.5607
   -31.5546 -31.5403 -31.5333 -31.5225 -31.5129 -31.5064 -31.5004 -31.4849
   -31.4717 -31.4617 -31.4542 -31.4422 -31.4399 -31.4375 -31.4280 -31.4271
   -31.4157 -31.4043 -31.3923 -31.3897 -31.3886 -31.3853 -31.3661 -31.3398
   -31.2726 -31.2509 -30.7520 -30.7120 -30.6925 -30.6102 -30.5489 -30.4824
   -18.5204 -16.0474 -15.7828 -15.7369 -15.6034 -15.4641 -15.4403 -15.4049
   -15.3371 -15.2952 -15.2215 -15.1984 -15.1590 -15.1044 -15.0885 -15.0644
   -15.0512 -15.0064 -14.9680 -14.9411 -14.8879 -14.8645 -14.8340 -14.7981
   -14.7882 -14.7393 -14.7070 -14.6975 -14.6448 -14.3134 -13.6984 -12.9012
   -12.8221  -8.7131  -6.4629  -6.0400  -4.0355  -3.3065  -3.2329  -3.1256
    -3.0347  -2.9512  -2.9056  -2.8471  -2.8196  -2.7731  -2.7010  -2.6615
    -2.6060  -2.5408  -2.5006  -2.4590  -2.4418  -2.3992  -2.3523  -2.3219
    -2.2848  -2.2406  -2.2216  -2.2012  -2.1726  -2.1182  -2.1113  -2.0485
    -2.0060  -1.9811  -1.9276  -1.8724  -1.8370  -1.8073  -1.7608  -1.6933
    -1.6227  -1.4841  -1.4236  -1.4113  -1.3816  -1.2349  -1.2076  -1.1426
    -1.1056  -1.0174  -0.9618  -0.9038  -0.8879  -0.8264  -0.7983  -0.7687
    -0.7378  -0.7005  -0.6662  -0.5961  -0.5604  -0.5089  -0.4907  -0.3909
    -0.3623  -0.3485  -0.3027  -0.2439  -0.2159  -0.1804  -0.1307  -0.1050
    -0.0750  -0.0465  -0.0337   0.0115   0.0551   0.1406   0.1555   0.2150
     0.2457   0.3083   0.3377   0.3886   0.4828   0.5315   0.5855   0.6782
     0.7039   0.7398   0.8323   0.8429   0.8969   1.0033   1.0108   1.1793
     1.3595   1.8199   1.8888   2.0780   2.1420   3.8642   3.8820   3.9081
     4.0209   4.0427   4.0880   4.1136   4.1855   4.2135   4.2493   4.2721

          k =-0.0760-0.0000 0.0000 ( 17886 PWs)   bands (ev):

   -55.4175 -55.3810 -55.3696 -55.3356 -55.2968 -55.2919 -55.2873 -55.2623
   -55.2351 -55.2193 -55.2012 -55.2010 -55.1674 -55.0497 -54.3972 -54.3632
   -31.9871 -31.8640 -31.8185 -31.7955 -31.7336 -31.7325 -31.7247 -31.7072
   -31.6585 -31.6511 -31.6275 -31.6147 -31.5879 -31.5851 -31.5724 -31.5667
   -31.5426 -31.5286 -31.5180 -31.5164 -31.5121 -31.5083 -31.4944 -31.4832
   -31.4780 -31.4664 -31.4414 -31.4381 -31.4270 -31.4266 -31.4196 -31.4031
   -31.3997 -31.3988 -31.3937 -31.3884 -31.3473 -31.3360 -31.3291 -31.3135
   -31.2757 -31.2140 -30.8057 -30.7196 -30.6872 -30.6228 -30.5360 -30.4252
   -18.5208 -16.0515 -15.8953 -15.7208 -15.6490 -15.5047 -15.4711 -15.4454
   -15.3184 -15.2785 -15.2754 -15.2550 -15.1927 -15.1894 -15.1698 -15.1413
   -15.1282 -15.0445 -14.9185 -14.8991 -14.8418 -14.8260 -14.8230 -14.7943
   -14.7455 -14.6995 -14.6615 -14.5812 -14.5502 -14.1788 -13.7060 -12.8936
   -12.7819  -8.7045  -6.4440  -6.0465  -4.0571  -3.4506  -3.2977  -3.2475
    -3.0628  -2.9920  -2.9161  -2.9061  -2.8882  -2.8438  -2.8187  -2.8019
    -2.7267  -2.6630  -2.6472  -2.4890  -2.3645  -2.3024  -2.2576  -2.1646
    -2.1457  -2.0576  -2.0290  -1.9736  -1.9624  -1.9446  -1.9135  -1.8989
    -1.8419  -1.7881  -1.7653  -1.7535  -1.7433  -1.7392  -1.7226  -1.7020
    -1.6211  -1.5454  -1.5118  -1.4447  -1.4001  -1.2365  -1.2049  -1.1117
    -1.0872  -1.0589  -1.0372  -1.0288  -0.9976  -0.9819  -0.9423  -0.9061
    -0.8563  -0.7787  -0.7554  -0.7236  -0.6914  -0.6745  -0.6141  -0.3976
    -0.3728  -0.3344  -0.3170  -0.3139  -0.1827  -0.1286  -0.1010  -0.0565
    -0.0247   0.0126   0.0800   0.0878   0.1332   0.1713   0.1850   0.2411
     0.2705   0.3314   0.3463   0.3833   0.4295   0.4449   0.5221   0.5372
     0.6102   0.7108   0.8245   0.8589   0.8660   1.0711   1.1141   1.2730
     1.5422   1.6586   1.7530   1.9584   2.1115   3.6981   3.7417   3.8226
     3.9564   4.0069   4.0653   4.1202   4.1316   4.1693   4.1977   4.2567

          k =-0.0760 0.0419 0.0000 ( 17914 PWs)   bands (ev):

   -55.4125 -55.3861 -55.3646 -55.3406 -55.2919 -55.2899 -55.2867 -55.2673
   -55.2302 -55.2213 -55.2060 -55.1963 -55.1724 -55.0503 -54.3922 -54.3682
   -31.9301 -31.8101 -31.7844 -31.7428 -31.7178 -31.6809 -31.6786 -31.6647
   -31.6609 -31.6537 -31.6495 -31.6105 -31.6087 -31.5904 -31.5843 -31.5603
   -31.5454 -31.5406 -31.5247 -31.5145 -31.5048 -31.5037 -31.5011 -31.4940
   -31.4662 -31.4626 -31.4536 -31.4477 -31.4425 -31.4403 -31.4394 -31.4278
   -31.4069 -31.4037 -31.4014 -31.3929 -31.3910 -31.3889 -31.3668 -31.3398
   -31.2752 -31.2509 -30.7518 -30.7149 -30.6918 -30.6103 -30.5489 -30.4824
   -18.5200 -15.9348 -15.8062 -15.6436 -15.5571 -15.4627 -15.3971 -15.3676
   -15.3410 -15.2453 -15.2201 -15.2136 -15.2071 -15.1509 -15.1489 -15.1236
   -15.1104 -15.0367 -15.0030 -14.9609 -14.8810 -14.8789 -14.8424 -14.8128
   -14.7935 -14.7759 -14.7052 -14.6690 -14.6572 -14.3127 -13.7022 -12.8991
   -12.8224  -8.7044  -6.4495  -6.0470  -4.0414  -3.2898  -3.2459  -3.1078
    -2.8228  -2.8161  -2.7243  -2.7109  -2.6921  -2.6489  -2.6227  -2.6030
    -2.5631  -2.5290  -2.4473  -2.4372  -2.3914  -2.3647  -2.3525  -2.2930
    -2.2354  -2.2092  -2.1407  -2.1076  -2.0962  -2.0423  -2.0163  -1.9939
    -1.9715  -1.9698  -1.9155  -1.8951  -1.8731  -1.7854  -1.6342  -1.6174
    -1.5887  -1.5662  -1.4858  -1.3905  -1.3448  -1.1946  -1.1852  -1.1561
    -1.1032  -1.0498  -1.0139  -0.9997  -0.9835  -0.9142  -0.8312  -0.8155
    -0.7961  -0.7710  -0.7374  -0.6874  -0.6696  -0.6320  -0.6242  -0.6100
    -0.5547  -0.5097  -0.4806  -0.4037  -0.3627  -0.3140  -0.2208  -0.2132
    -0.1847  -0.1515  -0.1139  -0.0865   0.0354   0.0620   0.1177   0.1552
     0.2514   0.3147   0.3422   0.4032   0.4744   0.5482   0.5637   0.6782
     0.7836   0.8144   0.8470   0.8600   0.9402   1.0001   1.0808   1.0983
     1.2394   1.8351   1.8910   2.0004   2.1305   3.8526   3.8836   3.9027
     3.9132   3.9963   4.0436   4.0839   4.1343   4.2016   4.2329   4.3078

          k =-0.0760-0.0839 0.0000 ( 17948 PWs)   bands (ev):

   -55.4031 -55.3956 -55.3528 -55.3525 -55.2878 -55.2861 -55.2814 -55.2778
   -55.2235 -55.2200 -55.2163 -55.1846 -55.1842 -55.0510 -54.3804 -54.3801
   -31.7932 -31.7877 -31.7453 -31.6937 -31.6801 -31.6774 -31.6772 -31.6442
   -31.6441 -31.6279 -31.6188 -31.6141 -31.6096 -31.5627 -31.5554 -31.5532
   -31.5508 -31.5490 -31.5437 -31.5383 -31.5230 -31.5096 -31.4936 -31.4932
   -31.4890 -31.4750 -31.4730 -31.4724 -31.4720 -31.4701 -31.4533 -31.4492
   -31.4423 -31.4331 -31.4297 -31.4149 -31.4139 -31.4103 -31.3652 -31.3649
   -31.2923 -31.2750 -30.7033 -30.7031 -30.6192 -30.6191 -30.5798 -30.5795
   -18.5192 -15.7110 -15.6786 -15.6212 -15.4409 -15.4132 -15.4065 -15.3874
   -15.2572 -15.2401 -15.2094 -15.1802 -15.1488 -15.1240 -15.1198 -15.1022
   -15.0321 -15.0212 -15.0131 -14.9955 -14.9302 -14.9263 -14.9174 -14.9126
   -14.8658 -14.8630 -14.7677 -14.7662 -14.6649 -14.5492 -13.6993 -12.8841
   -12.8840  -8.7043  -6.4550  -6.0473  -4.0280  -3.2407  -2.9448  -2.8781
    -2.8490  -2.6527  -2.6290  -2.5864  -2.5306  -2.4508  -2.4249  -2.4180
    -2.4093  -2.3379  -2.3268  -2.2767  -2.2680  -2.2491  -2.2337  -2.2230
    -2.1934  -2.1672  -2.1438  -2.1349  -2.1235  -2.0693  -2.0590  -2.0411
    -2.0108  -1.9911  -1.9823  -1.9653  -1.8659  -1.7819  -1.7519  -1.7249
    -1.6213  -1.6170  -1.5359  -1.5200  -1.4886  -1.4486  -1.4352  -1.4146
    -1.2328  -1.2031  -1.1718  -1.1595  -1.1510  -1.0110  -0.9979  -0.9414
    -0.9006  -0.8947  -0.7862  -0.7601  -0.7368  -0.6600  -0.6249  -0.5903
    -0.5394  -0.4341  -0.4164  -0.4058  -0.3728  -0.3687  -0.3126  -0.3006
    -0.2255  -0.1834  -0.1505  -0.1366  -0.0937   0.0942   0.1179   0.1329
     0.2759   0.3318   0.4244   0.5254   0.5356   0.5908   0.6287   0.6957
     0.7566   0.8001   0.8658   0.8912   0.8930   0.9716   0.9893   1.0427
     1.0446   1.9822   1.9829   2.0691   2.0695   3.8242   3.9323   3.9439
     3.9844   4.0640   4.1249   4.1977   4.2262   4.2649   4.2674   4.3335

     the Fermi energy is     3.7433 ev

!    total energy              =   -2940.36655827 Ry
     estimated scf accuracy    <       0.00000006 Ry
     smearing contrib. (-TS)   =      -0.03729233 Ry
     internal energy E=F+TS    =   -2940.32926594 Ry

     The total energy is F=E-TS. E is the sum of the following terms:
     one-electron contribution =  -23758.77464353 Ry
     hartree contribution      =   11970.73194343 Ry
     xc contribution           =    -486.11059703 Ry
     ewald contribution        =    9333.82101026 Ry
     electric field correction =       0.00302093 Ry

     convergence has been achieved in  78 iterations

     Forces acting on atoms (cartesian axes, Ry/au):

     atom    1 type  1   force =     0.00006666   -0.00013647    0.09330363
     atom    2 type  1   force =    -0.00004807   -0.00026596   -0.17805206
     atom    3 type  2   force =     0.00002279   -0.00015488   -0.02025322
     atom    4 type  2   force =     0.00001039   -0.00195413    0.05850388
     atom    5 type  2   force =    -0.01066253   -0.00127420    0.00870081
     atom    6 type  2   force =     0.01175894   -0.00062120    0.00682162
     atom    7 type  1   force =    -0.00091062    0.00298624   -0.01444386
     atom    8 type  1   force =     0.00063984   -0.00049903   -0.00371197
     atom    9 type  2   force =     0.00014336    0.00010372    0.00008962
     atom   10 type  2   force =    -0.00209262   -0.00121369    0.00063659
     atom   11 type  2   force =     0.00007646    0.00022002   -0.00012869
     atom   12 type  2   force =     0.00057555    0.00029012   -0.00007499
     atom   13 type  1   force =    -0.00014496    0.00028648    0.00011245
     atom   14 type  1   force =     0.00013241    0.00045754   -0.00037658
     atom   15 type  2   force =     0.00003918    0.00041781   -0.00010278
     atom   16 type  2   force =     0.00041017    0.00017575   -0.00034456
     atom   17 type  2   force =     0.00022859   -0.00039343   -0.00047326
     atom   18 type  2   force =     0.00018070   -0.00051418    0.00016485
     atom   19 type  1   force =    -0.00080066   -0.00003099    0.00023275
     atom   20 type  1   force =     0.00009754    0.00009504   -0.00006875
     atom   21 type  2   force =     0.00009700    0.00000382    0.10393404
     atom   22 type  2   force =    -0.00015776    0.00006058    0.00024208
     atom   23 type  2   force =    -0.07040185   -0.00011823   -0.02689576
     atom   24 type  2   force =     0.07033748    0.00033805   -0.02693308
     atom   25 type  1   force =     0.00008971   -0.00021582    0.09285561
     atom   26 type  1   force =    -0.00005149   -0.00033741   -0.17805583
     atom   27 type  2   force =     0.00011274   -0.00037227   -0.01931155
     atom   28 type  2   force =     0.00004415   -0.00165902    0.05792499
     atom   29 type  2   force =    -0.01064908   -0.00127978    0.00802946
     atom   30 type  2   force =     0.01165553   -0.00088677    0.00608940
     atom   31 type  1   force =    -0.00089659    0.00489719   -0.01543110
     atom   32 type  1   force =     0.00083605    0.00020944   -0.00391937
     atom   33 type  2   force =     0.00010307    0.00046298    0.00021744
     atom   34 type  2   force =    -0.00177094    0.00108956    0.00068854
     atom   35 type  2   force =     0.00031495    0.00006130    0.00007169
     atom   36 type  2   force =     0.00026570   -0.00025122    0.00018146
     atom   37 type  1   force =    -0.00036579    0.00002178   -0.00007865
     atom   38 type  1   force =    -0.00023361    0.00049796   -0.00014747
     atom   39 type  2   force =     0.00050764   -0.00070615   -0.00009370
     atom   40 type  2   force =    -0.00016317    0.00006567   -0.00002683
     atom   41 type  2   force =     0.00001457   -0.00002270   -0.00038919
     atom   42 type  2   force =     0.00018243    0.00008656    0.00000873
     atom   43 type  1   force =    -0.00010562   -0.00018065    0.00012808
     atom   44 type  1   force =     0.00003641    0.00001354   -0.00014148
     atom   45 type  2   force =     0.00010717   -0.00003636    0.10391058
     atom   46 type  2   force =    -0.07041382   -0.00005973   -0.02689567
     atom   47 type  2   force =     0.07036829    0.00036507   -0.02690155
     atom   48 type  3   force =    -0.00671438    0.00142990   -0.00059779
     atom   49 type  4   force =    -0.00196774    0.00085677    0.00051077
     atom   50 type  5   force =     0.00064282   -0.00024430    0.00065589
     atom   51 type  5   force =    -0.00023452    0.00000905   -0.00061902
     atom   52 type  3   force =     0.01539238   -0.00514249    0.00770995
     atom   53 type  5   force =    -0.00291636   -0.00141002   -0.00173453
     atom   54 type  5   force =    -0.00378848    0.00447914   -0.00552159

     Total force =     0.366503     Total SCF correction =     0.000329
  @ DRIVER MODE: Message from server: STATUS
  @ DRIVER MODE: Message from server: GETFORCE
  @ DRIVER MODE: Returning v,forces,stress,ensemble 

     Writing output data file ./calc.save/
  @ DRIVER MODE: Message from server: EXIT
  @ DRIVE MODE: Exiting  
 
     init_run     :     11.24s CPU     11.51s WALL (       1 calls)
     electrons    :   1232.94s CPU   1261.80s WALL (       1 calls)
     forces       :      2.39s CPU      2.50s WALL (       1 calls)

     Called by init_run:
     wfcinit      :      4.95s CPU      5.04s WALL (       1 calls)
     potinit      :      5.62s CPU      5.69s WALL (       1 calls)
     hinit0       :      0.31s CPU      0.32s WALL (       1 calls)

     Called by electrons:
     c_bands      :   1045.09s CPU   1061.48s WALL (      78 calls)
     sum_band     :    127.33s CPU    132.97s WALL (      78 calls)
     v_of_rho     :     44.59s CPU     47.14s WALL (      79 calls)
     newd         :     18.78s CPU     22.90s WALL (      79 calls)
     mix_rho      :      1.65s CPU      1.78s WALL (      78 calls)
     vdW_kernel   :      4.81s CPU      4.82s WALL (       1 calls)

     Called by c_bands:
     init_us_2    :      7.16s CPU      7.30s WALL (    1580 calls)
     cegterg      :   1023.93s CPU   1039.74s WALL (     798 calls)

     Called by *egterg:
     cdiaghg      :    170.28s CPU    172.62s WALL (    7985 calls)
     h_psi        :    548.27s CPU    557.73s WALL (    7995 calls)
     s_psi        :     70.44s CPU     71.29s WALL (    7995 calls)
     g_psi        :      1.88s CPU      1.90s WALL (    7187 calls)

     Called by h_psi:
     h_psi:calbec :     67.64s CPU     68.62s WALL (    7995 calls)
     vloc_psi     :    406.34s CPU    413.58s WALL (    7995 calls)
     add_vuspsi   :     70.96s CPU     71.93s WALL (    7995 calls)

     General routines
     calbec       :     89.67s CPU     90.95s WALL (    8815 calls)
     fft          :     24.94s CPU     25.35s WALL (    4977 calls)
     ffts         :      0.17s CPU      0.18s WALL (     157 calls)
     fftw         :    458.13s CPU    466.43s WALL ( 1040968 calls)
     interpolate  :      0.51s CPU      0.52s WALL (      79 calls)
     davcio       :      0.00s CPU      0.31s WALL (      10 calls)
 
     Parallel routines
 
     PWSCF        :  20m46.82s CPU  21m16.59s WALL

 
   This run was terminated on:   6:35:58   9Sep2021            

=------------------------------------------------------------------------------=
   JOB DONE.
=------------------------------------------------------------------------------=
