
     Program PWSCF v.6.7GPU starts on 10Sep2021 at 22:55:31 

     This program is part of the open-source Quantum ESPRESSO suite
     for quantum simulation of materials; please cite
         "P. Giannozzi et al., J. Phys.:Condens. Matter 21 395502 (2009);
         "P. Giannozzi et al., J. Phys.:Condens. Matter 29 465901 (2017);
         "P. Giannozzi et al., J. Chem. Phys. 152 154105 (2020);
          URL http://www.quantum-espresso.org", 
     in publications or presentations arising from this work. More details at
     http://www.quantum-espresso.org/quote

     Parallel version (MPI), running on    10 processors

     MPI processes distributed on     1 nodes
     R & G space division:  proc/nbgrp/npool/nimage =      10
     Reading input from /storage/home/hcoda1/3/ntian30/research/carbon/CxH_vib/CH2_calc/ads_slab/CH2OH_f/out_0017/pw.inp
Warning: card &CELL ignored
Warning: card   CELL_DYNAMICS='IPI', ignored
Warning: card / ignored

     Current dimensions of program PWSCF are:
     Max number of different atomic species (ntypx) = 10
     Max number of k-points (npk) =  40000
     Max angular momentum in pseudopotentials (lmaxx) =  3
     Presently no symmetry can be used with electric field

     Message from routine cell_base_init:
     DEPRECATED: use true lattice parameter, not A to a.u. conversion factor

     **************************************************************************
     Initializing libbeef V0.1.2 with the BEEF-vdW functional.
     Citation: Wellendorff et al., PRB 85, 235149 (2012).
     **************************************************************************


     IMPORTANT: XC functional enforced from input :
     Exchange-correlation= BEEF-VDW
                           (   1   4  43  14   2   0   0)
     Any further DFT definition will be discarded
     Please, verify this is what you really want


     Subspace diagonalization in iterative solution of the eigenvalue problem:
     one sub-group per band group will be used
     scalapack distributed-memory algorithm (size of sub-group:  3*  3 procs)

  @ DRIVER MODE: Connecting to 
 qe_1139763_2792042.sched-torque.pace.gatech.edur1yjv34__scratch
  using UNIX socket
  @ DRIVER MODE: Message from server: STATUS
  @ DRIVER MODE: Message from server: INIT
  @ DRIVER MODE: Receiving replica           0          -1
  @ DRIVER MODE: Receiving encoded integer          25
  @ DRIVER MODE:  SCF:  T  FORCE:  T  STRESS:  F  VC:  F  ENSEMBLE:  F
  @ DRIVER MODE:  SCF:  T  FORCE:  T  STRESS:  F  VC:  F  ENSEMBLE:  F
 
     Parallelization info
     --------------------
     sticks:   dense  smooth     PW     G-vecs:    dense   smooth      PW
     Min         327     131     37                56683    14340    2191
     Max         328     133     38                56694    14346    2206
     Sum        3275    1317    379               566857   143421   21985
 
     Using Slab Decomposition
 


     bravais-lattice index     =            0
     lattice parameter (alat)  =       1.8897  a.u.
     unit-cell volume          =    6658.9804 (a.u.)^3
     number of atoms/cell      =           52
     number of atomic types    =            4
     number of electrons       =       391.00
     number of Kohn-Sham states=          205
     kinetic-energy cutoff     =      29.3995  Ry
     charge density cutoff     =     293.9946  Ry
     scf convergence threshold =      7.3E-08
     mixing beta               =       0.0500
     number of iterations used =            8  plain     mixing
     Exchange-correlation= BEEF-VDW
                           (   1   4  43  14   2   0   0)

     celldm(1)=   1.889726  celldm(2)=   0.000000  celldm(3)=   0.000000
     celldm(4)=   0.000000  celldm(5)=   0.000000  celldm(6)=   0.000000

     crystal axes: (cart. coord. in units of alat)
               a(1) = (   6.579727   0.000000   0.000000 )  
               a(2) = (  -0.000775   5.961596   0.000000 )  
               a(3) = (   0.000000   0.000000  25.155947 )  

     reciprocal axes: (cart. coord. in units 2 pi/alat)
               b(1) = (  0.151982  0.000020  0.000000 )  
               b(2) = (  0.000000  0.167740  0.000000 )  
               b(3) = (  0.000000  0.000000  0.039752 )  


     PseudoPot. # 1 for O  read from file:
     /storage/coda1/p-amedford6/0/shared/rich_project_chbe-medford/medford-share/data/pseudos_module/espresso/nninc/pbe/van/O.UPF
     MD5 check sum: 78c19812648e8988a0fe644b0f25305e
     Pseudo is Ultrasoft, Zval =  6.0
     Generated by new atomic code, or converted to UPF format
     Using radial grid of  737 points,  4 beta functions with: 
                l(1) =   0
                l(2) =   0
                l(3) =   1
                l(4) =   1
     Q(r) pseudized with  8 coefficients,  rinner =    0.800   0.800   0.800


     PseudoPot. # 2 for Ti read from file:
     /storage/coda1/p-amedford6/0/shared/rich_project_chbe-medford/medford-share/data/pseudos_module/espresso/nninc/pbe/van/Ti.UPF
     MD5 check sum: 8e4df49b7f0d34bbd5052bf3f5ea0213
     Pseudo is Ultrasoft, Zval = 12.0
     Generated by new atomic code, or converted to UPF format
     Using radial grid of  851 points,  6 beta functions with: 
                l(1) =   0
                l(2) =   0
                l(3) =   1
                l(4) =   1
                l(5) =   2
                l(6) =   2
     Q(r) pseudized with  8 coefficients,  rinner =    1.000   1.000   1.000
                                                       1.000   1.000

     PseudoPot. # 3 for H  read from file:
     /storage/coda1/p-amedford6/0/shared/rich_project_chbe-medford/medford-share/data/pseudos_module/espresso/nninc/pbe/van/H.UPF
     MD5 check sum: b5ee9d7bfd3a09ee7748110bda690ff7
     Pseudo is Ultrasoft, Zval =  1.0
     Generated by new atomic code, or converted to UPF format
     Using radial grid of  615 points,  1 beta functions with: 
                l(1) =   0
     Q(r) pseudized with  8 coefficients,  rinner =    0.800

     PseudoPot. # 4 for C  read from file:
     /storage/coda1/p-amedford6/0/shared/rich_project_chbe-medford/medford-share/data/pseudos_module/espresso/nninc/pbe/van/C.UPF
     MD5 check sum: 1a69bf6b8db32088f5b2163dbdb77a27
     Pseudo is Ultrasoft, Zval =  4.0
     Generated by new atomic code, or converted to UPF format
     Using radial grid of  721 points,  4 beta functions with: 
                l(1) =   0
                l(2) =   0
                l(3) =   1
                l(4) =   1
     Q(r) pseudized with  8 coefficients,  rinner =    0.800   0.800   0.800


     atomic species   valence    mass     pseudopotential
        O1             6.00    15.99900     O ( 1.00)
        Ti1           12.00    47.86700     Ti( 1.00)
        H1             1.00     1.00800     H ( 1.00)
        C1             4.00    12.01100     C ( 1.00)

     No symmetry found



   Cartesian axes

     site n.     atom                  positions (alat units)
         1           O1  tau(   1) = (   3.2904802   0.0005063   4.7018136  )
         2           O1  tau(   2) = (   3.2900926   2.9813045   4.7018136  )
         3           Ti1 tau(   3) = (   0.0004258   2.9801865   6.0000000  )
         4           Ti1 tau(   4) = (   0.0000382   5.9609847   6.0000000  )
         5           Ti1 tau(   5) = (   3.2906075   1.4906267   6.0002472  )
         6           Ti1 tau(   6) = (   3.2902200   4.4714249   6.0002472  )
         7           O1  tau(   7) = (   1.3043587   1.4918075   6.0039043  )
         8           O1  tau(   8) = (   1.3039711   4.4726057   6.0039043  )
         9           O1  tau(   9) = (   5.2767064   1.4903225   6.0039473  )
        10           O1  tau(  10) = (   5.2763189   4.4711207   6.0039473  )
        11           O1  tau(  11) = (   3.2906025   0.0005020   7.3038282  )
        12           O1  tau(  12) = (   3.2902150   2.9813002   7.3038282  )
        13           O1  tau(  13) = (   0.0006271   0.0005054   7.9858123  )
        14           O1  tau(  14) = (   0.0002396   2.9813036   7.9858123  )
        15           Ti1 tau(  15) = (   3.3208325   5.9232416   9.1783542  )
        16           Ti1 tau(  16) = (   3.3324863   2.9377666   9.1648094  )
        17           Ti1 tau(  17) = (   0.0524917   1.4788520   9.2606301  )
        18           Ti1 tau(  18) = (   0.0483789   4.4105323   9.3105966  )
        19           O1  tau(  19) = (   4.5942328   1.4918067   9.2879030  )
        20           O1  tau(  20) = (   4.5938453   4.4726049   9.2879030  )
        21           O1  tau(  21) = (   1.9868534   1.4903216   9.2879459  )
        22           O1  tau(  22) = (   1.9864658   4.4711199   9.2879459  )
        23           O1  tau(  23) = (   6.5712937   0.0017758  10.5841540  )
        24           O1  tau(  24) = (   0.0002036   2.9871675  10.5944109  )
        25           O1  tau(  25) = (   3.2216619   2.9970402  11.3379169  )
        26           O1  tau(  26) = (   3.2239595   0.0054171  11.3328765  )
        27           Ti1 tau(  27) = (   6.5319223   0.0329622  12.4533321  )
        28           Ti1 tau(  28) = (   3.1914638   1.6317768  12.6145244  )
        29           Ti1 tau(  29) = (   3.1843358   4.5420783  12.4476223  )
        30           Ti1 tau(  30) = (   6.4449355   3.0101977  12.6586491  )
        31           O1  tau(  31) = (   5.2440064   1.5124744  12.5792363  )
        32           O1  tau(  32) = (   5.2402295   4.4617308  12.5795526  )
        33           O1  tau(  33) = (   1.2196697   1.4730338  12.6667888  )
        34           O1  tau(  34) = (   1.2190574   4.4979232  12.6669875  )
        35           O1  tau(  35) = (   3.2067865   2.9341989  13.9395670  )
        36           O1  tau(  36) = (   3.3440650   5.9513154  13.9008253  )
        37           O1  tau(  37) = (   6.3267833   5.9539684  14.6370341  )
        38           O1  tau(  38) = (   6.3913104   2.9714873  14.7475579  )
        39           Ti1 tau(  39) = (   3.1260420   2.9476348  15.9752747  )
        40           Ti1 tau(  40) = (   3.1986908   5.9292636  15.6746755  )
        41           Ti1 tau(  41) = (   6.4744102   1.3498976  15.9078779  )
        42           Ti1 tau(  42) = (   6.4721656   4.5656371  15.8700466  )
        43           O1  tau(  43) = (   1.8677001   4.5604514  15.8157410  )
        44           O1  tau(  44) = (   1.8686447   1.3618557  15.8396546  )
        45           O1  tau(  45) = (   4.4008848   1.5192286  16.2292034  )
        46           O1  tau(  46) = (   4.3978686   4.4066597  16.2143399  )
        47           O1  tau(  47) = (   6.4830960   5.9408203  17.1431429  )
        48           O1  tau(  48) = (   0.4828407   2.9769521  17.4917737  )
        49           H1  tau(  49) = (   6.5026766   3.0145448  18.2851392  )
        50           C1  tau(  50) = (   1.9555054   2.9805414  17.8997346  )
        51           H1  tau(  51) = (   2.0761010   2.0893267  18.5304525  )
        52           H1  tau(  52) = (   2.0801140   3.8867162  18.5073456  )

     number of k points=    10  Fermi-Dirac smearing, width (Ry)=  0.0073
                       cart. coord. in units 2pi/alat
        k(    1) = (   0.0000000   0.0000000   0.0000000), wk =   0.1250000
        k(    2) = (   0.0000000   0.0419351   0.0000000), wk =   0.2500000
        k(    3) = (   0.0000000  -0.0838702   0.0000000), wk =   0.1250000
        k(    4) = (   0.0379955   0.0000049   0.0000000), wk =   0.2500000
        k(    5) = (   0.0379955   0.0419400   0.0000000), wk =   0.2500000
        k(    6) = (   0.0379955  -0.0838652   0.0000000), wk =   0.2500000
        k(    7) = (   0.0379955  -0.0419301   0.0000000), wk =   0.2500000
        k(    8) = (  -0.0759910  -0.0000099   0.0000000), wk =   0.1250000
        k(    9) = (  -0.0759910   0.0419252   0.0000000), wk =   0.2500000
        k(   10) = (  -0.0759910  -0.0838800   0.0000000), wk =   0.1250000

     Dense  grid:   566857 G-vectors     FFT dimensions: (  72,  64, 270)

     Smooth grid:   143421 G-vectors     FFT dimensions: (  45,  40, 180)

     Estimated max dynamical RAM per process >     362.08 MB

     Estimated total dynamical RAM >       3.54 GB
     Cannot read rho : file not found

     Initial potential from superposition of free atoms

     starting charge  374.99918, renormalised to  391.00000

     negative rho (up, down):  1.929E-02 0.000E+00


     %%%%%%%%%%%%%%%%%%%%%%%%%%%%%%%%%%%%%%%%%%%%%%%%%%%%%%%%%%%%%%%%%%%%%%%%
     %                                                                      %
     % You are using vdW-DF, which was implemented by the Thonhauser group. %
     % Please cite the following two papers that made this development      %
     % possible and the two reviews that describe the various versions:     %
     %                                                                      %
     %   T. Thonhauser et al., PRL 115, 136402 (2015).                      %
     %   T. Thonhauser et al., PRB 76, 125112 (2007).                       %
     %   K. Berland et al., Rep. Prog. Phys. 78, 066501 (2015).             %
     %   D.C. Langreth et al., J. Phys.: Condens. Matter 21, 084203 (2009). %
     %                                                                      %
     %                                                                      %
     % If you are calculating the stress with vdW-DF, please also cite:     %
     %                                                                      %
     %   R. Sabatini et al., J. Phys.: Condens. Matter 24, 424209 (2012).   %
     %                                                                      %
     %%%%%%%%%%%%%%%%%%%%%%%%%%%%%%%%%%%%%%%%%%%%%%%%%%%%%%%%%%%%%%%%%%%%%%%%


 
     Adding external electric field

     Computed dipole along edir(3) : 
        Dipole               -5.2462 Ry au,        -13.3344 Debye
        Dipole field         -0.0099 Ry au, 
 
        Potential amp.        0.9177 Ry
        Total length         46.3494 bohr
 
     Starting wfcs are  295 atomic wfcs
  @ DRIVER MODE: Message from server: STATUS
  @ DRIVER MODE: Message from server: POSDATA
  @ DRIVER MODE: Reading and sharing cell 
  @ DRIVER MODE: Reading and sharing positions 
  @ DRIVER MODE: Received positions 

     total cpu time spent up to now is       12.6 secs

     Self-consistent Calculation

     iteration #  1     ecut=    29.40 Ry     beta= 0.05
     Davidson diagonalization with overlap
     c_bands:  1 eigenvalues not converged
     c_bands:  4 eigenvalues not converged
     c_bands:  1 eigenvalues not converged
     c_bands:  2 eigenvalues not converged
     c_bands:  4 eigenvalues not converged
     c_bands:  1 eigenvalues not converged
     c_bands:  1 eigenvalues not converged
     c_bands:  3 eigenvalues not converged
     ethr =  1.00E-05,  avg # of iterations = 19.6

     negative rho (up, down):  1.861E-02 0.000E+00
 
     Adding external electric field

     Computed dipole along edir(3) : 
        Dipole               24.3409 Ry au,         61.8684 Debye
        Dipole field          0.0459 Ry au, 
 
        Potential amp.       -4.2581 Ry
        Total length         46.3494 bohr
 

     total cpu time spent up to now is       51.8 secs

     total energy              =   -2799.67890091 Ry
     estimated scf accuracy    <    1446.77765641 Ry

     iteration #  2     ecut=    29.40 Ry     beta= 0.05
     Davidson diagonalization with overlap
     ethr =  1.00E-02,  avg # of iterations = 16.7

     negative rho (up, down):  8.060E-03 0.000E+00
 
     Adding external electric field

     Computed dipole along edir(3) : 
        Dipole               -2.0959 Ry au,         -5.3272 Debye
        Dipole field         -0.0040 Ry au, 
 
        Potential amp.        0.3666 Ry
        Total length         46.3494 bohr
 

     total cpu time spent up to now is       96.8 secs

     total energy              =   -2668.81480658 Ry
     estimated scf accuracy    <   33654.33002999 Ry

     iteration #  3     ecut=    29.40 Ry     beta= 0.05
     Davidson diagonalization with overlap
     ethr =  1.00E-02,  avg # of iterations = 14.6

     negative rho (up, down):  8.086E-03 0.000E+00
 
     Adding external electric field

     Computed dipole along edir(3) : 
        Dipole               -3.1251 Ry au,         -7.9431 Debye
        Dipole field         -0.0059 Ry au, 
 
        Potential amp.        0.5467 Ry
        Total length         46.3494 bohr
 

     total cpu time spent up to now is      133.9 secs

     total energy              =   -2919.33918158 Ry
     estimated scf accuracy    <    1121.66497277 Ry

     iteration #  4     ecut=    29.40 Ry     beta= 0.05
     Davidson diagonalization with overlap
     ethr =  1.00E-02,  avg # of iterations =  8.0

     negative rho (up, down):  8.149E-03 0.000E+00
 
     Adding external electric field

     Computed dipole along edir(3) : 
        Dipole               -3.9448 Ry au,        -10.0266 Debye
        Dipole field         -0.0074 Ry au, 
 
        Potential amp.        0.6901 Ry
        Total length         46.3494 bohr
 

     total cpu time spent up to now is      146.9 secs

     total energy              =   -2918.28951266 Ry
     estimated scf accuracy    <     602.91728067 Ry

     iteration #  5     ecut=    29.40 Ry     beta= 0.05
     Davidson diagonalization with overlap
     ethr =  1.00E-02,  avg # of iterations =  9.4

     negative rho (up, down):  8.052E-03 0.000E+00
 
     Adding external electric field

     Computed dipole along edir(3) : 
        Dipole               -3.7160 Ry au,         -9.4451 Debye
        Dipole field         -0.0070 Ry au, 
 
        Potential amp.        0.6501 Ry
        Total length         46.3494 bohr
 

     total cpu time spent up to now is      162.5 secs

     total energy              =   -2932.79916154 Ry
     estimated scf accuracy    <      11.84858705 Ry

     iteration #  6     ecut=    29.40 Ry     beta= 0.05
     Davidson diagonalization with overlap
     ethr =  3.03E-03,  avg # of iterations =  4.0

     negative rho (up, down):  8.020E-03 0.000E+00
 
     Adding external electric field

     Computed dipole along edir(3) : 
        Dipole               -3.1626 Ry au,         -8.0386 Debye
        Dipole field         -0.0060 Ry au, 
 
        Potential amp.        0.5533 Ry
        Total length         46.3494 bohr
 

     total cpu time spent up to now is      174.9 secs

     total energy              =   -2932.54807757 Ry
     estimated scf accuracy    <      10.83771189 Ry

     iteration #  7     ecut=    29.40 Ry     beta= 0.05
     Davidson diagonalization with overlap
     ethr =  2.77E-03,  avg # of iterations =  1.7

     negative rho (up, down):  8.267E-03 0.000E+00
 
     Adding external electric field

     Computed dipole along edir(3) : 
        Dipole               -0.7031 Ry au,         -1.7872 Debye
        Dipole field         -0.0013 Ry au, 
 
        Potential amp.        0.1230 Ry
        Total length         46.3494 bohr
 

     total cpu time spent up to now is      185.2 secs

     total energy              =   -2929.69533220 Ry
     estimated scf accuracy    <       7.93429531 Ry

     iteration #  8     ecut=    29.40 Ry     beta= 0.05
     Davidson diagonalization with overlap
     ethr =  2.03E-03,  avg # of iterations = 10.9

     negative rho (up, down):  8.235E-03 0.000E+00
 
     Adding external electric field

     Computed dipole along edir(3) : 
        Dipole               -0.6244 Ry au,         -1.5871 Debye
        Dipole field         -0.0012 Ry au, 
 
        Potential amp.        0.1092 Ry
        Total length         46.3494 bohr
 

     total cpu time spent up to now is      203.7 secs

     total energy              =   -2935.70916228 Ry
     estimated scf accuracy    <     166.62674677 Ry

     iteration #  9     ecut=    29.40 Ry     beta= 0.05
     Davidson diagonalization with overlap
     ethr =  2.03E-03,  avg # of iterations =  1.9

     negative rho (up, down):  8.133E-03 0.000E+00
 
     Adding external electric field

     Computed dipole along edir(3) : 
        Dipole               -1.1747 Ry au,         -2.9859 Debye
        Dipole field         -0.0022 Ry au, 
 
        Potential amp.        0.2055 Ry
        Total length         46.3494 bohr
 

     total cpu time spent up to now is      214.4 secs

     total energy              =   -2932.99990457 Ry
     estimated scf accuracy    <     217.52312499 Ry

     iteration # 10     ecut=    29.40 Ry     beta= 0.05
     Davidson diagonalization with overlap
     ethr =  2.03E-03,  avg # of iterations =  1.7

     negative rho (up, down):  8.183E-03 0.000E+00
 
     Adding external electric field

     Computed dipole along edir(3) : 
        Dipole               -0.8259 Ry au,         -2.0991 Debye
        Dipole field         -0.0016 Ry au, 
 
        Potential amp.        0.1445 Ry
        Total length         46.3494 bohr
 

     total cpu time spent up to now is      224.8 secs

     total energy              =   -2934.57844814 Ry
     estimated scf accuracy    <     161.64156553 Ry

     iteration # 11     ecut=    29.40 Ry     beta= 0.05
     Davidson diagonalization with overlap
     ethr =  2.03E-03,  avg # of iterations =  1.0

     negative rho (up, down):  8.167E-03 0.000E+00
 
     Adding external electric field

     Computed dipole along edir(3) : 
        Dipole               -1.1723 Ry au,         -2.9797 Debye
        Dipole field         -0.0022 Ry au, 
 
        Potential amp.        0.2051 Ry
        Total length         46.3494 bohr
 

     total cpu time spent up to now is      235.2 secs

     total energy              =   -2932.27076781 Ry
     estimated scf accuracy    <     179.40861918 Ry

     iteration # 12     ecut=    29.40 Ry     beta= 0.05
     Davidson diagonalization with overlap
     ethr =  2.03E-03,  avg # of iterations =  1.2

     negative rho (up, down):  8.188E-03 0.000E+00
 
     Adding external electric field

     Computed dipole along edir(3) : 
        Dipole               -2.0825 Ry au,         -5.2931 Debye
        Dipole field         -0.0039 Ry au, 
 
        Potential amp.        0.3643 Ry
        Total length         46.3494 bohr
 

     total cpu time spent up to now is      245.3 secs

     total energy              =   -2927.50754732 Ry
     estimated scf accuracy    <     139.49156350 Ry

     iteration # 13     ecut=    29.40 Ry     beta= 0.05
     Davidson diagonalization with overlap
     ethr =  2.03E-03,  avg # of iterations = 13.6

     negative rho (up, down):  8.167E-03 0.000E+00
 
     Adding external electric field

     Computed dipole along edir(3) : 
        Dipole               -2.0632 Ry au,         -5.2440 Debye
        Dipole field         -0.0039 Ry au, 
 
        Potential amp.        0.3609 Ry
        Total length         46.3494 bohr
 

     total cpu time spent up to now is      264.6 secs

     total energy              =   -2931.43264813 Ry
     estimated scf accuracy    <       1.41647415 Ry

     iteration # 14     ecut=    29.40 Ry     beta= 0.05
     Davidson diagonalization with overlap
     ethr =  3.62E-04,  avg # of iterations =  5.3

     negative rho (up, down):  8.609E-03 0.000E+00
 
     Adding external electric field

     Computed dipole along edir(3) : 
        Dipole               -1.4880 Ry au,         -3.7820 Debye
        Dipole field         -0.0028 Ry au, 
 
        Potential amp.        0.2603 Ry
        Total length         46.3494 bohr
 

     total cpu time spent up to now is      276.3 secs

     total energy              =   -2931.39546667 Ry
     estimated scf accuracy    <       1.38530840 Ry

     iteration # 15     ecut=    29.40 Ry     beta= 0.05
     Davidson diagonalization with overlap
     c_bands:  1 eigenvalues not converged
     ethr =  3.54E-04,  avg # of iterations = 10.4

     negative rho (up, down):  8.735E-03 0.000E+00
 
     Adding external electric field

     Computed dipole along edir(3) : 
        Dipole               -1.0992 Ry au,         -2.7940 Debye
        Dipole field         -0.0021 Ry au, 
 
        Potential amp.        0.1923 Ry
        Total length         46.3494 bohr
 

     total cpu time spent up to now is      290.3 secs

     total energy              =   -2931.42712768 Ry
     estimated scf accuracy    <       1.72503067 Ry

     iteration # 16     ecut=    29.40 Ry     beta= 0.05
     Davidson diagonalization with overlap
     ethr =  3.54E-04,  avg # of iterations =  1.2

     negative rho (up, down):  8.703E-03 0.000E+00
 
     Adding external electric field

     Computed dipole along edir(3) : 
        Dipole               -0.9915 Ry au,         -2.5202 Debye
        Dipole field         -0.0019 Ry au, 
 
        Potential amp.        0.1735 Ry
        Total length         46.3494 bohr
 

     total cpu time spent up to now is      300.3 secs

     total energy              =   -2931.43168296 Ry
     estimated scf accuracy    <       1.34636028 Ry

     iteration # 17     ecut=    29.40 Ry     beta= 0.05
     Davidson diagonalization with overlap
     ethr =  3.44E-04,  avg # of iterations =  1.0

     negative rho (up, down):  8.691E-03 0.000E+00
 
     Adding external electric field

     Computed dipole along edir(3) : 
        Dipole               -1.2030 Ry au,         -3.0577 Debye
        Dipole field         -0.0023 Ry au, 
 
        Potential amp.        0.2104 Ry
        Total length         46.3494 bohr
 

     total cpu time spent up to now is      311.2 secs

     total energy              =   -2931.52076605 Ry
     estimated scf accuracy    <       1.22511155 Ry

     iteration # 18     ecut=    29.40 Ry     beta= 0.05
     Davidson diagonalization with overlap
     ethr =  3.13E-04,  avg # of iterations =  4.4

     negative rho (up, down):  8.599E-03 0.000E+00
 
     Adding external electric field

     Computed dipole along edir(3) : 
        Dipole               -0.6909 Ry au,         -1.7562 Debye
        Dipole field         -0.0013 Ry au, 
 
        Potential amp.        0.1209 Ry
        Total length         46.3494 bohr
 

     total cpu time spent up to now is      322.1 secs

     total energy              =   -2931.31922559 Ry
     estimated scf accuracy    <       1.89843101 Ry

     iteration # 19     ecut=    29.40 Ry     beta= 0.05
     Davidson diagonalization with overlap
     ethr =  3.13E-04,  avg # of iterations =  7.8

     negative rho (up, down):  8.544E-03 0.000E+00
 
     Adding external electric field

     Computed dipole along edir(3) : 
        Dipole               -0.7909 Ry au,         -2.0103 Debye
        Dipole field         -0.0015 Ry au, 
 
        Potential amp.        0.1384 Ry
        Total length         46.3494 bohr
 

     total cpu time spent up to now is      334.5 secs

     total energy              =   -2931.40014647 Ry
     estimated scf accuracy    <       0.56298861 Ry

     iteration # 20     ecut=    29.40 Ry     beta= 0.05
     Davidson diagonalization with overlap
     ethr =  1.44E-04,  avg # of iterations =  5.7

     negative rho (up, down):  8.695E-03 0.000E+00
 
     Adding external electric field

     Computed dipole along edir(3) : 
        Dipole                0.0769 Ry au,          0.1954 Debye
        Dipole field          0.0001 Ry au, 
 
        Potential amp.       -0.0135 Ry
        Total length         46.3494 bohr
 

     total cpu time spent up to now is      346.1 secs

     total energy              =   -2931.29070371 Ry
     estimated scf accuracy    <       0.70617668 Ry

     iteration # 21     ecut=    29.40 Ry     beta= 0.05
     Davidson diagonalization with overlap
     c_bands:  1 eigenvalues not converged
     c_bands:  1 eigenvalues not converged
     c_bands:  1 eigenvalues not converged
     ethr =  1.44E-04,  avg # of iterations = 17.7

     negative rho (up, down):  8.794E-03 0.000E+00
 
     Adding external electric field

     Computed dipole along edir(3) : 
        Dipole                0.5527 Ry au,          1.4048 Debye
        Dipole field          0.0010 Ry au, 
 
        Potential amp.       -0.0967 Ry
        Total length         46.3494 bohr
 

     total cpu time spent up to now is      365.1 secs

     total energy              =   -2931.47300483 Ry
     estimated scf accuracy    <       0.81524131 Ry

     iteration # 22     ecut=    29.40 Ry     beta= 0.05
     Davidson diagonalization with overlap
     ethr =  1.44E-04,  avg # of iterations =  5.2

     negative rho (up, down):  8.848E-03 0.000E+00
 
     Adding external electric field

     Computed dipole along edir(3) : 
        Dipole                0.5568 Ry au,          1.4153 Debye
        Dipole field          0.0011 Ry au, 
 
        Potential amp.       -0.0974 Ry
        Total length         46.3494 bohr
 

     total cpu time spent up to now is      377.3 secs

     total energy              =   -2931.45909775 Ry
     estimated scf accuracy    <      10.73395411 Ry

     iteration # 23     ecut=    29.40 Ry     beta= 0.05
     Davidson diagonalization with overlap
     c_bands:  1 eigenvalues not converged
     ethr =  1.44E-04,  avg # of iterations =  9.7

     negative rho (up, down):  8.416E-03 0.000E+00
 
     Adding external electric field

     Computed dipole along edir(3) : 
        Dipole                0.1850 Ry au,          0.4703 Debye
        Dipole field          0.0003 Ry au, 
 
        Potential amp.       -0.0324 Ry
        Total length         46.3494 bohr
 

     total cpu time spent up to now is      390.4 secs

     total energy              =   -2931.45740890 Ry
     estimated scf accuracy    <       3.31868636 Ry

     iteration # 24     ecut=    29.40 Ry     beta= 0.05
     Davidson diagonalization with overlap
     c_bands:  1 eigenvalues not converged
     ethr =  1.44E-04,  avg # of iterations = 10.9

     negative rho (up, down):  8.369E-03 0.000E+00
 
     Adding external electric field

     Computed dipole along edir(3) : 
        Dipole               -0.0197 Ry au,         -0.0502 Debye
        Dipole field         -0.0000 Ry au, 
 
        Potential amp.        0.0035 Ry
        Total length         46.3494 bohr
 

     total cpu time spent up to now is      404.0 secs

     total energy              =   -2931.39578425 Ry
     estimated scf accuracy    <       5.80717885 Ry

     iteration # 25     ecut=    29.40 Ry     beta= 0.05
     Davidson diagonalization with overlap
     ethr =  1.44E-04,  avg # of iterations =  3.7

     negative rho (up, down):  8.344E-03 0.000E+00
 
     Adding external electric field

     Computed dipole along edir(3) : 
        Dipole                0.0263 Ry au,          0.0668 Debye
        Dipole field          0.0000 Ry au, 
 
        Potential amp.       -0.0046 Ry
        Total length         46.3494 bohr
 

     total cpu time spent up to now is      415.2 secs

     total energy              =   -2931.44438188 Ry
     estimated scf accuracy    <       1.67493993 Ry

     iteration # 26     ecut=    29.40 Ry     beta= 0.05
     Davidson diagonalization with overlap
     ethr =  1.44E-04,  avg # of iterations =  1.0

     negative rho (up, down):  8.438E-03 0.000E+00
 
     Adding external electric field

     Computed dipole along edir(3) : 
        Dipole               -1.0462 Ry au,         -2.6592 Debye
        Dipole field         -0.0020 Ry au, 
 
        Potential amp.        0.1830 Ry
        Total length         46.3494 bohr
 

     total cpu time spent up to now is      425.1 secs

     total energy              =   -2931.06574108 Ry
     estimated scf accuracy    <       2.21611679 Ry

     iteration # 27     ecut=    29.40 Ry     beta= 0.05
     Davidson diagonalization with overlap
     c_bands:  1 eigenvalues not converged
     c_bands:  1 eigenvalues not converged
     c_bands:  3 eigenvalues not converged
     c_bands:  3 eigenvalues not converged
     c_bands:  3 eigenvalues not converged
     c_bands:  2 eigenvalues not converged
     c_bands:  2 eigenvalues not converged
     c_bands:  2 eigenvalues not converged
     ethr =  1.44E-04,  avg # of iterations = 19.7

     negative rho (up, down):  8.694E-03 0.000E+00
 
     Adding external electric field

     Computed dipole along edir(3) : 
        Dipole               -1.1810 Ry au,         -3.0019 Debye
        Dipole field         -0.0022 Ry au, 
 
        Potential amp.        0.2066 Ry
        Total length         46.3494 bohr
 

     total cpu time spent up to now is      449.8 secs

     total energy              =   -2931.59876922 Ry
     estimated scf accuracy    <       1.39249649 Ry

     iteration # 28     ecut=    29.40 Ry     beta= 0.05
     Davidson diagonalization with overlap
     c_bands:  2 eigenvalues not converged
     ethr =  1.44E-04,  avg # of iterations = 10.1

     negative rho (up, down):  8.649E-03 0.000E+00
 
     Adding external electric field

     Computed dipole along edir(3) : 
        Dipole               -1.0505 Ry au,         -2.6700 Debye
        Dipole field         -0.0020 Ry au, 
 
        Potential amp.        0.1838 Ry
        Total length         46.3494 bohr
 

     total cpu time spent up to now is      463.1 secs

     total energy              =   -2931.58536315 Ry
     estimated scf accuracy    <       2.26999352 Ry

     iteration # 29     ecut=    29.40 Ry     beta= 0.05
     Davidson diagonalization with overlap
     ethr =  1.44E-04,  avg # of iterations =  1.2

     negative rho (up, down):  8.622E-03 0.000E+00
 
     Adding external electric field

     Computed dipole along edir(3) : 
        Dipole               -0.5165 Ry au,         -1.3129 Debye
        Dipole field         -0.0010 Ry au, 
 
        Potential amp.        0.0904 Ry
        Total length         46.3494 bohr
 

     total cpu time spent up to now is      473.9 secs

     total energy              =   -2931.43147776 Ry
     estimated scf accuracy    <       2.06959210 Ry

     iteration # 30     ecut=    29.40 Ry     beta= 0.05
     Davidson diagonalization with overlap
     c_bands:  2 eigenvalues not converged
     ethr =  1.44E-04,  avg # of iterations = 11.0

     negative rho (up, down):  8.596E-03 0.000E+00
 
     Adding external electric field

     Computed dipole along edir(3) : 
        Dipole               -0.9204 Ry au,         -2.3394 Debye
        Dipole field         -0.0017 Ry au, 
 
        Potential amp.        0.1610 Ry
        Total length         46.3494 bohr
 

     total cpu time spent up to now is      487.1 secs

     total energy              =   -2931.40143988 Ry
     estimated scf accuracy    <       1.01587252 Ry

     iteration # 31     ecut=    29.40 Ry     beta= 0.05
     Davidson diagonalization with overlap
     ethr =  1.44E-04,  avg # of iterations =  3.9

     negative rho (up, down):  8.407E-03 0.000E+00
 
     Adding external electric field

     Computed dipole along edir(3) : 
        Dipole               -0.9009 Ry au,         -2.2898 Debye
        Dipole field         -0.0017 Ry au, 
 
        Potential amp.        0.1576 Ry
        Total length         46.3494 bohr
 

     total cpu time spent up to now is      498.5 secs

     total energy              =   -2931.31592405 Ry
     estimated scf accuracy    <       1.57146624 Ry

     iteration # 32     ecut=    29.40 Ry     beta= 0.05
     Davidson diagonalization with overlap
     c_bands:  3 eigenvalues not converged
     c_bands:  2 eigenvalues not converged
     c_bands:  3 eigenvalues not converged
     c_bands:  1 eigenvalues not converged
     c_bands:  2 eigenvalues not converged
     ethr =  1.44E-04,  avg # of iterations = 18.6

     negative rho (up, down):  8.407E-03 0.000E+00
 
     Adding external electric field

     Computed dipole along edir(3) : 
        Dipole               -0.1722 Ry au,         -0.4376 Debye
        Dipole field         -0.0003 Ry au, 
 
        Potential amp.        0.0301 Ry
        Total length         46.3494 bohr
 

     total cpu time spent up to now is      520.4 secs

     total energy              =   -2931.38744828 Ry
     estimated scf accuracy    <       1.06553361 Ry

     iteration # 33     ecut=    29.40 Ry     beta= 0.05
     Davidson diagonalization with overlap
     c_bands:  3 eigenvalues not converged
     c_bands:  3 eigenvalues not converged
     c_bands:  1 eigenvalues not converged
     c_bands:  1 eigenvalues not converged
     c_bands:  2 eigenvalues not converged
     ethr =  1.44E-04,  avg # of iterations = 17.4

     negative rho (up, down):  8.395E-03 0.000E+00
 
     Adding external electric field

     Computed dipole along edir(3) : 
        Dipole               -0.4501 Ry au,         -1.1441 Debye
        Dipole field         -0.0008 Ry au, 
 
        Potential amp.        0.0787 Ry
        Total length         46.3494 bohr
 

     total cpu time spent up to now is      539.1 secs

     total energy              =   -2931.39568398 Ry
     estimated scf accuracy    <       1.21016606 Ry

     iteration # 34     ecut=    29.40 Ry     beta= 0.05
     Davidson diagonalization with overlap
     ethr =  1.44E-04,  avg # of iterations =  3.5

     negative rho (up, down):  8.429E-03 0.000E+00
 
     Adding external electric field

     Computed dipole along edir(3) : 
        Dipole                0.2307 Ry au,          0.5863 Debye
        Dipole field          0.0004 Ry au, 
 
        Potential amp.       -0.0404 Ry
        Total length         46.3494 bohr
 

     total cpu time spent up to now is      550.3 secs

     total energy              =   -2931.39774864 Ry
     estimated scf accuracy    <       0.93581923 Ry

     iteration # 35     ecut=    29.40 Ry     beta= 0.05
     Davidson diagonalization with overlap
     ethr =  1.44E-04,  avg # of iterations =  5.2

     negative rho (up, down):  8.492E-03 0.000E+00
 
     Adding external electric field

     Computed dipole along edir(3) : 
        Dipole                0.5346 Ry au,          1.3589 Debye
        Dipole field          0.0010 Ry au, 
 
        Potential amp.       -0.0935 Ry
        Total length         46.3494 bohr
 

     total cpu time spent up to now is      562.0 secs

     total energy              =   -2931.34863907 Ry
     estimated scf accuracy    <       1.23990096 Ry

     iteration # 36     ecut=    29.40 Ry     beta= 0.05
     Davidson diagonalization with overlap
     c_bands:  2 eigenvalues not converged
     c_bands:  2 eigenvalues not converged
     c_bands:  2 eigenvalues not converged
     c_bands:  2 eigenvalues not converged
     c_bands:  5 eigenvalues not converged
     c_bands:  1 eigenvalues not converged
     c_bands:  2 eigenvalues not converged
     c_bands:  1 eigenvalues not converged
     c_bands:  2 eigenvalues not converged
     c_bands:  2 eigenvalues not converged
     ethr =  1.44E-04,  avg # of iterations = 20.0

     negative rho (up, down):  8.519E-03 0.000E+00
 
     Adding external electric field

     Computed dipole along edir(3) : 
        Dipole                0.7067 Ry au,          1.7962 Debye
        Dipole field          0.0013 Ry au, 
 
        Potential amp.       -0.1236 Ry
        Total length         46.3494 bohr
 

     total cpu time spent up to now is      578.8 secs

     total energy              =   -2931.40048208 Ry
     estimated scf accuracy    <       0.72636047 Ry

     iteration # 37     ecut=    29.40 Ry     beta= 0.05
     Davidson diagonalization with overlap
     ethr =  1.44E-04,  avg # of iterations =  9.4

     negative rho (up, down):  8.615E-03 0.000E+00
 
     Adding external electric field

     Computed dipole along edir(3) : 
        Dipole                0.3402 Ry au,          0.8647 Debye
        Dipole field          0.0006 Ry au, 
 
        Potential amp.       -0.0595 Ry
        Total length         46.3494 bohr
 

     total cpu time spent up to now is      592.0 secs

     total energy              =   -2931.15871880 Ry
     estimated scf accuracy    <       5.20001821 Ry

     iteration # 38     ecut=    29.40 Ry     beta= 0.05
     Davidson diagonalization with overlap
     ethr =  1.44E-04,  avg # of iterations = 10.1

     negative rho (up, down):  8.737E-03 0.000E+00
 
     Adding external electric field

     Computed dipole along edir(3) : 
        Dipole               -0.0657 Ry au,         -0.1670 Debye
        Dipole field         -0.0001 Ry au, 
 
        Potential amp.        0.0115 Ry
        Total length         46.3494 bohr
 

     total cpu time spent up to now is      605.7 secs

     total energy              =   -2931.32025987 Ry
     estimated scf accuracy    <       0.34694661 Ry

     iteration # 39     ecut=    29.40 Ry     beta= 0.05
     Davidson diagonalization with overlap
     c_bands:  1 eigenvalues not converged
     c_bands:  4 eigenvalues not converged
     c_bands:  1 eigenvalues not converged
     c_bands:  2 eigenvalues not converged
     c_bands:  2 eigenvalues not converged
     ethr =  8.87E-05,  avg # of iterations = 19.4

     negative rho (up, down):  8.897E-03 0.000E+00
 
     Adding external electric field

     Computed dipole along edir(3) : 
        Dipole                0.0168 Ry au,          0.0428 Debye
        Dipole field          0.0000 Ry au, 
 
        Potential amp.       -0.0029 Ry
        Total length         46.3494 bohr
 

     total cpu time spent up to now is      625.5 secs

     total energy              =   -2931.35318961 Ry
     estimated scf accuracy    <       0.37717596 Ry

     iteration # 40     ecut=    29.40 Ry     beta= 0.05
     Davidson diagonalization with overlap
     ethr =  8.87E-05,  avg # of iterations =  3.4

     negative rho (up, down):  1.014E-02 0.000E+00
 
     Adding external electric field

     Computed dipole along edir(3) : 
        Dipole                0.8096 Ry au,          2.0577 Debye
        Dipole field          0.0015 Ry au, 
 
        Potential amp.       -0.1416 Ry
        Total length         46.3494 bohr
 

     total cpu time spent up to now is      636.6 secs

     total energy              =   -2931.30744670 Ry
     estimated scf accuracy    <       0.44064194 Ry

     iteration # 41     ecut=    29.40 Ry     beta= 0.05
     Davidson diagonalization with overlap
     c_bands:  1 eigenvalues not converged
     c_bands:  3 eigenvalues not converged
     c_bands:  2 eigenvalues not converged
     c_bands:  5 eigenvalues not converged
     c_bands:  1 eigenvalues not converged
     c_bands:  2 eigenvalues not converged
     ethr =  8.87E-05,  avg # of iterations = 19.3

     negative rho (up, down):  9.918E-03 0.000E+00
 
     Adding external electric field

     Computed dipole along edir(3) : 
        Dipole                0.7091 Ry au,          1.8023 Debye
        Dipole field          0.0013 Ry au, 
 
        Potential amp.       -0.1240 Ry
        Total length         46.3494 bohr
 

     total cpu time spent up to now is      654.5 secs

     total energy              =   -2931.33970724 Ry
     estimated scf accuracy    <       0.41136691 Ry

     iteration # 42     ecut=    29.40 Ry     beta= 0.05
     Davidson diagonalization with overlap
     ethr =  8.87E-05,  avg # of iterations =  2.6

     negative rho (up, down):  1.097E-02 0.000E+00
 
     Adding external electric field

     Computed dipole along edir(3) : 
        Dipole                0.8650 Ry au,          2.1987 Debye
        Dipole field          0.0016 Ry au, 
 
        Potential amp.       -0.1513 Ry
        Total length         46.3494 bohr
 

     total cpu time spent up to now is      665.1 secs

     total energy              =   -2931.36191573 Ry
     estimated scf accuracy    <       0.38722371 Ry

     iteration # 43     ecut=    29.40 Ry     beta= 0.05
     Davidson diagonalization with overlap
     ethr =  8.87E-05,  avg # of iterations =  2.8

     negative rho (up, down):  1.069E-02 0.000E+00
 
     Adding external electric field

     Computed dipole along edir(3) : 
        Dipole                0.7616 Ry au,          1.9358 Debye
        Dipole field          0.0014 Ry au, 
 
        Potential amp.       -0.1332 Ry
        Total length         46.3494 bohr
 

     total cpu time spent up to now is      675.7 secs

     total energy              =   -2931.36580996 Ry
     estimated scf accuracy    <       0.69861354 Ry

     iteration # 44     ecut=    29.40 Ry     beta= 0.05
     Davidson diagonalization with overlap
     ethr =  8.87E-05,  avg # of iterations =  1.0

     negative rho (up, down):  1.004E-02 0.000E+00
 
     Adding external electric field

     Computed dipole along edir(3) : 
        Dipole                0.7931 Ry au,          2.0159 Debye
        Dipole field          0.0015 Ry au, 
 
        Potential amp.       -0.1387 Ry
        Total length         46.3494 bohr
 

     total cpu time spent up to now is      685.6 secs

     total energy              =   -2931.33880476 Ry
     estimated scf accuracy    <       0.71661591 Ry

     iteration # 45     ecut=    29.40 Ry     beta= 0.05
     Davidson diagonalization with overlap
     ethr =  8.87E-05,  avg # of iterations =  4.9

     negative rho (up, down):  9.720E-03 0.000E+00
 
     Adding external electric field

     Computed dipole along edir(3) : 
        Dipole                1.1147 Ry au,          2.8334 Debye
        Dipole field          0.0021 Ry au, 
 
        Potential amp.       -0.1950 Ry
        Total length         46.3494 bohr
 

     total cpu time spent up to now is      697.1 secs

     total energy              =   -2931.34886797 Ry
     estimated scf accuracy    <       0.60808980 Ry

     iteration # 46     ecut=    29.40 Ry     beta= 0.05
     Davidson diagonalization with overlap
     c_bands:  1 eigenvalues not converged
     c_bands:  2 eigenvalues not converged
     c_bands:  1 eigenvalues not converged
     c_bands:  2 eigenvalues not converged
     c_bands:  1 eigenvalues not converged
     c_bands:  2 eigenvalues not converged
     c_bands:  2 eigenvalues not converged
     ethr =  8.87E-05,  avg # of iterations = 17.4

     negative rho (up, down):  9.741E-03 0.000E+00
 
     Adding external electric field

     Computed dipole along edir(3) : 
        Dipole                1.1421 Ry au,          2.9030 Debye
        Dipole field          0.0022 Ry au, 
 
        Potential amp.       -0.1998 Ry
        Total length         46.3494 bohr
 

     total cpu time spent up to now is      713.4 secs

     total energy              =   -2931.36820926 Ry
     estimated scf accuracy    <       0.84569184 Ry

     iteration # 47     ecut=    29.40 Ry     beta= 0.05
     Davidson diagonalization with overlap
     ethr =  8.87E-05,  avg # of iterations =  2.5

     negative rho (up, down):  9.799E-03 0.000E+00
 
     Adding external electric field

     Computed dipole along edir(3) : 
        Dipole                0.9824 Ry au,          2.4970 Debye
        Dipole field          0.0019 Ry au, 
 
        Potential amp.       -0.1719 Ry
        Total length         46.3494 bohr
 

     total cpu time spent up to now is      724.2 secs

     total energy              =   -2931.34388713 Ry
     estimated scf accuracy    <       0.90523560 Ry

     iteration # 48     ecut=    29.40 Ry     beta= 0.05
     Davidson diagonalization with overlap
     ethr =  8.87E-05,  avg # of iterations =  1.2

     negative rho (up, down):  1.095E-02 0.000E+00
 
     Adding external electric field

     Computed dipole along edir(3) : 
        Dipole                0.6292 Ry au,          1.5993 Debye
        Dipole field          0.0012 Ry au, 
 
        Potential amp.       -0.1101 Ry
        Total length         46.3494 bohr
 

     total cpu time spent up to now is      734.3 secs

     total energy              =   -2931.30095112 Ry
     estimated scf accuracy    <       0.56942017 Ry

     iteration # 49     ecut=    29.40 Ry     beta= 0.05
     Davidson diagonalization with overlap
     c_bands:  2 eigenvalues not converged
     c_bands:  1 eigenvalues not converged
     c_bands:  1 eigenvalues not converged
     c_bands:  1 eigenvalues not converged
     c_bands:  3 eigenvalues not converged
     c_bands:  1 eigenvalues not converged
     c_bands:  1 eigenvalues not converged
     ethr =  8.87E-05,  avg # of iterations = 19.7

     negative rho (up, down):  8.947E-03 0.000E+00
 
     Adding external electric field

     Computed dipole along edir(3) : 
        Dipole                0.5614 Ry au,          1.4270 Debye
        Dipole field          0.0011 Ry au, 
 
        Potential amp.       -0.0982 Ry
        Total length         46.3494 bohr
 

     total cpu time spent up to now is      756.3 secs

     total energy              =   -2931.20237492 Ry
     estimated scf accuracy    <       0.50723232 Ry

     iteration # 50     ecut=    29.40 Ry     beta= 0.05
     Davidson diagonalization with overlap
     c_bands:  3 eigenvalues not converged
     c_bands:  4 eigenvalues not converged
     c_bands:  3 eigenvalues not converged
     c_bands:  2 eigenvalues not converged
     c_bands:  5 eigenvalues not converged
     c_bands:  4 eigenvalues not converged
     c_bands:  4 eigenvalues not converged
     c_bands:  2 eigenvalues not converged
     c_bands:  2 eigenvalues not converged
     c_bands:  1 eigenvalues not converged
     ethr =  8.87E-05,  avg # of iterations = 20.0

     negative rho (up, down):  8.944E-03 0.000E+00
 
     Adding external electric field

     Computed dipole along edir(3) : 
        Dipole                0.5500 Ry au,          1.3981 Debye
        Dipole field          0.0010 Ry au, 
 
        Potential amp.       -0.0962 Ry
        Total length         46.3494 bohr
 

     total cpu time spent up to now is      782.0 secs

     total energy              =   -2931.39065289 Ry
     estimated scf accuracy    <       0.79707705 Ry

     iteration # 51     ecut=    29.40 Ry     beta= 0.05
     Davidson diagonalization with overlap
     ethr =  8.87E-05,  avg # of iterations =  2.2

     negative rho (up, down):  9.437E-03 0.000E+00
 
     Adding external electric field

     Computed dipole along edir(3) : 
        Dipole                0.6348 Ry au,          1.6135 Debye
        Dipole field          0.0012 Ry au, 
 
        Potential amp.       -0.1110 Ry
        Total length         46.3494 bohr
 

     total cpu time spent up to now is      792.4 secs

     total energy              =   -2931.25388585 Ry
     estimated scf accuracy    <       0.71403394 Ry

     iteration # 52     ecut=    29.40 Ry     beta= 0.05
     Davidson diagonalization with overlap
     c_bands:  3 eigenvalues not converged
     c_bands:  1 eigenvalues not converged
     c_bands:  1 eigenvalues not converged
     c_bands:  1 eigenvalues not converged
     c_bands:  1 eigenvalues not converged
     ethr =  8.87E-05,  avg # of iterations = 19.1

     negative rho (up, down):  9.498E-03 0.000E+00
 
     Adding external electric field

     Computed dipole along edir(3) : 
        Dipole                0.5823 Ry au,          1.4800 Debye
        Dipole field          0.0011 Ry au, 
 
        Potential amp.       -0.1019 Ry
        Total length         46.3494 bohr
 

     total cpu time spent up to now is      812.1 secs

     total energy              =   -2931.31599722 Ry
     estimated scf accuracy    <       0.11769448 Ry

     iteration # 53     ecut=    29.40 Ry     beta= 0.05
     Davidson diagonalization with overlap
     c_bands:  1 eigenvalues not converged
     ethr =  3.01E-05,  avg # of iterations = 17.6

     negative rho (up, down):  9.551E-03 0.000E+00
 
     Adding external electric field

     Computed dipole along edir(3) : 
        Dipole                0.6320 Ry au,          1.6064 Debye
        Dipole field          0.0012 Ry au, 
 
        Potential amp.       -0.1106 Ry
        Total length         46.3494 bohr
 

     total cpu time spent up to now is      829.8 secs

     total energy              =   -2931.32683858 Ry
     estimated scf accuracy    <       0.04787486 Ry

     iteration # 54     ecut=    29.40 Ry     beta= 0.05
     Davidson diagonalization with overlap
     ethr =  1.22E-05,  avg # of iterations =  8.3

     negative rho (up, down):  9.465E-03 0.000E+00
 
     Adding external electric field

     Computed dipole along edir(3) : 
        Dipole                0.7372 Ry au,          1.8739 Debye
        Dipole field          0.0014 Ry au, 
 
        Potential amp.       -0.1290 Ry
        Total length         46.3494 bohr
 

     total cpu time spent up to now is      842.5 secs

     total energy              =   -2931.32493960 Ry
     estimated scf accuracy    <       0.02167608 Ry

     iteration # 55     ecut=    29.40 Ry     beta= 0.05
     Davidson diagonalization with overlap
     c_bands:  3 eigenvalues not converged
     c_bands:  4 eigenvalues not converged
     c_bands:  3 eigenvalues not converged
     c_bands:  3 eigenvalues not converged
     c_bands:  2 eigenvalues not converged
     c_bands:  4 eigenvalues not converged
     c_bands:  1 eigenvalues not converged
     c_bands:  2 eigenvalues not converged
     ethr =  5.54E-06,  avg # of iterations = 19.4

     negative rho (up, down):  9.754E-03 0.000E+00
 
     Adding external electric field

     Computed dipole along edir(3) : 
        Dipole                0.6315 Ry au,          1.6052 Debye
        Dipole field          0.0012 Ry au, 
 
        Potential amp.       -0.1105 Ry
        Total length         46.3494 bohr
 

     total cpu time spent up to now is      866.1 secs

     total energy              =   -2931.31551520 Ry
     estimated scf accuracy    <       0.15122629 Ry

     iteration # 56     ecut=    29.40 Ry     beta= 0.05
     Davidson diagonalization with overlap
     c_bands:  2 eigenvalues not converged
     c_bands:  3 eigenvalues not converged
     c_bands:  2 eigenvalues not converged
     c_bands:  3 eigenvalues not converged
     c_bands:  1 eigenvalues not converged
     c_bands:  3 eigenvalues not converged
     c_bands:  1 eigenvalues not converged
     c_bands:  1 eigenvalues not converged
     c_bands:  2 eigenvalues not converged
     ethr =  5.54E-06,  avg # of iterations = 19.6

     negative rho (up, down):  9.855E-03 0.000E+00
 
     Adding external electric field

     Computed dipole along edir(3) : 
        Dipole                0.6641 Ry au,          1.6880 Debye
        Dipole field          0.0013 Ry au, 
 
        Potential amp.       -0.1162 Ry
        Total length         46.3494 bohr
 

     total cpu time spent up to now is      888.1 secs

     total energy              =   -2931.32566840 Ry
     estimated scf accuracy    <       0.02795630 Ry

     iteration # 57     ecut=    29.40 Ry     beta= 0.05
     Davidson diagonalization with overlap
     c_bands:  1 eigenvalues not converged
     c_bands:  1 eigenvalues not converged
     c_bands:  1 eigenvalues not converged
     ethr =  5.54E-06,  avg # of iterations = 17.5

     negative rho (up, down):  1.037E-02 0.000E+00
 
     Adding external electric field

     Computed dipole along edir(3) : 
        Dipole                0.7563 Ry au,          1.9223 Debye
        Dipole field          0.0014 Ry au, 
 
        Potential amp.       -0.1323 Ry
        Total length         46.3494 bohr
 

     total cpu time spent up to now is      906.2 secs

     total energy              =   -2931.32737196 Ry
     estimated scf accuracy    <       0.01849171 Ry

     iteration # 58     ecut=    29.40 Ry     beta= 0.05
     Davidson diagonalization with overlap
     c_bands:  3 eigenvalues not converged
     c_bands:  1 eigenvalues not converged
     c_bands:  5 eigenvalues not converged
     c_bands:  2 eigenvalues not converged
     c_bands:  5 eigenvalues not converged
     c_bands:  2 eigenvalues not converged
     c_bands:  2 eigenvalues not converged
     c_bands:  1 eigenvalues not converged
     c_bands:  1 eigenvalues not converged
     ethr =  4.73E-06,  avg # of iterations = 20.0

     negative rho (up, down):  1.100E-02 0.000E+00
 
     Adding external electric field

     Computed dipole along edir(3) : 
        Dipole                0.7498 Ry au,          1.9059 Debye
        Dipole field          0.0014 Ry au, 
 
        Potential amp.       -0.1312 Ry
        Total length         46.3494 bohr
 

     total cpu time spent up to now is      928.1 secs

     total energy              =   -2931.32760835 Ry
     estimated scf accuracy    <       0.15020632 Ry

     iteration # 59     ecut=    29.40 Ry     beta= 0.05
     Davidson diagonalization with overlap
     c_bands:  1 eigenvalues not converged
     ethr =  4.73E-06,  avg # of iterations = 16.0

     negative rho (up, down):  1.094E-02 0.000E+00
 
     Adding external electric field

     Computed dipole along edir(3) : 
        Dipole                0.7644 Ry au,          1.9430 Debye
        Dipole field          0.0014 Ry au, 
 
        Potential amp.       -0.1337 Ry
        Total length         46.3494 bohr
 

     total cpu time spent up to now is      945.1 secs

     total energy              =   -2931.33000043 Ry
     estimated scf accuracy    <       0.03572294 Ry

     iteration # 60     ecut=    29.40 Ry     beta= 0.05
     Davidson diagonalization with overlap
     ethr =  4.73E-06,  avg # of iterations = 13.5

     negative rho (up, down):  1.231E-02 0.000E+00
 
     Adding external electric field

     Computed dipole along edir(3) : 
        Dipole                0.8487 Ry au,          2.1571 Debye
        Dipole field          0.0016 Ry au, 
 
        Potential amp.       -0.1485 Ry
        Total length         46.3494 bohr
 

     total cpu time spent up to now is      959.6 secs

     total energy              =   -2931.33094178 Ry
     estimated scf accuracy    <       0.05119859 Ry

     iteration # 61     ecut=    29.40 Ry     beta= 0.05
     Davidson diagonalization with overlap
     c_bands:  1 eigenvalues not converged
     c_bands:  2 eigenvalues not converged
     ethr =  4.73E-06,  avg # of iterations = 15.5

     negative rho (up, down):  1.631E-02 0.000E+00
 
     Adding external electric field

     Computed dipole along edir(3) : 
        Dipole                0.8943 Ry au,          2.2732 Debye
        Dipole field          0.0017 Ry au, 
 
        Potential amp.       -0.1564 Ry
        Total length         46.3494 bohr
 

     total cpu time spent up to now is      975.8 secs

     total energy              =   -2931.32481947 Ry
     estimated scf accuracy    <       0.07545730 Ry

     iteration # 62     ecut=    29.40 Ry     beta= 0.05
     Davidson diagonalization with overlap
     c_bands:  1 eigenvalues not converged
     c_bands:  3 eigenvalues not converged
     c_bands:  2 eigenvalues not converged
     c_bands:  2 eigenvalues not converged
     c_bands:  1 eigenvalues not converged
     c_bands:  1 eigenvalues not converged
     ethr =  4.73E-06,  avg # of iterations = 19.2

     negative rho (up, down):  1.654E-02 0.000E+00
 
     Adding external electric field

     Computed dipole along edir(3) : 
        Dipole                0.9214 Ry au,          2.3420 Debye
        Dipole field          0.0017 Ry au, 
 
        Potential amp.       -0.1612 Ry
        Total length         46.3494 bohr
 

     total cpu time spent up to now is      999.7 secs

     total energy              =   -2931.32889245 Ry
     estimated scf accuracy    <       0.00617152 Ry

     iteration # 63     ecut=    29.40 Ry     beta= 0.05
     Davidson diagonalization with overlap
     ethr =  1.58E-06,  avg # of iterations = 10.5

     negative rho (up, down):  1.648E-02 0.000E+00
 
     Adding external electric field

     Computed dipole along edir(3) : 
        Dipole                0.9291 Ry au,          2.3615 Debye
        Dipole field          0.0018 Ry au, 
 
        Potential amp.       -0.1625 Ry
        Total length         46.3494 bohr
 

     total cpu time spent up to now is     1013.4 secs

     total energy              =   -2931.32894941 Ry
     estimated scf accuracy    <       0.00254155 Ry

     iteration # 64     ecut=    29.40 Ry     beta= 0.05
     Davidson diagonalization with overlap
     c_bands:  1 eigenvalues not converged
     ethr =  6.50E-07,  avg # of iterations = 14.3

     negative rho (up, down):  1.607E-02 0.000E+00
 
     Adding external electric field

     Computed dipole along edir(3) : 
        Dipole                0.9031 Ry au,          2.2954 Debye
        Dipole field          0.0017 Ry au, 
 
        Potential amp.       -0.1580 Ry
        Total length         46.3494 bohr
 

     total cpu time spent up to now is     1030.6 secs

     total energy              =   -2931.32906842 Ry
     estimated scf accuracy    <       0.00312997 Ry

     iteration # 65     ecut=    29.40 Ry     beta= 0.05
     Davidson diagonalization with overlap
     ethr =  6.50E-07,  avg # of iterations = 11.5

     negative rho (up, down):  1.613E-02 0.000E+00
 
     Adding external electric field

     Computed dipole along edir(3) : 
        Dipole                0.9140 Ry au,          2.3232 Debye
        Dipole field          0.0017 Ry au, 
 
        Potential amp.       -0.1599 Ry
        Total length         46.3494 bohr
 

     total cpu time spent up to now is     1044.8 secs

     total energy              =   -2931.32920460 Ry
     estimated scf accuracy    <       0.00139102 Ry

     iteration # 66     ecut=    29.40 Ry     beta= 0.05
     Davidson diagonalization with overlap
     ethr =  3.56E-07,  avg # of iterations =  7.2

     negative rho (up, down):  1.744E-02 0.000E+00
 
     Adding external electric field

     Computed dipole along edir(3) : 
        Dipole                0.9213 Ry au,          2.3418 Debye
        Dipole field          0.0017 Ry au, 
 
        Potential amp.       -0.1612 Ry
        Total length         46.3494 bohr
 

     total cpu time spent up to now is     1057.2 secs

     total energy              =   -2931.32931462 Ry
     estimated scf accuracy    <       0.00117062 Ry

     iteration # 67     ecut=    29.40 Ry     beta= 0.05
     Davidson diagonalization with overlap
     ethr =  2.99E-07,  avg # of iterations = 10.2

     negative rho (up, down):  1.740E-02 0.000E+00
 
     Adding external electric field

     Computed dipole along edir(3) : 
        Dipole                0.9285 Ry au,          2.3599 Debye
        Dipole field          0.0018 Ry au, 
 
        Potential amp.       -0.1624 Ry
        Total length         46.3494 bohr
 

     total cpu time spent up to now is     1074.1 secs

     total energy              =   -2931.32926979 Ry
     estimated scf accuracy    <       0.00484868 Ry

     iteration # 68     ecut=    29.40 Ry     beta= 0.05
     Davidson diagonalization with overlap
     ethr =  2.99E-07,  avg # of iterations =  8.4

     negative rho (up, down):  1.745E-02 0.000E+00
 
     Adding external electric field

     Computed dipole along edir(3) : 
        Dipole                0.9513 Ry au,          2.4181 Debye
        Dipole field          0.0018 Ry au, 
 
        Potential amp.       -0.1664 Ry
        Total length         46.3494 bohr
 

     total cpu time spent up to now is     1087.3 secs

     total energy              =   -2931.32872380 Ry
     estimated scf accuracy    <       0.00263040 Ry

     iteration # 69     ecut=    29.40 Ry     beta= 0.05
     Davidson diagonalization with overlap
     c_bands:  1 eigenvalues not converged
     c_bands:  1 eigenvalues not converged
     ethr =  2.99E-07,  avg # of iterations = 15.5

     negative rho (up, down):  1.752E-02 0.000E+00
 
     Adding external electric field

     Computed dipole along edir(3) : 
        Dipole                0.9540 Ry au,          2.4248 Debye
        Dipole field          0.0018 Ry au, 
 
        Potential amp.       -0.1669 Ry
        Total length         46.3494 bohr
 

     total cpu time spent up to now is     1107.5 secs

     total energy              =   -2931.32921106 Ry
     estimated scf accuracy    <       0.00083791 Ry

     iteration # 70     ecut=    29.40 Ry     beta= 0.05
     Davidson diagonalization with overlap
     ethr =  2.14E-07,  avg # of iterations =  4.1

     negative rho (up, down):  1.765E-02 0.000E+00
 
     Adding external electric field

     Computed dipole along edir(3) : 
        Dipole                0.9546 Ry au,          2.4263 Debye
        Dipole field          0.0018 Ry au, 
 
        Potential amp.       -0.1670 Ry
        Total length         46.3494 bohr
 

     total cpu time spent up to now is     1118.8 secs

     total energy              =   -2931.32917084 Ry
     estimated scf accuracy    <       0.00070956 Ry

     iteration # 71     ecut=    29.40 Ry     beta= 0.05
     Davidson diagonalization with overlap
     ethr =  1.81E-07,  avg # of iterations =  8.0

     negative rho (up, down):  1.795E-02 0.000E+00
 
     Adding external electric field

     Computed dipole along edir(3) : 
        Dipole                0.9475 Ry au,          2.4084 Debye
        Dipole field          0.0018 Ry au, 
 
        Potential amp.       -0.1658 Ry
        Total length         46.3494 bohr
 

     total cpu time spent up to now is     1132.1 secs

     total energy              =   -2931.32907944 Ry
     estimated scf accuracy    <       0.00040993 Ry

     iteration # 72     ecut=    29.40 Ry     beta= 0.05
     Davidson diagonalization with overlap
     ethr =  1.05E-07,  avg # of iterations = 11.6

     negative rho (up, down):  1.761E-02 0.000E+00
 
     Adding external electric field

     Computed dipole along edir(3) : 
        Dipole                0.9411 Ry au,          2.3919 Debye
        Dipole field          0.0018 Ry au, 
 
        Potential amp.       -0.1646 Ry
        Total length         46.3494 bohr
 

     total cpu time spent up to now is     1150.1 secs

     total energy              =   -2931.32913579 Ry
     estimated scf accuracy    <       0.00032598 Ry

     iteration # 73     ecut=    29.40 Ry     beta= 0.05
     Davidson diagonalization with overlap
     ethr =  8.34E-08,  avg # of iterations =  5.8

     negative rho (up, down):  1.804E-02 0.000E+00
 
     Adding external electric field

     Computed dipole along edir(3) : 
        Dipole                0.9427 Ry au,          2.3961 Debye
        Dipole field          0.0018 Ry au, 
 
        Potential amp.       -0.1649 Ry
        Total length         46.3494 bohr
 

     total cpu time spent up to now is     1162.0 secs

     total energy              =   -2931.32915187 Ry
     estimated scf accuracy    <       0.00008585 Ry

     iteration # 74     ecut=    29.40 Ry     beta= 0.05
     Davidson diagonalization with overlap
     ethr =  2.20E-08,  avg # of iterations = 13.4

     negative rho (up, down):  1.825E-02 0.000E+00
 
     Adding external electric field

     Computed dipole along edir(3) : 
        Dipole                0.9463 Ry au,          2.4053 Debye
        Dipole field          0.0018 Ry au, 
 
        Potential amp.       -0.1655 Ry
        Total length         46.3494 bohr
 

     total cpu time spent up to now is     1180.5 secs

     total energy              =   -2931.32916834 Ry
     estimated scf accuracy    <       0.00003129 Ry

     iteration # 75     ecut=    29.40 Ry     beta= 0.05
     Davidson diagonalization with overlap
     ethr =  8.00E-09,  avg # of iterations =  8.3

     negative rho (up, down):  1.842E-02 0.000E+00
 
     Adding external electric field

     Computed dipole along edir(3) : 
        Dipole                0.9517 Ry au,          2.4189 Debye
        Dipole field          0.0018 Ry au, 
 
        Potential amp.       -0.1665 Ry
        Total length         46.3494 bohr
 

     total cpu time spent up to now is     1193.0 secs

     total energy              =   -2931.32916294 Ry
     estimated scf accuracy    <       0.00002767 Ry

     iteration # 76     ecut=    29.40 Ry     beta= 0.05
     Davidson diagonalization with overlap
     ethr =  7.08E-09,  avg # of iterations = 10.5

     negative rho (up, down):  1.865E-02 0.000E+00
 
     Adding external electric field

     Computed dipole along edir(3) : 
        Dipole                0.9521 Ry au,          2.4201 Debye
        Dipole field          0.0018 Ry au, 
 
        Potential amp.       -0.1666 Ry
        Total length         46.3494 bohr
 

     total cpu time spent up to now is     1210.4 secs

     total energy              =   -2931.32916850 Ry
     estimated scf accuracy    <       0.00003762 Ry

     iteration # 77     ecut=    29.40 Ry     beta= 0.05
     Davidson diagonalization with overlap
     ethr =  7.08E-09,  avg # of iterations =  5.9

     negative rho (up, down):  1.868E-02 0.000E+00
 
     Adding external electric field

     Computed dipole along edir(3) : 
        Dipole                0.9506 Ry au,          2.4162 Debye
        Dipole field          0.0018 Ry au, 
 
        Potential amp.       -0.1663 Ry
        Total length         46.3494 bohr
 

     total cpu time spent up to now is     1222.7 secs

     total energy              =   -2931.32917195 Ry
     estimated scf accuracy    <       0.00000469 Ry

     iteration # 78     ecut=    29.40 Ry     beta= 0.05
     Davidson diagonalization with overlap
     c_bands:  2 eigenvalues not converged
     c_bands:  2 eigenvalues not converged
     c_bands:  1 eigenvalues not converged
     ethr =  1.20E-09,  avg # of iterations = 16.9

     negative rho (up, down):  1.869E-02 0.000E+00
 
     Adding external electric field

     Computed dipole along edir(3) : 
        Dipole                0.9511 Ry au,          2.4174 Debye
        Dipole field          0.0018 Ry au, 
 
        Potential amp.       -0.1664 Ry
        Total length         46.3494 bohr
 

     total cpu time spent up to now is     1245.7 secs

     total energy              =   -2931.32917339 Ry
     estimated scf accuracy    <       0.00000849 Ry

     iteration # 79     ecut=    29.40 Ry     beta= 0.05
     Davidson diagonalization with overlap
     ethr =  1.20E-09,  avg # of iterations =  8.7

     negative rho (up, down):  1.871E-02 0.000E+00
 
     Adding external electric field

     Computed dipole along edir(3) : 
        Dipole                0.9517 Ry au,          2.4190 Debye
        Dipole field          0.0018 Ry au, 
 
        Potential amp.       -0.1665 Ry
        Total length         46.3494 bohr
 

     total cpu time spent up to now is     1258.4 secs

     total energy              =   -2931.32917289 Ry
     estimated scf accuracy    <       0.00000399 Ry

     iteration # 80     ecut=    29.40 Ry     beta= 0.05
     Davidson diagonalization with overlap
     c_bands:  1 eigenvalues not converged
     c_bands:  1 eigenvalues not converged
     ethr =  1.02E-09,  avg # of iterations = 16.4

     negative rho (up, down):  1.876E-02 0.000E+00
 
     Adding external electric field

     Computed dipole along edir(3) : 
        Dipole                0.9520 Ry au,          2.4198 Debye
        Dipole field          0.0018 Ry au, 
 
        Potential amp.       -0.1665 Ry
        Total length         46.3494 bohr
 

     total cpu time spent up to now is     1284.5 secs

     total energy              =   -2931.32917394 Ry
     estimated scf accuracy    <       0.00001005 Ry

     iteration # 81     ecut=    29.40 Ry     beta= 0.05
     Davidson diagonalization with overlap
     ethr =  1.02E-09,  avg # of iterations = 13.0

     negative rho (up, down):  1.876E-02 0.000E+00
 
     Adding external electric field

     Computed dipole along edir(3) : 
        Dipole                0.9520 Ry au,          2.4196 Debye
        Dipole field          0.0018 Ry au, 
 
        Potential amp.       -0.1665 Ry
        Total length         46.3494 bohr
 

     total cpu time spent up to now is     1304.9 secs

     total energy              =   -2931.32917600 Ry
     estimated scf accuracy    <       0.00000118 Ry

     iteration # 82     ecut=    29.40 Ry     beta= 0.05
     Davidson diagonalization with overlap
     c_bands:  2 eigenvalues not converged
     c_bands:  1 eigenvalues not converged
     ethr =  3.02E-10,  avg # of iterations = 16.7

     negative rho (up, down):  1.881E-02 0.000E+00
 
     Adding external electric field

     Computed dipole along edir(3) : 
        Dipole                0.9529 Ry au,          2.4220 Debye
        Dipole field          0.0018 Ry au, 
 
        Potential amp.       -0.1667 Ry
        Total length         46.3494 bohr
 

     total cpu time spent up to now is     1330.8 secs

     total energy              =   -2931.32917627 Ry
     estimated scf accuracy    <       0.00000526 Ry

     iteration # 83     ecut=    29.40 Ry     beta= 0.05
     Davidson diagonalization with overlap
     ethr =  3.02E-10,  avg # of iterations = 12.1

     negative rho (up, down):  1.885E-02 0.000E+00
 
     Adding external electric field

     Computed dipole along edir(3) : 
        Dipole                0.9534 Ry au,          2.4233 Debye
        Dipole field          0.0018 Ry au, 
 
        Potential amp.       -0.1668 Ry
        Total length         46.3494 bohr
 

     total cpu time spent up to now is     1349.9 secs

     total energy              =   -2931.32917709 Ry
     estimated scf accuracy    <       0.00000090 Ry

     iteration # 84     ecut=    29.40 Ry     beta= 0.05
     Davidson diagonalization with overlap
     ethr =  2.30E-10,  avg # of iterations =  4.4

     negative rho (up, down):  1.890E-02 0.000E+00
 
     Adding external electric field

     Computed dipole along edir(3) : 
        Dipole                0.9545 Ry au,          2.4260 Debye
        Dipole field          0.0018 Ry au, 
 
        Potential amp.       -0.1670 Ry
        Total length         46.3494 bohr
 

     total cpu time spent up to now is     1361.5 secs

     total energy              =   -2931.32917742 Ry
     estimated scf accuracy    <       0.00000069 Ry

     iteration # 85     ecut=    29.40 Ry     beta= 0.05
     Davidson diagonalization with overlap
     ethr =  1.77E-10,  avg # of iterations =  9.6

     negative rho (up, down):  1.889E-02 0.000E+00
 
     Adding external electric field

     Computed dipole along edir(3) : 
        Dipole                0.9544 Ry au,          2.4258 Debye
        Dipole field          0.0018 Ry au, 
 
        Potential amp.       -0.1670 Ry
        Total length         46.3494 bohr
 

     total cpu time spent up to now is     1376.8 secs

     total energy              =   -2931.32917787 Ry
     estimated scf accuracy    <       0.00000019 Ry

     iteration # 86     ecut=    29.40 Ry     beta= 0.05
     Davidson diagonalization with overlap
     c_bands:  1 eigenvalues not converged
     ethr =  4.78E-11,  avg # of iterations = 16.0

     negative rho (up, down):  1.888E-02 0.000E+00
 
     Adding external electric field

     Computed dipole along edir(3) : 
        Dipole                0.9542 Ry au,          2.4253 Debye
        Dipole field          0.0018 Ry au, 
 
        Potential amp.       -0.1669 Ry
        Total length         46.3494 bohr
 

     total cpu time spent up to now is     1401.0 secs

     total energy              =   -2931.32917831 Ry
     estimated scf accuracy    <       0.00000041 Ry

     iteration # 87     ecut=    29.40 Ry     beta= 0.05
     Davidson diagonalization with overlap
     ethr =  4.78E-11,  avg # of iterations =  4.2

     negative rho (up, down):  1.887E-02 0.000E+00
 
     Adding external electric field

     Computed dipole along edir(3) : 
        Dipole                0.9539 Ry au,          2.4246 Debye
        Dipole field          0.0018 Ry au, 
 
        Potential amp.       -0.1669 Ry
        Total length         46.3494 bohr
 

     total cpu time spent up to now is     1412.7 secs

     total energy              =   -2931.32917857 Ry
     estimated scf accuracy    <       0.00000023 Ry

     iteration # 88     ecut=    29.40 Ry     beta= 0.05
     Davidson diagonalization with overlap
     ethr =  4.78E-11,  avg # of iterations = 10.3

     negative rho (up, down):  1.889E-02 0.000E+00
 
     Adding external electric field

     Computed dipole along edir(3) : 
        Dipole                0.9539 Ry au,          2.4245 Debye
        Dipole field          0.0018 Ry au, 
 
        Potential amp.       -0.1669 Ry
        Total length         46.3494 bohr
 

     total cpu time spent up to now is     1430.5 secs

     End of self-consistent calculation

          k = 0.0000 0.0000 0.0000 ( 18029 PWs)   bands (ev):

   -55.8490 -55.8114 -55.7569 -55.7448 -55.6914 -55.6835 -55.6682 -55.6638
   -55.6336 -55.6149 -55.6131 -55.5872 -55.5808 -55.5612 -54.8236 -54.7896
   -32.3590 -32.3232 -32.2324 -32.2032 -32.1579 -32.1329 -32.1196 -32.0964
   -32.0875 -32.0598 -32.0342 -32.0118 -32.0037 -31.9904 -31.9640 -31.9562
   -31.9452 -31.9337 -31.9155 -31.9128 -31.9083 -31.9027 -31.8747 -31.8561
   -31.8511 -31.8481 -31.8466 -31.8369 -31.8302 -31.8197 -31.8125 -31.8099
   -31.7997 -31.7872 -31.7837 -31.7831 -31.7699 -31.7644 -31.7454 -31.7355
   -31.7166 -31.6414 -31.2309 -31.1414 -31.1189 -31.0478 -30.9615 -30.8501
   -19.5604 -16.5525 -16.3366 -16.1499 -16.0508 -16.0004 -15.8317 -15.7494
   -15.5395 -15.4870 -15.4754 -15.4488 -15.3928 -15.3763 -15.3701 -15.3512
   -15.3397 -15.3146 -15.2551 -15.2463 -15.2380 -15.2031 -15.1457 -15.1160
   -14.9886 -14.9797 -14.9641 -14.9449 -14.8616 -14.7322 -13.3239 -13.2070
    -9.6090  -6.4541  -4.1830  -3.9986  -3.8638  -3.7667  -3.7515  -3.7305
    -3.5685  -3.4944  -3.2699  -3.1370  -3.0875  -3.0194  -2.9790  -2.9173
    -2.8247  -2.7608  -2.7205  -2.6803  -2.6466  -2.6452  -2.6296  -2.5755
    -2.5454  -2.5010  -2.4000  -2.3970  -2.3454  -2.2881  -2.2481  -2.2063
    -2.1648  -2.1496  -2.1289  -2.0923  -2.0593  -2.0493  -2.0162  -1.9864
    -1.9300  -1.8464  -1.8179  -1.5549  -1.4652  -1.3800  -1.3663  -1.2988
    -1.2750  -1.2460  -1.2307  -1.1875  -1.1660  -1.0929  -1.0854  -1.0116
    -0.9703  -0.8889  -0.8287  -0.7519  -0.6891  -0.6298  -0.6097  -0.5787
    -0.5635  -0.5534  -0.3908  -0.3814  -0.3552  -0.2422  -0.2264  -0.1634
    -0.1386  -0.0763  -0.0517   0.0119   0.0699   0.0914   0.1133   0.1492
     0.1598   0.1720   0.2146   0.2964   0.3862   0.4000   0.4167   0.4805
     0.6460   0.7197   0.8235   0.8870   1.1245   1.2009   1.2328   1.2684
     1.3874   1.7749   1.8279   3.2990   3.3685   3.4166   3.4266   3.4655
     3.5475   3.7378   3.7456   3.8038   3.8863

          k = 0.0000 0.0419 0.0000 ( 17933 PWs)   bands (ev):

   -55.8446 -55.8156 -55.7548 -55.7418 -55.6943 -55.6854 -55.6663 -55.6614
   -55.6300 -55.6166 -55.6094 -55.5908 -55.5854 -55.5624 -54.8186 -54.7945
   -32.3234 -32.2694 -32.1800 -32.1530 -32.1426 -32.1134 -32.0751 -32.0700
   -32.0512 -32.0425 -32.0212 -32.0017 -31.9997 -31.9901 -31.9801 -31.9768
   -31.9519 -31.9284 -31.9243 -31.9220 -31.9123 -31.9020 -31.8999 -31.8883
   -31.8635 -31.8523 -31.8437 -31.8395 -31.8341 -31.8294 -31.8262 -31.8228
   -31.8184 -31.8125 -31.8077 -31.7977 -31.7965 -31.7779 -31.7707 -31.7666
   -31.7586 -31.6412 -31.1768 -31.1379 -31.1220 -31.0352 -30.9741 -30.9071
   -19.5577 -16.4300 -16.2212 -16.0439 -15.9888 -15.8972 -15.7892 -15.7033
   -15.5999 -15.5042 -15.4942 -15.4347 -15.3950 -15.3887 -15.3755 -15.3323
   -15.3253 -15.3108 -15.2989 -15.2887 -15.2276 -15.1905 -15.1829 -15.1617
   -15.0457 -15.0379 -15.0237 -14.9973 -14.9178 -14.8417 -13.3278 -13.2464
    -9.6077  -6.4501  -4.1844  -3.9272  -3.7028  -3.5914  -3.5852  -3.5596
    -3.4369  -3.3488  -3.0897  -3.0551  -2.9999  -2.9840  -2.9067  -2.8517
    -2.8352  -2.8063  -2.7819  -2.7652  -2.7448  -2.7127  -2.6379  -2.6147
    -2.6037  -2.5603  -2.5213  -2.4944  -2.4587  -2.3903  -2.3469  -2.3038
    -2.2606  -2.2446  -2.2350  -2.1859  -2.1248  -2.0909  -1.9985  -1.9270
    -1.8049  -1.6593  -1.6235  -1.5579  -1.5013  -1.4496  -1.3550  -1.2762
    -1.2477  -1.1312  -1.0615  -1.0224  -0.9992  -0.9849  -0.9271  -0.8993
    -0.8666  -0.8117  -0.7878  -0.7730  -0.6898  -0.6629  -0.6464  -0.6067
[...]
    -2.1896  -2.1322  -2.1098  -2.0513  -2.0101  -1.9839  -1.9484  -1.7897
    -1.7772  -1.7341  -1.6804  -1.6317  -1.4740  -1.4600  -1.4277  -1.4146
    -1.3485  -1.3185  -1.2704  -1.2598  -1.2290  -1.1612  -1.1338  -1.1147
    -1.0603  -0.9834  -0.8672  -0.7844  -0.6971  -0.6639  -0.6448  -0.5969
    -0.5540  -0.4799  -0.4274  -0.4043  -0.3625  -0.3092  -0.2018  -0.1755
    -0.1685  -0.1261  -0.0905  -0.0671  -0.0401  -0.0184   0.0099   0.0517
     0.0759   0.1507   0.1958   0.2158   0.3015   0.3301   0.3995   0.4754
     0.4998   0.5375   0.7435   0.8595   1.0986   1.1477   1.2128   1.2901
     1.3564   1.6625   1.7424   3.3353   3.3613   3.5786   3.6089   3.6358
     3.6814   3.7218   3.7357   3.7521   3.7686

          k = 0.0380 0.0419 0.0000 ( 17878 PWs)   bands (ev):

   -55.8445 -55.8156 -55.7547 -55.7416 -55.6943 -55.6853 -55.6664 -55.6613
   -55.6298 -55.6166 -55.6094 -55.5907 -55.5855 -55.5624 -54.8185 -54.7945
   -32.3236 -32.2702 -32.1827 -32.1535 -32.1425 -32.1134 -32.0797 -32.0702
   -32.0524 -32.0473 -32.0213 -32.0018 -31.9893 -31.9876 -31.9772 -31.9651
   -31.9516 -31.9286 -31.9243 -31.9216 -31.9032 -31.8985 -31.8862 -31.8839
   -31.8667 -31.8632 -31.8457 -31.8398 -31.8350 -31.8334 -31.8255 -31.8181
   -31.8171 -31.8114 -31.8077 -31.8015 -31.7964 -31.7928 -31.7719 -31.7669
   -31.7627 -31.6417 -31.1764 -31.1405 -31.1209 -31.0350 -30.9742 -30.9070
   -19.5573 -16.3549 -16.1411 -16.0489 -15.9341 -15.8283 -15.7602 -15.7232
   -15.6020 -15.5634 -15.5255 -15.5021 -15.4691 -15.4373 -15.4234 -15.3880
   -15.3275 -15.3098 -15.3022 -15.2214 -15.2040 -15.1799 -15.1618 -15.0985
   -15.0880 -15.0589 -15.0307 -15.0136 -14.9775 -14.8419 -13.3255 -13.2467
    -9.6097  -6.4463  -4.1850  -3.9240  -3.5370  -3.4527  -3.3704  -3.3489
    -3.2870  -3.2264  -3.1296  -3.0589  -2.9912  -2.9813  -2.9280  -2.8689
    -2.8280  -2.7557  -2.7429  -2.7159  -2.6684  -2.6495  -2.6107  -2.5754
    -2.5601  -2.5508  -2.5120  -2.4703  -2.4558  -2.4222  -2.3315  -2.2951
    -2.2774  -2.2444  -2.1789  -2.1313  -2.0461  -1.9849  -1.9280  -1.8469
    -1.7864  -1.7422  -1.6314  -1.5596  -1.4989  -1.4572  -1.4046  -1.3293
    -1.2682  -1.2222  -1.1727  -1.1360  -1.0677  -1.0434  -1.0237  -0.9684
    -0.9271  -0.8959  -0.8637  -0.7771  -0.7693  -0.7449  -0.6720  -0.6426
    -0.5958  -0.5741  -0.5463  -0.5336  -0.4800  -0.4532  -0.4224  -0.3787
    -0.3500  -0.2705  -0.2633  -0.2177  -0.1298  -0.0983  -0.0363  -0.0084
     0.0232   0.0866   0.1750   0.2676   0.3284   0.3697   0.4275   0.4809
     0.5320   0.5476   0.6184   0.7308   0.7858   1.0697   1.2762   1.4018
     1.4852   1.6496   1.7177   3.4838   3.5279   3.5945   3.6664   3.7094
     3.7573   3.7847   3.8294   3.8506   3.8702

          k = 0.0380-0.0839 0.0000 ( 17916 PWs)   bands (ev):

   -55.8381 -55.8220 -55.7526 -55.7383 -55.6978 -55.6875 -55.6647 -55.6584
   -55.6256 -55.6200 -55.5988 -55.5974 -55.5939 -55.5637 -54.8066 -54.8064
   -32.2816 -32.1461 -32.1353 -32.1305 -32.1078 -32.0807 -32.0780 -32.0505
   -32.0163 -32.0024 -31.9923 -31.9818 -31.9756 -31.9733 -31.9645 -31.9612
   -31.9606 -31.9508 -31.9492 -31.9322 -31.9241 -31.9175 -31.9101 -31.8995
   -31.8975 -31.8946 -31.8931 -31.8710 -31.8569 -31.8540 -31.8507 -31.8376
   -31.8362 -31.8340 -31.8321 -31.8218 -31.8119 -31.8007 -31.7936 -31.7828
   -31.7679 -31.6421 -31.1309 -31.1305 -31.0443 -31.0434 -31.0049 -31.0041
   -19.5547 -16.1947 -15.9374 -15.9178 -15.8658 -15.8002 -15.6987 -15.6957
   -15.6354 -15.6036 -15.5391 -15.5103 -15.4758 -15.4334 -15.3611 -15.3585
   -15.3488 -15.2720 -15.2587 -15.2474 -15.2091 -15.2047 -15.1857 -15.1741
   -15.1390 -15.1350 -15.1182 -15.0932 -15.0800 -15.0321 -13.3109 -13.3070
    -9.6079  -6.4419  -4.1895  -3.8660  -3.2867  -3.2209  -3.1081  -3.0467
    -3.0044  -2.9961  -2.9671  -2.9607  -2.9357  -2.9184  -2.9116  -2.8959
    -2.8764  -2.8270  -2.7941  -2.7559  -2.7459  -2.7213  -2.7108  -2.6767
    -2.6354  -2.6034  -2.5872  -2.5283  -2.5024  -2.4526  -2.4369  -2.3390
    -2.2245  -2.1598  -2.0923  -2.0141  -1.8856  -1.8448  -1.8112  -1.7594
    -1.7185  -1.6855  -1.6555  -1.6020  -1.5830  -1.5717  -1.5527  -1.5223
    -1.4655  -1.4445  -1.3805  -1.3730  -1.2283  -1.2104  -1.0260  -0.9954
    -0.9726  -0.9363  -0.8685  -0.8220  -0.7885  -0.6715  -0.6312  -0.6012
    -0.5818  -0.5611  -0.5264  -0.5010  -0.4675  -0.4366  -0.4265  -0.3899
    -0.3819  -0.3763  -0.2868  -0.2640  -0.2359  -0.1390  -0.1207  -0.0779
     0.0260   0.0438   0.2189   0.2583   0.2801   0.2952   0.3221   0.4073
     0.4636   0.5078   0.6202   0.6745   0.8309   0.8909   1.2484   1.5447
     1.5507   1.6550   1.6584   3.5614   3.6487   3.7040   3.7266   3.7635
     3.8648   3.8728   3.9178   3.9268   3.9616

          k = 0.0380-0.0419 0.0000 ( 17876 PWs)   bands (ev):

   -55.8445 -55.8156 -55.7547 -55.7416 -55.6943 -55.6853 -55.6664 -55.6614
   -55.6298 -55.6166 -55.6094 -55.5907 -55.5855 -55.5624 -54.8185 -54.7945
   -32.3236 -32.2702 -32.1827 -32.1534 -32.1425 -32.1134 -32.0796 -32.0702
   -32.0524 -32.0473 -32.0213 -32.0018 -31.9894 -31.9876 -31.9771 -31.9655
   -31.9516 -31.9284 -31.9248 -31.9216 -31.9034 -31.9007 -31.8848 -31.8816
   -31.8663 -31.8630 -31.8448 -31.8396 -31.8354 -31.8346 -31.8254 -31.8179
   -31.8173 -31.8117 -31.8079 -31.8015 -31.7966 -31.7933 -31.7711 -31.7675
   -31.7625 -31.6417 -31.1764 -31.1405 -31.1209 -31.0350 -30.9742 -30.9070
   -19.5573 -16.3550 -16.1410 -16.0488 -15.9346 -15.8278 -15.7607 -15.7230
   -15.6025 -15.5638 -15.5246 -15.5023 -15.4689 -15.4360 -15.4240 -15.3882
   -15.3302 -15.3078 -15.3023 -15.2214 -15.2060 -15.1786 -15.1613 -15.0981
   -15.0882 -15.0581 -15.0292 -15.0125 -14.9797 -14.8421 -13.3255 -13.2467
    -9.6098  -6.4464  -4.1842  -3.9233  -3.5389  -3.4489  -3.3737  -3.3472
    -3.2866  -3.2295  -3.1314  -3.0579  -2.9922  -2.9839  -2.9337  -2.8744
    -2.8247  -2.7627  -2.7394  -2.7319  -2.6543  -2.6463  -2.6124  -2.5670
    -2.5598  -2.5434  -2.5120  -2.4765  -2.4589  -2.4218  -2.3347  -2.3141
    -2.2744  -2.2470  -2.1758  -2.1418  -2.0573  -1.9594  -1.9382  -1.8477
    -1.7751  -1.7309  -1.6293  -1.5522  -1.4948  -1.4593  -1.3961  -1.3224
    -1.2609  -1.2119  -1.1766  -1.1205  -1.0783  -1.0404  -1.0089  -0.9885
    -0.9351  -0.8912  -0.8460  -0.7922  -0.7682  -0.7216  -0.6667  -0.6329
    -0.5842  -0.5682  -0.5426  -0.5335  -0.4810  -0.4470  -0.4258  -0.3907
    -0.3618  -0.2973  -0.2781  -0.2106  -0.1237  -0.1037  -0.0534  -0.0091
     0.0296   0.0736   0.1813   0.2641   0.3246   0.3493   0.4271   0.4850
     0.5205   0.5470   0.6190   0.7351   0.7840   1.0682   1.2738   1.4022
     1.4853   1.6497   1.7181   3.4742   3.5346   3.5895   3.6557   3.7381
     3.7573   3.7929   3.8457   3.8758   3.8888

          k =-0.0760-0.0000 0.0000 ( 17886 PWs)   bands (ev):

   -55.8488 -55.8113 -55.7567 -55.7445 -55.6913 -55.6833 -55.6683 -55.6638
   -55.6330 -55.6151 -55.6130 -55.5872 -55.5807 -55.5611 -54.8235 -54.7895
   -32.3593 -32.3250 -32.2379 -32.2039 -32.1580 -32.1328 -32.1294 -32.1048
   -32.0875 -32.0592 -32.0345 -31.9980 -31.9860 -31.9637 -31.9554 -31.9465
   -31.9449 -31.9340 -31.9128 -31.9084 -31.8983 -31.8914 -31.8696 -31.8547
   -31.8513 -31.8509 -31.8474 -31.8444 -31.8415 -31.8354 -31.8190 -31.8123
   -31.8041 -31.7909 -31.7876 -31.7833 -31.7823 -31.7636 -31.7459 -31.7330
   -31.7188 -31.6420 -31.2300 -31.1479 -31.1156 -31.0475 -30.9613 -30.8499
   -19.5595 -16.2978 -16.2531 -16.0994 -15.9544 -15.8239 -15.8205 -15.7412
   -15.6539 -15.6405 -15.6099 -15.6001 -15.5389 -15.5029 -15.4961 -15.4788
   -15.3837 -15.3110 -15.2159 -15.2020 -15.1504 -15.1089 -15.0802 -15.0494
   -15.0222 -14.9904 -14.9807 -14.9370 -14.8960 -14.7328 -13.3176 -13.2064
    -9.6145  -6.4481  -4.1861  -3.9707  -3.6228  -3.5937  -3.3693  -3.3509
    -3.2481  -3.2382  -3.1954  -3.1747  -3.1007  -3.0834  -3.0541  -3.0470
    -2.9893  -2.8010  -2.7726  -2.6588  -2.4809  -2.4457  -2.3877  -2.3725
    -2.3642  -2.3358  -2.3116  -2.2975  -2.2841  -2.2755  -2.2436  -2.1819
    -2.1590  -2.1334  -2.1064  -2.0836  -2.0676  -1.9915  -1.9691  -1.9274
    -1.8540  -1.6188  -1.6053  -1.5435  -1.4842  -1.4527  -1.4502  -1.4202
    -1.4062  -1.3759  -1.3031  -1.2992  -1.2911  -1.2400  -1.1873  -1.1501
    -1.1121  -1.0701  -0.9889  -0.9866  -0.9294  -0.7193  -0.6560  -0.6048
    -0.5851  -0.4916  -0.4472  -0.4232  -0.3932  -0.3780  -0.2773  -0.2556
    -0.2431  -0.2253  -0.1878  -0.1277  -0.1095  -0.0575  -0.0179   0.0038
     0.0634   0.1034   0.1415   0.2056   0.2549   0.3000   0.3833   0.4394
     0.5676   0.6177   0.7758   0.8503   0.8557   1.1506   1.2343   1.3150
     1.3318   1.5306   1.6824   3.3326   3.3443   3.4417   3.5425   3.5825
     3.6663   3.6970   3.7507   3.7620   3.8021

          k =-0.0760 0.0419 0.0000 ( 17914 PWs)   bands (ev):

   -55.8445 -55.8156 -55.7547 -55.7416 -55.6943 -55.6853 -55.6664 -55.6614
   -55.6296 -55.6166 -55.6096 -55.5906 -55.5857 -55.5624 -54.8185 -54.7945
   -32.3238 -32.2712 -32.1857 -32.1541 -32.1426 -32.1136 -32.0845 -32.0704
   -32.0535 -32.0519 -32.0215 -32.0021 -31.9856 -31.9777 -31.9769 -31.9515
   -31.9446 -31.9287 -31.9255 -31.9215 -31.9019 -31.8940 -31.8882 -31.8768
   -31.8629 -31.8477 -31.8462 -31.8429 -31.8422 -31.8381 -31.8332 -31.8285
   -31.8165 -31.8104 -31.8081 -31.8058 -31.7962 -31.7959 -31.7765 -31.7680
   -31.7664 -31.6423 -31.1762 -31.1433 -31.1202 -31.0351 -30.9742 -30.9071
   -19.5570 -16.2189 -16.1466 -16.0164 -15.8575 -15.7459 -15.7438 -15.6689
   -15.6207 -15.5918 -15.5761 -15.5722 -15.5310 -15.4988 -15.4494 -15.4410
   -15.3954 -15.3379 -15.2674 -15.2318 -15.2147 -15.1538 -15.1376 -15.1159
   -15.1131 -15.0848 -15.0239 -15.0111 -14.9756 -14.8432 -13.3234 -13.2470
    -9.6119  -6.4427  -4.1848  -3.9163  -3.4679  -3.4551  -3.1553  -3.1375
    -3.1036  -3.0297  -3.0084  -2.9535  -2.9431  -2.8808  -2.8773  -2.8600
    -2.8006  -2.7803  -2.7150  -2.6936  -2.6171  -2.6103  -2.5712  -2.5477
    -2.5135  -2.4950  -2.4529  -2.4241  -2.3874  -2.3441  -2.3311  -2.3133
    -2.2909  -2.2535  -2.2365  -2.0635  -1.9521  -1.9094  -1.8787  -1.8497
    -1.8068  -1.7355  -1.6370  -1.6152  -1.5128  -1.4428  -1.3804  -1.3599
    -1.3333  -1.3148  -1.2337  -1.2130  -1.1782  -1.1365  -1.1241  -1.0703
    -1.0432  -1.0200  -0.9925  -0.9667  -0.9409  -0.9003  -0.8458  -0.7873
    -0.7546  -0.7167  -0.6169  -0.5875  -0.5467  -0.5343  -0.4878  -0.4549
    -0.3944  -0.3630  -0.3228  -0.3098  -0.1752  -0.1517  -0.0925   0.0018
     0.0278   0.0986   0.1489   0.3247   0.3402   0.4243   0.4685   0.5500
     0.6163   0.6414   0.6691   0.7074   0.7848   0.8970   1.2778   1.4164
     1.4876   1.5733   1.7044   3.4814   3.5106   3.5446   3.5968   3.6541
     3.6605   3.7614   3.7952   3.9023   3.9235

          k =-0.0760-0.0839 0.0000 ( 17948 PWs)   bands (ev):

   -55.8381 -55.8221 -55.7526 -55.7382 -55.6979 -55.6874 -55.6648 -55.6584
   -55.6255 -55.6201 -55.5987 -55.5968 -55.5948 -55.5637 -54.8066 -54.8064
   -32.2819 -32.1468 -32.1354 -32.1312 -32.1078 -32.0832 -32.0785 -32.0511
   -32.0196 -32.0026 -31.9926 -31.9886 -31.9757 -31.9660 -31.9642 -31.9594
   -31.9579 -31.9502 -31.9480 -31.9321 -31.9302 -31.9224 -31.8991 -31.8959
   -31.8914 -31.8849 -31.8827 -31.8727 -31.8647 -31.8586 -31.8444 -31.8421
   -31.8331 -31.8242 -31.8221 -31.8126 -31.8095 -31.8074 -31.8056 -31.7933
   -31.7896 -31.6429 -31.1318 -31.1314 -31.0443 -31.0433 -31.0049 -31.0042
   -19.5545 -16.1418 -15.9573 -15.8034 -15.7897 -15.7839 -15.6323 -15.6287
   -15.6038 -15.5675 -15.5343 -15.5163 -15.4785 -15.4742 -15.4309 -15.3794
   -15.3730 -15.3610 -15.3344 -15.2834 -15.2711 -15.2562 -15.1793 -15.1684
   -15.1601 -15.1338 -15.1309 -15.0993 -15.0984 -15.0252 -13.3107 -13.3068
    -9.6094  -6.4375  -4.1885  -3.8638  -3.2818  -3.2085  -3.0161  -3.0011
    -2.9268  -2.8918  -2.8658  -2.8257  -2.7754  -2.7685  -2.7538  -2.6793
    -2.6555  -2.6510  -2.6063  -2.5933  -2.5831  -2.5665  -2.5529  -2.5158
    -2.4926  -2.4683  -2.4451  -2.4299  -2.4081  -2.3994  -2.3947  -2.3485
    -2.3283  -2.2068  -2.1174  -2.0546  -2.0068  -1.9673  -1.9414  -1.9227
    -1.9050  -1.8903  -1.8773  -1.8377  -1.7675  -1.6030  -1.5239  -1.5189
    -1.4547  -1.4359  -1.3850  -1.3653  -1.2894  -1.2553  -1.2010  -1.1970
    -1.1819  -1.0788  -1.0541  -0.9667  -0.9282  -0.8240  -0.8007  -0.7873
    -0.7682  -0.7257  -0.7042  -0.6411  -0.6201  -0.5809  -0.5527  -0.5020
    -0.4568  -0.4401  -0.3410  -0.3010  -0.2477  -0.2010  -0.1332  -0.0239
     0.1543   0.1764   0.2118   0.3164   0.3554   0.4267   0.4833   0.5020
     0.5659   0.6025   0.6463   0.6953   0.7585   0.7947   1.2237   1.5625
     1.5711   1.6356   1.6473   3.6012   3.6506   3.7700   3.7830   3.8128
     3.8235   3.8366   3.8519   3.9011   3.9551

     the Fermi energy is     3.2923 ev

!    total energy              =   -2931.32918143 Ry
     estimated scf accuracy    <       0.00000006 Ry
     smearing contrib. (-TS)   =      -0.02172914 Ry
     internal energy E=F+TS    =   -2931.30745228 Ry

     The total energy is F=E-TS. E is the sum of the following terms:
     one-electron contribution =  -24946.64671982 Ry
     hartree contribution      =   12559.73496839 Ry
     xc contribution           =    -482.03829657 Ry
     ewald contribution        =    9937.64087863 Ry
     electric field correction =       0.00171709 Ry

     convergence has been achieved in  88 iterations

     Forces acting on atoms (cartesian axes, Ry/au):

     atom    1 type  1   force =    -0.00001276    0.00009993    0.10312058
     atom    2 type  1   force =     0.00000517    0.00011278    0.10345944
     atom    3 type  2   force =    -0.00028908    0.00098842    0.09592121
     atom    4 type  2   force =    -0.00014963   -0.00100698    0.10946705
     atom    5 type  2   force =    -0.00015116   -0.00318698   -0.17642507
     atom    6 type  2   force =    -0.00014412    0.00266888   -0.17603117
     atom    7 type  1   force =    -0.07085564    0.00114037   -0.02852251
     atom    8 type  1   force =    -0.07120181   -0.00152717   -0.02855287
     atom    9 type  1   force =     0.07070176    0.00155468   -0.02855197
     atom   10 type  1   force =     0.07092083   -0.00115117   -0.02859740
     atom   11 type  1   force =     0.00048615   -0.00020818    0.05107491
     atom   12 type  1   force =     0.00072235   -0.00042232    0.05034620
     atom   13 type  1   force =     0.00061192    0.00264907   -0.02978876
     atom   14 type  1   force =     0.00055667   -0.00112113   -0.02626489
     atom   15 type  2   force =     0.00019818   -0.00146499   -0.00050742
     atom   16 type  2   force =    -0.00010070    0.00156700   -0.00010689
     atom   17 type  2   force =    -0.00008205   -0.00004076    0.00029712
     atom   18 type  2   force =     0.00008584    0.00060227    0.00040627
     atom   19 type  1   force =    -0.01648650    0.00013295    0.00404796
     atom   20 type  1   force =    -0.01693911   -0.00138208    0.00404800
     atom   21 type  1   force =     0.01271941    0.00185565    0.00029122
     atom   22 type  1   force =     0.01237115    0.00142370    0.00045894
     atom   23 type  1   force =     0.00020286   -0.00009438   -0.00060189
     atom   24 type  1   force =     0.00017458   -0.00040795   -0.00046923
     atom   25 type  1   force =     0.00035384   -0.00003735   -0.00002668
     atom   26 type  1   force =     0.00006882   -0.00043151   -0.00069490
     atom   27 type  2   force =    -0.00001073   -0.00059398   -0.00027681
     atom   28 type  2   force =     0.00016253    0.00007760   -0.00028225
     atom   29 type  2   force =    -0.00012823   -0.00112044    0.00031623
     atom   30 type  2   force =     0.00035801    0.00034782    0.00016544
     atom   31 type  1   force =     0.00013857    0.00005777   -0.00006680
     atom   32 type  1   force =    -0.00010584   -0.00034833    0.00039369
     atom   33 type  1   force =     0.00023067   -0.00016884   -0.00013221
     atom   34 type  1   force =     0.00050154   -0.00038005    0.00025271
     atom   35 type  1   force =    -0.00015094    0.00013392    0.00171622
     atom   36 type  1   force =     0.00035472    0.00014368    0.00034900
     atom   37 type  1   force =     0.00014723   -0.00000062   -0.00003543
     atom   38 type  1   force =     0.00044352   -0.00037911    0.00015975
     atom   39 type  2   force =     0.00091908    0.00132498   -0.00226625
     atom   40 type  2   force =     0.00040664   -0.00026921    0.00006662
     atom   41 type  2   force =    -0.00003316   -0.00087603    0.00020606
     atom   42 type  2   force =     0.00010266    0.00061115   -0.00023309
     atom   43 type  1   force =     0.00081319    0.00040073   -0.00034383
     atom   44 type  1   force =     0.00047568   -0.00039608   -0.00030563
     atom   45 type  1   force =     0.00020723   -0.00005311    0.00010113
     atom   46 type  1   force =     0.00047607   -0.00024724    0.00027200
     atom   47 type  1   force =     0.00051220    0.00041686   -0.00036797
     atom   48 type  1   force =    -0.00127528   -0.00011080   -0.00234922
     atom   49 type  3   force =     0.00091205   -0.00046530    0.00040855
     atom   50 type  4   force =     0.00040268   -0.00061049    0.01342582
     atom   51 type  3   force =     0.00026538    0.00415298   -0.00450751
     atom   52 type  3   force =     0.00010753   -0.00396062   -0.00446349

     Total force =     0.368747     Total SCF correction =     0.000812
  @ DRIVER MODE: Message from server: STATUS
  @ DRIVER MODE: Message from server: GETFORCE
  @ DRIVER MODE: Returning v,forces,stress,ensemble 

     Writing output data file ./calc.save/
  @ DRIVER MODE: Message from server: EXIT
  @ DRIVE MODE: Exiting  
 
     init_run     :     10.89s CPU     11.80s WALL (       1 calls)
     electrons    :   1348.53s CPU   1417.92s WALL (       1 calls)
     forces       :      2.25s CPU      2.40s WALL (       1 calls)

     Called by init_run:
     wfcinit      :      5.01s CPU      5.24s WALL (       1 calls)
     potinit      :      5.30s CPU      5.67s WALL (       1 calls)
     hinit0       :      0.24s CPU      0.35s WALL (       1 calls)

     Called by electrons:
     c_bands      :   1141.59s CPU   1192.98s WALL (      88 calls)
     sum_band     :    139.32s CPU    148.37s WALL (      88 calls)
     v_of_rho     :     49.43s CPU     53.22s WALL (      89 calls)
     newd         :     19.67s CPU     24.54s WALL (      89 calls)
     mix_rho      :      2.38s CPU      2.62s WALL (      88 calls)
     vdW_kernel   :      4.53s CPU      4.77s WALL (       1 calls)

     Called by c_bands:
     init_us_2    :      7.76s CPU      8.22s WALL (    1780 calls)
     cegterg      :   1118.49s CPU   1168.20s WALL (     880 calls)

     Called by *egterg:
     cdiaghg      :    206.44s CPU    214.31s WALL (    9820 calls)
     h_psi        :    583.14s CPU    610.69s WALL (    9830 calls)
     s_psi        :     78.46s CPU     81.67s WALL (    9830 calls)
     g_psi        :      2.04s CPU      2.15s WALL (    8940 calls)

     Called by h_psi:
     h_psi:calbec :     73.78s CPU     77.25s WALL (    9830 calls)
     vloc_psi     :    426.86s CPU    446.99s WALL (    9830 calls)
     add_vuspsi   :     79.06s CPU     82.56s WALL (    9830 calls)

     General routines
     calbec       :     97.83s CPU    102.10s WALL (   10750 calls)
     fft          :     26.40s CPU     27.14s WALL (    5607 calls)
     ffts         :      0.26s CPU      0.28s WALL (     177 calls)
     fftw         :    485.55s CPU    507.76s WALL ( 1131898 calls)
     interpolate  :      0.69s CPU      0.75s WALL (      89 calls)
     davcio       :      0.00s CPU      0.39s WALL (      10 calls)
 
     Parallel routines
 
     PWSCF        :  40m 4.06s CPU  53m28.76s WALL

 
   This run was terminated on:  23:49: 0  10Sep2021            

=------------------------------------------------------------------------------=
   JOB DONE.
=------------------------------------------------------------------------------=
