
     Program PWSCF v.6.7GPU starts on 24Aug2021 at 22:51:59 

     This program is part of the open-source Quantum ESPRESSO suite
     for quantum simulation of materials; please cite
         "P. Giannozzi et al., J. Phys.:Condens. Matter 21 395502 (2009);
         "P. Giannozzi et al., J. Phys.:Condens. Matter 29 465901 (2017);
         "P. Giannozzi et al., J. Chem. Phys. 152 154105 (2020);
          URL http://www.quantum-espresso.org", 
     in publications or presentations arising from this work. More details at
     http://www.quantum-espresso.org/quote

     Parallel version (MPI), running on     6 processors

     MPI processes distributed on     1 nodes
     R & G space division:  proc/nbgrp/npool/nimage =       6
     Reading input from /storage/home/hcoda1/3/ntian30/research/carbon/CH3_vib_end_on/ads_slab/CH3N2H_a/out_0013/pw.inp
Warning: card &CELL ignored
Warning: card   CELL_DYNAMICS='IPI', ignored
Warning: card / ignored

     Current dimensions of program PWSCF are:
     Max number of different atomic species (ntypx) = 10
     Max number of k-points (npk) =  40000
     Max angular momentum in pseudopotentials (lmaxx) =  3
     Presently no symmetry can be used with electric field

     Message from routine cell_base_init:
     DEPRECATED: use true lattice parameter, not A to a.u. conversion factor

     **************************************************************************
     Initializing libbeef V0.1.2 with the BEEF-vdW functional.
     Citation: Wellendorff et al., PRB 85, 235149 (2012).
     **************************************************************************


     IMPORTANT: XC functional enforced from input :
     Exchange-correlation= BEEF-VDW
                           (   1   4  43  14   2   0   0)
     Any further DFT definition will be discarded
     Please, verify this is what you really want


     Subspace diagonalization in iterative solution of the eigenvalue problem:
     one sub-group per band group will be used
     scalapack distributed-memory algorithm (size of sub-group:  2*  2 procs)

  @ DRIVER MODE: Connecting to 
 qe_1139763_2643869.sched-torque.pace.gatech.edu0hl5_dan_scratch
  using UNIX socket
  @ DRIVER MODE: Message from server: STATUS
  @ DRIVER MODE: Message from server: INIT
  @ DRIVER MODE: Receiving replica           0          -1
  @ DRIVER MODE: Receiving encoded integer          25
  @ DRIVER MODE:  SCF:  T  FORCE:  T  STRESS:  F  VC:  F  ENSEMBLE:  F
  @ DRIVER MODE:  SCF:  T  FORCE:  T  STRESS:  F  VC:  F  ENSEMBLE:  F
 
     Parallelization info
     --------------------
     sticks:   dense  smooth     PW     G-vecs:    dense   smooth      PW
     Min         545     219     63                94473    23902    3663
     Max         546     222     64                94484    23905    3665
     Sum        3275    1317    379               566857   143421   21985
 
     Using Slab Decomposition
 


     bravais-lattice index     =            0
     lattice parameter (alat)  =       1.8897  a.u.
     unit-cell volume          =    6658.9804 (a.u.)^3
     number of atoms/cell      =           54
     number of atomic types    =            5
     number of electrons       =       396.00
     number of Kohn-Sham states=          208
     kinetic-energy cutoff     =      29.3995  Ry
     charge density cutoff     =     293.9946  Ry
     scf convergence threshold =      7.3E-08
     mixing beta               =       0.0500
     number of iterations used =            8  plain     mixing
     Exchange-correlation= BEEF-VDW
                           (   1   4  43  14   2   0   0)

     celldm(1)=   1.889726  celldm(2)=   0.000000  celldm(3)=   0.000000
     celldm(4)=   0.000000  celldm(5)=   0.000000  celldm(6)=   0.000000

     crystal axes: (cart. coord. in units of alat)
               a(1) = (   6.579727   0.000000   0.000000 )  
               a(2) = (  -0.000775   5.961596   0.000000 )  
               a(3) = (   0.000000   0.000000  25.155947 )  

     reciprocal axes: (cart. coord. in units 2 pi/alat)
               b(1) = (  0.151982  0.000020  0.000000 )  
               b(2) = (  0.000000  0.167740  0.000000 )  
               b(3) = (  0.000000  0.000000  0.039752 )  


     PseudoPot. # 1 for Ti read from file:
     /storage/coda1/p-amedford6/0/shared/rich_project_chbe-medford/medford-share/data/pseudos_module/espresso/nninc/pbe/van/Ti.UPF
     MD5 check sum: 8e4df49b7f0d34bbd5052bf3f5ea0213
     Pseudo is Ultrasoft, Zval = 12.0
     Generated by new atomic code, or converted to UPF format
     Using radial grid of  851 points,  6 beta functions with: 
                l(1) =   0
                l(2) =   0
                l(3) =   1
                l(4) =   1
                l(5) =   2
                l(6) =   2
     Q(r) pseudized with  8 coefficients,  rinner =    1.000   1.000   1.000
                                                       1.000   1.000

     PseudoPot. # 2 for O  read from file:
     /storage/coda1/p-amedford6/0/shared/rich_project_chbe-medford/medford-share/data/pseudos_module/espresso/nninc/pbe/van/O.UPF
     MD5 check sum: 78c19812648e8988a0fe644b0f25305e
     Pseudo is Ultrasoft, Zval =  6.0
     Generated by new atomic code, or converted to UPF format
     Using radial grid of  737 points,  4 beta functions with: 
                l(1) =   0
                l(2) =   0
                l(3) =   1
                l(4) =   1
     Q(r) pseudized with  8 coefficients,  rinner =    0.800   0.800   0.800


     PseudoPot. # 3 for N  read from file:
     /storage/coda1/p-amedford6/0/shared/rich_project_chbe-medford/medford-share/data/pseudos_module/espresso/nninc/pbe/van/N.UPF
     MD5 check sum: 90d10febe142ad51ac9d5be1deb811c4
     Pseudo is Ultrasoft, Zval =  5.0
     Generated by new atomic code, or converted to UPF format
     Using radial grid of  729 points,  4 beta functions with: 
                l(1) =   0
                l(2) =   0
                l(3) =   1
                l(4) =   1
     Q(r) pseudized with  8 coefficients,  rinner =    0.800   0.800   0.800


     PseudoPot. # 4 for C  read from file:
     /storage/coda1/p-amedford6/0/shared/rich_project_chbe-medford/medford-share/data/pseudos_module/espresso/nninc/pbe/van/C.UPF
     MD5 check sum: 1a69bf6b8db32088f5b2163dbdb77a27
     Pseudo is Ultrasoft, Zval =  4.0
     Generated by new atomic code, or converted to UPF format
     Using radial grid of  721 points,  4 beta functions with: 
                l(1) =   0
                l(2) =   0
                l(3) =   1
                l(4) =   1
     Q(r) pseudized with  8 coefficients,  rinner =    0.800   0.800   0.800


     PseudoPot. # 5 for H  read from file:
     /storage/coda1/p-amedford6/0/shared/rich_project_chbe-medford/medford-share/data/pseudos_module/espresso/nninc/pbe/van/H.UPF
     MD5 check sum: b5ee9d7bfd3a09ee7748110bda690ff7
     Pseudo is Ultrasoft, Zval =  1.0
     Generated by new atomic code, or converted to UPF format
     Using radial grid of  615 points,  1 beta functions with: 
                l(1) =   0
     Q(r) pseudized with  8 coefficients,  rinner =    0.800

     atomic species   valence    mass     pseudopotential
        Ti1           12.00    47.86700     Ti( 1.00)
        O1             6.00    15.99900     O ( 1.00)
        N1             5.00    14.00700     N ( 1.00)
        C1             4.00    12.01100     C ( 1.00)
        H1             1.00     1.00800     H ( 1.00)

     No symmetry found



   Cartesian axes

     site n.     atom                  positions (alat units)
         1           Ti1 tau(   1) = (   0.0004258   2.9801865   6.0000000  )
         2           Ti1 tau(   2) = (   3.2906075   1.4906267   6.0002472  )
         3           O1  tau(   3) = (   0.0006271   0.0005054   7.9858123  )
         4           O1  tau(   4) = (   3.2906025   0.0005020   7.3038282  )
         5           O1  tau(   5) = (   4.5942328   1.4918067   9.2879030  )
         6           O1  tau(   6) = (   1.9868534   1.4903216   9.2879459  )
         7           Ti1 tau(   7) = (   3.2907910   2.8959150   9.1758416  )
         8           Ti1 tau(   8) = (   0.0015273   1.4827037   9.2680791  )
         9           O1  tau(   9) = (   3.2896288   0.0042867  11.3205077  )
        10           O1  tau(  10) = (   0.0116148   5.9584955  10.6183126  )
        11           O1  tau(  11) = (   1.2848067   1.4985890  12.6232755  )
        12           O1  tau(  12) = (   5.2688617   1.4893877  12.6055203  )
        13           Ti1 tau(  13) = (   0.0799559   3.0171279  12.6206390  )
        14           Ti1 tau(  14) = (   3.4009582   1.4891986  12.4726338  )
        15           O1  tau(  15) = (   6.5707323   0.0080309  14.6263129  )
        16           O1  tau(  16) = (   3.2902489   0.0120312  13.8979102  )
        17           O1  tau(  17) = (   4.5126121   1.5346005  16.0500440  )
        18           O1  tau(  18) = (   2.0453867   1.5362785  16.0447169  )
        19           Ti1 tau(  19) = (   3.2767562   3.0203775  15.6892921  )
        20           Ti1 tau(  20) = (   6.5596632   1.5778499  15.8310978  )
        21           O1  tau(  21) = (   3.2904802   0.0005063   4.7018136  )
        22           O1  tau(  22) = (   6.5709656   0.0671247  17.2345223  )
        23           O1  tau(  23) = (   1.3043587   1.4918075   6.0039043  )
        24           O1  tau(  24) = (   5.2767064   1.4903225   6.0039473  )
        25           Ti1 tau(  25) = (   0.0000382   5.9609847   6.0000000  )
        26           Ti1 tau(  26) = (   3.2902200   4.4714249   6.0002472  )
        27           O1  tau(  27) = (   0.0002396   2.9813036   7.9858123  )
        28           O1  tau(  28) = (   3.2902150   2.9813002   7.3038282  )
        29           O1  tau(  29) = (   4.5938453   4.4726049   9.2879030  )
        30           O1  tau(  30) = (   1.9864658   4.4711199   9.2879459  )
        31           Ti1 tau(  31) = (   3.2891106   5.8743827   9.1763621  )
        32           Ti1 tau(  32) = (   0.0006254   4.4649316   9.2693709  )
        33           O1  tau(  33) = (   3.2919429   2.9835650  11.3172650  )
        34           O1  tau(  34) = (   0.0092240   2.9805883  10.6323155  )
        35           O1  tau(  35) = (   1.2842535   4.4799506  12.6241420  )
        36           O1  tau(  36) = (   5.2755836   4.4732255  12.6042992  )
        37           Ti1 tau(  37) = (   0.0783641   0.0295629  12.6394962  )
        38           Ti1 tau(  38) = (   3.4022659   4.4693352  12.4708195  )
        39           O1  tau(  39) = (   6.5693815   2.9799975  14.6326336  )
        40           O1  tau(  40) = (   3.2899495   3.0014797  13.8849495  )
        41           O1  tau(  41) = (   4.5062741   4.5069571  16.0893315  )
        42           O1  tau(  42) = (   2.0480812   4.5060041  16.0753496  )
        43           Ti1 tau(  43) = (   3.2742444   0.0367023  15.7020416  )
        44           Ti1 tau(  44) = (   6.5658628   4.6518251  16.1481936  )
        45           O1  tau(  45) = (   3.2900926   2.9813045   4.7018136  )
        46           O1  tau(  46) = (   1.3039711   4.4726057   6.0039043  )
        47           O1  tau(  47) = (   5.2763189   4.4711207   6.0039473  )
        48           N1  tau(  48) = (   6.5201982   2.6597193  18.5868863  )
        49           N1  tau(  49) = (   6.5663212   2.9659568  17.3251533  )
        50           C1  tau(  50) = (   0.0992964   3.6297355  19.6533281  )
        51           H1  tau(  51) = (   6.1365678   4.5355971  19.4091500  )
        52           H1  tau(  52) = (   6.3142024   3.1981282  20.5813133  )
        53           H1  tau(  53) = (   1.1661384   3.8973747  19.7839464  )
        54           H1  tau(  54) = (   6.5756389   1.6632157  18.8047554  )

     number of k points=    10  Fermi-Dirac smearing, width (Ry)=  0.0073
                       cart. coord. in units 2pi/alat
        k(    1) = (   0.0000000   0.0000000   0.0000000), wk =   0.1250000
        k(    2) = (   0.0000000   0.0419351   0.0000000), wk =   0.2500000
        k(    3) = (   0.0000000  -0.0838702   0.0000000), wk =   0.1250000
        k(    4) = (   0.0379955   0.0000049   0.0000000), wk =   0.2500000
        k(    5) = (   0.0379955   0.0419400   0.0000000), wk =   0.2500000
        k(    6) = (   0.0379955  -0.0838652   0.0000000), wk =   0.2500000
        k(    7) = (   0.0379955  -0.0419301   0.0000000), wk =   0.2500000
        k(    8) = (  -0.0759910  -0.0000099   0.0000000), wk =   0.1250000
        k(    9) = (  -0.0759910   0.0419252   0.0000000), wk =   0.2500000
        k(   10) = (  -0.0759910  -0.0838800   0.0000000), wk =   0.1250000

     Dense  grid:   566857 G-vectors     FFT dimensions: (  72,  64, 270)

     Smooth grid:   143421 G-vectors     FFT dimensions: (  45,  40, 180)

     Estimated max dynamical RAM per process >     601.53 MB

     Estimated total dynamical RAM >       3.52 GB
     Cannot read rho : file not found

     Initial potential from superposition of free atoms

     starting charge  379.99915, renormalised to  396.00000

     negative rho (up, down):  1.474E-02 0.000E+00


     %%%%%%%%%%%%%%%%%%%%%%%%%%%%%%%%%%%%%%%%%%%%%%%%%%%%%%%%%%%%%%%%%%%%%%%%
     %                                                                      %
     % You are using vdW-DF, which was implemented by the Thonhauser group. %
     % Please cite the following two papers that made this development      %
     % possible and the two reviews that describe the various versions:     %
     %                                                                      %
     %   T. Thonhauser et al., PRL 115, 136402 (2015).                      %
     %   T. Thonhauser et al., PRB 76, 125112 (2007).                       %
     %   K. Berland et al., Rep. Prog. Phys. 78, 066501 (2015).             %
     %   D.C. Langreth et al., J. Phys.: Condens. Matter 21, 084203 (2009). %
     %                                                                      %
     %                                                                      %
     % If you are calculating the stress with vdW-DF, please also cite:     %
     %                                                                      %
     %   R. Sabatini et al., J. Phys.: Condens. Matter 24, 424209 (2012).   %
     %                                                                      %
     %%%%%%%%%%%%%%%%%%%%%%%%%%%%%%%%%%%%%%%%%%%%%%%%%%%%%%%%%%%%%%%%%%%%%%%%


 
     Adding external electric field

     Computed dipole along edir(3) : 
        Dipole               -9.2704 Ry au,        -23.5631 Debye
        Dipole field         -0.0175 Ry au, 
 
        Potential amp.        1.6217 Ry
        Total length         46.3494 bohr
 
     Starting wfcs are  300 atomic wfcs
  @ DRIVER MODE: Message from server: STATUS
  @ DRIVER MODE: Message from server: POSDATA
  @ DRIVER MODE: Reading and sharing cell 
  @ DRIVER MODE: Reading and sharing positions 
  @ DRIVER MODE: Received positions 

     total cpu time spent up to now is       19.0 secs

     Self-consistent Calculation

     iteration #  1     ecut=    29.40 Ry     beta= 0.05
     Davidson diagonalization with overlap
     c_bands:  1 eigenvalues not converged
     c_bands:  1 eigenvalues not converged
     c_bands:  1 eigenvalues not converged
     ethr =  1.00E-05,  avg # of iterations = 17.9

     negative rho (up, down):  1.272E-02 0.000E+00
 
     Adding external electric field

     Computed dipole along edir(3) : 
        Dipole               40.1518 Ry au,        102.0558 Debye
        Dipole field          0.0758 Ry au, 
 
        Potential amp.       -7.0240 Ry
        Total length         46.3494 bohr
 

     total cpu time spent up to now is       81.8 secs

     total energy              =   -2585.37780773 Ry
     estimated scf accuracy    <    3946.16165551 Ry

     iteration #  2     ecut=    29.40 Ry     beta= 0.05
     Davidson diagonalization with overlap
     ethr =  1.00E-02,  avg # of iterations = 22.8

     negative rho (up, down):  3.676E-03 0.000E+00
 
     Adding external electric field

     Computed dipole along edir(3) : 
        Dipole               -3.1528 Ry au,         -8.0137 Debye
        Dipole field         -0.0059 Ry au, 
 
        Potential amp.        0.5515 Ry
        Total length         46.3494 bohr
 

     total cpu time spent up to now is      197.5 secs

     total energy              =   -2449.50108960 Ry
     estimated scf accuracy    <   66716.76871205 Ry

     iteration #  3     ecut=    29.40 Ry     beta= 0.05
     Davidson diagonalization with overlap
     c_bands:  1 eigenvalues not converged
     ethr =  1.00E-02,  avg # of iterations = 16.0

     negative rho (up, down):  3.744E-03 0.000E+00
 
     Adding external electric field

     Computed dipole along edir(3) : 
        Dipole               -4.9865 Ry au,        -12.6745 Debye
        Dipole field         -0.0094 Ry au, 
 
        Potential amp.        0.8723 Ry
        Total length         46.3494 bohr
 

     total cpu time spent up to now is      271.8 secs

     total energy              =   -2920.41474234 Ry
     estimated scf accuracy    <    4014.80103507 Ry

     iteration #  4     ecut=    29.40 Ry     beta= 0.05
     Davidson diagonalization with overlap
     c_bands:  3 eigenvalues not converged
     c_bands:  2 eigenvalues not converged
     c_bands:  3 eigenvalues not converged
     c_bands:  4 eigenvalues not converged
     c_bands:  5 eigenvalues not converged
     c_bands:  4 eigenvalues not converged
     c_bands:  1 eigenvalues not converged
     ethr =  1.00E-02,  avg # of iterations = 19.9

     negative rho (up, down):  3.780E-03 0.000E+00
 
     Adding external electric field

     Computed dipole along edir(3) : 
        Dipole               -5.8898 Ry au,        -14.9704 Debye
        Dipole field         -0.0111 Ry au, 
 
        Potential amp.        1.0303 Ry
        Total length         46.3494 bohr
 

     total cpu time spent up to now is      308.1 secs

     total energy              =   -2937.19944316 Ry
     estimated scf accuracy    <     414.78931144 Ry

     iteration #  5     ecut=    29.40 Ry     beta= 0.05
     Davidson diagonalization with overlap
     c_bands:  3 eigenvalues not converged
     ethr =  1.00E-02,  avg # of iterations =  4.4

     negative rho (up, down):  3.786E-03 0.000E+00
 
     Adding external electric field

     Computed dipole along edir(3) : 
        Dipole               -6.3517 Ry au,        -16.1444 Debye
        Dipole field         -0.0120 Ry au, 
 
        Potential amp.        1.1111 Ry
        Total length         46.3494 bohr
 

     total cpu time spent up to now is      327.2 secs

     total energy              =   -2936.30478585 Ry
     estimated scf accuracy    <     269.26116503 Ry

     iteration #  6     ecut=    29.40 Ry     beta= 0.05
     Davidson diagonalization with overlap
     ethr =  1.00E-02,  avg # of iterations =  3.1

     negative rho (up, down):  3.897E-03 0.000E+00
 
     Adding external electric field

     Computed dipole along edir(3) : 
        Dipole               -7.1533 Ry au,        -18.1819 Debye
        Dipole field         -0.0135 Ry au, 
 
        Potential amp.        1.2514 Ry
        Total length         46.3494 bohr
 

     total cpu time spent up to now is      345.3 secs

     total energy              =   -2933.32682430 Ry
     estimated scf accuracy    <     187.58466330 Ry

     iteration #  7     ecut=    29.40 Ry     beta= 0.05
     Davidson diagonalization with overlap
     c_bands:  1 eigenvalues not converged
     c_bands:  2 eigenvalues not converged
     ethr =  1.00E-02,  avg # of iterations =  9.6

     negative rho (up, down):  3.418E-03 0.000E+00
 
     Adding external electric field

     Computed dipole along edir(3) : 
        Dipole               -6.4701 Ry au,        -16.4453 Debye
        Dipole field         -0.0122 Ry au, 
 
        Potential amp.        1.1318 Ry
        Total length         46.3494 bohr
 

     total cpu time spent up to now is      370.4 secs

     total energy              =   -2941.43191811 Ry
     estimated scf accuracy    <      15.72235148 Ry

     iteration #  8     ecut=    29.40 Ry     beta= 0.05
     Davidson diagonalization with overlap
     ethr =  3.97E-03,  avg # of iterations =  2.9

     negative rho (up, down):  3.434E-03 0.000E+00
 
     Adding external electric field

     Computed dipole along edir(3) : 
        Dipole               -6.2897 Ry au,        -15.9868 Debye
        Dipole field         -0.0119 Ry au, 
 
        Potential amp.        1.1003 Ry
        Total length         46.3494 bohr
 

     total cpu time spent up to now is      389.6 secs

     total energy              =   -2942.86201176 Ry
     estimated scf accuracy    <      16.98633494 Ry

     iteration #  9     ecut=    29.40 Ry     beta= 0.05
     Davidson diagonalization with overlap
     ethr =  3.97E-03,  avg # of iterations =  1.1

     negative rho (up, down):  7.388E-03 0.000E+00
 
     Adding external electric field

     Computed dipole along edir(3) : 
        Dipole               -1.8756 Ry au,         -4.7672 Debye
        Dipole field         -0.0035 Ry au, 
 
        Potential amp.        0.3281 Ry
        Total length         46.3494 bohr
 

     total cpu time spent up to now is      406.3 secs

     total energy              =   -2941.07159361 Ry
     estimated scf accuracy    <      16.32642009 Ry

     iteration # 10     ecut=    29.40 Ry     beta= 0.05
     Davidson diagonalization with overlap
     c_bands:  1 eigenvalues not converged
     c_bands:  2 eigenvalues not converged
     c_bands:  1 eigenvalues not converged
     c_bands:  2 eigenvalues not converged
     c_bands:  4 eigenvalues not converged
     c_bands:  2 eigenvalues not converged
     ethr =  3.97E-03,  avg # of iterations = 15.3

     negative rho (up, down):  1.375E-02 0.000E+00
 
     Adding external electric field

     Computed dipole along edir(3) : 
        Dipole                0.3063 Ry au,          0.7785 Debye
        Dipole field          0.0006 Ry au, 
 
        Potential amp.       -0.0536 Ry
        Total length         46.3494 bohr
 

     total cpu time spent up to now is      436.3 secs

     total energy              =   -2965.09531428 Ry
     estimated scf accuracy    <    1140.91842553 Ry

     iteration # 11     ecut=    29.40 Ry     beta= 0.05
     Davidson diagonalization with overlap
     c_bands:  1 eigenvalues not converged
     c_bands:  2 eigenvalues not converged
     c_bands:  4 eigenvalues not converged
     c_bands:  4 eigenvalues not converged
     c_bands:  5 eigenvalues not converged
     c_bands:  3 eigenvalues not converged
     c_bands:  3 eigenvalues not converged
     c_bands:  4 eigenvalues not converged
     ethr =  3.97E-03,  avg # of iterations = 19.6

     negative rho (up, down):  9.468E-03 0.000E+00
 
     Adding external electric field

     Computed dipole along edir(3) : 
        Dipole               -1.5991 Ry au,         -4.0646 Debye
        Dipole field         -0.0030 Ry au, 
 
        Potential amp.        0.2797 Ry
        Total length         46.3494 bohr
 

     total cpu time spent up to now is      464.2 secs

     total energy              =   -2941.74065064 Ry
     estimated scf accuracy    <    2169.87435814 Ry

     iteration # 12     ecut=    29.40 Ry     beta= 0.05
     Davidson diagonalization with overlap
     ethr =  3.97E-03,  avg # of iterations =  3.4

     negative rho (up, down):  8.850E-03 0.000E+00
 
     Adding external electric field

     Computed dipole along edir(3) : 
        Dipole               -4.0292 Ry au,        -10.2413 Debye
        Dipole field         -0.0076 Ry au, 
 
        Potential amp.        0.7049 Ry
        Total length         46.3494 bohr
 

     total cpu time spent up to now is      482.9 secs

     total energy              =   -2920.17416104 Ry
     estimated scf accuracy    <    1342.26399207 Ry

     iteration # 13     ecut=    29.40 Ry     beta= 0.05
     Davidson diagonalization with overlap
     ethr =  3.97E-03,  avg # of iterations = 15.1

     negative rho (up, down):  9.906E-03 0.000E+00
 
     Adding external electric field

     Computed dipole along edir(3) : 
        Dipole               -2.2847 Ry au,         -5.8072 Debye
        Dipole field         -0.0043 Ry au, 
 
        Potential amp.        0.3997 Ry
        Total length         46.3494 bohr
 

     total cpu time spent up to now is      526.8 secs

     total energy              =   -2940.33312279 Ry
     estimated scf accuracy    <      13.24595235 Ry

     iteration # 14     ecut=    29.40 Ry     beta= 0.05
     Davidson diagonalization with overlap
     ethr =  3.34E-03,  avg # of iterations =  2.0

     negative rho (up, down):  9.960E-03 0.000E+00
 
     Adding external electric field

     Computed dipole along edir(3) : 
        Dipole               -1.5814 Ry au,         -4.0194 Debye
        Dipole field         -0.0030 Ry au, 
 
        Potential amp.        0.2766 Ry
        Total length         46.3494 bohr
 

     total cpu time spent up to now is      544.8 secs

     total energy              =   -2940.62235072 Ry
     estimated scf accuracy    <       2.81106898 Ry

     iteration # 15     ecut=    29.40 Ry     beta= 0.05
     Davidson diagonalization with overlap
     ethr =  7.10E-04,  avg # of iterations =  8.9

     negative rho (up, down):  9.816E-03 0.000E+00
 
     Adding external electric field

     Computed dipole along edir(3) : 
        Dipole               -2.4941 Ry au,         -6.3394 Debye
        Dipole field         -0.0047 Ry au, 
 
        Potential amp.        0.4363 Ry
        Total length         46.3494 bohr
 

     total cpu time spent up to now is      566.8 secs

     total energy              =   -2940.23655272 Ry
     estimated scf accuracy    <      23.83044116 Ry

     iteration # 16     ecut=    29.40 Ry     beta= 0.05
     Davidson diagonalization with overlap
     ethr =  7.10E-04,  avg # of iterations = 12.0

     negative rho (up, down):  8.030E-03 0.000E+00
 
     Adding external electric field

     Computed dipole along edir(3) : 
        Dipole               -2.3330 Ry au,         -5.9300 Debye
        Dipole field         -0.0044 Ry au, 
 
        Potential amp.        0.4081 Ry
        Total length         46.3494 bohr
 

     total cpu time spent up to now is      589.5 secs

     total energy              =   -2940.98487047 Ry
     estimated scf accuracy    <       7.47308192 Ry

     iteration # 17     ecut=    29.40 Ry     beta= 0.05
     Davidson diagonalization with overlap
     ethr =  7.10E-04,  avg # of iterations =  3.0

     negative rho (up, down):  8.607E-03 0.000E+00
 
     Adding external electric field

     Computed dipole along edir(3) : 
        Dipole               -1.8816 Ry au,         -4.7827 Debye
        Dipole field         -0.0036 Ry au, 
 
        Potential amp.        0.3292 Ry
        Total length         46.3494 bohr
 

     total cpu time spent up to now is      607.6 secs

     total energy              =   -2940.24776007 Ry
     estimated scf accuracy    <     155.33109190 Ry

     iteration # 18     ecut=    29.40 Ry     beta= 0.05
     Davidson diagonalization with overlap
     ethr =  7.10E-04,  avg # of iterations =  1.3

     negative rho (up, down):  8.391E-03 0.000E+00
 
     Adding external electric field

     Computed dipole along edir(3) : 
        Dipole               -0.5041 Ry au,         -1.2812 Debye
        Dipole field         -0.0010 Ry au, 
 
        Potential amp.        0.0882 Ry
        Total length         46.3494 bohr
 

     total cpu time spent up to now is      624.5 secs

     total energy              =   -2940.63157288 Ry
     estimated scf accuracy    <       9.93425023 Ry

     iteration # 19     ecut=    29.40 Ry     beta= 0.05
     Davidson diagonalization with overlap
     ethr =  7.10E-04,  avg # of iterations =  9.4

     negative rho (up, down):  7.410E-03 0.000E+00
 
     Adding external electric field

     Computed dipole along edir(3) : 
        Dipole               -0.3112 Ry au,         -0.7911 Debye
        Dipole field         -0.0006 Ry au, 
 
        Potential amp.        0.0544 Ry
        Total length         46.3494 bohr
 

     total cpu time spent up to now is      646.1 secs

     total energy              =   -2940.98381815 Ry
     estimated scf accuracy    <      31.65953224 Ry

     iteration # 20     ecut=    29.40 Ry     beta= 0.05
     Davidson diagonalization with overlap
     ethr =  7.10E-04,  avg # of iterations =  2.8

     negative rho (up, down):  6.817E-03 0.000E+00
 
     Adding external electric field

     Computed dipole along edir(3) : 
        Dipole               -0.6471 Ry au,         -1.6448 Debye
        Dipole field         -0.0012 Ry au, 
 
        Potential amp.        0.1132 Ry
        Total length         46.3494 bohr
 

     total cpu time spent up to now is      663.9 secs

     total energy              =   -2940.47525670 Ry
     estimated scf accuracy    <      23.94706126 Ry

     iteration # 21     ecut=    29.40 Ry     beta= 0.05
     Davidson diagonalization with overlap
     ethr =  7.10E-04,  avg # of iterations =  4.4

     negative rho (up, down):  6.485E-03 0.000E+00
 
     Adding external electric field

     Computed dipole along edir(3) : 
        Dipole               -0.0392 Ry au,         -0.0996 Debye
        Dipole field         -0.0001 Ry au, 
 
        Potential amp.        0.0069 Ry
        Total length         46.3494 bohr
 

     total cpu time spent up to now is      682.7 secs

     total energy              =   -2940.70713180 Ry
     estimated scf accuracy    <       3.35867002 Ry

     iteration # 22     ecut=    29.40 Ry     beta= 0.05
     Davidson diagonalization with overlap
     ethr =  7.10E-04,  avg # of iterations =  2.2

     negative rho (up, down):  5.197E-03 0.000E+00
 
     Adding external electric field

     Computed dipole along edir(3) : 
        Dipole                1.2303 Ry au,          3.1270 Debye
        Dipole field          0.0023 Ry au, 
 
        Potential amp.       -0.2152 Ry
        Total length         46.3494 bohr
 

     total cpu time spent up to now is      700.3 secs

     total energy              =   -2940.80685719 Ry
     estimated scf accuracy    <      15.19284377 Ry

     iteration # 23     ecut=    29.40 Ry     beta= 0.05
     Davidson diagonalization with overlap
     ethr =  7.10E-04,  avg # of iterations =  4.0

     negative rho (up, down):  5.436E-03 0.000E+00
 
     Adding external electric field

     Computed dipole along edir(3) : 
        Dipole                0.8491 Ry au,          2.1582 Debye
        Dipole field          0.0016 Ry au, 
 
        Potential amp.       -0.1485 Ry
        Total length         46.3494 bohr
 

     total cpu time spent up to now is      718.9 secs

     total energy              =   -2940.78389206 Ry
     estimated scf accuracy    <      12.07163462 Ry

     iteration # 24     ecut=    29.40 Ry     beta= 0.05
     Davidson diagonalization with overlap
     ethr =  7.10E-04,  avg # of iterations =  7.7

     negative rho (up, down):  5.799E-03 0.000E+00
 
     Adding external electric field

     Computed dipole along edir(3) : 
        Dipole                1.0237 Ry au,          2.6019 Debye
        Dipole field          0.0019 Ry au, 
 
        Potential amp.       -0.1791 Ry
        Total length         46.3494 bohr
 

     total cpu time spent up to now is      739.2 secs

     total energy              =   -2941.15631208 Ry
     estimated scf accuracy    <     173.70447589 Ry

     iteration # 25     ecut=    29.40 Ry     beta= 0.05
     Davidson diagonalization with overlap
     ethr =  7.10E-04,  avg # of iterations =  1.1

     negative rho (up, down):  5.894E-03 0.000E+00
 
     Adding external electric field

     Computed dipole along edir(3) : 
        Dipole                1.1150 Ry au,          2.8340 Debye
        Dipole field          0.0021 Ry au, 
 
        Potential amp.       -0.1950 Ry
        Total length         46.3494 bohr
 

     total cpu time spent up to now is      755.9 secs

     total energy              =   -2940.99041175 Ry
     estimated scf accuracy    <      87.72560932 Ry

     iteration # 26     ecut=    29.40 Ry     beta= 0.05
     Davidson diagonalization with overlap
     ethr =  7.10E-04,  avg # of iterations =  1.1

     negative rho (up, down):  5.996E-03 0.000E+00
 
     Adding external electric field

     Computed dipole along edir(3) : 
        Dipole                0.4371 Ry au,          1.1110 Debye
        Dipole field          0.0008 Ry au, 
 
        Potential amp.       -0.0765 Ry
        Total length         46.3494 bohr
 

     total cpu time spent up to now is      772.6 secs

     total energy              =   -2940.26337011 Ry
     estimated scf accuracy    <      33.68952696 Ry

     iteration # 27     ecut=    29.40 Ry     beta= 0.05
     Davidson diagonalization with overlap
     ethr =  7.10E-04,  avg # of iterations =  1.8

     negative rho (up, down):  5.597E-03 0.000E+00
 
     Adding external electric field

     Computed dipole along edir(3) : 
        Dipole                1.0964 Ry au,          2.7868 Debye
        Dipole field          0.0021 Ry au, 
 
        Potential amp.       -0.1918 Ry
        Total length         46.3494 bohr
 

     total cpu time spent up to now is      790.2 secs

     total energy              =   -2940.63303642 Ry
     estimated scf accuracy    <       6.39348181 Ry

     iteration # 28     ecut=    29.40 Ry     beta= 0.05
     Davidson diagonalization with overlap
     ethr =  7.10E-04,  avg # of iterations =  1.4

     negative rho (up, down):  5.571E-03 0.000E+00
 
     Adding external electric field

     Computed dipole along edir(3) : 
        Dipole                1.1612 Ry au,          2.9515 Debye
        Dipole field          0.0022 Ry au, 
 
        Potential amp.       -0.2031 Ry
        Total length         46.3494 bohr
 

     total cpu time spent up to now is      807.2 secs

     total energy              =   -2940.63063219 Ry
     estimated scf accuracy    <      11.14883192 Ry

     iteration # 29     ecut=    29.40 Ry     beta= 0.05
     Davidson diagonalization with overlap
     ethr =  7.10E-04,  avg # of iterations =  1.0

     negative rho (up, down):  5.691E-03 0.000E+00
 
     Adding external electric field

     Computed dipole along edir(3) : 
        Dipole                1.0582 Ry au,          2.6897 Debye
        Dipole field          0.0020 Ry au, 
 
        Potential amp.       -0.1851 Ry
        Total length         46.3494 bohr
 

     total cpu time spent up to now is      823.8 secs

     total energy              =   -2940.52881051 Ry
     estimated scf accuracy    <       6.65573802 Ry

     iteration # 30     ecut=    29.40 Ry     beta= 0.05
     Davidson diagonalization with overlap
     ethr =  7.10E-04,  avg # of iterations =  1.0

     negative rho (up, down):  5.920E-03 0.000E+00
 
     Adding external electric field

     Computed dipole along edir(3) : 
        Dipole                0.9043 Ry au,          2.2986 Debye
        Dipole field          0.0017 Ry au, 
 
        Potential amp.       -0.1582 Ry
        Total length         46.3494 bohr
 

     total cpu time spent up to now is      840.3 secs

     total energy              =   -2940.49272699 Ry
     estimated scf accuracy    <       2.34328172 Ry

     iteration # 31     ecut=    29.40 Ry     beta= 0.05
     Davidson diagonalization with overlap
     ethr =  5.92E-04,  avg # of iterations =  1.4

     negative rho (up, down):  6.013E-03 0.000E+00
 
     Adding external electric field

     Computed dipole along edir(3) : 
        Dipole                0.8423 Ry au,          2.1409 Debye
        Dipole field          0.0016 Ry au, 
 
        Potential amp.       -0.1473 Ry
        Total length         46.3494 bohr
 

     total cpu time spent up to now is      857.4 secs

     total energy              =   -2940.48299390 Ry
     estimated scf accuracy    <       1.71664414 Ry

     iteration # 32     ecut=    29.40 Ry     beta= 0.05
     Davidson diagonalization with overlap
     ethr =  4.33E-04,  avg # of iterations =  1.1

     negative rho (up, down):  6.000E-03 0.000E+00
 
     Adding external electric field

     Computed dipole along edir(3) : 
        Dipole                0.8210 Ry au,          2.0869 Debye
        Dipole field          0.0015 Ry au, 
 
        Potential amp.       -0.1436 Ry
        Total length         46.3494 bohr
 

     total cpu time spent up to now is      874.0 secs

     total energy              =   -2940.48678606 Ry
     estimated scf accuracy    <       1.51958305 Ry

     iteration # 33     ecut=    29.40 Ry     beta= 0.05
     Davidson diagonalization with overlap
     ethr =  3.84E-04,  avg # of iterations =  1.0

     negative rho (up, down):  6.112E-03 0.000E+00
 
     Adding external electric field

     Computed dipole along edir(3) : 
        Dipole                0.8305 Ry au,          2.1108 Debye
        Dipole field          0.0016 Ry au, 
 
        Potential amp.       -0.1453 Ry
        Total length         46.3494 bohr
 

     total cpu time spent up to now is      890.6 secs

     total energy              =   -2940.46013519 Ry
     estimated scf accuracy    <       1.37696012 Ry

     iteration # 34     ecut=    29.40 Ry     beta= 0.05
     Davidson diagonalization with overlap
     ethr =  3.48E-04,  avg # of iterations =  1.7

     negative rho (up, down):  6.103E-03 0.000E+00
 
     Adding external electric field

     Computed dipole along edir(3) : 
        Dipole                0.8176 Ry au,          2.0780 Debye
        Dipole field          0.0015 Ry au, 
 
        Potential amp.       -0.1430 Ry
        Total length         46.3494 bohr
 

     total cpu time spent up to now is      908.0 secs

     total energy              =   -2940.47331908 Ry
     estimated scf accuracy    <       0.82189190 Ry

     iteration # 35     ecut=    29.40 Ry     beta= 0.05
     Davidson diagonalization with overlap
     ethr =  2.08E-04,  avg # of iterations =  2.1

     negative rho (up, down):  7.484E-03 0.000E+00
 
     Adding external electric field

     Computed dipole along edir(3) : 
        Dipole                0.7105 Ry au,          1.8058 Debye
        Dipole field          0.0013 Ry au, 
 
        Potential amp.       -0.1243 Ry
        Total length         46.3494 bohr
 

     total cpu time spent up to now is      925.6 secs

     total energy              =   -2940.45214117 Ry
     estimated scf accuracy    <       0.72780437 Ry

     iteration # 36     ecut=    29.40 Ry     beta= 0.05
     Davidson diagonalization with overlap
     c_bands:  4 eigenvalues not converged
     c_bands:  3 eigenvalues not converged
     c_bands:  3 eigenvalues not converged
     c_bands:  3 eigenvalues not converged
     c_bands:  3 eigenvalues not converged
     c_bands:  4 eigenvalues not converged
     c_bands:  3 eigenvalues not converged
     c_bands:  3 eigenvalues not converged
     c_bands:  2 eigenvalues not converged
     ethr =  1.84E-04,  avg # of iterations = 21.9

     negative rho (up, down):  7.351E-03 0.000E+00
 
     Adding external electric field

     Computed dipole along edir(3) : 
        Dipole                0.7754 Ry au,          1.9709 Debye
        Dipole field          0.0015 Ry au, 
 
        Potential amp.       -0.1356 Ry
        Total length         46.3494 bohr
 

     total cpu time spent up to now is      956.9 secs

     total energy              =   -2940.52136800 Ry
     estimated scf accuracy    <       1.04147445 Ry

     iteration # 37     ecut=    29.40 Ry     beta= 0.05
     Davidson diagonalization with overlap
     c_bands:  2 eigenvalues not converged
     c_bands:  1 eigenvalues not converged
     ethr =  1.84E-04,  avg # of iterations =  9.0

     negative rho (up, down):  6.876E-03 0.000E+00
 
     Adding external electric field

     Computed dipole along edir(3) : 
        Dipole                0.8746 Ry au,          2.2229 Debye
        Dipole field          0.0017 Ry au, 
 
        Potential amp.       -0.1530 Ry
        Total length         46.3494 bohr
 

     total cpu time spent up to now is      977.6 secs

     total energy              =   -2940.44987871 Ry
     estimated scf accuracy    <       1.13605517 Ry

     iteration # 38     ecut=    29.40 Ry     beta= 0.05
     Davidson diagonalization with overlap
     ethr =  1.84E-04,  avg # of iterations =  2.4

     negative rho (up, down):  7.394E-03 0.000E+00
 
     Adding external electric field

     Computed dipole along edir(3) : 
        Dipole                0.8604 Ry au,          2.1870 Debye
        Dipole field          0.0016 Ry au, 
 
        Potential amp.       -0.1505 Ry
        Total length         46.3494 bohr
 

     total cpu time spent up to now is      995.6 secs

     total energy              =   -2940.48735248 Ry
     estimated scf accuracy    <       0.67040249 Ry

     iteration # 39     ecut=    29.40 Ry     beta= 0.05
     Davidson diagonalization with overlap
     ethr =  1.69E-04,  avg # of iterations =  3.8

     negative rho (up, down):  7.633E-03 0.000E+00
 
     Adding external electric field

     Computed dipole along edir(3) : 
        Dipole                0.6487 Ry au,          1.6488 Debye
        Dipole field          0.0012 Ry au, 
 
        Potential amp.       -0.1135 Ry
        Total length         46.3494 bohr
 

     total cpu time spent up to now is     1014.1 secs

     total energy              =   -2940.45643077 Ry
     estimated scf accuracy    <       0.92284042 Ry

     iteration # 40     ecut=    29.40 Ry     beta= 0.05
     Davidson diagonalization with overlap
     ethr =  1.69E-04,  avg # of iterations =  5.6

     negative rho (up, down):  7.108E-03 0.000E+00
 
     Adding external electric field

     Computed dipole along edir(3) : 
        Dipole                0.5269 Ry au,          1.3391 Debye
        Dipole field          0.0010 Ry au, 
 
        Potential amp.       -0.0922 Ry
        Total length         46.3494 bohr
 

     total cpu time spent up to now is     1033.6 secs

     total energy              =   -2940.47867420 Ry
     estimated scf accuracy    <       0.69922599 Ry

     iteration # 41     ecut=    29.40 Ry     beta= 0.05
     Davidson diagonalization with overlap
     ethr =  1.69E-04,  avg # of iterations =  3.7

     negative rho (up, down):  6.829E-03 0.000E+00
 
     Adding external electric field

     Computed dipole along edir(3) : 
        Dipole                0.1567 Ry au,          0.3983 Debye
        Dipole field          0.0003 Ry au, 
 
        Potential amp.       -0.0274 Ry
        Total length         46.3494 bohr
 

     total cpu time spent up to now is     1051.8 secs

     total energy              =   -2940.42798059 Ry
     estimated scf accuracy    <       0.52568205 Ry

     iteration # 42     ecut=    29.40 Ry     beta= 0.05
     Davidson diagonalization with overlap
     c_bands:  2 eigenvalues not converged
     c_bands:  1 eigenvalues not converged
     c_bands:  1 eigenvalues not converged
     ethr =  1.33E-04,  avg # of iterations = 13.7

     negative rho (up, down):  6.765E-03 0.000E+00
 
     Adding external electric field

     Computed dipole along edir(3) : 
        Dipole                0.1275 Ry au,          0.3241 Debye
        Dipole field          0.0002 Ry au, 
 
        Potential amp.       -0.0223 Ry
        Total length         46.3494 bohr
 

     total cpu time spent up to now is     1075.1 secs

     total energy              =   -2940.42255647 Ry
     estimated scf accuracy    <       0.36679727 Ry

     iteration # 43     ecut=    29.40 Ry     beta= 0.05
     Davidson diagonalization with overlap
     ethr =  9.26E-05,  avg # of iterations =  7.4

     negative rho (up, down):  6.904E-03 0.000E+00
 
     Adding external electric field

     Computed dipole along edir(3) : 
        Dipole                0.0278 Ry au,          0.0707 Debye
        Dipole field          0.0001 Ry au, 
 
        Potential amp.       -0.0049 Ry
        Total length         46.3494 bohr
 

     total cpu time spent up to now is     1094.9 secs

     total energy              =   -2940.40835176 Ry
     estimated scf accuracy    <       0.30832550 Ry

     iteration # 44     ecut=    29.40 Ry     beta= 0.05
     Davidson diagonalization with overlap
     c_bands:  4 eigenvalues not converged
     c_bands:  2 eigenvalues not converged
     c_bands:  3 eigenvalues not converged
     ethr =  7.79E-05,  avg # of iterations = 12.6

     negative rho (up, down):  6.260E-03 0.000E+00
 
     Adding external electric field

     Computed dipole along edir(3) : 
        Dipole                0.6733 Ry au,          1.7114 Debye
        Dipole field          0.0013 Ry au, 
 
        Potential amp.       -0.1178 Ry
        Total length         46.3494 bohr
 

     total cpu time spent up to now is     1117.6 secs

     total energy              =   -2940.40123196 Ry
     estimated scf accuracy    <       0.22114292 Ry

     iteration # 45     ecut=    29.40 Ry     beta= 0.05
     Davidson diagonalization with overlap
     ethr =  5.58E-05,  avg # of iterations = 10.7

     negative rho (up, down):  6.377E-03 0.000E+00
 
     Adding external electric field

     Computed dipole along edir(3) : 
        Dipole                0.8879 Ry au,          2.2567 Debye
        Dipole field          0.0017 Ry au, 
 
        Potential amp.       -0.1553 Ry
        Total length         46.3494 bohr
 

     total cpu time spent up to now is     1140.1 secs

     total energy              =   -2940.40145315 Ry
     estimated scf accuracy    <       0.19838260 Ry

     iteration # 46     ecut=    29.40 Ry     beta= 0.05
     Davidson diagonalization with overlap
     c_bands:  3 eigenvalues not converged
     ethr =  5.01E-05,  avg # of iterations =  6.5

     negative rho (up, down):  6.419E-03 0.000E+00
 
     Adding external electric field

     Computed dipole along edir(3) : 
        Dipole                0.9369 Ry au,          2.3813 Debye
        Dipole field          0.0018 Ry au, 
 
        Potential amp.       -0.1639 Ry
        Total length         46.3494 bohr
 

     total cpu time spent up to now is     1159.8 secs

     total energy              =   -2940.41348091 Ry
     estimated scf accuracy    <       0.16324792 Ry

     iteration # 47     ecut=    29.40 Ry     beta= 0.05
     Davidson diagonalization with overlap
     c_bands:  1 eigenvalues not converged
     ethr =  4.12E-05,  avg # of iterations =  6.7

     negative rho (up, down):  6.947E-03 0.000E+00
 
     Adding external electric field

     Computed dipole along edir(3) : 
        Dipole                0.9726 Ry au,          2.4721 Debye
        Dipole field          0.0018 Ry au, 
 
        Potential amp.       -0.1701 Ry
        Total length         46.3494 bohr
 

     total cpu time spent up to now is     1179.3 secs

     total energy              =   -2940.40812718 Ry
     estimated scf accuracy    <       0.18272263 Ry

     iteration # 48     ecut=    29.40 Ry     beta= 0.05
     Davidson diagonalization with overlap
     ethr =  4.12E-05,  avg # of iterations =  2.0

     negative rho (up, down):  6.935E-03 0.000E+00
 
     Adding external electric field

     Computed dipole along edir(3) : 
        Dipole                0.9352 Ry au,          2.3771 Debye
        Dipole field          0.0018 Ry au, 
 
        Potential amp.       -0.1636 Ry
        Total length         46.3494 bohr
 

     total cpu time spent up to now is     1197.2 secs

     total energy              =   -2940.40986875 Ry
     estimated scf accuracy    <       0.16825795 Ry

     iteration # 49     ecut=    29.40 Ry     beta= 0.05
     Davidson diagonalization with overlap
     ethr =  4.12E-05,  avg # of iterations =  1.0

     negative rho (up, down):  6.670E-03 0.000E+00
 
     Adding external electric field

     Computed dipole along edir(3) : 
        Dipole                0.7550 Ry au,          1.9189 Debye
        Dipole field          0.0014 Ry au, 
 
        Potential amp.       -0.1321 Ry
        Total length         46.3494 bohr
 

     total cpu time spent up to now is     1213.7 secs

     total energy              =   -2940.39924922 Ry
     estimated scf accuracy    <       0.14713944 Ry

     iteration # 50     ecut=    29.40 Ry     beta= 0.05
     Davidson diagonalization with overlap
     ethr =  3.72E-05,  avg # of iterations =  6.0

     negative rho (up, down):  6.689E-03 0.000E+00
 
     Adding external electric field

     Computed dipole along edir(3) : 
        Dipole                0.6819 Ry au,          1.7333 Debye
        Dipole field          0.0013 Ry au, 
 
        Potential amp.       -0.1193 Ry
        Total length         46.3494 bohr
 

     total cpu time spent up to now is     1232.9 secs

     total energy              =   -2940.38735218 Ry
     estimated scf accuracy    <       0.09379729 Ry

     iteration # 51     ecut=    29.40 Ry     beta= 0.05
     Davidson diagonalization with overlap
     c_bands:  2 eigenvalues not converged
     c_bands:  3 eigenvalues not converged
     c_bands:  2 eigenvalues not converged
     c_bands:  1 eigenvalues not converged
     c_bands:  2 eigenvalues not converged
     c_bands:  1 eigenvalues not converged
     ethr =  2.37E-05,  avg # of iterations = 18.8

     negative rho (up, down):  6.948E-03 0.000E+00
 
     Adding external electric field

     Computed dipole along edir(3) : 
        Dipole                0.8067 Ry au,          2.0504 Debye
        Dipole field          0.0015 Ry au, 
 
        Potential amp.       -0.1411 Ry
        Total length         46.3494 bohr
 

     total cpu time spent up to now is     1264.0 secs

     total energy              =   -2940.39041396 Ry
     estimated scf accuracy    <       0.05789379 Ry

     iteration # 52     ecut=    29.40 Ry     beta= 0.05
     Davidson diagonalization with overlap
     c_bands:  1 eigenvalues not converged
     c_bands:  1 eigenvalues not converged
     c_bands:  1 eigenvalues not converged
     c_bands:  1 eigenvalues not converged
     ethr =  1.46E-05,  avg # of iterations = 16.8

     negative rho (up, down):  8.369E-03 0.000E+00
 
     Adding external electric field

     Computed dipole along edir(3) : 
        Dipole                1.0578 Ry au,          2.6886 Debye
        Dipole field          0.0020 Ry au, 
 
        Potential amp.       -0.1850 Ry
        Total length         46.3494 bohr
 

     total cpu time spent up to now is     1292.0 secs

     total energy              =   -2940.39486970 Ry
     estimated scf accuracy    <       0.03623510 Ry

     iteration # 53     ecut=    29.40 Ry     beta= 0.05
     Davidson diagonalization with overlap
     c_bands:  1 eigenvalues not converged
     ethr =  9.15E-06,  avg # of iterations = 12.6

     negative rho (up, down):  8.565E-03 0.000E+00
 
     Adding external electric field

     Computed dipole along edir(3) : 
        Dipole                1.0301 Ry au,          2.6183 Debye
        Dipole field          0.0019 Ry au, 
 
        Potential amp.       -0.1802 Ry
        Total length         46.3494 bohr
 

     total cpu time spent up to now is     1316.9 secs

     total energy              =   -2940.39561889 Ry
     estimated scf accuracy    <       0.03045430 Ry

     iteration # 54     ecut=    29.40 Ry     beta= 0.05
     Davidson diagonalization with overlap
     ethr =  7.69E-06,  avg # of iterations =  5.5

     negative rho (up, down):  8.858E-03 0.000E+00
 
     Adding external electric field

     Computed dipole along edir(3) : 
        Dipole                1.0271 Ry au,          2.6106 Debye
        Dipole field          0.0019 Ry au, 
 
        Potential amp.       -0.1797 Ry
        Total length         46.3494 bohr
 

     total cpu time spent up to now is     1336.2 secs

     total energy              =   -2940.39543449 Ry
     estimated scf accuracy    <       0.01202630 Ry

     iteration # 55     ecut=    29.40 Ry     beta= 0.05
     Davidson diagonalization with overlap
     c_bands:  2 eigenvalues not converged
     c_bands:  1 eigenvalues not converged
     c_bands:  1 eigenvalues not converged
     c_bands:  1 eigenvalues not converged
     c_bands:  1 eigenvalues not converged
     ethr =  3.04E-06,  avg # of iterations = 17.6

     negative rho (up, down):  8.890E-03 0.000E+00
 
     Adding external electric field

     Computed dipole along edir(3) : 
        Dipole                1.0190 Ry au,          2.5902 Debye
        Dipole field          0.0019 Ry au, 
 
        Potential amp.       -0.1783 Ry
        Total length         46.3494 bohr
 

     total cpu time spent up to now is     1366.4 secs

     total energy              =   -2940.39632289 Ry
     estimated scf accuracy    <       0.00589849 Ry

     iteration # 56     ecut=    29.40 Ry     beta= 0.05
     Davidson diagonalization with overlap
     c_bands:  2 eigenvalues not converged
     c_bands:  1 eigenvalues not converged
     c_bands:  2 eigenvalues not converged
     ethr =  1.49E-06,  avg # of iterations = 10.4

     negative rho (up, down):  1.135E-02 0.000E+00
 
     Adding external electric field

     Computed dipole along edir(3) : 
        Dipole                1.0795 Ry au,          2.7438 Debye
        Dipole field          0.0020 Ry au, 
 
        Potential amp.       -0.1888 Ry
        Total length         46.3494 bohr
 

     total cpu time spent up to now is     1387.8 secs

     total energy              =   -2940.39648837 Ry
     estimated scf accuracy    <       0.00453442 Ry

     iteration # 57     ecut=    29.40 Ry     beta= 0.05
     Davidson diagonalization with overlap
     c_bands:  1 eigenvalues not converged
     c_bands:  1 eigenvalues not converged
     c_bands:  1 eigenvalues not converged
     c_bands:  2 eigenvalues not converged
     ethr =  1.15E-06,  avg # of iterations = 17.5

     negative rho (up, down):  1.230E-02 0.000E+00
 
     Adding external electric field

     Computed dipole along edir(3) : 
        Dipole                1.1162 Ry au,          2.8372 Debye
        Dipole field          0.0021 Ry au, 
 
        Potential amp.       -0.1953 Ry
        Total length         46.3494 bohr
 

     total cpu time spent up to now is     1421.7 secs

     total energy              =   -2940.39704434 Ry
     estimated scf accuracy    <       0.00895311 Ry

     iteration # 58     ecut=    29.40 Ry     beta= 0.05
     Davidson diagonalization with overlap
     c_bands:  1 eigenvalues not converged
     ethr =  1.15E-06,  avg # of iterations = 10.1

     negative rho (up, down):  1.297E-02 0.000E+00
 
     Adding external electric field

     Computed dipole along edir(3) : 
        Dipole                1.1063 Ry au,          2.8118 Debye
        Dipole field          0.0021 Ry au, 
 
        Potential amp.       -0.1935 Ry
        Total length         46.3494 bohr
 

     total cpu time spent up to now is     1442.6 secs

     total energy              =   -2940.39636158 Ry
     estimated scf accuracy    <       0.00392295 Ry

     iteration # 59     ecut=    29.40 Ry     beta= 0.05
     Davidson diagonalization with overlap
     c_bands:  1 eigenvalues not converged
     c_bands:  1 eigenvalues not converged
     ethr =  9.91E-07,  avg # of iterations = 15.0

     negative rho (up, down):  1.358E-02 0.000E+00
 
     Adding external electric field

     Computed dipole along edir(3) : 
        Dipole                1.1152 Ry au,          2.8344 Debye
        Dipole field          0.0021 Ry au, 
 
        Potential amp.       -0.1951 Ry
        Total length         46.3494 bohr
 

     total cpu time spent up to now is     1474.4 secs

     total energy              =   -2940.39717033 Ry
     estimated scf accuracy    <       0.00356285 Ry

     iteration # 60     ecut=    29.40 Ry     beta= 0.05
     Davidson diagonalization with overlap
     ethr =  9.00E-07,  avg # of iterations =  7.7

     negative rho (up, down):  1.394E-02 0.000E+00
 
     Adding external electric field

     Computed dipole along edir(3) : 
        Dipole                1.1070 Ry au,          2.8138 Debye
        Dipole field          0.0021 Ry au, 
 
        Potential amp.       -0.1937 Ry
        Total length         46.3494 bohr
 

     total cpu time spent up to now is     1495.1 secs

     total energy              =   -2940.39687712 Ry
     estimated scf accuracy    <       0.00148341 Ry

     iteration # 61     ecut=    29.40 Ry     beta= 0.05
     Davidson diagonalization with overlap
     ethr =  3.75E-07,  avg # of iterations = 13.7

     negative rho (up, down):  1.438E-02 0.000E+00
 
     Adding external electric field

     Computed dipole along edir(3) : 
        Dipole                1.1185 Ry au,          2.8430 Debye
        Dipole field          0.0021 Ry au, 
 
        Potential amp.       -0.1957 Ry
        Total length         46.3494 bohr
 

     total cpu time spent up to now is     1528.2 secs

     total energy              =   -2940.39725453 Ry
     estimated scf accuracy    <       0.00200336 Ry

     iteration # 62     ecut=    29.40 Ry     beta= 0.05
     Davidson diagonalization with overlap
     ethr =  3.75E-07,  avg # of iterations =  8.6

     negative rho (up, down):  1.469E-02 0.000E+00
 
     Adding external electric field

     Computed dipole along edir(3) : 
        Dipole                1.1218 Ry au,          2.8513 Debye
        Dipole field          0.0021 Ry au, 
 
        Potential amp.       -0.1962 Ry
        Total length         46.3494 bohr
 

     total cpu time spent up to now is     1549.4 secs

     total energy              =   -2940.39729775 Ry
     estimated scf accuracy    <       0.00040604 Ry

     iteration # 63     ecut=    29.40 Ry     beta= 0.05
     Davidson diagonalization with overlap
     ethr =  1.03E-07,  avg # of iterations = 15.5

     negative rho (up, down):  1.511E-02 0.000E+00
 
     Adding external electric field

     Computed dipole along edir(3) : 
        Dipole                1.1297 Ry au,          2.8713 Debye
        Dipole field          0.0021 Ry au, 
 
        Potential amp.       -0.1976 Ry
        Total length         46.3494 bohr
 

     total cpu time spent up to now is     1585.9 secs

     total energy              =   -2940.39746643 Ry
     estimated scf accuracy    <       0.00098534 Ry

     iteration # 64     ecut=    29.40 Ry     beta= 0.05
     Davidson diagonalization with overlap
     ethr =  1.03E-07,  avg # of iterations =  6.4

     negative rho (up, down):  1.522E-02 0.000E+00
 
     Adding external electric field

     Computed dipole along edir(3) : 
        Dipole                1.1277 Ry au,          2.8663 Debye
        Dipole field          0.0021 Ry au, 
 
        Potential amp.       -0.1973 Ry
        Total length         46.3494 bohr
 

     total cpu time spent up to now is     1605.6 secs

     total energy              =   -2940.39732572 Ry
     estimated scf accuracy    <       0.00059834 Ry

     iteration # 65     ecut=    29.40 Ry     beta= 0.05
     Davidson diagonalization with overlap
     ethr =  1.03E-07,  avg # of iterations = 13.0

     negative rho (up, down):  1.531E-02 0.000E+00
 
     Adding external electric field

     Computed dipole along edir(3) : 
        Dipole                1.1276 Ry au,          2.8662 Debye
        Dipole field          0.0021 Ry au, 
 
        Potential amp.       -0.1973 Ry
        Total length         46.3494 bohr
 

     total cpu time spent up to now is     1636.7 secs

     total energy              =   -2940.39746282 Ry
     estimated scf accuracy    <       0.00014745 Ry

     iteration # 66     ecut=    29.40 Ry     beta= 0.05
     Davidson diagonalization with overlap
     ethr =  3.72E-08,  avg # of iterations =  7.0

     negative rho (up, down):  1.530E-02 0.000E+00
 
     Adding external electric field

     Computed dipole along edir(3) : 
        Dipole                1.1258 Ry au,          2.8614 Debye
        Dipole field          0.0021 Ry au, 
 
        Potential amp.       -0.1969 Ry
        Total length         46.3494 bohr
 

     total cpu time spent up to now is     1657.1 secs

     total energy              =   -2940.39746108 Ry
     estimated scf accuracy    <       0.00004794 Ry

     iteration # 67     ecut=    29.40 Ry     beta= 0.05
     Davidson diagonalization with overlap
     c_bands:  1 eigenvalues not converged
     c_bands:  1 eigenvalues not converged
     ethr =  1.21E-08,  avg # of iterations = 15.9

     negative rho (up, down):  1.542E-02 0.000E+00
 
     Adding external electric field

     Computed dipole along edir(3) : 
        Dipole                1.1281 Ry au,          2.8674 Debye
        Dipole field          0.0021 Ry au, 
 
        Potential amp.       -0.1974 Ry
        Total length         46.3494 bohr
 

     total cpu time spent up to now is     1694.7 secs

     total energy              =   -2940.39749465 Ry
     estimated scf accuracy    <       0.00013401 Ry

     iteration # 68     ecut=    29.40 Ry     beta= 0.05
     Davidson diagonalization with overlap
     ethr =  1.21E-08,  avg # of iterations =  1.0

     negative rho (up, down):  1.565E-02 0.000E+00
 
     Adding external electric field

     Computed dipole along edir(3) : 
        Dipole                1.1323 Ry au,          2.8781 Debye
        Dipole field          0.0021 Ry au, 
 
        Potential amp.       -0.1981 Ry
        Total length         46.3494 bohr
 

     total cpu time spent up to now is     1711.2 secs

     total energy              =   -2940.39748317 Ry
     estimated scf accuracy    <       0.00010610 Ry

     iteration # 69     ecut=    29.40 Ry     beta= 0.05
     Davidson diagonalization with overlap
     ethr =  1.21E-08,  avg # of iterations = 10.0

     negative rho (up, down):  1.565E-02 0.000E+00
 
     Adding external electric field

     Computed dipole along edir(3) : 
        Dipole                1.1322 Ry au,          2.8778 Debye
        Dipole field          0.0021 Ry au, 
 
        Potential amp.       -0.1981 Ry
        Total length         46.3494 bohr
 

     total cpu time spent up to now is     1736.1 secs

     total energy              =   -2940.39749276 Ry
     estimated scf accuracy    <       0.00002154 Ry

     iteration # 70     ecut=    29.40 Ry     beta= 0.05
     Davidson diagonalization with overlap
     ethr =  5.44E-09,  avg # of iterations =  2.4

     negative rho (up, down):  1.561E-02 0.000E+00
 
     Adding external electric field

     Computed dipole along edir(3) : 
        Dipole                1.1317 Ry au,          2.8765 Debye
        Dipole field          0.0021 Ry au, 
 
        Potential amp.       -0.1980 Ry
        Total length         46.3494 bohr
 

     total cpu time spent up to now is     1753.9 secs

     total energy              =   -2940.39749330 Ry
     estimated scf accuracy    <       0.00001507 Ry

     iteration # 71     ecut=    29.40 Ry     beta= 0.05
     Davidson diagonalization with overlap
     ethr =  3.80E-09,  avg # of iterations =  8.5

     negative rho (up, down):  1.560E-02 0.000E+00
 
     Adding external electric field

     Computed dipole along edir(3) : 
        Dipole                1.1322 Ry au,          2.8777 Debye
        Dipole field          0.0021 Ry au, 
 
        Potential amp.       -0.1981 Ry
        Total length         46.3494 bohr
 

     total cpu time spent up to now is     1779.1 secs

     total energy              =   -2940.39749701 Ry
     estimated scf accuracy    <       0.00000562 Ry

     iteration # 72     ecut=    29.40 Ry     beta= 0.05
     Davidson diagonalization with overlap
     ethr =  1.42E-09,  avg # of iterations =  6.7

     negative rho (up, down):  1.558E-02 0.000E+00
 
     Adding external electric field

     Computed dipole along edir(3) : 
        Dipole                1.1320 Ry au,          2.8772 Debye
        Dipole field          0.0021 Ry au, 
 
        Potential amp.       -0.1980 Ry
        Total length         46.3494 bohr
 

     total cpu time spent up to now is     1800.8 secs

     total energy              =   -2940.39749939 Ry
     estimated scf accuracy    <       0.00000325 Ry

     iteration # 73     ecut=    29.40 Ry     beta= 0.05
     Davidson diagonalization with overlap
     ethr =  8.22E-10,  avg # of iterations =  7.2

     negative rho (up, down):  1.562E-02 0.000E+00
 
     Adding external electric field

     Computed dipole along edir(3) : 
        Dipole                1.1330 Ry au,          2.8799 Debye
        Dipole field          0.0021 Ry au, 
 
        Potential amp.       -0.1982 Ry
        Total length         46.3494 bohr
 

     total cpu time spent up to now is     1821.6 secs

     total energy              =   -2940.39750198 Ry
     estimated scf accuracy    <       0.00000266 Ry

     iteration # 74     ecut=    29.40 Ry     beta= 0.05
     Davidson diagonalization with overlap
     ethr =  6.72E-10,  avg # of iterations =  7.5

     negative rho (up, down):  1.563E-02 0.000E+00
 
     Adding external electric field

     Computed dipole along edir(3) : 
        Dipole                1.1333 Ry au,          2.8805 Debye
        Dipole field          0.0021 Ry au, 
 
        Potential amp.       -0.1982 Ry
        Total length         46.3494 bohr
 

     total cpu time spent up to now is     1842.6 secs

     total energy              =   -2940.39750352 Ry
     estimated scf accuracy    <       0.00000272 Ry

     iteration # 75     ecut=    29.40 Ry     beta= 0.05
     Davidson diagonalization with overlap
     ethr =  6.72E-10,  avg # of iterations =  6.6

     negative rho (up, down):  1.562E-02 0.000E+00
 
     Adding external electric field

     Computed dipole along edir(3) : 
        Dipole                1.1336 Ry au,          2.8812 Debye
        Dipole field          0.0021 Ry au, 
 
        Potential amp.       -0.1983 Ry
        Total length         46.3494 bohr
 

     total cpu time spent up to now is     1862.8 secs

     total energy              =   -2940.39750497 Ry
     estimated scf accuracy    <       0.00000100 Ry

     iteration # 76     ecut=    29.40 Ry     beta= 0.05
     Davidson diagonalization with overlap
     ethr =  2.53E-10,  avg # of iterations =  8.6

     negative rho (up, down):  1.561E-02 0.000E+00
 
     Adding external electric field

     Computed dipole along edir(3) : 
        Dipole                1.1332 Ry au,          2.8803 Debye
        Dipole field          0.0021 Ry au, 
 
        Potential amp.       -0.1982 Ry
        Total length         46.3494 bohr
 

     total cpu time spent up to now is     1887.2 secs

     total energy              =   -2940.39750639 Ry
     estimated scf accuracy    <       0.00000039 Ry

     iteration # 77     ecut=    29.40 Ry     beta= 0.05
     Davidson diagonalization with overlap
     ethr =  9.78E-11,  avg # of iterations =  6.1

     negative rho (up, down):  1.560E-02 0.000E+00
 
     Adding external electric field

     Computed dipole along edir(3) : 
        Dipole                1.1331 Ry au,          2.8800 Debye
        Dipole field          0.0021 Ry au, 
 
        Potential amp.       -0.1982 Ry
        Total length         46.3494 bohr
 

     total cpu time spent up to now is     1907.3 secs

     total energy              =   -2940.39750762 Ry
     estimated scf accuracy    <       0.00000027 Ry

     iteration # 78     ecut=    29.40 Ry     beta= 0.05
     Davidson diagonalization with overlap
     ethr =  6.72E-11,  avg # of iterations =  9.4

     negative rho (up, down):  1.562E-02 0.000E+00
 
     Adding external electric field

     Computed dipole along edir(3) : 
        Dipole                1.1333 Ry au,          2.8806 Debye
        Dipole field          0.0021 Ry au, 
 
        Potential amp.       -0.1983 Ry
        Total length         46.3494 bohr
 

     total cpu time spent up to now is     1929.5 secs

     total energy              =   -2940.39750881 Ry
     estimated scf accuracy    <       0.00000018 Ry

     iteration # 79     ecut=    29.40 Ry     beta= 0.05
     Davidson diagonalization with overlap
     ethr =  4.48E-11,  avg # of iterations = 12.0

     negative rho (up, down):  1.562E-02 0.000E+00
 
     Adding external electric field

     Computed dipole along edir(3) : 
        Dipole                1.1331 Ry au,          2.8802 Debye
        Dipole field          0.0021 Ry au, 
 
        Potential amp.       -0.1982 Ry
        Total length         46.3494 bohr
 

     total cpu time spent up to now is     1959.8 secs

     total energy              =   -2940.39750983 Ry
     estimated scf accuracy    <       0.00000029 Ry

     iteration # 80     ecut=    29.40 Ry     beta= 0.05
     Davidson diagonalization with overlap
     ethr =  4.48E-11,  avg # of iterations =  7.7

     negative rho (up, down):  1.562E-02 0.000E+00
 
     Adding external electric field

     Computed dipole along edir(3) : 
        Dipole                1.1330 Ry au,          2.8797 Debye
        Dipole field          0.0021 Ry au, 
 
        Potential amp.       -0.1982 Ry
        Total length         46.3494 bohr
 

     total cpu time spent up to now is     1982.4 secs

     total energy              =   -2940.39751075 Ry
     estimated scf accuracy    <       0.00000008 Ry

     iteration # 81     ecut=    29.40 Ry     beta= 0.05
     Davidson diagonalization with overlap
     ethr =  1.89E-11,  avg # of iterations = 10.9

     negative rho (up, down):  1.563E-02 0.000E+00
 
     Adding external electric field

     Computed dipole along edir(3) : 
        Dipole                1.1331 Ry au,          2.8801 Debye
        Dipole field          0.0021 Ry au, 
 
        Potential amp.       -0.1982 Ry
        Total length         46.3494 bohr
 

     total cpu time spent up to now is     2013.3 secs

     total energy              =   -2940.39751157 Ry
     estimated scf accuracy    <       0.00000008 Ry

     iteration # 82     ecut=    29.40 Ry     beta= 0.05
     Davidson diagonalization with overlap
     ethr =  1.89E-11,  avg # of iterations =  7.4

     negative rho (up, down):  1.567E-02 0.000E+00
 
     Adding external electric field

     Computed dipole along edir(3) : 
        Dipole                1.1329 Ry au,          2.8797 Debye
        Dipole field          0.0021 Ry au, 
 
        Potential amp.       -0.1982 Ry
        Total length         46.3494 bohr
 

     total cpu time spent up to now is     2037.4 secs

     End of self-consistent calculation

          k = 0.0000 0.0000 0.0000 ( 18029 PWs)   bands (ev):

   -55.6421 -55.6081 -55.5500 -55.5124 -55.4061 -55.3838 -55.3723 -55.3486
   -55.3416 -55.3345 -55.3148 -55.2649 -54.7251 -54.5839 -54.5571 -54.5499
   -32.1166 -32.0936 -31.9364 -31.9233 -31.8933 -31.8627 -31.8446 -31.8381
   -31.7953 -31.7788 -31.7779 -31.7389 -31.7299 -31.7120 -31.7008 -31.6910
   -31.6806 -31.6717 -31.6386 -31.6270 -31.6045 -31.5844 -31.5771 -31.5631
   -31.5500 -31.5436 -31.5368 -31.5351 -31.5294 -31.5122 -31.5031 -31.5016
   -31.4978 -31.4608 -31.4465 -31.3790 -31.2230 -30.9897 -30.9483 -30.9336
   -30.9050 -30.8945 -30.8823 -30.8065 -30.7653 -30.7367 -30.7202 -30.6092
   -18.0066 -16.2765 -16.0487 -15.7713 -15.6706 -15.6470 -15.5262 -15.3937
   -15.2932 -15.1982 -15.1578 -15.1036 -15.0991 -15.0697 -15.0393 -15.0033
   -14.9758 -14.9364 -14.9185 -14.8987 -14.8740 -14.8647 -14.7539 -14.7406
   -14.7160 -14.6244 -14.6141 -14.5415 -14.5154 -14.0863 -13.0862 -12.9705
   -12.0273  -8.9343  -5.7370  -4.4613  -4.1269  -3.6594  -3.5335  -3.5032
    -3.4019  -3.2344  -3.1374  -3.0774  -2.9863  -2.7634  -2.7287  -2.7187
    -2.6987  -2.6410  -2.4427  -2.4171  -2.3860  -2.3460  -2.3361  -2.3336
    -2.3197  -2.2580  -2.1920  -2.1270  -2.0280  -2.0199  -1.9672  -1.9541
    -1.9368  -1.9025  -1.8588  -1.8190  -1.7976  -1.7560  -1.7370  -1.7305
    -1.6892  -1.6052  -1.5043  -1.3464  -1.3228  -1.2999  -1.2519  -1.1962
    -1.0316  -1.0166  -0.9787  -0.9725  -0.9407  -0.8652  -0.7984  -0.7130
    -0.6774  -0.6003  -0.5843  -0.5550  -0.4813  -0.3955  -0.3731  -0.3580
    -0.3504  -0.3349  -0.2773  -0.1601  -0.0671  -0.0384   0.0845   0.0891
     0.1240   0.1684   0.1846   0.2662   0.3029   0.3161   0.3682   0.3685
     0.3802   0.4239   0.4469   0.5094   0.5651   0.6495   0.7226   0.7880
     0.8247   0.9414   1.0124   1.0778   1.1093   1.2388   1.3648   1.3760
     1.4376   1.6330   1.6356   2.0062   2.0505   3.5292   3.5503   3.6430
     3.6865   3.7843   3.8233   3.9677   4.0224   4.0602   4.1739   4.2049

          k = 0.0000 0.0419 0.0000 ( 17933 PWs)   bands (ev):

   -55.6371 -55.6130 -55.5451 -55.5172 -55.4011 -55.3798 -55.3771 -55.3454
   -55.3436 -55.3322 -55.3196 -55.2670 -54.7243 -54.5789 -54.5578 -54.5548
   -32.0627 -32.0362 -31.9318 -31.9162 -31.8381 -31.8313 -31.8214 -31.7954
   -31.7857 -31.7815 -31.7685 -31.7510 -31.7454 -31.7218 -31.7196 -31.7146
   -31.6824 -31.6589 -31.6359 -31.6147 -31.6007 -31.5970 -31.5728 -31.5699
   -31.5574 -31.5539 -31.5531 -31.5503 -31.5490 -31.5304 -31.5253 -31.5169
   -31.5055 -31.5003 -31.4566 -31.4369 -31.1849 -30.9459 -30.9356 -30.9329
   -30.9138 -30.9015 -30.8854 -30.7940 -30.7658 -30.7599 -30.7328 -30.6663
   -18.0038 -16.1403 -15.9286 -15.6631 -15.5602 -15.5460 -15.4918 -15.4017
   -15.3384 -15.3301 -15.1289 -15.1188 -15.0985 -15.0621 -15.0433 -15.0424
   -15.0126 -14.9862 -14.9468 -14.9201 -14.8633 -14.8216 -14.8127 -14.7710
   -14.7338 -14.6758 -14.6316 -14.5955 -14.5402 -14.1504 -13.0907 -13.0102
   -12.0280  -8.9395  -5.7336  -4.4305  -4.1250  -3.4668  -3.3567  -3.3370
    -3.2451  -3.1115  -2.9770  -2.9358  -2.8592  -2.7418  -2.7036  -2.6391
    -2.6009  -2.5913  -2.5205  -2.5100  -2.4927  -2.4516  -2.3897  -2.3441
    -2.3186  -2.2901  -2.2639  -2.2205  -2.1948  -2.1570  -2.1351  -2.0662
    -2.0537  -2.0273  -1.9779  -1.9713  -1.8407  -1.8124  -1.7997  -1.6875
    -1.5375  -1.5044  -1.4226  -1.3045  -1.2518  -1.2247  -1.1938  -1.1012
    -1.0689  -0.9136  -0.8902  -0.8376  -0.8202  -0.7244  -0.7144  -0.6386
    -0.5684  -0.5186  -0.4898  -0.4594  -0.4513  -0.4007  -0.3914  -0.3560
    -0.3464  -0.2608  -0.2288  -0.1607  -0.1105  -0.0914  -0.0648  -0.0228
     0.0037   0.0649   0.1612   0.1971   0.2361   0.2424   0.2754   0.2842
     0.3579   0.3857   0.4284   0.4738   0.5557   0.6072   0.6536   0.6796
     0.7478   0.7799   0.8091   0.9088   1.0378   1.0615   1.1951   1.2289
     1.5053   1.6305   1.7186   1.9595   1.9638   3.4357   3.7356   3.7911
     3.8504   3.8756   3.9427   3.9868   4.0679   4.0844   4.1330   4.1600

          k = 0.0000-0.0839 0.0000 ( 17884 PWs)   bands (ev):

   -55.6252 -55.6249 -55.5369 -55.5253 -55.3892 -55.3889 -55.3746 -55.3505
   -55.3329 -55.3302 -55.3298 -55.2694 -54.7235 -54.5669 -54.5668 -54.5585
   -31.9306 -31.9305 -31.9215 -31.9215 -31.9009 -31.8916 -31.7944 -31.7847
   -31.7495 -31.7483 -31.7478 -31.7377 -31.7120 -31.6998 -31.6978 -31.6921
   -31.6836 -31.6539 -31.6495 -31.6436 -31.6289 -31.6268 -31.5969 -31.5862
   -31.5838 -31.5821 -31.5636 -31.5615 -31.5612 -31.5543 -31.5403 -31.5276
   -31.5164 -31.5141 -31.5017 -31.4695 -31.1324 -30.9691 -30.9327 -30.9217
   -30.8933 -30.8932 -30.8028 -30.8027 -30.7845 -30.7653 -30.7634 -30.7634
   -18.0011 -15.7972 -15.7899 -15.6398 -15.6379 -15.4439 -15.4403 -15.3222
   -15.3191 -15.2991 -15.2921 -15.2362 -15.2173 -15.1240 -15.1192 -14.9637
   -14.9621 -14.9557 -14.9550 -14.9185 -14.8953 -14.8187 -14.8041 -14.7699
   -14.7547 -14.7485 -14.7093 -14.6093 -14.5779 -14.2303 -13.0729 -13.0728
   -12.0288  -8.9448  -5.7300  -4.4007  -4.1232  -3.0259  -2.9980  -2.9900
    -2.9476  -2.9414  -2.9251  -2.9205  -2.9040  -2.9014  -2.6618  -2.6538
    -2.6502  -2.6365  -2.6286  -2.5777  -2.5696  -2.5628  -2.5335  -2.5316
    -2.3885  -2.3677  -2.2933  -2.2893  -2.2402  -2.1952  -2.1478  -2.1385
    -2.0988  -2.0833  -1.9584  -1.9285  -1.9108  -1.8271  -1.6191  -1.5369
    -1.4512  -1.4355  -1.3066  -1.2693  -1.2158  -1.1407  -1.1144  -1.0564
    -1.0172  -1.0135  -0.9916  -0.9503  -0.9119  -0.8094  -0.7259  -0.6825
    -0.6586  -0.6307  -0.5828  -0.4667  -0.3613  -0.2623  -0.2271  -0.2004
    -0.1965  -0.1825  -0.1062  -0.1015  -0.0754  -0.0509  -0.0322   0.0029
     0.0102   0.0532   0.1103   0.1286   0.1413   0.1500   0.1839   0.2294
     0.2448   0.3204   0.3258   0.3436   0.3613   0.4587   0.4830   0.5759
     0.6570   0.6669   0.7032   0.7295   1.0778   1.1288   1.1648   1.1822
     1.2471   1.7740   1.7743   1.8979   1.8985   3.3027   3.9239   3.9316
     3.9605   3.9825   3.9921   4.0186   4.1154   4.1191   4.1266   4.1287

          k = 0.0380 0.0000 0.0000 ( 17913 PWs)   bands (ev):

   -55.6420 -55.6080 -55.5499 -55.5123 -55.4059 -55.3837 -55.3722 -55.3486
   -55.3415 -55.3344 -55.3147 -55.2648 -54.7251 -54.5838 -54.5570 -54.5498
   -32.1174 -32.0937 -31.9362 -31.9233 -31.9000 -31.8628 -31.8445 -31.8429
   -31.7925 -31.7795 -31.7636 -31.7386 -31.7297 -31.7044 -31.7006 -31.6908
   -31.6802 -31.6517 -31.6385 -31.6267 -31.6188 -31.5773 -31.5771 -31.5607
   -31.5501 -31.5498 -31.5433 -31.5366 -31.5350 -31.5114 -31.5031 -31.5016
   -31.4976 -31.4608 -31.4463 -31.3787 -31.2223 -30.9892 -30.9481 -30.9346
   -30.9082 -30.8944 -30.8803 -30.8063 -30.7653 -30.7366 -30.7201 -30.6090
   -18.0063 -16.2023 -15.9622 -15.6768 -15.6725 -15.5826 -15.5256 -15.4376
   -15.3144 -15.2906 -15.2463 -15.1962 -15.1770 -15.1346 -15.0775 -15.0314
   -14.9396 -14.9387 -14.8674 -14.8128 -14.8099 -14.7927 -14.7574 -14.7446
   -14.7374 -14.7312 -14.6176 -14.5520 -14.5150 -14.0829 -13.0831 -12.9702
   -12.0265  -8.9335  -5.7345  -4.4465  -4.1383  -3.5769  -3.2820  -3.2587
    -3.2193  -3.0983  -3.0714  -3.0606  -3.0058  -2.9448  -2.8032  -2.7651
    -2.6818  -2.6664  -2.5474  -2.5109  -2.3715  -2.3364  -2.3360  -2.2722
    -2.2573  -2.1787  -2.1661  -2.1297  -2.0193  -2.0063  -1.9677  -1.9125
    -1.8973  -1.8824  -1.8686  -1.7747  -1.7214  -1.6601  -1.5774  -1.5459
    -1.5328  -1.4677  -1.4160  -1.4088  -1.3821  -1.2944  -1.2067  -1.1870
    -1.1068  -1.0695  -1.0534  -0.9917  -0.9429  -0.8896  -0.8440  -0.8281
    -0.7941  -0.7725  -0.6579  -0.5869  -0.5537  -0.4270  -0.3828  -0.3482
    -0.3323  -0.3088  -0.2657  -0.1776  -0.1289  -0.0076   0.0354   0.0497
     0.0764   0.1267   0.1539   0.1723   0.2085   0.2447   0.2712   0.2949
     0.3397   0.3558   0.3885   0.4232   0.5687   0.5934   0.6386   0.7243
     0.8086   0.8648   0.8787   0.9266   1.1015   1.1277   1.3602   1.3819
     1.4495   1.4964   1.6056   1.8953   1.9674   3.4567   3.5920   3.6103
     3.8901   3.9668   3.9711   3.9727   4.0049   4.0535   4.1211   4.1736

          k = 0.0380 0.0419 0.0000 ( 17878 PWs)   bands (ev):

   -55.6370 -55.6130 -55.5450 -55.5172 -55.4009 -55.3798 -55.3771 -55.3454
   -55.3436 -55.3322 -55.3196 -55.2670 -54.7243 -54.5788 -54.5577 -54.5548
   -32.0635 -32.0364 -31.9316 -31.9163 -31.8467 -31.8311 -31.8217 -31.7955
   -31.7911 -31.7791 -31.7576 -31.7514 -31.7448 -31.7216 -31.7142 -31.7095
   -31.6824 -31.6421 -31.6359 -31.6146 -31.6126 -31.5860 -31.5728 -31.5698
   -31.5566 -31.5537 -31.5520 -31.5511 -31.5496 -31.5460 -31.5302 -31.5131
   -31.5097 -31.5003 -31.4561 -31.4370 -31.1845 -30.9459 -30.9353 -30.9338
   -30.9137 -30.9040 -30.8844 -30.7938 -30.7661 -30.7598 -30.7328 -30.6662
   -18.0036 -16.0727 -15.8495 -15.5770 -15.5654 -15.4889 -15.4784 -15.4042
   -15.3663 -15.3440 -15.2677 -15.1551 -15.1284 -15.1132 -15.0819 -15.0278
   -14.9713 -14.9469 -14.9297 -14.8989 -14.8612 -14.8375 -14.8309 -14.8092
   -14.7807 -14.7146 -14.6569 -14.5792 -14.5415 -14.1473 -13.0884 -13.0105
   -12.0275  -8.9390  -5.7320  -4.4224  -4.1331  -3.3980  -3.1155  -3.0856
    -3.0603  -3.0310  -2.9302  -2.8562  -2.8337  -2.8092  -2.6783  -2.6512
    -2.5829  -2.5422  -2.5348  -2.4749  -2.4228  -2.3800  -2.3570  -2.3206
    -2.2960  -2.2820  -2.2573  -2.2296  -2.2105  -2.1666  -2.1227  -2.0500
    -2.0376  -1.9923  -1.9087  -1.8691  -1.8054  -1.7554  -1.7166  -1.5933
    -1.5412  -1.4835  -1.4437  -1.3198  -1.2870  -1.2118  -1.1509  -1.0887
    -1.0039  -0.9927  -0.9442  -0.9227  -0.8700  -0.8076  -0.7789  -0.7298
    -0.7109  -0.6551  -0.5904  -0.5480  -0.5261  -0.4701  -0.4327  -0.3615
    -0.3353  -0.3231  -0.3004  -0.2682  -0.2185  -0.1922  -0.1419  -0.1009
    -0.0829   0.0063   0.0212   0.0764   0.1315   0.1376   0.1738   0.2288
     0.2598   0.3827   0.4107   0.4346   0.5512   0.6125   0.6660   0.7335
     0.7782   0.8091   0.8218   0.9014   0.9501   1.0150   1.1384   1.2622
     1.4365   1.6415   1.7241   1.8821   1.9434   3.4243   3.7237   3.8035
     3.9426   3.9862   4.0157   4.0263   4.0754   4.1220   4.1410   4.1557

          k = 0.0380-0.0839 0.0000 ( 17916 PWs)   bands (ev):

   -55.6252 -55.6249 -55.5369 -55.5253 -55.3892 -55.3889 -55.3747 -55.3505
   -55.3330 -55.3302 -55.3298 -55.2694 -54.7235 -54.5669 -54.5668 -54.5585
   -31.9313 -31.9312 -31.9215 -31.9215 -31.9011 -31.8918 -31.7945 -31.7848
   -31.7560 -31.7472 -31.7467 -31.7442 -31.7013 -31.6981 -31.6964 -31.6839
   -31.6813 -31.6664 -31.6625 -31.6440 -31.6046 -31.6025 -31.5975 -31.5917
   -31.5849 -31.5820 -31.5677 -31.5638 -31.5614 -31.5552 -31.5392 -31.5279
   -31.5276 -31.5254 -31.5017 -31.4683 -31.1323 -30.9689 -30.9336 -30.9217
   -30.8942 -30.8941 -30.8027 -30.8026 -30.7845 -30.7660 -30.7634 -30.7634
   -18.0010 -15.7531 -15.7446 -15.5895 -15.5871 -15.4142 -15.4104 -15.3300
   -15.3265 -15.2627 -15.2538 -15.2074 -15.1845 -15.1274 -15.1259 -15.0180
   -15.0153 -14.9859 -14.9677 -14.9513 -14.9487 -14.8685 -14.8574 -14.8433
   -14.8067 -14.7285 -14.7248 -14.5989 -14.5672 -14.2257 -13.0727 -13.0726
   -12.0285  -8.9445  -5.7294  -4.3995  -4.1274  -3.0147  -2.9878  -2.9772
    -2.7861  -2.7818  -2.7347  -2.7250  -2.7046  -2.7029  -2.6489  -2.6426
    -2.5530  -2.5350  -2.5206  -2.5001  -2.4424  -2.4116  -2.4076  -2.3903
    -2.3675  -2.3531  -2.2682  -2.2620  -2.2531  -2.2120  -2.1664  -2.1532
    -2.0871  -2.0408  -2.0187  -1.9830  -1.6598  -1.6364  -1.6248  -1.5186
    -1.4527  -1.4257  -1.4024  -1.3979  -1.3174  -1.3044  -1.2636  -1.2133
    -1.1964  -1.1859  -1.1495  -1.0221  -0.9950  -0.9287  -0.7867  -0.7267
    -0.6708  -0.5995  -0.5649  -0.5443  -0.4976  -0.4138  -0.3718  -0.3424
    -0.3345  -0.3150  -0.2748  -0.2416  -0.2293  -0.1954  -0.1824  -0.1423
    -0.1134  -0.0762  -0.0518  -0.0259   0.0283   0.0915   0.1117   0.1937
     0.2448   0.3375   0.3951   0.5154   0.5217   0.5427   0.5845   0.6112
     0.6721   0.7141   0.8177   0.8349   1.0140   1.0638   1.1691   1.1841
     1.2654   1.7872   1.7874   1.8858   1.8866   3.3675   3.9091   3.9236
     3.9505   3.9595   4.0046   4.0244   4.1471   4.1515   4.1945   4.2024

          k = 0.0380-0.0419 0.0000 ( 17876 PWs)   bands (ev):

   -55.6370 -55.6130 -55.5450 -55.5172 -55.4009 -55.3798 -55.3771 -55.3454
   -55.3436 -55.3322 -55.3196 -55.2670 -54.7243 -54.5788 -54.5577 -54.5548
   -32.0634 -32.0363 -31.9316 -31.9163 -31.8467 -31.8311 -31.8217 -31.7955
   -31.7911 -31.7792 -31.7581 -31.7513 -31.7444 -31.7216 -31.7142 -31.7096
   -31.6824 -31.6420 -31.6359 -31.6146 -31.6124 -31.5860 -31.5728 -31.5698
   -31.5572 -31.5537 -31.5517 -31.5511 -31.5495 -31.5463 -31.5302 -31.5129
   -31.5097 -31.5003 -31.4560 -31.4370 -31.1845 -30.9457 -30.9353 -30.9339
   -30.9138 -30.9040 -30.8844 -30.7938 -30.7661 -30.7597 -30.7328 -30.6662
   -18.0036 -16.0725 -15.8493 -15.5759 -15.5659 -15.4890 -15.4782 -15.4055
   -15.3661 -15.3448 -15.2681 -15.1551 -15.1295 -15.1131 -15.0818 -15.0284
   -14.9703 -14.9453 -14.9289 -14.8983 -14.8615 -14.8390 -14.8299 -14.8084
   -14.7811 -14.7151 -14.6570 -14.5793 -14.5415 -14.1474 -13.0884 -13.0105
   -12.0275  -8.9389  -5.7321  -4.4222  -4.1325  -3.3985  -3.1108  -3.0861
    -3.0603  -3.0301  -2.9294  -2.8648  -2.8288  -2.8139  -2.6792  -2.6500
    -2.5809  -2.5381  -2.5328  -2.4739  -2.4228  -2.3947  -2.3569  -2.3124
    -2.2999  -2.2846  -2.2602  -2.2251  -2.2107  -2.1706  -2.1232  -2.0456
    -2.0354  -1.9908  -1.9153  -1.8768  -1.8010  -1.7516  -1.7144  -1.5963
    -1.5161  -1.4828  -1.4586  -1.3085  -1.2819  -1.2056  -1.1431  -1.1001
    -1.0147  -0.9947  -0.9446  -0.9162  -0.8752  -0.8045  -0.7717  -0.7317
    -0.7124  -0.6506  -0.5978  -0.5451  -0.5254  -0.4765  -0.4512  -0.3709
    -0.3380  -0.3208  -0.2922  -0.2652  -0.2239  -0.2022  -0.1548  -0.1073
    -0.0833   0.0047   0.0268   0.0622   0.1429   0.1502   0.1806   0.2114
     0.2593   0.3828   0.4213   0.4547   0.5459   0.6113   0.6690   0.7343
     0.7816   0.8139   0.8279   0.9001   0.9481   1.0153   1.1392   1.2669
     1.4369   1.6416   1.7243   1.8819   1.9441   3.4202   3.7222   3.8033
     3.9375   3.9913   4.0133   4.0212   4.0719   4.1162   4.1436   4.1519

          k =-0.0760-0.0000 0.0000 ( 17886 PWs)   bands (ev):

   -55.6420 -55.6080 -55.5498 -55.5123 -55.4057 -55.3837 -55.3722 -55.3486
   -55.3415 -55.3344 -55.3147 -55.2648 -54.7250 -54.5838 -54.5569 -54.5498
   -32.1183 -32.0939 -31.9360 -31.9232 -31.9062 -31.8630 -31.8478 -31.8441
   -31.7898 -31.7804 -31.7456 -31.7385 -31.7297 -31.7009 -31.6977 -31.6907
   -31.6801 -31.6385 -31.6373 -31.6264 -31.6113 -31.5913 -31.5767 -31.5712
   -31.5583 -31.5497 -31.5434 -31.5366 -31.5349 -31.5110 -31.5032 -31.5022
   -31.4976 -31.4611 -31.4466 -31.3787 -31.2217 -30.9889 -30.9480 -30.9359
   -30.9113 -30.8943 -30.8790 -30.8063 -30.7656 -30.7365 -30.7200 -30.6090
   -18.0060 -16.1045 -15.8636 -15.6462 -15.6351 -15.5249 -15.4658 -15.4385
   -15.3975 -15.3264 -15.2878 -15.2613 -15.2595 -15.1935 -15.0891 -15.0602
   -15.0383 -14.9414 -14.8829 -14.8541 -14.8422 -14.7784 -14.7464 -14.7207
   -14.7031 -14.6493 -14.6336 -14.5547 -14.5153 -14.0803 -13.0801 -12.9699
   -12.0258  -8.9328  -5.7323  -4.4330  -4.1492  -3.5559  -3.1962  -3.1356
    -3.0420  -3.0192  -2.9501  -2.9244  -2.8795  -2.8649  -2.7833  -2.7767
    -2.7713  -2.6418  -2.5752  -2.3790  -2.3662  -2.3364  -2.2616  -2.1959
    -2.1879  -2.1326  -2.1282  -2.1143  -1.9875  -1.9447  -1.9309  -1.8769
    -1.8681  -1.8554  -1.8328  -1.7936  -1.7359  -1.7186  -1.6454  -1.6041
    -1.5587  -1.4927  -1.3825  -1.2397  -1.2074  -1.2039  -1.2004  -1.1862
    -1.1656  -1.1492  -1.1166  -1.0846  -1.0561  -0.9233  -0.8836  -0.8624
    -0.7921  -0.7468  -0.7358  -0.7178  -0.6922  -0.6096  -0.5103  -0.4183
    -0.3210  -0.2950  -0.2390  -0.2352  -0.2043  -0.1622  -0.0860  -0.0608
    -0.0018   0.0426   0.0741   0.1160   0.1734   0.2089   0.2206   0.2381
     0.2636   0.3406   0.4727   0.4979   0.5019   0.5492   0.6175   0.7165
     0.7968   0.8308   0.9304   0.9552   1.0615   1.0863   1.2393   1.3509
     1.3967   1.4705   1.5815   1.7663   1.9111   3.3838   3.5966   3.6027
     3.7661   3.8322   3.8963   3.9670   4.0109   4.0595   4.1245   4.2167

          k =-0.0760 0.0419 0.0000 ( 17914 PWs)   bands (ev):

   -55.6370 -55.6130 -55.5450 -55.5172 -55.4008 -55.3798 -55.3771 -55.3454
   -55.3437 -55.3322 -55.3196 -55.2670 -54.7243 -54.5788 -54.5577 -54.5548
   -32.0644 -32.0367 -31.9316 -31.9164 -31.8544 -31.8311 -31.8221 -31.7964
   -31.7958 -31.7772 -31.7519 -31.7484 -31.7407 -31.7225 -31.7142 -31.6996
   -31.6824 -31.6360 -31.6271 -31.6143 -31.6122 -31.5830 -31.5744 -31.5724
   -31.5652 -31.5572 -31.5535 -31.5530 -31.5497 -31.5494 -31.5302 -31.5154
   -31.5124 -31.5004 -31.4558 -31.4373 -31.1841 -30.9458 -30.9351 -30.9350
   -30.9138 -30.9067 -30.8837 -30.7938 -30.7666 -30.7598 -30.7329 -30.6662
   -18.0034 -15.9850 -15.7535 -15.5547 -15.5308 -15.4849 -15.4088 -15.3685
   -15.3525 -15.3459 -15.3361 -15.2198 -15.1887 -15.1850 -15.0797 -15.0583
   -14.9885 -14.9617 -14.9349 -14.9122 -14.8936 -14.8875 -14.8838 -14.8140
   -14.7418 -14.6960 -14.6686 -14.5733 -14.5437 -14.1450 -13.0864 -13.0108
   -12.0270  -8.9384  -5.7306  -4.4151  -4.1402  -3.3831  -3.0493  -2.9968
    -2.8838  -2.8330  -2.7427  -2.6636  -2.6614  -2.6389  -2.6235  -2.5972
    -2.5892  -2.5439  -2.5260  -2.4870  -2.4041  -2.3653  -2.3578  -2.2945
    -2.2877  -2.2573  -2.2539  -2.2011  -2.1733  -2.1569  -2.0926  -2.0498
    -2.0220  -1.9121  -1.8059  -1.7593  -1.6983  -1.6804  -1.6638  -1.5737
    -1.5172  -1.4860  -1.4316  -1.4051  -1.2430  -1.1977  -1.1458  -1.1134
    -1.1022  -1.0937  -1.0039  -0.9422  -0.9319  -0.8754  -0.8488  -0.8419
    -0.7833  -0.7688  -0.7598  -0.7157  -0.6590  -0.6328  -0.5621  -0.5306
    -0.5163  -0.4565  -0.4202  -0.3473  -0.3112  -0.2878  -0.2803  -0.1800
    -0.1613  -0.1364  -0.1190  -0.0668   0.0607   0.1283   0.1431   0.1678
     0.2365   0.3559   0.4553   0.5377   0.6258   0.6687   0.7520   0.7925
     0.8203   0.8646   0.9136   0.9277   0.9587   1.0121   1.0382   1.2778
     1.2917   1.6563   1.7285   1.8065   1.9326   3.4220   3.7025   3.8021
     3.8530   3.8899   3.9389   3.9704   4.0326   4.1761   4.2088   4.2717

          k =-0.0760-0.0839 0.0000 ( 17948 PWs)   bands (ev):

   -55.6252 -55.6249 -55.5369 -55.5253 -55.3892 -55.3889 -55.3747 -55.3505
   -55.3331 -55.3303 -55.3298 -55.2694 -54.7236 -54.5669 -54.5668 -54.5585
   -31.9321 -31.9320 -31.9216 -31.9216 -31.9014 -31.8921 -31.7946 -31.7849
   -31.7610 -31.7483 -31.7461 -31.7456 -31.7011 -31.6982 -31.6858 -31.6825
   -31.6738 -31.6700 -31.6695 -31.6443 -31.5999 -31.5981 -31.5849 -31.5819
   -31.5775 -31.5759 -31.5744 -31.5640 -31.5615 -31.5559 -31.5480 -31.5450
   -31.5382 -31.5277 -31.5017 -31.4672 -31.1322 -30.9689 -30.9345 -30.9218
   -30.8951 -30.8950 -30.8027 -30.8026 -30.7846 -30.7666 -30.7635 -30.7634
   -18.0009 -15.6995 -15.6882 -15.5090 -15.5038 -15.4434 -15.4372 -15.2843
   -15.2834 -15.2650 -15.2568 -15.1335 -15.1297 -15.0983 -15.0946 -15.0523
   -15.0437 -15.0254 -15.0171 -15.0154 -15.0088 -14.9824 -14.9316 -14.8974
   -14.8919 -14.7149 -14.7138 -14.5936 -14.5610 -14.2217 -13.0725 -13.0724
   -12.0282  -8.9443  -5.7288  -4.3986  -4.1315  -3.0096  -2.9892  -2.9772
    -2.7039  -2.6987  -2.6745  -2.6638  -2.4588  -2.4460  -2.4247  -2.4191
    -2.3919  -2.3860  -2.3711  -2.3640  -2.2813  -2.2704  -2.2592  -2.2348
    -2.2293  -2.2261  -2.2107  -2.2032  -2.1932  -2.1597  -2.1243  -2.0953
    -2.0604  -2.0377  -1.9188  -1.8085  -1.7304  -1.7236  -1.6930  -1.6872
    -1.6813  -1.6748  -1.6420  -1.5376  -1.4780  -1.4244  -1.2877  -1.2639
    -1.2453  -1.2009  -1.1125  -1.0318  -0.9683  -0.9517  -0.9039  -0.8608
    -0.8359  -0.7509  -0.7277  -0.7199  -0.6515  -0.6197  -0.5752  -0.5693
    -0.5556  -0.4891  -0.4412  -0.3915  -0.3679  -0.3373  -0.2920  -0.2714
    -0.2086  -0.1550  -0.1091  -0.1036  -0.0553  -0.0472   0.0170   0.1673
     0.2169   0.4706   0.4852   0.5155   0.6401   0.7116   0.7170   0.7446
     0.7765   0.8280   0.8399   0.9737   0.9853   0.9878   1.1534   1.1777
     1.2631   1.8060   1.8063   1.8696   1.8699   3.4317   3.9215   3.9389
     3.9641   3.9792   4.0505   4.0515   4.0597   4.0672   4.2451   4.2653

     the Fermi energy is     3.5063 ev

!    total energy              =   -2940.39751896 Ry
     estimated scf accuracy    <       0.00000003 Ry
     smearing contrib. (-TS)   =      -0.02303352 Ry
     internal energy E=F+TS    =   -2940.37448545 Ry

     The total energy is F=E-TS. E is the sum of the following terms:
     one-electron contribution =  -24109.35640054 Ry
     hartree contribution      =   12145.91091206 Ry
     xc contribution           =    -486.04555747 Ry
     ewald contribution        =    9509.11413822 Ry
     electric field correction =       0.00242227 Ry

     convergence has been achieved in  82 iterations

     Forces acting on atoms (cartesian axes, Ry/au):

     atom    1 type  1   force =     0.00015794   -0.00012127    0.09933090
     atom    2 type  1   force =    -0.00012027   -0.00047516   -0.17360516
     atom    3 type  2   force =    -0.00005179   -0.00000007   -0.02878785
     atom    4 type  2   force =     0.00007349   -0.00124995    0.04996519
     atom    5 type  2   force =    -0.01304709    0.00057718    0.00122821
     atom    6 type  2   force =     0.01459443    0.00138452   -0.00009639
     atom    7 type  1   force =    -0.00144261   -0.00060478   -0.00835837
     atom    8 type  1   force =     0.00088162   -0.00412710    0.04511828
     atom    9 type  2   force =    -0.00003069   -0.00065819   -0.00024122
     atom   10 type  2   force =    -0.00129068    0.00227538   -0.02838819
     atom   11 type  2   force =     0.00018680    0.00061676   -0.00002811
     atom   12 type  2   force =     0.00026490    0.00040888    0.00012081
     atom   13 type  1   force =     0.00037310    0.00020806   -0.00065037
     atom   14 type  1   force =     0.00002003    0.00047693    0.00028894
     atom   15 type  2   force =     0.00033832   -0.00008170   -0.00000040
     atom   16 type  2   force =    -0.00040745   -0.00023312   -0.00015230
     atom   17 type  2   force =    -0.00097182    0.00015953   -0.00049751
     atom   18 type  2   force =     0.00091247    0.00017617    0.00021752
     atom   19 type  1   force =     0.00019583   -0.00005781    0.00000108
     atom   20 type  1   force =    -0.00035215   -0.00085156    0.00016341
     atom   21 type  2   force =     0.00009191   -0.00007226    0.10275742
     atom   22 type  2   force =     0.00007893    0.00004917    0.00019761
     atom   23 type  2   force =    -0.07213479   -0.00015903   -0.02833293
     atom   24 type  2   force =     0.07213142    0.00029821   -0.02832794
     atom   25 type  1   force =     0.00012325   -0.00019859    0.09865515
     atom   26 type  1   force =    -0.00010763   -0.00045923   -0.17382212
     atom   27 type  2   force =     0.00001175   -0.00002475   -0.02806760
     atom   28 type  2   force =     0.00011406   -0.00100055    0.04942198
     atom   29 type  2   force =    -0.01336614    0.00005496    0.00128979
     atom   30 type  2   force =     0.01482386    0.00041993   -0.00005381
     atom   31 type  1   force =    -0.00139381    0.00250506   -0.00864240
     atom   32 type  1   force =     0.00106239    0.00237549    0.04544276
     atom   33 type  2   force =    -0.00012988    0.00104418    0.00057945
     atom   34 type  2   force =    -0.00071728    0.00120292   -0.03112969
     atom   35 type  2   force =     0.00067888   -0.00050920   -0.00017130
     atom   36 type  2   force =    -0.00162703   -0.00011251    0.00007288
     atom   37 type  1   force =    -0.00018265   -0.00153463    0.00013998
     atom   38 type  1   force =     0.00077559   -0.00004571    0.00048094
     atom   39 type  2   force =     0.00032479    0.00015723   -0.00051008
     atom   40 type  2   force =    -0.00040185    0.00033051   -0.00001088
     atom   41 type  2   force =     0.00043264   -0.00058526    0.00003242
     atom   42 type  2   force =    -0.00042645   -0.00072287    0.00050808
     atom   43 type  1   force =     0.00034143   -0.00032505   -0.00057641
     atom   44 type  1   force =    -0.00038385   -0.00064007   -0.00028014
     atom   45 type  2   force =     0.00011038   -0.00006942    0.10278131
     atom   46 type  2   force =    -0.07215634   -0.00009652   -0.02832810
     atom   47 type  2   force =     0.07213996    0.00034466   -0.02830431
     atom   48 type  3   force =    -0.00194561   -0.00083341   -0.00166159
     atom   49 type  3   force =    -0.00008097   -0.00042892    0.00017157
     atom   50 type  4   force =     0.02006677   -0.00053759    0.00026452
     atom   51 type  5   force =    -0.00456103    0.00370565   -0.00121824
     atom   52 type  5   force =    -0.00258144   -0.00127487    0.00239704
     atom   53 type  5   force =    -0.01079632   -0.00119461   -0.00155600
     atom   54 type  5   force =    -0.00059930    0.00051436    0.00017218

     Total force =     0.372975     Total SCF correction =     0.000462
  @ DRIVER MODE: Message from server: STATUS
  @ DRIVER MODE: Message from server: GETFORCE
  @ DRIVER MODE: Returning v,forces,stress,ensemble 

     Writing output data file ./calc.save/
  @ DRIVER MODE: Message from server: EXIT
  @ DRIVE MODE: Exiting  
 
     init_run     :     17.68s CPU     18.01s WALL (       1 calls)
     electrons    :   1975.34s CPU   2018.40s WALL (       1 calls)
     forces       :      3.73s CPU      3.88s WALL (       1 calls)

     Called by init_run:
     wfcinit      :      7.77s CPU      7.87s WALL (       1 calls)
     potinit      :      8.90s CPU      9.00s WALL (       1 calls)
     hinit0       :      0.48s CPU      0.49s WALL (       1 calls)

     Called by electrons:
     c_bands      :   1642.64s CPU   1664.13s WALL (      82 calls)
     sum_band     :    225.46s CPU    235.75s WALL (      82 calls)
     v_of_rho     :     79.43s CPU     82.24s WALL (      83 calls)
     newd         :     32.52s CPU     41.02s WALL (      83 calls)
     mix_rho      :      3.00s CPU      3.04s WALL (      82 calls)
     vdW_kernel   :      7.58s CPU      7.60s WALL (       1 calls)

     Called by c_bands:
     init_us_2    :     12.46s CPU     12.52s WALL (    1660 calls)
     cegterg      :   1605.95s CPU   1626.89s WALL (     832 calls)

     Called by *egterg:
     cdiaghg      :    182.90s CPU    183.65s WALL (    7438 calls)
     h_psi        :    933.37s CPU    946.98s WALL (    7448 calls)
     s_psi        :    122.09s CPU    122.45s WALL (    7448 calls)
     g_psi        :      3.37s CPU      3.39s WALL (    6606 calls)

     Called by h_psi:
     h_psi:calbec :    113.46s CPU    114.82s WALL (    7448 calls)
     vloc_psi     :    693.26s CPU    699.41s WALL (    7448 calls)
     add_vuspsi   :    122.25s CPU    124.76s WALL (    7448 calls)

     General routines
     calbec       :    151.02s CPU    152.51s WALL (    8308 calls)
     fft          :     42.89s CPU     43.08s WALL (    5229 calls)
     ffts         :      0.26s CPU      0.26s WALL (     165 calls)
     fftw         :    772.72s CPU    779.42s WALL ( 1078160 calls)
     interpolate  :      0.82s CPU      0.82s WALL (      83 calls)
     davcio       :      0.00s CPU      0.17s WALL (      10 calls)
 
     Parallel routines
 
     PWSCF        :  33m16.98s CPU  34m 1.87s WALL

 
   This run was terminated on:  23:26: 1  24Aug2021            

=------------------------------------------------------------------------------=
   JOB DONE.
=------------------------------------------------------------------------------=
