
     Program PWSCF v.6.7GPU starts on  2Aug2021 at 16:40:57 

     This program is part of the open-source Quantum ESPRESSO suite
     for quantum simulation of materials; please cite
         "P. Giannozzi et al., J. Phys.:Condens. Matter 21 395502 (2009);
         "P. Giannozzi et al., J. Phys.:Condens. Matter 29 465901 (2017);
         "P. Giannozzi et al., J. Chem. Phys. 152 154105 (2020);
          URL http://www.quantum-espresso.org", 
     in publications or presentations arising from this work. More details at
     http://www.quantum-espresso.org/quote

     Parallel version (MPI), running on    16 processors

     MPI processes distributed on     1 nodes
     R & G space division:  proc/nbgrp/npool/nimage =      16
     Reading input from /storage/home/hcoda1/3/ntian30/research/carbon/02Aug_vib_paired/ads_slab/CH3NH_b/out_0014/pw.inp
Warning: card &CELL ignored
Warning: card   CELL_DYNAMICS='IPI', ignored
Warning: card / ignored

     Current dimensions of program PWSCF are:
     Max number of different atomic species (ntypx) = 10
     Max number of k-points (npk) =  40000
     Max angular momentum in pseudopotentials (lmaxx) =  3
     Presently no symmetry can be used with electric field

     Message from routine cell_base_init:
     DEPRECATED: use true lattice parameter, not A to a.u. conversion factor

     **************************************************************************
     Initializing libbeef V0.1.2 with the BEEF-vdW functional.
     Citation: Wellendorff et al., PRB 85, 235149 (2012).
     **************************************************************************


     IMPORTANT: XC functional enforced from input :
     Exchange-correlation= BEEF-VDW
                           (   1   4  43  14   2   0   0)
     Any further DFT definition will be discarded
     Please, verify this is what you really want


     Subspace diagonalization in iterative solution of the eigenvalue problem:
     one sub-group per band group will be used
     scalapack distributed-memory algorithm (size of sub-group:  4*  4 procs)

  @ DRIVER MODE: Connecting to 
 qe_1139763_2482541.sched-torque.pace.gatech.edute6luwqs_scratch
  using UNIX socket
  @ DRIVER MODE: Message from server: STATUS
  @ DRIVER MODE: Message from server: INIT
  @ DRIVER MODE: Receiving replica           0          -1
  @ DRIVER MODE: Receiving encoded integer          25
  @ DRIVER MODE:  SCF:  T  FORCE:  T  STRESS:  F  VC:  F  ENSEMBLE:  F
  @ DRIVER MODE:  SCF:  T  FORCE:  T  STRESS:  F  VC:  F  ENSEMBLE:  F
 
     Parallelization info
     --------------------
     sticks:   dense  smooth     PW     G-vecs:    dense   smooth      PW
     Min         204      82     23                35422     8962    1367
     Max         205      84     24                35435     8968    1382
     Sum        3275    1317    379               566857   143421   21985
 
     Using Slab Decomposition
 


     bravais-lattice index     =            0
     lattice parameter (alat)  =       1.8897  a.u.
     unit-cell volume          =    6658.9804 (a.u.)^3
     number of atoms/cell      =           53
     number of atomic types    =            5
     number of electrons       =       391.00
     number of Kohn-Sham states=          205
     kinetic-energy cutoff     =      29.3995  Ry
     charge density cutoff     =     293.9946  Ry
     scf convergence threshold =      7.3E-08
     mixing beta               =       0.0500
     number of iterations used =            8  plain     mixing
     Exchange-correlation= BEEF-VDW
                           (   1   4  43  14   2   0   0)

     celldm(1)=   1.889726  celldm(2)=   0.000000  celldm(3)=   0.000000
     celldm(4)=   0.000000  celldm(5)=   0.000000  celldm(6)=   0.000000

     crystal axes: (cart. coord. in units of alat)
               a(1) = (   6.579727   0.000000   0.000000 )  
               a(2) = (  -0.000775   5.961596   0.000000 )  
               a(3) = (   0.000000   0.000000  25.155947 )  

     reciprocal axes: (cart. coord. in units 2 pi/alat)
               b(1) = (  0.151982  0.000020  0.000000 )  
               b(2) = (  0.000000  0.167740  0.000000 )  
               b(3) = (  0.000000  0.000000  0.039752 )  


     PseudoPot. # 1 for Ti read from file:
     /storage/coda1/p-amedford6/0/shared/rich_project_chbe-medford/medford-share/data/pseudos_module/espresso/nninc/pbe/van/Ti.UPF
     MD5 check sum: 8e4df49b7f0d34bbd5052bf3f5ea0213
     Pseudo is Ultrasoft, Zval = 12.0
     Generated by new atomic code, or converted to UPF format
     Using radial grid of  851 points,  6 beta functions with: 
                l(1) =   0
                l(2) =   0
                l(3) =   1
                l(4) =   1
                l(5) =   2
                l(6) =   2
     Q(r) pseudized with  8 coefficients,  rinner =    1.000   1.000   1.000
                                                       1.000   1.000

     PseudoPot. # 2 for O  read from file:
     /storage/coda1/p-amedford6/0/shared/rich_project_chbe-medford/medford-share/data/pseudos_module/espresso/nninc/pbe/van/O.UPF
     MD5 check sum: 78c19812648e8988a0fe644b0f25305e
     Pseudo is Ultrasoft, Zval =  6.0
     Generated by new atomic code, or converted to UPF format
     Using radial grid of  737 points,  4 beta functions with: 
                l(1) =   0
                l(2) =   0
                l(3) =   1
                l(4) =   1
     Q(r) pseudized with  8 coefficients,  rinner =    0.800   0.800   0.800


     PseudoPot. # 3 for H  read from file:
     /storage/coda1/p-amedford6/0/shared/rich_project_chbe-medford/medford-share/data/pseudos_module/espresso/nninc/pbe/van/H.UPF
     MD5 check sum: b5ee9d7bfd3a09ee7748110bda690ff7
     Pseudo is Ultrasoft, Zval =  1.0
     Generated by new atomic code, or converted to UPF format
     Using radial grid of  615 points,  1 beta functions with: 
                l(1) =   0
     Q(r) pseudized with  8 coefficients,  rinner =    0.800

     PseudoPot. # 4 for N  read from file:
     /storage/coda1/p-amedford6/0/shared/rich_project_chbe-medford/medford-share/data/pseudos_module/espresso/nninc/pbe/van/N.UPF
     MD5 check sum: 90d10febe142ad51ac9d5be1deb811c4
     Pseudo is Ultrasoft, Zval =  5.0
     Generated by new atomic code, or converted to UPF format
     Using radial grid of  729 points,  4 beta functions with: 
                l(1) =   0
                l(2) =   0
                l(3) =   1
                l(4) =   1
     Q(r) pseudized with  8 coefficients,  rinner =    0.800   0.800   0.800


     PseudoPot. # 5 for C  read from file:
     /storage/coda1/p-amedford6/0/shared/rich_project_chbe-medford/medford-share/data/pseudos_module/espresso/nninc/pbe/van/C.UPF
     MD5 check sum: 1a69bf6b8db32088f5b2163dbdb77a27
     Pseudo is Ultrasoft, Zval =  4.0
     Generated by new atomic code, or converted to UPF format
     Using radial grid of  721 points,  4 beta functions with: 
                l(1) =   0
                l(2) =   0
                l(3) =   1
                l(4) =   1
     Q(r) pseudized with  8 coefficients,  rinner =    0.800   0.800   0.800


     atomic species   valence    mass     pseudopotential
        Ti1           12.00    47.86700     Ti( 1.00)
        O1             6.00    15.99900     O ( 1.00)
        H1             1.00     1.00800     H ( 1.00)
        N1             5.00    14.00700     N ( 1.00)
        C1             4.00    12.01100     C ( 1.00)

     No symmetry found



   Cartesian axes

     site n.     atom                  positions (alat units)
         1           Ti1 tau(   1) = (   0.0004258   2.9801865   6.0000000  )
         2           Ti1 tau(   2) = (   3.2906075   1.4906267   6.0002472  )
         3           O1  tau(   3) = (   0.0006271   0.0005054   7.9858123  )
         4           O1  tau(   4) = (   3.2906025   0.0005020   7.3038282  )
         5           O1  tau(   5) = (   4.5942328   1.4918067   9.2879030  )
         6           O1  tau(   6) = (   1.9868534   1.4903216   9.2879459  )
         7           Ti1 tau(   7) = (   3.2907910   2.8959150   9.1758416  )
         8           Ti1 tau(   8) = (   0.0015273   1.4827037   9.2680791  )
         9           O1  tau(   9) = (   3.2906183   5.9580730  11.3246990  )
        10           O1  tau(  10) = (   0.0116148   5.9584955  10.6183126  )
        11           O1  tau(  11) = (   1.3160896   1.4863360  12.6200149  )
        12           O1  tau(  12) = (   5.2947061   1.4800608  12.6053981  )
        13           Ti1 tau(  13) = (   6.5224157   2.9421717  12.6196007  )
        14           Ti1 tau(  14) = (   3.2076970   1.4879367  12.4696142  )
        15           O1  tau(  15) = (   6.5517659   0.0158556  14.6493665  )
        16           O1  tau(  16) = (   3.3109316   0.0069331  13.9179417  )
        17           O1  tau(  17) = (   4.5083530   1.5297238  16.0872293  )
        18           O1  tau(  18) = (   2.0274073   1.5273405  16.0409094  )
        19           Ti1 tau(  19) = (   3.2920608   3.0081397  15.6838061  )
        20           Ti1 tau(  20) = (   0.0536170   1.5416865  15.8648894  )
        21           O1  tau(  21) = (   3.2904802   0.0005063   4.7018136  )
        22           O1  tau(  22) = (   0.0122827   0.0301012  17.2134340  )
        23           O1  tau(  23) = (   1.3043587   1.4918075   6.0039043  )
        24           O1  tau(  24) = (   5.2767064   1.4903225   6.0039473  )
        25           Ti1 tau(  25) = (   0.0000382   5.9609847   6.0000000  )
        26           Ti1 tau(  26) = (   3.2902200   4.4714249   6.0002472  )
        27           O1  tau(  27) = (   0.0002396   2.9813036   7.9858123  )
        28           O1  tau(  28) = (   3.2902150   2.9813002   7.3038282  )
        29           O1  tau(  29) = (   4.5938453   4.4726049   9.2879030  )
        30           O1  tau(  30) = (   1.9864658   4.4711199   9.2879459  )
        31           Ti1 tau(  31) = (   3.2891106   5.8743827   9.1763621  )
        32           Ti1 tau(  32) = (   0.0006254   4.4649316   9.2693709  )
        33           O1  tau(  33) = (   3.2866862   2.9837957  11.3234553  )
        34           O1  tau(  34) = (   0.0092240   2.9805883  10.6323155  )
        35           O1  tau(  35) = (   1.3095649   4.4762946  12.6335636  )
        36           O1  tau(  36) = (   5.2963019   4.4650584  12.6194355  )
        37           Ti1 tau(  37) = (   6.5192018   5.9199268  12.5733442  )
        38           Ti1 tau(  38) = (   3.2055211   4.4685508  12.4747853  )
        39           O1  tau(  39) = (   6.5624772   2.9349094  14.6472044  )
        40           O1  tau(  40) = (   3.3065106   2.9879112  13.8942307  )
        41           O1  tau(  41) = (   4.5199725   4.4841037  16.0899424  )
        42           O1  tau(  42) = (   2.0389375   4.4882992  16.0664246  )
        43           Ti1 tau(  43) = (   3.3279474   0.0221627  15.7114356  )
        44           Ti1 tau(  44) = (   0.0314192   4.6578676  16.1055029  )
        45           O1  tau(  45) = (   3.2900926   2.9813045   4.7018136  )
        46           O1  tau(  46) = (   1.3039711   4.4726057   6.0039043  )
        47           O1  tau(  47) = (   5.2763189   4.4711207   6.0039473  )
        48           H1  tau(  48) = (   5.5751926   2.9245997  17.7795037  )
        49           N1  tau(  49) = (   6.5345126   2.9709300  17.4463781  )
        50           C1  tau(  50) = (   0.8305834   2.9192471  18.6315588  )
        51           H1  tau(  51) = (   0.6379014   3.7726647  19.2931901  )
        52           H1  tau(  52) = (   0.6616828   1.9903841  19.1881566  )
        53           H1  tau(  53) = (   1.8691752   2.9530840  18.3388921  )

     number of k points=    10  Fermi-Dirac smearing, width (Ry)=  0.0073
                       cart. coord. in units 2pi/alat
        k(    1) = (   0.0000000   0.0000000   0.0000000), wk =   0.1250000
        k(    2) = (   0.0000000   0.0419351   0.0000000), wk =   0.2500000
        k(    3) = (   0.0000000  -0.0838702   0.0000000), wk =   0.1250000
        k(    4) = (   0.0379955   0.0000049   0.0000000), wk =   0.2500000
        k(    5) = (   0.0379955   0.0419400   0.0000000), wk =   0.2500000
        k(    6) = (   0.0379955  -0.0838652   0.0000000), wk =   0.2500000
        k(    7) = (   0.0379955  -0.0419301   0.0000000), wk =   0.2500000
        k(    8) = (  -0.0759910  -0.0000099   0.0000000), wk =   0.1250000
        k(    9) = (  -0.0759910   0.0419252   0.0000000), wk =   0.2500000
        k(   10) = (  -0.0759910  -0.0838800   0.0000000), wk =   0.1250000

     Dense  grid:   566857 G-vectors     FFT dimensions: (  72,  64, 270)

     Smooth grid:   143421 G-vectors     FFT dimensions: (  45,  40, 180)

     Estimated max dynamical RAM per process >     229.32 MB

     Estimated total dynamical RAM >       3.58 GB
     Cannot read rho : file not found

     Initial potential from superposition of free atoms

     starting charge  374.99916, renormalised to  391.00000

     negative rho (up, down):  1.779E-02 0.000E+00


     %%%%%%%%%%%%%%%%%%%%%%%%%%%%%%%%%%%%%%%%%%%%%%%%%%%%%%%%%%%%%%%%%%%%%%%%
     %                                                                      %
     % You are using vdW-DF, which was implemented by the Thonhauser group. %
     % Please cite the following two papers that made this development      %
     % possible and the two reviews that describe the various versions:     %
     %                                                                      %
     %   T. Thonhauser et al., PRL 115, 136402 (2015).                      %
     %   T. Thonhauser et al., PRB 76, 125112 (2007).                       %
     %   K. Berland et al., Rep. Prog. Phys. 78, 066501 (2015).             %
     %   D.C. Langreth et al., J. Phys.: Condens. Matter 21, 084203 (2009). %
     %                                                                      %
     %                                                                      %
     % If you are calculating the stress with vdW-DF, please also cite:     %
     %                                                                      %
     %   R. Sabatini et al., J. Phys.: Condens. Matter 24, 424209 (2012).   %
     %                                                                      %
     %%%%%%%%%%%%%%%%%%%%%%%%%%%%%%%%%%%%%%%%%%%%%%%%%%%%%%%%%%%%%%%%%%%%%%%%


 
     Adding external electric field

     Computed dipole along edir(3) : 
        Dipole               -5.8162 Ry au,        -14.7834 Debye
        Dipole field         -0.0110 Ry au, 
 
        Potential amp.        1.0175 Ry
        Total length         46.3494 bohr
 
     Starting wfcs are  296 atomic wfcs
  @ DRIVER MODE: Message from server: STATUS
  @ DRIVER MODE: Message from server: POSDATA
  @ DRIVER MODE: Reading and sharing cell 
  @ DRIVER MODE: Reading and sharing positions 
  @ DRIVER MODE: Received positions 

     total cpu time spent up to now is        7.7 secs

     Self-consistent Calculation

     iteration #  1     ecut=    29.40 Ry     beta= 0.05
     Davidson diagonalization with overlap
     c_bands:  3 eigenvalues not converged
     c_bands:  1 eigenvalues not converged
     c_bands:  1 eigenvalues not converged
     c_bands:  3 eigenvalues not converged
     c_bands:  4 eigenvalues not converged
     c_bands:  2 eigenvalues not converged
     c_bands:  1 eigenvalues not converged
     c_bands:  1 eigenvalues not converged
     c_bands:  2 eigenvalues not converged
     ethr =  1.00E-05,  avg # of iterations = 19.5

     negative rho (up, down):  1.705E-02 0.000E+00
 
     Adding external electric field

     Computed dipole along edir(3) : 
        Dipole               26.0138 Ry au,         66.1205 Debye
        Dipole field          0.0491 Ry au, 
 
        Potential amp.       -4.5507 Ry
        Total length         46.3494 bohr
 

     total cpu time spent up to now is       37.2 secs

     total energy              =   -2770.72115386 Ry
     estimated scf accuracy    <    1640.86290257 Ry

     iteration #  2     ecut=    29.40 Ry     beta= 0.05
     Davidson diagonalization with overlap
     ethr =  1.00E-02,  avg # of iterations = 18.8

     negative rho (up, down):  6.946E-03 0.000E+00
 
     Adding external electric field

     Computed dipole along edir(3) : 
        Dipole               -2.3476 Ry au,         -5.9670 Debye
        Dipole field         -0.0044 Ry au, 
 
        Potential amp.        0.4107 Ry
        Total length         46.3494 bohr
 

     total cpu time spent up to now is       78.8 secs

     total energy              =   -2641.06091402 Ry
     estimated scf accuracy    <   36858.57712856 Ry

     iteration #  3     ecut=    29.40 Ry     beta= 0.05
     Davidson diagonalization with overlap
     ethr =  1.00E-02,  avg # of iterations = 15.4

     negative rho (up, down):  6.991E-03 0.000E+00
 
     Adding external electric field

     Computed dipole along edir(3) : 
        Dipole               -3.5029 Ry au,         -8.9035 Debye
        Dipole field         -0.0066 Ry au, 
 
        Potential amp.        0.6128 Ry
        Total length         46.3494 bohr
 

     total cpu time spent up to now is      107.0 secs

     total energy              =   -2908.57128377 Ry
     estimated scf accuracy    <    1327.27322639 Ry

     iteration #  4     ecut=    29.40 Ry     beta= 0.05
     Davidson diagonalization with overlap
     ethr =  1.00E-02,  avg # of iterations =  6.7

     negative rho (up, down):  7.097E-03 0.000E+00
 
     Adding external electric field

     Computed dipole along edir(3) : 
        Dipole               -4.5164 Ry au,        -11.4796 Debye
        Dipole field         -0.0085 Ry au, 
 
        Potential amp.        0.7901 Ry
        Total length         46.3494 bohr
 

     total cpu time spent up to now is      115.8 secs

     total energy              =   -2901.60452691 Ry
     estimated scf accuracy    <     966.22248480 Ry

     iteration #  5     ecut=    29.40 Ry     beta= 0.05
     Davidson diagonalization with overlap
     ethr =  1.00E-02,  avg # of iterations = 10.1

     negative rho (up, down):  6.972E-03 0.000E+00
 
     Adding external electric field

     Computed dipole along edir(3) : 
        Dipole               -4.2554 Ry au,        -10.8162 Debye
        Dipole field         -0.0080 Ry au, 
 
        Potential amp.        0.7444 Ry
        Total length         46.3494 bohr
 

     total cpu time spent up to now is      129.4 secs

     total energy              =   -2922.69023553 Ry
     estimated scf accuracy    <      12.87018087 Ry

     iteration #  6     ecut=    29.40 Ry     beta= 0.05
     Davidson diagonalization with overlap
     ethr =  3.29E-03,  avg # of iterations =  2.7

     negative rho (up, down):  7.125E-03 0.000E+00
 
     Adding external electric field

     Computed dipole along edir(3) : 
        Dipole               -1.9062 Ry au,         -4.8450 Debye
        Dipole field         -0.0036 Ry au, 
 
        Potential amp.        0.3335 Ry
        Total length         46.3494 bohr
 

     total cpu time spent up to now is      137.3 secs

     total energy              =   -2918.57387235 Ry
     estimated scf accuracy    <      11.79315335 Ry

     iteration #  7     ecut=    29.40 Ry     beta= 0.05
     Davidson diagonalization with overlap
     ethr =  3.02E-03,  avg # of iterations = 10.8

     negative rho (up, down):  7.130E-03 0.000E+00
 
     Adding external electric field

     Computed dipole along edir(3) : 
        Dipole               -1.6768 Ry au,         -4.2621 Debye
        Dipole field         -0.0032 Ry au, 
 
        Potential amp.        0.2933 Ry
        Total length         46.3494 bohr
 

     total cpu time spent up to now is      162.3 secs

     total energy              =   -2923.56003790 Ry
     estimated scf accuracy    <     209.77979168 Ry

     iteration #  8     ecut=    29.40 Ry     beta= 0.05
     Davidson diagonalization with overlap
     ethr =  3.02E-03,  avg # of iterations =  1.8

     negative rho (up, down):  7.010E-03 0.000E+00
 
     Adding external electric field

     Computed dipole along edir(3) : 
        Dipole               -2.6249 Ry au,         -6.6718 Debye
        Dipole field         -0.0050 Ry au, 
 
        Potential amp.        0.4592 Ry
        Total length         46.3494 bohr
 

     total cpu time spent up to now is      175.8 secs

     total energy              =   -2918.26227247 Ry
     estimated scf accuracy    <     251.35814761 Ry

     iteration #  9     ecut=    29.40 Ry     beta= 0.05
     Davidson diagonalization with overlap
     ethr =  3.02E-03,  avg # of iterations =  4.4

     negative rho (up, down):  6.973E-03 0.000E+00
 
     Adding external electric field

     Computed dipole along edir(3) : 
        Dipole               -2.7511 Ry au,         -6.9927 Debye
        Dipole field         -0.0052 Ry au, 
 
        Potential amp.        0.4813 Ry
        Total length         46.3494 bohr
 

     total cpu time spent up to now is      183.9 secs

     total energy              =   -2919.21761606 Ry
     estimated scf accuracy    <      68.97516832 Ry

     iteration # 10     ecut=    29.40 Ry     beta= 0.05
     Davidson diagonalization with overlap
     ethr =  3.02E-03,  avg # of iterations =  3.1

     negative rho (up, down):  6.992E-03 0.000E+00
 
     Adding external electric field

     Computed dipole along edir(3) : 
        Dipole               -2.7360 Ry au,         -6.9542 Debye
        Dipole field         -0.0052 Ry au, 
 
        Potential amp.        0.4786 Ry
        Total length         46.3494 bohr
 

     total cpu time spent up to now is      191.4 secs

     total energy              =   -2918.90303105 Ry
     estimated scf accuracy    <      53.00017301 Ry

     iteration # 11     ecut=    29.40 Ry     beta= 0.05
     Davidson diagonalization with overlap
     ethr =  3.02E-03,  avg # of iterations =  4.9

     negative rho (up, down):  7.048E-03 0.000E+00
 
     Adding external electric field

     Computed dipole along edir(3) : 
        Dipole               -2.6957 Ry au,         -6.8519 Debye
        Dipole field         -0.0051 Ry au, 
 
        Potential amp.        0.4716 Ry
        Total length         46.3494 bohr
 

     total cpu time spent up to now is      199.5 secs

     total energy              =   -2919.02051080 Ry
     estimated scf accuracy    <      24.98549883 Ry

     iteration # 12     ecut=    29.40 Ry     beta= 0.05
     Davidson diagonalization with overlap
     c_bands:  2 eigenvalues not converged
     ethr =  3.02E-03,  avg # of iterations =  8.6

     negative rho (up, down):  7.019E-03 0.000E+00
 
     Adding external electric field

     Computed dipole along edir(3) : 
        Dipole               -2.3371 Ry au,         -5.9402 Debye
        Dipole field         -0.0044 Ry au, 
 
        Potential amp.        0.4088 Ry
        Total length         46.3494 bohr
 

     total cpu time spent up to now is      208.8 secs

     total energy              =   -2920.22873315 Ry
     estimated scf accuracy    <       0.83274572 Ry

     iteration # 13     ecut=    29.40 Ry     beta= 0.05
     Davidson diagonalization with overlap
     c_bands:  2 eigenvalues not converged
     ethr =  2.13E-04,  avg # of iterations = 15.6

     negative rho (up, down):  6.973E-03 0.000E+00
 
     Adding external electric field

     Computed dipole along edir(3) : 
        Dipole               -2.1586 Ry au,         -5.4867 Debye
        Dipole field         -0.0041 Ry au, 
 
        Potential amp.        0.3776 Ry
        Total length         46.3494 bohr
 

     total cpu time spent up to now is      223.2 secs

     total energy              =   -2920.54205770 Ry
     estimated scf accuracy    <       1.25750459 Ry

     iteration # 14     ecut=    29.40 Ry     beta= 0.05
     Davidson diagonalization with overlap
     ethr =  2.13E-04,  avg # of iterations =  2.8

     negative rho (up, down):  7.059E-03 0.000E+00
 
     Adding external electric field

     Computed dipole along edir(3) : 
        Dipole               -1.6680 Ry au,         -4.2397 Debye
        Dipole field         -0.0031 Ry au, 
 
        Potential amp.        0.2918 Ry
        Total length         46.3494 bohr
 

     total cpu time spent up to now is      230.8 secs

     total energy              =   -2920.43195808 Ry
     estimated scf accuracy    <       1.07916080 Ry

     iteration # 15     ecut=    29.40 Ry     beta= 0.05
     Davidson diagonalization with overlap
     ethr =  2.13E-04,  avg # of iterations =  8.7

     negative rho (up, down):  7.268E-03 0.000E+00
 
     Adding external electric field

     Computed dipole along edir(3) : 
        Dipole               -1.2435 Ry au,         -3.1607 Debye
        Dipole field         -0.0023 Ry au, 
 
        Potential amp.        0.2175 Ry
        Total length         46.3494 bohr
 

     total cpu time spent up to now is      240.1 secs

     total energy              =   -2920.42276942 Ry
     estimated scf accuracy    <       0.46665402 Ry

     iteration # 16     ecut=    29.40 Ry     beta= 0.05
     Davidson diagonalization with overlap
     c_bands:  2 eigenvalues not converged
     c_bands:  1 eigenvalues not converged
     c_bands:  3 eigenvalues not converged
     c_bands:  1 eigenvalues not converged
     c_bands:  1 eigenvalues not converged
     c_bands:  1 eigenvalues not converged
     c_bands:  2 eigenvalues not converged
     ethr =  1.19E-04,  avg # of iterations = 21.5

     negative rho (up, down):  7.272E-03 0.000E+00
 
     Adding external electric field

     Computed dipole along edir(3) : 
        Dipole               -1.0532 Ry au,         -2.6771 Debye
        Dipole field         -0.0020 Ry au, 
 
        Potential amp.        0.1842 Ry
        Total length         46.3494 bohr
 

     total cpu time spent up to now is      256.7 secs

     total energy              =   -2920.45483826 Ry
     estimated scf accuracy    <       0.85332185 Ry

     iteration # 17     ecut=    29.40 Ry     beta= 0.05
     Davidson diagonalization with overlap
     ethr =  1.19E-04,  avg # of iterations =  2.5

     negative rho (up, down):  7.481E-03 0.000E+00
 
     Adding external electric field

     Computed dipole along edir(3) : 
        Dipole               -0.5923 Ry au,         -1.5056 Debye
        Dipole field         -0.0011 Ry au, 
 
        Potential amp.        0.1036 Ry
        Total length         46.3494 bohr
 

     total cpu time spent up to now is      264.3 secs

     total energy              =   -2920.37025488 Ry
     estimated scf accuracy    <       0.60395310 Ry

     iteration # 18     ecut=    29.40 Ry     beta= 0.05
     Davidson diagonalization with overlap
     c_bands:  2 eigenvalues not converged
     c_bands:  1 eigenvalues not converged
     ethr =  1.19E-04,  avg # of iterations = 16.6

     negative rho (up, down):  7.701E-03 0.000E+00
 
     Adding external electric field

     Computed dipole along edir(3) : 
        Dipole               -0.3111 Ry au,         -0.7908 Debye
        Dipole field         -0.0006 Ry au, 
 
        Potential amp.        0.0544 Ry
        Total length         46.3494 bohr
 

     total cpu time spent up to now is      283.1 secs

     total energy              =   -2920.39972966 Ry
     estimated scf accuracy    <       0.23000953 Ry

     iteration # 19     ecut=    29.40 Ry     beta= 0.05
     Davidson diagonalization with overlap
     ethr =  5.88E-05,  avg # of iterations =  9.4

     negative rho (up, down):  8.538E-03 0.000E+00
 
     Adding external electric field

     Computed dipole along edir(3) : 
        Dipole                0.1921 Ry au,          0.4882 Debye
        Dipole field          0.0004 Ry au, 
 
        Potential amp.       -0.0336 Ry
        Total length         46.3494 bohr
 

     total cpu time spent up to now is      295.5 secs

     total energy              =   -2920.42374035 Ry
     estimated scf accuracy    <       0.23337498 Ry

     iteration # 20     ecut=    29.40 Ry     beta= 0.05
     Davidson diagonalization with overlap
     ethr =  5.88E-05,  avg # of iterations =  7.1

     negative rho (up, down):  9.069E-03 0.000E+00
 
     Adding external electric field

     Computed dipole along edir(3) : 
        Dipole                0.2954 Ry au,          0.7508 Debye
        Dipole field          0.0006 Ry au, 
 
        Potential amp.       -0.0517 Ry
        Total length         46.3494 bohr
 

     total cpu time spent up to now is      304.2 secs

     total energy              =   -2920.41414376 Ry
     estimated scf accuracy    <       0.23479069 Ry

     iteration # 21     ecut=    29.40 Ry     beta= 0.05
     Davidson diagonalization with overlap
     ethr =  5.88E-05,  avg # of iterations =  6.4

     negative rho (up, down):  1.014E-02 0.000E+00
 
     Adding external electric field

     Computed dipole along edir(3) : 
        Dipole                0.3934 Ry au,          1.0000 Debye
        Dipole field          0.0007 Ry au, 
 
        Potential amp.       -0.0688 Ry
        Total length         46.3494 bohr
 

     total cpu time spent up to now is      312.8 secs

     total energy              =   -2920.41605462 Ry
     estimated scf accuracy    <       0.05104670 Ry

     iteration # 22     ecut=    29.40 Ry     beta= 0.05
     Davidson diagonalization with overlap
     c_bands:  1 eigenvalues not converged
     c_bands:  1 eigenvalues not converged
     c_bands:  2 eigenvalues not converged
     c_bands:  3 eigenvalues not converged
     c_bands:  1 eigenvalues not converged
     c_bands:  2 eigenvalues not converged
     c_bands:  1 eigenvalues not converged
     c_bands:  2 eigenvalues not converged
     ethr =  1.31E-05,  avg # of iterations = 19.4

     negative rho (up, down):  9.866E-03 0.000E+00
 
     Adding external electric field

     Computed dipole along edir(3) : 
        Dipole                0.4135 Ry au,          1.0511 Debye
        Dipole field          0.0008 Ry au, 
 
        Potential amp.       -0.0723 Ry
        Total length         46.3494 bohr
 

     total cpu time spent up to now is      329.6 secs

     total energy              =   -2920.41994439 Ry
     estimated scf accuracy    <       0.08877427 Ry

     iteration # 23     ecut=    29.40 Ry     beta= 0.05
     Davidson diagonalization with overlap
     c_bands:  1 eigenvalues not converged
     ethr =  1.31E-05,  avg # of iterations =  9.3

     negative rho (up, down):  9.888E-03 0.000E+00
 
     Adding external electric field

     Computed dipole along edir(3) : 
        Dipole                0.3905 Ry au,          0.9925 Debye
        Dipole field          0.0007 Ry au, 
 
        Potential amp.       -0.0683 Ry
        Total length         46.3494 bohr
 

     total cpu time spent up to now is      338.7 secs

     total energy              =   -2920.42175714 Ry
     estimated scf accuracy    <       0.02940111 Ry

     iteration # 24     ecut=    29.40 Ry     beta= 0.05
     Davidson diagonalization with overlap
     ethr =  7.52E-06,  avg # of iterations =  3.0

     negative rho (up, down):  1.149E-02 0.000E+00
 
     Adding external electric field

     Computed dipole along edir(3) : 
        Dipole                0.4803 Ry au,          1.2209 Debye
        Dipole field          0.0009 Ry au, 
 
        Potential amp.       -0.0840 Ry
        Total length         46.3494 bohr
 

     total cpu time spent up to now is      346.4 secs

     total energy              =   -2920.42110786 Ry
     estimated scf accuracy    <       0.02936266 Ry

     iteration # 25     ecut=    29.40 Ry     beta= 0.05
     Davidson diagonalization with overlap
     ethr =  7.51E-06,  avg # of iterations =  7.9

     negative rho (up, down):  1.283E-02 0.000E+00
 
     Adding external electric field

     Computed dipole along edir(3) : 
        Dipole                0.6408 Ry au,          1.6287 Debye
        Dipole field          0.0012 Ry au, 
 
        Potential amp.       -0.1121 Ry
        Total length         46.3494 bohr
 

     total cpu time spent up to now is      357.1 secs

     total energy              =   -2920.41874774 Ry
     estimated scf accuracy    <       0.03794442 Ry

     iteration # 26     ecut=    29.40 Ry     beta= 0.05
     Davidson diagonalization with overlap
     c_bands:  3 eigenvalues not converged
     c_bands:  2 eigenvalues not converged
     c_bands:  1 eigenvalues not converged
     c_bands:  1 eigenvalues not converged
     ethr =  7.51E-06,  avg # of iterations = 15.7

     negative rho (up, down):  1.184E-02 0.000E+00
 
     Adding external electric field

     Computed dipole along edir(3) : 
        Dipole                0.5947 Ry au,          1.5116 Debye
        Dipole field          0.0011 Ry au, 
 
        Potential amp.       -0.1040 Ry
        Total length         46.3494 bohr
 

     total cpu time spent up to now is      369.9 secs

     total energy              =   -2920.42160366 Ry
     estimated scf accuracy    <       0.04677466 Ry

     iteration # 27     ecut=    29.40 Ry     beta= 0.05
     Davidson diagonalization with overlap
     ethr =  7.51E-06,  avg # of iterations =  4.1

     negative rho (up, down):  1.224E-02 0.000E+00
 
     Adding external electric field

     Computed dipole along edir(3) : 
        Dipole                0.6187 Ry au,          1.5726 Debye
        Dipole field          0.0012 Ry au, 
 
        Potential amp.       -0.1082 Ry
        Total length         46.3494 bohr
 

     total cpu time spent up to now is      377.8 secs

     total energy              =   -2920.42227467 Ry
     estimated scf accuracy    <       0.01541922 Ry

     iteration # 28     ecut=    29.40 Ry     beta= 0.05
     Davidson diagonalization with overlap
     c_bands:  2 eigenvalues not converged
     c_bands:  1 eigenvalues not converged
     ethr =  3.94E-06,  avg # of iterations = 10.8

     negative rho (up, down):  1.425E-02 0.000E+00
 
     Adding external electric field

     Computed dipole along edir(3) : 
        Dipole                0.6584 Ry au,          1.6734 Debye
        Dipole field          0.0012 Ry au, 
 
        Potential amp.       -0.1152 Ry
        Total length         46.3494 bohr
 

     total cpu time spent up to now is      387.4 secs

     total energy              =   -2920.42247485 Ry
     estimated scf accuracy    <       0.01052826 Ry

     iteration # 29     ecut=    29.40 Ry     beta= 0.05
     Davidson diagonalization with overlap
     c_bands:  2 eigenvalues not converged
     c_bands:  1 eigenvalues not converged
     ethr =  2.69E-06,  avg # of iterations = 17.5

     negative rho (up, down):  1.423E-02 0.000E+00
 
     Adding external electric field

     Computed dipole along edir(3) : 
        Dipole                0.6119 Ry au,          1.5552 Debye
        Dipole field          0.0012 Ry au, 
 
        Potential amp.       -0.1070 Ry
        Total length         46.3494 bohr
 

     total cpu time spent up to now is      399.7 secs

     total energy              =   -2920.42260641 Ry
     estimated scf accuracy    <       0.00515414 Ry

     iteration # 30     ecut=    29.40 Ry     beta= 0.05
     Davidson diagonalization with overlap
     c_bands:  1 eigenvalues not converged
     ethr =  1.32E-06,  avg # of iterations = 11.5

     negative rho (up, down):  1.404E-02 0.000E+00
 
     Adding external electric field

     Computed dipole along edir(3) : 
        Dipole                0.6014 Ry au,          1.5285 Debye
        Dipole field          0.0011 Ry au, 
 
        Potential amp.       -0.1052 Ry
        Total length         46.3494 bohr
 

     total cpu time spent up to now is      410.0 secs

     total energy              =   -2920.42293957 Ry
     estimated scf accuracy    <       0.00167974 Ry

     iteration # 31     ecut=    29.40 Ry     beta= 0.05
     Davidson diagonalization with overlap
     ethr =  4.30E-07,  avg # of iterations = 10.5

     negative rho (up, down):  1.466E-02 0.000E+00
 
     Adding external electric field

     Computed dipole along edir(3) : 
        Dipole                0.6100 Ry au,          1.5506 Debye
        Dipole field          0.0012 Ry au, 
 
        Potential amp.       -0.1067 Ry
        Total length         46.3494 bohr
 

     total cpu time spent up to now is      427.7 secs

     total energy              =   -2920.42312819 Ry
     estimated scf accuracy    <       0.00166575 Ry

     iteration # 32     ecut=    29.40 Ry     beta= 0.05
     Davidson diagonalization with overlap
     c_bands:  2 eigenvalues not converged
     ethr =  4.26E-07,  avg # of iterations = 10.9

     negative rho (up, down):  1.511E-02 0.000E+00
 
     Adding external electric field

     Computed dipole along edir(3) : 
        Dipole                0.6357 Ry au,          1.6157 Debye
        Dipole field          0.0012 Ry au, 
 
        Potential amp.       -0.1112 Ry
        Total length         46.3494 bohr
 

     total cpu time spent up to now is      438.0 secs

     total energy              =   -2920.42320550 Ry
     estimated scf accuracy    <       0.00250334 Ry

     iteration # 33     ecut=    29.40 Ry     beta= 0.05
     Davidson diagonalization with overlap
     ethr =  4.26E-07,  avg # of iterations = 11.0

     negative rho (up, down):  1.591E-02 0.000E+00
 
     Adding external electric field

     Computed dipole along edir(3) : 
        Dipole                0.6567 Ry au,          1.6691 Debye
        Dipole field          0.0012 Ry au, 
 
        Potential amp.       -0.1149 Ry
        Total length         46.3494 bohr
 

     total cpu time spent up to now is      448.3 secs

     total energy              =   -2920.42334271 Ry
     estimated scf accuracy    <       0.00116552 Ry

     iteration # 34     ecut=    29.40 Ry     beta= 0.05
     Davidson diagonalization with overlap
     ethr =  2.98E-07,  avg # of iterations =  2.0

     negative rho (up, down):  1.619E-02 0.000E+00
 
     Adding external electric field

     Computed dipole along edir(3) : 
        Dipole                0.6713 Ry au,          1.7063 Debye
        Dipole field          0.0013 Ry au, 
 
        Potential amp.       -0.1174 Ry
        Total length         46.3494 bohr
 

     total cpu time spent up to now is      455.9 secs

     total energy              =   -2920.42338386 Ry
     estimated scf accuracy    <       0.00098090 Ry

     iteration # 35     ecut=    29.40 Ry     beta= 0.05
     Davidson diagonalization with overlap
     ethr =  2.51E-07,  avg # of iterations = 10.9

     negative rho (up, down):  1.636E-02 0.000E+00
 
     Adding external electric field

     Computed dipole along edir(3) : 
        Dipole                0.6712 Ry au,          1.7060 Debye
        Dipole field          0.0013 Ry au, 
 
        Potential amp.       -0.1174 Ry
        Total length         46.3494 bohr
 

     total cpu time spent up to now is      466.0 secs

     total energy              =   -2920.42346085 Ry
     estimated scf accuracy    <       0.00045876 Ry

     iteration # 36     ecut=    29.40 Ry     beta= 0.05
     Davidson diagonalization with overlap
     ethr =  1.17E-07,  avg # of iterations =  6.0

     negative rho (up, down):  1.665E-02 0.000E+00
 
     Adding external electric field

     Computed dipole along edir(3) : 
        Dipole                0.6663 Ry au,          1.6936 Debye
        Dipole field          0.0013 Ry au, 
 
        Potential amp.       -0.1166 Ry
        Total length         46.3494 bohr
 

     total cpu time spent up to now is      474.5 secs

     total energy              =   -2920.42345916 Ry
     estimated scf accuracy    <       0.00032159 Ry

     iteration # 37     ecut=    29.40 Ry     beta= 0.05
     Davidson diagonalization with overlap
     ethr =  8.22E-08,  avg # of iterations = 11.0

     negative rho (up, down):  1.672E-02 0.000E+00
 
     Adding external electric field

     Computed dipole along edir(3) : 
        Dipole                0.6667 Ry au,          1.6946 Debye
        Dipole field          0.0013 Ry au, 
 
        Potential amp.       -0.1166 Ry
        Total length         46.3494 bohr
 

     total cpu time spent up to now is      486.6 secs

     total energy              =   -2920.42352568 Ry
     estimated scf accuracy    <       0.00021107 Ry

     iteration # 38     ecut=    29.40 Ry     beta= 0.05
     Davidson diagonalization with overlap
     ethr =  5.40E-08,  avg # of iterations =  5.0

     negative rho (up, down):  1.667E-02 0.000E+00
 
     Adding external electric field

     Computed dipole along edir(3) : 
        Dipole                0.6647 Ry au,          1.6896 Debye
        Dipole field          0.0013 Ry au, 
 
        Potential amp.       -0.1163 Ry
        Total length         46.3494 bohr
 

     total cpu time spent up to now is      495.3 secs

     total energy              =   -2920.42356077 Ry
     estimated scf accuracy    <       0.00010788 Ry

     iteration # 39     ecut=    29.40 Ry     beta= 0.05
     Davidson diagonalization with overlap
     c_bands:  1 eigenvalues not converged
     ethr =  2.76E-08,  avg # of iterations = 10.3

     negative rho (up, down):  1.684E-02 0.000E+00
 
     Adding external electric field

     Computed dipole along edir(3) : 
        Dipole                0.6686 Ry au,          1.6994 Debye
        Dipole field          0.0013 Ry au, 
 
        Potential amp.       -0.1170 Ry
        Total length         46.3494 bohr
 

     total cpu time spent up to now is      512.6 secs

     total energy              =   -2920.42360262 Ry
     estimated scf accuracy    <       0.00009125 Ry

     iteration # 40     ecut=    29.40 Ry     beta= 0.05
     Davidson diagonalization with overlap
     ethr =  2.33E-08,  avg # of iterations =  6.5

     negative rho (up, down):  1.758E-02 0.000E+00
 
     Adding external electric field

     Computed dipole along edir(3) : 
        Dipole                0.6854 Ry au,          1.7422 Debye
        Dipole field          0.0013 Ry au, 
 
        Potential amp.       -0.1199 Ry
        Total length         46.3494 bohr
 

     total cpu time spent up to now is      521.7 secs

     total energy              =   -2920.42365082 Ry
     estimated scf accuracy    <       0.00004709 Ry

     iteration # 41     ecut=    29.40 Ry     beta= 0.05
     Davidson diagonalization with overlap
     c_bands:  2 eigenvalues not converged
     ethr =  1.20E-08,  avg # of iterations = 12.5

     negative rho (up, down):  1.763E-02 0.000E+00
 
     Adding external electric field

     Computed dipole along edir(3) : 
        Dipole                0.6852 Ry au,          1.7416 Debye
        Dipole field          0.0013 Ry au, 
 
        Potential amp.       -0.1199 Ry
        Total length         46.3494 bohr
 

     total cpu time spent up to now is      546.5 secs

     total energy              =   -2920.42367125 Ry
     estimated scf accuracy    <       0.00009032 Ry

     iteration # 42     ecut=    29.40 Ry     beta= 0.05
     Davidson diagonalization with overlap
     ethr =  1.20E-08,  avg # of iterations =  7.3

     negative rho (up, down):  1.789E-02 0.000E+00
 
     Adding external electric field

     Computed dipole along edir(3) : 
        Dipole                0.6880 Ry au,          1.7487 Debye
        Dipole field          0.0013 Ry au, 
 
        Potential amp.       -0.1204 Ry
        Total length         46.3494 bohr
 

     total cpu time spent up to now is      562.5 secs

     total energy              =   -2920.42370731 Ry
     estimated scf accuracy    <       0.00001539 Ry

     iteration # 43     ecut=    29.40 Ry     beta= 0.05
     Davidson diagonalization with overlap
     ethr =  3.94E-09,  avg # of iterations = 10.4

     negative rho (up, down):  1.806E-02 0.000E+00
 
     Adding external electric field

     Computed dipole along edir(3) : 
        Dipole                0.6898 Ry au,          1.7532 Debye
        Dipole field          0.0013 Ry au, 
 
        Potential amp.       -0.1207 Ry
        Total length         46.3494 bohr
 

     total cpu time spent up to now is      572.7 secs

     total energy              =   -2920.42373096 Ry
     estimated scf accuracy    <       0.00000908 Ry

     iteration # 44     ecut=    29.40 Ry     beta= 0.05
     Davidson diagonalization with overlap
     ethr =  2.32E-09,  avg # of iterations =  9.2

     negative rho (up, down):  1.802E-02 0.000E+00
 
     Adding external electric field

     Computed dipole along edir(3) : 
        Dipole                0.6878 Ry au,          1.7482 Debye
        Dipole field          0.0013 Ry au, 
 
        Potential amp.       -0.1203 Ry
        Total length         46.3494 bohr
 

     total cpu time spent up to now is      582.8 secs

     total energy              =   -2920.42375120 Ry
     estimated scf accuracy    <       0.00000856 Ry

     iteration # 45     ecut=    29.40 Ry     beta= 0.05
     Davidson diagonalization with overlap
     ethr =  2.19E-09,  avg # of iterations =  8.0

     negative rho (up, down):  1.798E-02 0.000E+00
 
     Adding external electric field

     Computed dipole along edir(3) : 
        Dipole                0.6864 Ry au,          1.7445 Debye
        Dipole field          0.0013 Ry au, 
 
        Potential amp.       -0.1201 Ry
        Total length         46.3494 bohr
 

     total cpu time spent up to now is      592.4 secs

     total energy              =   -2920.42376935 Ry
     estimated scf accuracy    <       0.00000509 Ry

     iteration # 46     ecut=    29.40 Ry     beta= 0.05
     Davidson diagonalization with overlap
     ethr =  1.30E-09,  avg # of iterations =  7.8

     negative rho (up, down):  1.801E-02 0.000E+00
 
     Adding external electric field

     Computed dipole along edir(3) : 
        Dipole                0.6860 Ry au,          1.7436 Debye
        Dipole field          0.0013 Ry au, 
 
        Potential amp.       -0.1200 Ry
        Total length         46.3494 bohr
 

     total cpu time spent up to now is      602.8 secs

     total energy              =   -2920.42378639 Ry
     estimated scf accuracy    <       0.00000301 Ry

     iteration # 47     ecut=    29.40 Ry     beta= 0.05
     Davidson diagonalization with overlap
     ethr =  7.70E-10,  avg # of iterations = 10.6

     negative rho (up, down):  1.802E-02 0.000E+00
 
     Adding external electric field

     Computed dipole along edir(3) : 
        Dipole                0.6859 Ry au,          1.7434 Debye
        Dipole field          0.0013 Ry au, 
 
        Potential amp.       -0.1200 Ry
        Total length         46.3494 bohr
 

     total cpu time spent up to now is      614.9 secs

     total energy              =   -2920.42380186 Ry
     estimated scf accuracy    <       0.00000154 Ry

     iteration # 48     ecut=    29.40 Ry     beta= 0.05
     Davidson diagonalization with overlap
     ethr =  3.94E-10,  avg # of iterations =  8.6

     negative rho (up, down):  1.806E-02 0.000E+00
 
     Adding external electric field

     Computed dipole along edir(3) : 
        Dipole                0.6867 Ry au,          1.7453 Debye
        Dipole field          0.0013 Ry au, 
 
        Potential amp.       -0.1201 Ry
        Total length         46.3494 bohr
 

     total cpu time spent up to now is      627.4 secs

     total energy              =   -2920.42381563 Ry
     estimated scf accuracy    <       0.00000117 Ry

     iteration # 49     ecut=    29.40 Ry     beta= 0.05
     Davidson diagonalization with overlap
     ethr =  2.99E-10,  avg # of iterations =  8.1

     negative rho (up, down):  1.807E-02 0.000E+00
 
     Adding external electric field

     Computed dipole along edir(3) : 
        Dipole                0.6870 Ry au,          1.7461 Debye
        Dipole field          0.0013 Ry au, 
 
        Potential amp.       -0.1202 Ry
        Total length         46.3494 bohr
 

     total cpu time spent up to now is      643.1 secs

     total energy              =   -2920.42382800 Ry
     estimated scf accuracy    <       0.00000063 Ry

     iteration # 50     ecut=    29.40 Ry     beta= 0.05
     Davidson diagonalization with overlap
     ethr =  1.60E-10,  avg # of iterations =  4.3

     negative rho (up, down):  1.808E-02 0.000E+00
 
     Adding external electric field

     Computed dipole along edir(3) : 
        Dipole                0.6871 Ry au,          1.7465 Debye
        Dipole field          0.0013 Ry au, 
 
        Potential amp.       -0.1202 Ry
        Total length         46.3494 bohr
 

     total cpu time spent up to now is      651.3 secs

     total energy              =   -2920.42383910 Ry
     estimated scf accuracy    <       0.00000038 Ry

     iteration # 51     ecut=    29.40 Ry     beta= 0.05
     Davidson diagonalization with overlap
     ethr =  9.77E-11,  avg # of iterations = 10.9

     negative rho (up, down):  1.809E-02 0.000E+00
 
     Adding external electric field

     Computed dipole along edir(3) : 
        Dipole                0.6875 Ry au,          1.7475 Debye
        Dipole field          0.0013 Ry au, 
 
        Potential amp.       -0.1203 Ry
        Total length         46.3494 bohr
 

     total cpu time spent up to now is      666.7 secs

     total energy              =   -2920.42384911 Ry
     estimated scf accuracy    <       0.00000054 Ry

     iteration # 52     ecut=    29.40 Ry     beta= 0.05
     Davidson diagonalization with overlap
     ethr =  9.77E-11,  avg # of iterations =  8.7

     negative rho (up, down):  1.811E-02 0.000E+00
 
     Adding external electric field

     Computed dipole along edir(3) : 
        Dipole                0.6879 Ry au,          1.7486 Debye
        Dipole field          0.0013 Ry au, 
 
        Potential amp.       -0.1203 Ry
        Total length         46.3494 bohr
 

     total cpu time spent up to now is      678.6 secs

     total energy              =   -2920.42385823 Ry
     estimated scf accuracy    <       0.00000013 Ry

     iteration # 53     ecut=    29.40 Ry     beta= 0.05
     Davidson diagonalization with overlap
     ethr =  3.24E-11,  avg # of iterations =  9.7

     negative rho (up, down):  1.812E-02 0.000E+00
 
     Adding external electric field

     Computed dipole along edir(3) : 
        Dipole                0.6878 Ry au,          1.7483 Debye
        Dipole field          0.0013 Ry au, 
 
        Potential amp.       -0.1203 Ry
        Total length         46.3494 bohr
 

     total cpu time spent up to now is      690.0 secs

     total energy              =   -2920.42386643 Ry
     estimated scf accuracy    <       0.00000008 Ry

     iteration # 54     ecut=    29.40 Ry     beta= 0.05
     Davidson diagonalization with overlap
     ethr =  2.12E-11,  avg # of iterations = 10.3

     negative rho (up, down):  1.810E-02 0.000E+00
 
     Adding external electric field

     Computed dipole along edir(3) : 
        Dipole                0.6876 Ry au,          1.7477 Debye
        Dipole field          0.0013 Ry au, 
 
        Potential amp.       -0.1203 Ry
        Total length         46.3494 bohr
 

     total cpu time spent up to now is      703.4 secs

     total energy              =   -2920.42387379 Ry
     estimated scf accuracy    <       0.00000008 Ry

     iteration # 55     ecut=    29.40 Ry     beta= 0.05
     Davidson diagonalization with overlap
     ethr =  2.00E-11,  avg # of iterations =  6.6

     negative rho (up, down):  1.814E-02 0.000E+00
 
     Adding external electric field

     Computed dipole along edir(3) : 
        Dipole                0.6875 Ry au,          1.7474 Debye
        Dipole field          0.0013 Ry au, 
 
        Potential amp.       -0.1203 Ry
        Total length         46.3494 bohr
 

     total cpu time spent up to now is      715.3 secs

     End of self-consistent calculation

          k = 0.0000 0.0000 0.0000 ( 18029 PWs)   bands (ev):

   -55.9938 -55.9862 -55.9598 -55.9501 -55.9009 -55.8364 -55.8361 -55.8017
   -55.7974 -55.7635 -55.7580 -55.7244 -55.5360 -55.2686 -54.9658 -54.9317
   -32.5451 -32.4752 -32.3483 -32.3379 -32.3137 -32.2969 -32.2869 -32.2491
   -32.2348 -32.2342 -32.2101 -32.2028 -32.1689 -32.1460 -32.1382 -32.1323
   -32.1286 -32.0972 -32.0760 -32.0510 -32.0467 -32.0392 -32.0240 -31.9967
   -31.9897 -31.9885 -31.9838 -31.9758 -31.9613 -31.9557 -31.9518 -31.9409
   -31.9343 -31.9272 -31.9112 -31.9048 -31.8706 -31.8058 -31.7071 -31.5435
   -31.5389 -31.4635 -31.3727 -31.2850 -31.2625 -31.1895 -31.1030 -30.9919
   -16.7543 -16.4710 -16.2917 -16.1484 -16.1162 -16.0309 -15.8298 -15.7030
   -15.6910 -15.5873 -15.5543 -15.5279 -15.5216 -15.4953 -15.4899 -15.4287
   -15.4268 -15.4127 -15.4036 -15.3471 -15.3226 -15.2686 -15.1902 -15.1565
   -15.1514 -15.1237 -15.0419 -15.0364 -14.5813 -14.1388 -13.4684 -13.3521
    -8.9543  -4.3512  -4.1253  -3.9508  -3.9107  -3.8960  -3.8463  -3.5918
    -3.5771  -3.3147  -3.2298  -3.1888  -3.1763  -3.1673  -3.1472  -3.1363
    -2.8899  -2.8223  -2.8081  -2.7864  -2.7784  -2.7722  -2.7600  -2.7592
    -2.7198  -2.6587  -2.5318  -2.5065  -2.4184  -2.3810  -2.3565  -2.3032
    -2.2593  -2.2524  -2.2436  -2.2243  -2.2121  -2.1870  -2.1695  -2.0356
    -1.9704  -1.8333  -1.7996  -1.7804  -1.5941  -1.5358  -1.4709  -1.4328
    -1.4189  -1.4118  -1.3800  -1.2983  -1.2063  -1.1505  -1.1422  -1.0839
    -1.0070  -0.9954  -0.8893  -0.8835  -0.8569  -0.7647  -0.7541  -0.7431
    -0.7236  -0.6603  -0.5558  -0.4783  -0.4337  -0.4042  -0.3732  -0.3031
    -0.2730  -0.1710  -0.1550  -0.1068  -0.1018  -0.0603  -0.0150  -0.0057
     0.0032   0.0111   0.0366   0.1788   0.2899   0.3452   0.3855   0.3912
     0.5454   0.5732   0.6700   0.7584   0.9832   1.0561   1.1492   1.2489
     1.3262   1.6268   1.6722   3.1495   3.2282   3.2820   3.2909   3.3933
     3.3988   3.5991   3.6089   3.6218   3.6895

          k = 0.0000 0.0419 0.0000 ( 17933 PWs)   bands (ev):

   -55.9888 -55.9809 -55.9647 -55.9552 -55.8984 -55.8387 -55.8311 -55.8067
   -55.7924 -55.7684 -55.7530 -55.7292 -55.5355 -55.2690 -54.9607 -54.9367
   -32.4876 -32.4213 -32.3017 -32.2944 -32.2832 -32.2822 -32.2728 -32.2414
   -32.2215 -32.2107 -32.1969 -32.1961 -32.1748 -32.1705 -32.1538 -32.1475
   -32.1322 -32.1208 -32.0649 -32.0628 -32.0423 -32.0365 -32.0294 -32.0122
   -32.0077 -32.0042 -31.9976 -31.9863 -31.9845 -31.9740 -31.9648 -31.9561
   -31.9352 -31.9306 -31.9268 -31.9148 -31.9140 -31.8050 -31.7041 -31.5698
   -31.5390 -31.4774 -31.3185 -31.2815 -31.2656 -31.1769 -31.1156 -31.0490
   -16.6187 -16.3515 -16.1813 -16.0410 -16.0184 -15.9926 -15.8790 -15.7759
   -15.7437 -15.6097 -15.6035 -15.5277 -15.5093 -15.4990 -15.4702 -15.4651
   -15.4459 -15.4428 -15.3711 -15.3650 -15.3286 -15.2438 -15.2397 -15.2069
   -15.1823 -15.1759 -15.0984 -15.0488 -14.6507 -14.1529 -13.4726 -13.3916
    -8.9544  -4.3554  -3.9347  -3.7858  -3.7436  -3.7199  -3.6875  -3.4325
    -3.3520  -3.2701  -3.2564  -3.1822  -3.1394  -3.0836  -3.0440  -3.0246
    -2.9664  -2.9622  -2.9357  -2.8769  -2.8595  -2.8375  -2.7856  -2.7413
    -2.7284  -2.6786  -2.6670  -2.6410  -2.6248  -2.4925  -2.4822  -2.4463
    -2.4083  -2.3395  -2.2663  -2.2451  -2.2223  -2.1421  -2.0718  -1.9659
    -1.9160  -1.7682  -1.7148  -1.6638  -1.6378  -1.5838  -1.4712  -1.3568
    -1.3327  -1.3045  -1.2250  -1.2033  -1.1061  -1.0480  -1.0163  -0.9438
    -0.9362  -0.9122  -0.8882  -0.8806  -0.8487  -0.8016  -0.7533  -0.7350
    -0.6868  -0.6565  -0.5792  -0.5518  -0.4966  -0.4886  -0.4662  -0.4432
    -0.2963  -0.2559  -0.2339  -0.2044  -0.1735  -0.1422  -0.1193  -0.0806
    -0.0197   0.0313   0.0536   0.1236   0.2077   0.2610   0.2910   0.3462
     0.3583   0.3929   0.5325   0.6753   0.6906   1.0186   1.2397   1.2458
     1.3301   1.5807   1.5842   3.3389   3.3658   3.3991   3.4436   3.4990
     3.5483   3.5894   3.6204   3.6785   3.6956

          k = 0.0000-0.0839 0.0000 ( 17884 PWs)   bands (ev):

   -55.9770 -55.9763 -55.9693 -55.9667 -55.8958 -55.8413 -55.8196 -55.8181
   -55.7812 -55.7794 -55.7416 -55.7406 -55.5349 -55.2694 -54.9487 -54.9486
   -32.3496 -32.3459 -32.2893 -32.2888 -32.2794 -32.2725 -32.2718 -32.2585
   -32.1955 -32.1947 -32.1734 -32.1703 -32.1616 -32.1518 -32.1462 -32.1292
   -32.1041 -32.0989 -32.0982 -32.0970 -32.0917 -32.0634 -32.0606 -32.0520
   -32.0306 -32.0304 -32.0222 -32.0207 -32.0084 -31.9975 -31.9748 -31.9740
   -31.9540 -31.9512 -31.9219 -31.9217 -31.8749 -31.8041 -31.7025 -31.6081
   -31.5389 -31.4881 -31.2733 -31.2733 -31.1856 -31.1855 -31.1462 -31.1462
   -16.2824 -16.2673 -16.0759 -16.0689 -15.9349 -15.9218 -15.8266 -15.8068
   -15.7774 -15.7556 -15.7152 -15.7140 -15.5517 -15.5473 -15.3769 -15.3733
   -15.3722 -15.3649 -15.3417 -15.3351 -15.3327 -15.3249 -15.3230 -15.2405
   -15.2334 -15.2292 -15.1957 -15.0289 -14.7500 -14.1660 -13.4544 -13.4543
    -8.9545  -4.3616  -3.5091  -3.4699  -3.3914  -3.3853  -3.3746  -3.3675
    -3.3491  -3.3434  -3.2817  -3.2816  -3.2020  -3.1144  -3.1099  -3.0960
    -3.0774  -3.0430  -3.0415  -2.9792  -2.9375  -2.9333  -2.8318  -2.7985
    -2.7855  -2.7415  -2.7163  -2.6544  -2.6273  -2.5925  -2.5552  -2.4533
    -2.3735  -2.3650  -2.3383  -2.3130  -2.0512  -1.9968  -1.8910  -1.8547
    -1.8112  -1.7151  -1.6844  -1.6401  -1.6049  -1.4947  -1.4295  -1.4213
    -1.3947  -1.3703  -1.3457  -1.3112  -1.2155  -1.1775  -1.1647  -1.1104
    -1.0790  -0.8617  -0.7982  -0.7134  -0.6752  -0.6484  -0.6242  -0.6157
    -0.6002  -0.5741  -0.5523  -0.5163  -0.4758  -0.4378  -0.4230  -0.4082
    -0.3744  -0.3492  -0.3064  -0.2743  -0.2605  -0.2422  -0.1930  -0.1773
    -0.1466  -0.1219  -0.0895  -0.0367   0.0077   0.0901   0.2546   0.2561
     0.2618   0.2872   0.6027   0.6470   0.7117   0.7435   1.2089   1.3890
     1.3894   1.5179   1.5184   3.4226   3.4510   3.4814   3.5022   3.5787
     3.5885   3.6602   3.6892   3.7395   3.7461

          k = 0.0380 0.0000 0.0000 ( 17913 PWs)   bands (ev):

   -55.9937 -55.9860 -55.9597 -55.9499 -55.9008 -55.8363 -55.8361 -55.8016
   -55.7972 -55.7634 -55.7581 -55.7243 -55.5359 -55.2685 -54.9657 -54.9316
   -32.5452 -32.4761 -32.3497 -32.3440 -32.3136 -32.2971 -32.2867 -32.2538
   -32.2348 -32.2339 -32.2058 -32.1909 -32.1688 -32.1431 -32.1310 -32.1282
   -32.1278 -32.0969 -32.0633 -32.0556 -32.0508 -32.0389 -32.0255 -31.9961
   -31.9893 -31.9871 -31.9768 -31.9759 -31.9611 -31.9554 -31.9553 -31.9516
   -31.9399 -31.9271 -31.9114 -31.9038 -31.8708 -31.8080 -31.7069 -31.5434
   -31.5392 -31.4633 -31.3722 -31.2883 -31.2605 -31.1893 -31.1029 -30.9916
   -16.6863 -16.3842 -16.2108 -16.1279 -16.0463 -16.0296 -15.8742 -15.7007
   -15.6971 -15.6880 -15.6827 -15.6490 -15.6030 -15.5819 -15.5348 -15.5025
   -15.3750 -15.3491 -15.2902 -15.2589 -15.2433 -15.2359 -15.1917 -15.1798
   -15.1725 -15.1631 -15.1135 -15.0247 -14.5784 -14.1343 -13.4652 -13.3518
    -8.9578  -4.4063  -4.0581  -3.7376  -3.6850  -3.6299  -3.6160  -3.5620
    -3.5228  -3.4666  -3.3105  -3.2438  -3.2281  -3.1864  -3.1084  -3.0677
    -2.9998  -2.9617  -2.8578  -2.7683  -2.7633  -2.7230  -2.7035  -2.6426
    -2.5957  -2.5693  -2.5272  -2.4986  -2.4479  -2.3810  -2.3379  -2.3234
    -2.2635  -2.2233  -2.1968  -2.1583  -2.0380  -2.0049  -1.9753  -1.9227
    -1.8768  -1.8591  -1.8049  -1.7767  -1.6562  -1.5905  -1.5625  -1.5452
    -1.4462  -1.4255  -1.3965  -1.2904  -1.2762  -1.2684  -1.2360  -1.1670
    -1.1299  -1.0194  -0.9055  -0.8684  -0.8587  -0.8214  -0.8018  -0.7630
    -0.7408  -0.6727  -0.5732  -0.5220  -0.4737  -0.4230  -0.3614  -0.3403
    -0.2796  -0.2553  -0.2316  -0.1986  -0.1699  -0.1427  -0.1287  -0.1125
    -0.0984  -0.0753   0.0890   0.1469   0.1971   0.2150   0.3097   0.3729
     0.4144   0.4697   0.6426   0.7037   0.9862   1.0147   1.0680   1.2184
     1.3256   1.5154   1.5893   3.1876   3.2035   3.4866   3.5054   3.5250
     3.5618   3.5744   3.5987   3.6224   3.6523

          k = 0.0380 0.0419 0.0000 ( 17878 PWs)   bands (ev):

   -55.9887 -55.9807 -55.9646 -55.9552 -55.8984 -55.8387 -55.8310 -55.8067
   -55.7922 -55.7683 -55.7531 -55.7292 -55.5354 -55.2689 -54.9606 -54.9366
   -32.4878 -32.4221 -32.3016 -32.2957 -32.2907 -32.2820 -32.2729 -32.2414
   -32.2214 -32.2110 -32.2013 -32.1840 -32.1746 -32.1709 -32.1539 -32.1368
   -32.1297 -32.1171 -32.0645 -32.0569 -32.0454 -32.0359 -32.0291 -32.0127
   -32.0071 -32.0055 -31.9865 -31.9858 -31.9844 -31.9741 -31.9648 -31.9570
   -31.9518 -31.9350 -31.9222 -31.9187 -31.9141 -31.8070 -31.7041 -31.5697
   -31.5396 -31.4773 -31.3182 -31.2841 -31.2645 -31.1767 -31.1156 -31.0489
   -16.5574 -16.2715 -16.1070 -16.0228 -15.9947 -15.9438 -15.8790 -15.8099
   -15.7452 -15.6475 -15.6457 -15.6106 -15.6020 -15.5691 -15.4819 -15.4678
   -15.4400 -15.4040 -15.3719 -15.3162 -15.3014 -15.2706 -15.2369 -15.2318
   -15.2143 -15.1841 -15.1439 -15.0393 -14.6487 -14.1494 -13.4703 -13.3919
    -8.9573  -4.3846  -3.8818  -3.5691  -3.5251  -3.4777  -3.4443  -3.3694
    -3.3505  -3.3074  -3.2624  -3.1882  -3.1321  -3.0808  -3.0275  -3.0038
    -2.9704  -2.8817  -2.8745  -2.8525  -2.7983  -2.7714  -2.7524  -2.7148
    -2.7005  -2.6978  -2.6432  -2.6164  -2.6087  -2.5381  -2.4754  -2.4490
    -2.3474  -2.2949  -2.2666  -2.1930  -2.1359  -2.0611  -1.9978  -1.9748
    -1.9442  -1.7610  -1.7202  -1.6892  -1.5983  -1.5360  -1.4448  -1.4357
    -1.4086  -1.3194  -1.2957  -1.2715  -1.2321  -1.1597  -1.1277  -1.1110
    -1.0559  -0.9847  -0.9483  -0.9242  -0.8877  -0.8427  -0.7963  -0.7596
    -0.7134  -0.6868  -0.6752  -0.6661  -0.6160  -0.5778  -0.5567  -0.4972
    -0.4528  -0.4181  -0.3208  -0.2925  -0.2852  -0.2372  -0.1899  -0.0997
    -0.0586  -0.0198   0.0857   0.1481   0.2034   0.2475   0.3191   0.3699
     0.4028   0.4370   0.4607   0.5989   0.6634   0.9574   1.2530   1.2573
     1.3346   1.5032   1.5650   3.3278   3.3978   3.4317   3.5028   3.5674
     3.5884   3.6584   3.6860   3.7155   3.7410

          k = 0.0380-0.0839 0.0000 ( 17916 PWs)   bands (ev):

   -55.9770 -55.9763 -55.9693 -55.9667 -55.8958 -55.8413 -55.8197 -55.8181
   -55.7812 -55.7794 -55.7417 -55.7407 -55.5350 -55.2694 -54.9487 -54.9486
   -32.3498 -32.3462 -32.2900 -32.2895 -32.2795 -32.2726 -32.2718 -32.2586
   -32.1961 -32.1952 -32.1845 -32.1804 -32.1626 -32.1328 -32.1308 -32.1282
   -32.1018 -32.0978 -32.0975 -32.0971 -32.0924 -32.0743 -32.0718 -32.0498
   -32.0299 -32.0285 -32.0091 -32.0071 -32.0069 -31.9975 -31.9748 -31.9739
   -31.9541 -31.9513 -31.9337 -31.9335 -31.8747 -31.8062 -31.7025 -31.6080
   -31.5399 -31.4881 -31.2743 -31.2742 -31.1855 -31.1854 -31.1463 -31.1462
   -16.2473 -16.2248 -16.0248 -16.0177 -15.8976 -15.8888 -15.7916 -15.7787
   -15.7618 -15.7482 -15.6874 -15.6810 -15.5658 -15.5614 -15.4672 -15.4515
   -15.4162 -15.4118 -15.4006 -15.3979 -15.3512 -15.3439 -15.3000 -15.2877
   -15.2798 -15.2174 -15.1723 -15.0226 -14.7466 -14.1636 -13.4542 -13.4541
    -8.9568  -4.3621  -3.5033  -3.4615  -3.2894  -3.2721  -3.2437  -3.2287
    -3.1770  -3.1629  -3.1170  -3.0920  -3.0697  -3.0586  -3.0424  -3.0019
    -2.9935  -2.9603  -2.9309  -2.9109  -2.8334  -2.8247  -2.8146  -2.7958
    -2.7564  -2.7077  -2.7006  -2.6760  -2.6358  -2.6086  -2.5781  -2.5222
    -2.4581  -2.2840  -2.1089  -2.0843  -2.0760  -1.9655  -1.9081  -1.8874
    -1.8393  -1.8250  -1.7801  -1.7495  -1.7201  -1.6916  -1.6489  -1.6221
    -1.5819  -1.4890  -1.4612  -1.4199  -1.2649  -1.1970  -1.1442  -1.1184
    -1.0139  -0.9973  -0.9376  -0.9098  -0.8435  -0.7884  -0.7587  -0.7461
    -0.7281  -0.7045  -0.6792  -0.6445  -0.6058  -0.5910  -0.5645  -0.5402
    -0.5305  -0.4521  -0.4247  -0.3675  -0.3447  -0.2568  -0.1623  -0.1381
    -0.0608   0.0242   0.0992   0.1085   0.1465   0.1605   0.1866   0.2286
     0.3681   0.3892   0.5488   0.5643   0.6940   0.7442   1.2378   1.4022
     1.4027   1.5069   1.5076   3.4021   3.4177   3.4948   3.5166   3.5636
     3.5719   3.7172   3.7463   3.7716   3.7758

          k = 0.0380-0.0419 0.0000 ( 17876 PWs)   bands (ev):

   -55.9887 -55.9807 -55.9646 -55.9552 -55.8984 -55.8387 -55.8310 -55.8067
   -55.7922 -55.7683 -55.7531 -55.7292 -55.5354 -55.2689 -54.9606 -54.9366
   -32.4878 -32.4221 -32.3016 -32.2957 -32.2907 -32.2820 -32.2729 -32.2414
   -32.2213 -32.2110 -32.2013 -32.1845 -32.1742 -32.1708 -32.1539 -32.1370
   -32.1297 -32.1171 -32.0645 -32.0566 -32.0454 -32.0363 -32.0291 -32.0125
   -32.0071 -32.0057 -31.9866 -31.9857 -31.9844 -31.9741 -31.9648 -31.9567
   -31.9519 -31.9350 -31.9222 -31.9186 -31.9139 -31.8070 -31.7041 -31.5696
   -31.5397 -31.4773 -31.3182 -31.2841 -31.2645 -31.1767 -31.1156 -31.0489
   -16.5572 -16.2715 -16.1074 -16.0217 -15.9952 -15.9433 -15.8804 -15.8100
   -15.7458 -15.6462 -15.6432 -15.6107 -15.6032 -15.5695 -15.4822 -15.4676
   -15.4445 -15.4018 -15.3716 -15.3159 -15.3038 -15.2680 -15.2370 -15.2303
   -15.2145 -15.1846 -15.1441 -15.0395 -14.6483 -14.1498 -13.4703 -13.3919
    -8.9573  -4.3803  -3.8825  -3.5676  -3.5270  -3.4810  -3.4436  -3.3689
    -3.3453  -3.3138  -3.2631  -3.1867  -3.1296  -3.0849  -3.0299  -3.0056
    -2.9698  -2.8829  -2.8729  -2.8368  -2.8055  -2.7780  -2.7347  -2.7142
    -2.6999  -2.6933  -2.6452  -2.6238  -2.5972  -2.5403  -2.4757  -2.4501
    -2.3657  -2.3075  -2.2437  -2.1904  -2.1295  -2.0427  -1.9907  -1.9812
    -1.9345  -1.7839  -1.7359  -1.6951  -1.6116  -1.5409  -1.4508  -1.4297
    -1.4097  -1.3227  -1.3043  -1.2738  -1.2243  -1.1589  -1.1293  -1.1091
    -1.0613  -0.9982  -0.9511  -0.9238  -0.8880  -0.8466  -0.7992  -0.7797
    -0.7186  -0.7001  -0.6863  -0.6472  -0.6228  -0.5899  -0.5317  -0.4866
    -0.4413  -0.4083  -0.3244  -0.2936  -0.2839  -0.2325  -0.1886  -0.0674
    -0.0549  -0.0183   0.1148   0.1442   0.1932   0.2521   0.3282   0.3561
     0.4029   0.4315   0.4628   0.6012   0.6653   0.9585   1.2524   1.2571
     1.3344   1.5030   1.5656   3.3287   3.3968   3.4274   3.5217   3.5492
     3.5761   3.6434   3.6915   3.7068   3.7303

          k =-0.0760-0.0000 0.0000 ( 17886 PWs)   bands (ev):

   -55.9936 -55.9859 -55.9597 -55.9499 -55.9007 -55.8363 -55.8361 -55.8016
   -55.7970 -55.7634 -55.7582 -55.7243 -55.5359 -55.2685 -54.9656 -54.9316
   -32.5454 -32.4770 -32.3511 -32.3498 -32.3134 -32.2972 -32.2865 -32.2583
   -32.2349 -32.2338 -32.2054 -32.1693 -32.1687 -32.1402 -32.1281 -32.1247
   -32.1233 -32.0969 -32.0857 -32.0512 -32.0387 -32.0272 -32.0108 -32.0013
   -31.9959 -31.9883 -31.9859 -31.9760 -31.9707 -31.9610 -31.9554 -31.9517
   -31.9390 -31.9270 -31.9122 -31.9031 -31.8714 -31.8106 -31.7069 -31.5435
   -31.5398 -31.4632 -31.3718 -31.2915 -31.2592 -31.1892 -31.1028 -30.9917
   -16.6014 -16.2859 -16.1330 -16.0787 -16.0321 -15.9845 -15.8425 -15.7775
   -15.7658 -15.7055 -15.6972 -15.6870 -15.6855 -15.6707 -15.6375 -15.5576
   -15.3517 -15.3353 -15.3215 -15.2954 -15.2630 -15.2368 -15.1813 -15.1666
   -15.1465 -15.1314 -15.0752 -15.0215 -14.5761 -14.1302 -13.4622 -13.3515
    -8.9615  -4.4429  -4.0390  -3.6592  -3.5967  -3.5466  -3.3922  -3.3844
    -3.3578  -3.3002  -3.2567  -3.2512  -3.2365  -3.2065  -3.1900  -3.0275
    -2.9751  -2.8663  -2.7898  -2.7484  -2.7452  -2.6564  -2.6306  -2.5555
    -2.5541  -2.4929  -2.4865  -2.4131  -2.3718  -2.3169  -2.2985  -2.2884
    -2.2557  -2.2210  -2.2181  -2.1611  -2.1567  -2.1147  -2.0803  -2.0058
    -1.8083  -1.7997  -1.7733  -1.6423  -1.6221  -1.5999  -1.5839  -1.5737
    -1.5612  -1.4667  -1.4552  -1.3677  -1.3451  -1.3199  -1.2673  -1.2234
    -1.1905  -1.1506  -1.1468  -1.0779  -0.8790  -0.8321  -0.8253  -0.7564
    -0.7357  -0.6694  -0.6423  -0.6121  -0.5367  -0.5188  -0.4923  -0.4248
    -0.3907  -0.3075  -0.2699  -0.2513  -0.2086  -0.1920  -0.1743  -0.1466
    -0.0758  -0.0192   0.0241   0.0633   0.1291   0.2612   0.2782   0.3254
     0.4972   0.5094   0.6297   0.7037   0.7524   0.9982   1.0891   1.1941
     1.3221   1.3861   1.5336   3.1869   3.1942   3.3070   3.4297   3.4774
     3.5613   3.5981   3.6533   3.6723   3.6798

          k =-0.0760 0.0419 0.0000 ( 17914 PWs)   bands (ev):

   -55.9887 -55.9807 -55.9647 -55.9552 -55.8984 -55.8387 -55.8311 -55.8067
   -55.7921 -55.7683 -55.7532 -55.7293 -55.5354 -55.2690 -54.9607 -54.9367
   -32.4881 -32.4231 -32.3018 -32.2978 -32.2972 -32.2820 -32.2731 -32.2414
   -32.2214 -32.2112 -32.2063 -32.1754 -32.1713 -32.1673 -32.1542 -32.1276
   -32.1271 -32.1137 -32.0742 -32.0645 -32.0359 -32.0291 -32.0134 -32.0123
   -32.0090 -32.0057 -31.9912 -31.9853 -31.9839 -31.9741 -31.9728 -31.9647
   -31.9540 -31.9349 -31.9253 -31.9221 -31.9133 -31.8093 -31.7041 -31.5697
   -31.5405 -31.4773 -31.3180 -31.2869 -31.2639 -31.1767 -31.1156 -31.0489
   -16.4822 -16.1728 -16.0445 -15.9938 -15.9716 -15.8956 -15.8809 -15.7457
   -15.7386 -15.7275 -15.6746 -15.6550 -15.6472 -15.6174 -15.5952 -15.5516
   -15.4243 -15.3971 -15.3883 -15.3709 -15.3167 -15.2738 -15.2560 -15.2373
   -15.1822 -15.1664 -15.1415 -15.0360 -14.6468 -14.1465 -13.4682 -13.3922
    -8.9604  -4.4018  -3.8689  -3.4964  -3.3598  -3.3253  -3.2900  -3.2468
    -3.1920  -3.1459  -3.1053  -3.0832  -3.0629  -3.0367  -2.9925  -2.9772
    -2.9534  -2.9343  -2.8548  -2.7914  -2.7676  -2.7456  -2.7124  -2.6941
    -2.6781  -2.6576  -2.5975  -2.5728  -2.4800  -2.4679  -2.4650  -2.4475
    -2.3485  -2.2506  -2.1990  -2.1217  -2.1148  -2.0743  -2.0291  -1.9530
    -1.9409  -1.7773  -1.7304  -1.6371  -1.5994  -1.5519  -1.5423  -1.4803
    -1.4644  -1.4206  -1.3990  -1.3192  -1.3046  -1.2722  -1.2293  -1.2153
    -1.1988  -1.1530  -1.1309  -1.0929  -1.0422  -1.0100  -0.9838  -0.9314
    -0.8372  -0.7967  -0.7628  -0.7331  -0.7247  -0.6905  -0.6177  -0.5832
    -0.5490  -0.5117  -0.4016  -0.3352  -0.3018  -0.2786  -0.1571  -0.0923
     0.0015   0.0507   0.0906   0.2002   0.2485   0.3154   0.3573   0.3990
     0.4605   0.4717   0.5337   0.5825   0.6081   0.8056   1.2648   1.2716
     1.3379   1.4267   1.5543   3.3142   3.3703   3.3949   3.4635   3.4785
     3.5065   3.6322   3.6736   3.7197   3.7754

          k =-0.0760-0.0839 0.0000 ( 17948 PWs)   bands (ev):

   -55.9771 -55.9764 -55.9693 -55.9667 -55.8958 -55.8413 -55.8197 -55.8181
   -55.7811 -55.7793 -55.7418 -55.7408 -55.5350 -55.2695 -54.9487 -54.9486
   -32.3501 -32.3465 -32.2908 -32.2903 -32.2796 -32.2726 -32.2719 -32.2588
   -32.1968 -32.1957 -32.1907 -32.1863 -32.1631 -32.1320 -32.1170 -32.1128
   -32.0998 -32.0976 -32.0965 -32.0959 -32.0924 -32.0815 -32.0792 -32.0475
   -32.0394 -32.0383 -32.0087 -31.9976 -31.9782 -31.9778 -31.9744 -31.9735
   -31.9567 -31.9560 -31.9542 -31.9513 -31.8745 -31.8082 -31.7025 -31.6079
   -31.5408 -31.4881 -31.2752 -31.2752 -31.1855 -31.1854 -31.1463 -31.1463
   -16.2081 -16.1729 -15.9362 -15.9249 -15.9182 -15.9026 -15.7565 -15.7099
   -15.6982 -15.6912 -15.6686 -15.6456 -15.5878 -15.5589 -15.5297 -15.5212
   -15.5151 -15.5129 -15.4513 -15.4461 -15.4230 -15.4161 -15.3025 -15.2987
   -15.2889 -15.2127 -15.1584 -15.0181 -14.7435 -14.1613 -13.4540 -13.4539
    -8.9593  -4.3621  -3.5022  -3.4620  -3.2673  -3.2455  -3.1768  -3.1603
    -3.1357  -3.0686  -2.9034  -2.8867  -2.8753  -2.8606  -2.8179  -2.8118
    -2.8014  -2.7892  -2.7821  -2.7632  -2.7297  -2.6974  -2.6591  -2.6516
    -2.6429  -2.6174  -2.6064  -2.5849  -2.5735  -2.5422  -2.5336  -2.5151
    -2.4858  -2.2247  -2.2048  -2.1948  -2.1225  -2.1158  -2.0825  -2.0645
    -2.0546  -2.0413  -1.9853  -1.8814  -1.7235  -1.6963  -1.6909  -1.6672
    -1.5867  -1.5759  -1.4211  -1.4001  -1.3795  -1.3445  -1.2901  -1.2659
    -1.2252  -1.1674  -1.1489  -1.0855  -1.0678  -1.0094  -0.9542  -0.9522
    -0.9320  -0.8559  -0.7747  -0.7587  -0.7455  -0.7065  -0.6967  -0.6094
    -0.5856  -0.4924  -0.4782  -0.4232  -0.3953  -0.2933  -0.1347  -0.0095
     0.0442   0.0703   0.1275   0.2264   0.2708   0.2828   0.3264   0.3326
     0.3945   0.4348   0.5477   0.5535   0.6284   0.7197   1.2637   1.4204
     1.4211   1.4920   1.4920   3.4126   3.4178   3.4651   3.4944   3.6496
     3.6543   3.6761   3.6773   3.8021   3.8200

     the Fermi energy is     3.1425 ev

!    total energy              =   -2920.42394147 Ry
     estimated scf accuracy    <       0.00000004 Ry
     smearing contrib. (-TS)   =      -0.02203252 Ry
     internal energy E=F+TS    =   -2920.40190895 Ry

     The total energy is F=E-TS. E is the sum of the following terms:
     one-electron contribution =  -24701.71194209 Ry
     hartree contribution      =   12435.48544726 Ry
     xc contribution           =    -480.87105541 Ry
     ewald contribution        =    9826.69474934 Ry
     electric field correction =       0.00089194 Ry

     convergence has been achieved in  55 iterations

     Forces acting on atoms (cartesian axes, Ry/au):

     atom    1 type  1   force =     0.00012761   -0.00026813    0.09688892
     atom    2 type  1   force =     0.00003074   -0.00054029   -0.17507292
     atom    3 type  2   force =     0.00013580   -0.00007663   -0.02544657
     atom    4 type  2   force =    -0.00000985   -0.00136646    0.05231478
     atom    5 type  2   force =    -0.01237072   -0.00013696    0.00301440
     atom    6 type  2   force =     0.01380269    0.00023324    0.00237472
     atom    7 type  1   force =     0.00056944    0.00033604   -0.01263434
     atom    8 type  1   force =     0.00045801    0.00595344    0.03111322
     atom    9 type  2   force =    -0.00033285    0.00023797    0.00039982
     atom   10 type  2   force =    -0.00269293    0.00069668   -0.01627071
     atom   11 type  2   force =    -0.00039901    0.00012308    0.00016181
     atom   12 type  2   force =     0.00012253    0.00013403    0.00019056
     atom   13 type  1   force =    -0.00012281    0.00024368    0.00029148
     atom   14 type  1   force =    -0.00004770   -0.00022282   -0.00017076
     atom   15 type  2   force =     0.00018322    0.00007109    0.00022398
     atom   16 type  2   force =    -0.00007030    0.00027510    0.00025220
     atom   17 type  2   force =    -0.00009281   -0.00017963   -0.00017632
     atom   18 type  2   force =     0.00045606   -0.00007077    0.00030965
     atom   19 type  1   force =     0.00003939    0.00019890   -0.00032598
     atom   20 type  1   force =    -0.00006814    0.00017243   -0.00019456
     atom   21 type  2   force =     0.00007310   -0.00006048    0.10309363
     atom   22 type  2   force =    -0.00012398    0.00002650    0.00029796
     atom   23 type  2   force =    -0.07162051   -0.00016147   -0.02783589
     atom   24 type  2   force =     0.07153821    0.00032512   -0.02789183
     atom   25 type  1   force =     0.00010534   -0.00023717    0.09670163
     atom   26 type  1   force =     0.00011897   -0.00028085   -0.17524292
     atom   27 type  2   force =     0.00013413   -0.00023126   -0.02452014
     atom   28 type  2   force =     0.00002877   -0.00112634    0.05222826
     atom   29 type  2   force =    -0.01249385    0.00014229    0.00267043
     atom   30 type  2   force =     0.01381343    0.00069379    0.00201102
     atom   31 type  1   force =     0.00051708    0.00291848   -0.01339329
     atom   32 type  1   force =     0.00027948   -0.00822186    0.03150042
     atom   33 type  2   force =    -0.00005649   -0.00006510   -0.00011281
     atom   34 type  2   force =    -0.00183733    0.00056121   -0.02459330
     atom   35 type  2   force =    -0.00012874    0.00010309    0.00004059
     atom   36 type  2   force =    -0.00025961    0.00020015    0.00011264
     atom   37 type  1   force =    -0.00005215    0.00032087    0.00030179
     atom   38 type  1   force =    -0.00023392   -0.00005796   -0.00016847
     atom   39 type  2   force =     0.00006976    0.00023452   -0.00030355
     atom   40 type  2   force =    -0.00017445    0.00026737   -0.00011377
     atom   41 type  2   force =     0.00001109    0.00003927    0.00028916
     atom   42 type  2   force =     0.00000170   -0.00005169    0.00046353
     atom   43 type  1   force =    -0.00020298   -0.00021531    0.00040623
     atom   44 type  1   force =     0.00029067   -0.00050482    0.00023860
     atom   45 type  2   force =     0.00005075   -0.00006626    0.10310368
     atom   46 type  2   force =    -0.07162640   -0.00008968   -0.02782564
     atom   47 type  2   force =     0.07155898    0.00033780   -0.02790692
     atom   48 type  3   force =     0.00036187    0.00012482    0.00134313
     atom   49 type  4   force =     0.00471130   -0.00049259    0.00079540
     atom   50 type  5   force =    -0.01880179    0.00018743    0.00225449
     atom   51 type  3   force =     0.00160724   -0.00264179   -0.00148599
     atom   52 type  3   force =     0.00236951    0.00205720   -0.00092229
     atom   53 type  3   force =     0.01025244    0.00015072   -0.00277916

     Total force =     0.369069     Total SCF correction =     0.000554
  @ DRIVER MODE: Message from server: STATUS
  @ DRIVER MODE: Message from server: GETFORCE
  @ DRIVER MODE: Returning v,forces,stress,ensemble 

     Writing output data file ./calc.save/
  @ DRIVER MODE: Message from server: EXIT
  @ DRIVE MODE: Exiting  
 
     init_run     :      7.28s CPU      7.43s WALL (       1 calls)
     electrons    :    698.90s CPU    707.61s WALL (       1 calls)
     forces       :      1.66s CPU      1.70s WALL (       1 calls)

     Called by init_run:
     wfcinit      :      3.28s CPU      3.32s WALL (       1 calls)
     potinit      :      3.55s CPU      3.60s WALL (       1 calls)
     hinit0       :      0.19s CPU      0.20s WALL (       1 calls)

     Called by electrons:
     c_bands      :    599.66s CPU    604.24s WALL (      55 calls)
     sum_band     :     71.52s CPU     73.23s WALL (      55 calls)
     v_of_rho     :     20.91s CPU     21.48s WALL (      56 calls)
     newd         :      8.59s CPU     10.44s WALL (      56 calls)
     mix_rho      :      0.81s CPU      0.83s WALL (      55 calls)
     vdW_kernel   :      3.03s CPU      3.04s WALL (       1 calls)

     Called by c_bands:
     init_us_2    :      3.54s CPU      3.56s WALL (    1120 calls)
     cegterg      :    589.57s CPU    593.96s WALL (     551 calls)

     Called by *egterg:
     cdiaghg      :    145.33s CPU    145.88s WALL (    5688 calls)
     h_psi        :    284.20s CPU    287.47s WALL (    5698 calls)
     s_psi        :     32.37s CPU     32.51s WALL (    5698 calls)
     g_psi        :      0.81s CPU      0.82s WALL (    5137 calls)

     Called by h_psi:
     h_psi:calbec :     33.36s CPU     33.51s WALL (    5698 calls)
     vloc_psi     :    216.37s CPU    219.38s WALL (    5698 calls)
     add_vuspsi   :     32.72s CPU     32.83s WALL (    5698 calls)

     General routines
     calbec       :     44.78s CPU     44.96s WALL (    6288 calls)
     fft          :     10.51s CPU     10.62s WALL (    3528 calls)
     ffts         :      0.11s CPU      0.11s WALL (     111 calls)
     fftw         :    253.35s CPU    256.67s WALL (  717784 calls)
     interpolate  :      0.29s CPU      0.29s WALL (      56 calls)
     davcio       :      0.00s CPU      0.11s WALL (      10 calls)
 
     Parallel routines
 
     PWSCF        :  11m48.16s CPU  11m57.28s WALL

 
   This run was terminated on:  16:52:55   2Aug2021            

=------------------------------------------------------------------------------=
   JOB DONE.
=------------------------------------------------------------------------------=
