
     Program PWSCF v.6.7GPU starts on 16Sep2021 at  4:46:39 

     This program is part of the open-source Quantum ESPRESSO suite
     for quantum simulation of materials; please cite
         "P. Giannozzi et al., J. Phys.:Condens. Matter 21 395502 (2009);
         "P. Giannozzi et al., J. Phys.:Condens. Matter 29 465901 (2017);
         "P. Giannozzi et al., J. Chem. Phys. 152 154105 (2020);
          URL http://www.quantum-espresso.org", 
     in publications or presentations arising from this work. More details at
     http://www.quantum-espresso.org/quote

     Parallel version (MPI), running on    10 processors

     MPI processes distributed on     1 nodes
     R & G space division:  proc/nbgrp/npool/nimage =      10
     Reading input from /storage/home/hcoda1/3/ntian30/research/carbon/CxH_vib/H2O_calc/ads_slab/CH3NH2O_a/out_0043/pw.inp
Warning: card &CELL ignored
Warning: card   CELL_DYNAMICS='IPI', ignored
Warning: card / ignored

     Current dimensions of program PWSCF are:
     Max number of different atomic species (ntypx) = 10
     Max number of k-points (npk) =  40000
     Max angular momentum in pseudopotentials (lmaxx) =  3
     Presently no symmetry can be used with electric field

     Message from routine cell_base_init:
     DEPRECATED: use true lattice parameter, not A to a.u. conversion factor

     **************************************************************************
     Initializing libbeef V0.1.2 with the BEEF-vdW functional.
     Citation: Wellendorff et al., PRB 85, 235149 (2012).
     **************************************************************************


     IMPORTANT: XC functional enforced from input :
     Exchange-correlation= BEEF-VDW
                           (   1   4  43  14   2   0   0)
     Any further DFT definition will be discarded
     Please, verify this is what you really want


     Subspace diagonalization in iterative solution of the eigenvalue problem:
     one sub-group per band group will be used
     scalapack distributed-memory algorithm (size of sub-group:  3*  3 procs)

  @ DRIVER MODE: Connecting to 
 qe_1139763_2852618.sched-torque.pace.gatech.edueblsspzq_scratch
  using UNIX socket
  @ DRIVER MODE: Message from server: STATUS
  @ DRIVER MODE: Message from server: INIT
  @ DRIVER MODE: Receiving replica           0          -1
  @ DRIVER MODE: Receiving encoded integer          25
  @ DRIVER MODE:  SCF:  T  FORCE:  T  STRESS:  F  VC:  F  ENSEMBLE:  F
  @ DRIVER MODE:  SCF:  T  FORCE:  T  STRESS:  F  VC:  F  ENSEMBLE:  F
 
     Parallelization info
     --------------------
     sticks:   dense  smooth     PW     G-vecs:    dense   smooth      PW
     Min         327     131     37                56683    14340    2191
     Max         328     133     38                56694    14346    2206
     Sum        3275    1317    379               566857   143421   21985
 
     Using Slab Decomposition
 


     bravais-lattice index     =            0
     lattice parameter (alat)  =       1.8897  a.u.
     unit-cell volume          =    6658.9804 (a.u.)^3
     number of atoms/cell      =           55
     number of atomic types    =            5
     number of electrons       =       398.00
     number of Kohn-Sham states=          209
     kinetic-energy cutoff     =      29.3995  Ry
     charge density cutoff     =     293.9946  Ry
     scf convergence threshold =      7.3E-08
     mixing beta               =       0.0500
     number of iterations used =            8  plain     mixing
     Exchange-correlation= BEEF-VDW
                           (   1   4  43  14   2   0   0)

     celldm(1)=   1.889726  celldm(2)=   0.000000  celldm(3)=   0.000000
     celldm(4)=   0.000000  celldm(5)=   0.000000  celldm(6)=   0.000000

     crystal axes: (cart. coord. in units of alat)
               a(1) = (   6.579727   0.000000   0.000000 )  
               a(2) = (  -0.000775   5.961596   0.000000 )  
               a(3) = (   0.000000   0.000000  25.155947 )  

     reciprocal axes: (cart. coord. in units 2 pi/alat)
               b(1) = (  0.151982  0.000020  0.000000 )  
               b(2) = (  0.000000  0.167740  0.000000 )  
               b(3) = (  0.000000  0.000000  0.039752 )  


     PseudoPot. # 1 for Ti read from file:
     /storage/coda1/p-amedford6/0/shared/rich_project_chbe-medford/medford-share/data/pseudos_module/espresso/nninc/pbe/van/Ti.UPF
     MD5 check sum: 8e4df49b7f0d34bbd5052bf3f5ea0213
     Pseudo is Ultrasoft, Zval = 12.0
     Generated by new atomic code, or converted to UPF format
     Using radial grid of  851 points,  6 beta functions with: 
                l(1) =   0
                l(2) =   0
                l(3) =   1
                l(4) =   1
                l(5) =   2
                l(6) =   2
     Q(r) pseudized with  8 coefficients,  rinner =    1.000   1.000   1.000
                                                       1.000   1.000

     PseudoPot. # 2 for O  read from file:
     /storage/coda1/p-amedford6/0/shared/rich_project_chbe-medford/medford-share/data/pseudos_module/espresso/nninc/pbe/van/O.UPF
     MD5 check sum: 78c19812648e8988a0fe644b0f25305e
     Pseudo is Ultrasoft, Zval =  6.0
     Generated by new atomic code, or converted to UPF format
     Using radial grid of  737 points,  4 beta functions with: 
                l(1) =   0
                l(2) =   0
                l(3) =   1
                l(4) =   1
     Q(r) pseudized with  8 coefficients,  rinner =    0.800   0.800   0.800


     PseudoPot. # 3 for N  read from file:
     /storage/coda1/p-amedford6/0/shared/rich_project_chbe-medford/medford-share/data/pseudos_module/espresso/nninc/pbe/van/N.UPF
     MD5 check sum: 90d10febe142ad51ac9d5be1deb811c4
     Pseudo is Ultrasoft, Zval =  5.0
     Generated by new atomic code, or converted to UPF format
     Using radial grid of  729 points,  4 beta functions with: 
                l(1) =   0
                l(2) =   0
                l(3) =   1
                l(4) =   1
     Q(r) pseudized with  8 coefficients,  rinner =    0.800   0.800   0.800


     PseudoPot. # 4 for C  read from file:
     /storage/coda1/p-amedford6/0/shared/rich_project_chbe-medford/medford-share/data/pseudos_module/espresso/nninc/pbe/van/C.UPF
     MD5 check sum: 1a69bf6b8db32088f5b2163dbdb77a27
     Pseudo is Ultrasoft, Zval =  4.0
     Generated by new atomic code, or converted to UPF format
     Using radial grid of  721 points,  4 beta functions with: 
                l(1) =   0
                l(2) =   0
                l(3) =   1
                l(4) =   1
     Q(r) pseudized with  8 coefficients,  rinner =    0.800   0.800   0.800


     PseudoPot. # 5 for H  read from file:
     /storage/coda1/p-amedford6/0/shared/rich_project_chbe-medford/medford-share/data/pseudos_module/espresso/nninc/pbe/van/H.UPF
     MD5 check sum: b5ee9d7bfd3a09ee7748110bda690ff7
     Pseudo is Ultrasoft, Zval =  1.0
     Generated by new atomic code, or converted to UPF format
     Using radial grid of  615 points,  1 beta functions with: 
                l(1) =   0
     Q(r) pseudized with  8 coefficients,  rinner =    0.800

     atomic species   valence    mass     pseudopotential
        Ti1           12.00    47.86700     Ti( 1.00)
        O1             6.00    15.99900     O ( 1.00)
        N1             5.00    14.00700     N ( 1.00)
        C1             4.00    12.01100     C ( 1.00)
        H1             1.00     1.00800     H ( 1.00)

     No symmetry found



   Cartesian axes

     site n.     atom                  positions (alat units)
         1           Ti1 tau(   1) = (   0.0004258   2.9801865   6.0000000  )
         2           Ti1 tau(   2) = (   3.2906075   1.4906267   6.0002472  )
         3           O1  tau(   3) = (   0.0006271   0.0005054   7.9858123  )
         4           O1  tau(   4) = (   3.2906025   0.0005020   7.3038282  )
         5           O1  tau(   5) = (   4.5942328   1.4918067   9.2879030  )
         6           O1  tau(   6) = (   1.9868534   1.4903216   9.2879459  )
         7           Ti1 tau(   7) = (   3.2907910   2.8959150   9.1758416  )
         8           Ti1 tau(   8) = (   0.0015273   1.4827037   9.2680791  )
         9           O1  tau(   9) = (   3.2951577   0.0167633  11.2896499  )
        10           O1  tau(  10) = (   0.0116148   5.9584955  10.6183126  )
        11           O1  tau(  11) = (   1.3222759   1.5071707  12.6129440  )
        12           O1  tau(  12) = (   5.3060066   1.5095485  12.6267335  )
        13           Ti1 tau(  13) = (   6.4824898   3.0013615  12.7357613  )
        14           Ti1 tau(  14) = (   3.1735365   1.4973312  12.4739500  )
        15           O1  tau(  15) = (   0.0245190   0.0017265  14.5963640  )
        16           O1  tau(  16) = (   3.2983568   0.0259644  13.8884976  )
        17           O1  tau(  17) = (   4.5535709   1.5599051  15.9919625  )
        18           O1  tau(  18) = (   2.0723989   1.5598234  15.9883263  )
        19           Ti1 tau(  19) = (   3.3263631   3.0313633  15.6478355  )
        20           Ti1 tau(  20) = (   0.0083359   1.6222165  16.0589653  )
        21           O1  tau(  21) = (   3.2904802   0.0005063   4.7018136  )
        22           O1  tau(  22) = (   0.0206953   0.0548308  17.2083480  )
        23           O1  tau(  23) = (   1.3043587   1.4918075   6.0039043  )
        24           O1  tau(  24) = (   5.2767064   1.4903225   6.0039473  )
        25           Ti1 tau(  25) = (   0.0000382   5.9609847   6.0000000  )
        26           Ti1 tau(  26) = (   3.2902200   4.4714249   6.0002472  )
        27           O1  tau(  27) = (   0.0002396   2.9813036   7.9858123  )
        28           O1  tau(  28) = (   3.2902150   2.9813002   7.3038282  )
        29           O1  tau(  29) = (   4.5938453   4.4726049   9.2879030  )
        30           O1  tau(  30) = (   1.9864658   4.4711199   9.2879459  )
        31           Ti1 tau(  31) = (   3.2891106   5.8743827   9.1763621  )
        32           Ti1 tau(  32) = (   0.0006254   4.4649316   9.2693709  )
        33           O1  tau(  33) = (   3.2909539   2.9954008  11.2901670  )
        34           O1  tau(  34) = (   0.0092240   2.9805883  10.6323155  )
        35           O1  tau(  35) = (   1.3211080   4.4795309  12.6092917  )
        36           O1  tau(  36) = (   5.3058445   4.4798052  12.6251394  )
        37           Ti1 tau(  37) = (   6.5140999   0.0198189  12.7603067  )
        38           Ti1 tau(  38) = (   3.1705570   4.4938763  12.4677136  )
        39           O1  tau(  39) = (   0.0016069   2.9863809  14.6467327  )
        40           O1  tau(  40) = (   3.3112668   3.0122049  13.8485686  )
        41           O1  tau(  41) = (   4.5534170   4.5051619  16.0179686  )
        42           O1  tau(  42) = (   2.0797414   4.5084034  16.0201905  )
        43           Ti1 tau(  43) = (   3.2815144   0.0627375  15.7417980  )
        44           Ti1 tau(  44) = (   0.0076503   4.5954094  16.1032789  )
        45           O1  tau(  45) = (   3.2900926   2.9813045   4.7018136  )
        46           O1  tau(  46) = (   1.3039711   4.4726057   6.0039043  )
        47           O1  tau(  47) = (   5.2763189   4.4711207   6.0039473  )
        48           N1  tau(  48) = (   0.0651939   3.0276870  17.3150544  )
        49           C1  tau(  49) = (   0.3375872   3.0185870  18.7284822  )
        50           H1  tau(  50) = (   0.4544735   4.0311245  19.1352477  )
        51           H1  tau(  51) = (   6.1015407   2.5302758  19.2785169  )
        52           H1  tau(  52) = (   1.2508204   2.4494767  18.9518403  )
        53           O1  tau(  53) = (   3.3357083   0.1159715  18.1615364  )
        54           H1  tau(  54) = (   4.1514219   5.6051498  18.3929375  )
        55           H1  tau(  55) = (   2.5826282   5.5337384  18.4710493  )

     number of k points=    10  Fermi-Dirac smearing, width (Ry)=  0.0073
                       cart. coord. in units 2pi/alat
        k(    1) = (   0.0000000   0.0000000   0.0000000), wk =   0.1250000
        k(    2) = (   0.0000000   0.0419351   0.0000000), wk =   0.2500000
        k(    3) = (   0.0000000  -0.0838702   0.0000000), wk =   0.1250000
        k(    4) = (   0.0379955   0.0000049   0.0000000), wk =   0.2500000
        k(    5) = (   0.0379955   0.0419400   0.0000000), wk =   0.2500000
        k(    6) = (   0.0379955  -0.0838652   0.0000000), wk =   0.2500000
        k(    7) = (   0.0379955  -0.0419301   0.0000000), wk =   0.2500000
        k(    8) = (  -0.0759910  -0.0000099   0.0000000), wk =   0.1250000
        k(    9) = (  -0.0759910   0.0419252   0.0000000), wk =   0.2500000
        k(   10) = (  -0.0759910  -0.0838800   0.0000000), wk =   0.1250000

     Dense  grid:   566857 G-vectors     FFT dimensions: (  72,  64, 270)

     Smooth grid:   143421 G-vectors     FFT dimensions: (  45,  40, 180)

     Estimated max dynamical RAM per process >     366.66 MB

     Estimated total dynamical RAM >       3.58 GB
     Cannot read rho : file not found

     Initial potential from superposition of free atoms

     starting charge  381.99915, renormalised to  398.00000

     negative rho (up, down):  1.656E-02 0.000E+00


     %%%%%%%%%%%%%%%%%%%%%%%%%%%%%%%%%%%%%%%%%%%%%%%%%%%%%%%%%%%%%%%%%%%%%%%%
     %                                                                      %
     % You are using vdW-DF, which was implemented by the Thonhauser group. %
     % Please cite the following two papers that made this development      %
     % possible and the two reviews that describe the various versions:     %
     %                                                                      %
     %   T. Thonhauser et al., PRL 115, 136402 (2015).                      %
     %   T. Thonhauser et al., PRB 76, 125112 (2007).                       %
     %   K. Berland et al., Rep. Prog. Phys. 78, 066501 (2015).             %
     %   D.C. Langreth et al., J. Phys.: Condens. Matter 21, 084203 (2009). %
     %                                                                      %
     %                                                                      %
     % If you are calculating the stress with vdW-DF, please also cite:     %
     %                                                                      %
     %   R. Sabatini et al., J. Phys.: Condens. Matter 24, 424209 (2012).   %
     %                                                                      %
     %%%%%%%%%%%%%%%%%%%%%%%%%%%%%%%%%%%%%%%%%%%%%%%%%%%%%%%%%%%%%%%%%%%%%%%%


 
     Adding external electric field

     Computed dipole along edir(3) : 
        Dipole               -9.1079 Ry au,        -23.1500 Debye
        Dipole field         -0.0172 Ry au, 
 
        Potential amp.        1.5933 Ry
        Total length         46.3494 bohr
 
     Starting wfcs are  301 atomic wfcs
  @ DRIVER MODE: Message from server: STATUS
  @ DRIVER MODE: Message from server: POSDATA
  @ DRIVER MODE: Reading and sharing cell 
  @ DRIVER MODE: Reading and sharing positions 
  @ DRIVER MODE: Received positions 

     total cpu time spent up to now is       11.3 secs

     Self-consistent Calculation

     iteration #  1     ecut=    29.40 Ry     beta= 0.05
     Davidson diagonalization with overlap
     c_bands:  1 eigenvalues not converged
     c_bands:  1 eigenvalues not converged
     c_bands:  1 eigenvalues not converged
     c_bands:  1 eigenvalues not converged
     c_bands:  1 eigenvalues not converged
     c_bands:  1 eigenvalues not converged
     c_bands:  1 eigenvalues not converged
     c_bands:  2 eigenvalues not converged
     ethr =  1.00E-05,  avg # of iterations = 19.6

     negative rho (up, down):  1.256E-02 0.000E+00
 
     Adding external electric field

     Computed dipole along edir(3) : 
        Dipole               42.2150 Ry au,        107.2998 Debye
        Dipole field          0.0797 Ry au, 
 
        Potential amp.       -7.3849 Ry
        Total length         46.3494 bohr
 

     total cpu time spent up to now is       52.4 secs

     total energy              =   -2564.53765978 Ry
     estimated scf accuracy    <    4317.21768197 Ry

     iteration #  2     ecut=    29.40 Ry     beta= 0.05
     Davidson diagonalization with overlap
     ethr =  1.00E-02,  avg # of iterations = 24.6

     negative rho (up, down):  3.538E-03 0.000E+00
 
     Adding external electric field

     Computed dipole along edir(3) : 
        Dipole               -1.9449 Ry au,         -4.9434 Debye
        Dipole field         -0.0037 Ry au, 
 
        Potential amp.        0.3402 Ry
        Total length         46.3494 bohr
 

     total cpu time spent up to now is      125.0 secs

     total energy              =   -2480.89072506 Ry
     estimated scf accuracy    <   65452.98496410 Ry

     iteration #  3     ecut=    29.40 Ry     beta= 0.05
     Davidson diagonalization with overlap
     ethr =  1.00E-02,  avg # of iterations = 14.1

     negative rho (up, down):  3.615E-03 0.000E+00
 
     Adding external electric field

     Computed dipole along edir(3) : 
        Dipole               -4.2100 Ry au,        -10.7007 Debye
        Dipole field         -0.0079 Ry au, 
 
        Potential amp.        0.7365 Ry
        Total length         46.3494 bohr
 

     total cpu time spent up to now is      171.3 secs

     total energy              =   -2935.15687844 Ry
     estimated scf accuracy    <    4242.92993345 Ry

     iteration #  4     ecut=    29.40 Ry     beta= 0.05
     Davidson diagonalization with overlap
     c_bands:  2 eigenvalues not converged
     c_bands:  2 eigenvalues not converged
     ethr =  1.00E-02,  avg # of iterations = 16.7

     negative rho (up, down):  3.671E-03 0.000E+00
 
     Adding external electric field

     Computed dipole along edir(3) : 
        Dipole               -5.5662 Ry au,        -14.1480 Debye
        Dipole field         -0.0105 Ry au, 
 
        Potential amp.        0.9737 Ry
        Total length         46.3494 bohr
 

     total cpu time spent up to now is      192.5 secs

     total energy              =   -2943.86228672 Ry
     estimated scf accuracy    <    1073.09718187 Ry

     iteration #  5     ecut=    29.40 Ry     beta= 0.05
     Davidson diagonalization with overlap
     ethr =  1.00E-02,  avg # of iterations =  7.2

     negative rho (up, down):  3.722E-03 0.000E+00
 
     Adding external electric field

     Computed dipole along edir(3) : 
        Dipole               -6.4414 Ry au,        -16.3723 Debye
        Dipole field         -0.0122 Ry au, 
 
        Potential amp.        1.1268 Ry
        Total length         46.3494 bohr
 

     total cpu time spent up to now is      205.9 secs

     total energy              =   -2944.48393763 Ry
     estimated scf accuracy    <     431.83648466 Ry

     iteration #  6     ecut=    29.40 Ry     beta= 0.05
     Davidson diagonalization with overlap
     ethr =  1.00E-02,  avg # of iterations =  7.3

     negative rho (up, down):  3.696E-03 0.000E+00
 
     Adding external electric field

     Computed dipole along edir(3) : 
        Dipole               -5.7418 Ry au,        -14.5941 Debye
        Dipole field         -0.0108 Ry au, 
 
        Potential amp.        1.0044 Ry
        Total length         46.3494 bohr
 

     total cpu time spent up to now is      221.0 secs

     total energy              =   -2954.78450986 Ry
     estimated scf accuracy    <      42.48307532 Ry

     iteration #  7     ecut=    29.40 Ry     beta= 0.05
     Davidson diagonalization with overlap
     ethr =  1.00E-02,  avg # of iterations =  3.6

     negative rho (up, down):  3.692E-03 0.000E+00
 
     Adding external electric field

     Computed dipole along edir(3) : 
        Dipole               -5.2786 Ry au,        -13.4168 Debye
        Dipole field         -0.0100 Ry au, 
 
        Potential amp.        0.9234 Ry
        Total length         46.3494 bohr
 

     total cpu time spent up to now is      232.1 secs

     total energy              =   -2957.01387785 Ry
     estimated scf accuracy    <      13.95882469 Ry

     iteration #  8     ecut=    29.40 Ry     beta= 0.05
     Davidson diagonalization with overlap
     ethr =  3.51E-03,  avg # of iterations =  1.2

     negative rho (up, down):  4.027E-03 0.000E+00
 
     Adding external electric field

     Computed dipole along edir(3) : 
        Dipole                3.3808 Ry au,          8.5931 Debye
        Dipole field          0.0064 Ry au, 
 
        Potential amp.       -0.5914 Ry
        Total length         46.3494 bohr
 

     total cpu time spent up to now is      242.3 secs

     total energy              =   -2955.85267658 Ry
     estimated scf accuracy    <      13.49436864 Ry

     iteration #  9     ecut=    29.40 Ry     beta= 0.05
     Davidson diagonalization with overlap
     ethr =  3.39E-03,  avg # of iterations = 14.9

     negative rho (up, down):  4.060E-03 0.000E+00
 
     Adding external electric field

     Computed dipole along edir(3) : 
        Dipole                3.4320 Ry au,          8.7232 Debye
        Dipole field          0.0065 Ry au, 
 
        Potential amp.       -0.6004 Ry
        Total length         46.3494 bohr
 

     total cpu time spent up to now is      266.0 secs

     total energy              =   -3011.58727180 Ry
     estimated scf accuracy    <    3143.81032608 Ry

     iteration # 10     ecut=    29.40 Ry     beta= 0.05
     Davidson diagonalization with overlap
     ethr =  3.39E-03,  avg # of iterations =  1.4

     negative rho (up, down):  4.843E-03 0.000E+00
 
     Adding external electric field

     Computed dipole along edir(3) : 
        Dipole                7.6188 Ry au,         19.3650 Debye
        Dipole field          0.0144 Ry au, 
 
        Potential amp.       -1.3328 Ry
        Total length         46.3494 bohr
 

     total cpu time spent up to now is      276.3 secs

     total energy              =   -3042.64778043 Ry
     estimated scf accuracy    <    3140.48459284 Ry

     iteration # 11     ecut=    29.40 Ry     beta= 0.05
     Davidson diagonalization with overlap
     ethr =  3.39E-03,  avg # of iterations =  7.6

     negative rho (up, down):  4.491E-03 0.000E+00
 
     Adding external electric field

     Computed dipole along edir(3) : 
        Dipole                0.7571 Ry au,          1.9245 Debye
        Dipole field          0.0014 Ry au, 
 
        Potential amp.       -0.1325 Ry
        Total length         46.3494 bohr
 

     total cpu time spent up to now is      288.9 secs

     total energy              =   -2947.84897511 Ry
     estimated scf accuracy    <    4160.91800388 Ry

     iteration # 12     ecut=    29.40 Ry     beta= 0.05
     Davidson diagonalization with overlap
     ethr =  3.39E-03,  avg # of iterations = 11.5

     negative rho (up, down):  4.396E-03 0.000E+00
 
     Adding external electric field

     Computed dipole along edir(3) : 
        Dipole               -3.2203 Ry au,         -8.1853 Debye
        Dipole field         -0.0061 Ry au, 
 
        Potential amp.        0.5634 Ry
        Total length         46.3494 bohr
 

     total cpu time spent up to now is      309.6 secs

     total energy              =   -2931.92952645 Ry
     estimated scf accuracy    <    1573.27023105 Ry

     iteration # 13     ecut=    29.40 Ry     beta= 0.05
     Davidson diagonalization with overlap
     c_bands:  1 eigenvalues not converged
     ethr =  3.39E-03,  avg # of iterations = 17.3

     negative rho (up, down):  4.351E-03 0.000E+00
 
     Adding external electric field

     Computed dipole along edir(3) : 
        Dipole               -0.3342 Ry au,         -0.8494 Debye
        Dipole field         -0.0006 Ry au, 
 
        Potential amp.        0.0585 Ry
        Total length         46.3494 bohr
 

     total cpu time spent up to now is      341.0 secs

     total energy              =   -2948.03695865 Ry
     estimated scf accuracy    <     127.30420556 Ry

     iteration # 14     ecut=    29.40 Ry     beta= 0.05
     Davidson diagonalization with overlap
     ethr =  3.39E-03,  avg # of iterations = 15.4

     negative rho (up, down):  4.258E-03 0.000E+00
 
     Adding external electric field

     Computed dipole along edir(3) : 
        Dipole               -1.9546 Ry au,         -4.9682 Debye
        Dipole field         -0.0037 Ry au, 
 
        Potential amp.        0.3419 Ry
        Total length         46.3494 bohr
 

     total cpu time spent up to now is      360.8 secs

     total energy              =   -2953.58927427 Ry
     estimated scf accuracy    <     350.68954697 Ry

     iteration # 15     ecut=    29.40 Ry     beta= 0.05
     Davidson diagonalization with overlap
     ethr =  3.39E-03,  avg # of iterations =  2.9

     negative rho (up, down):  4.383E-03 0.000E+00
 
     Adding external electric field

     Computed dipole along edir(3) : 
        Dipole                0.5110 Ry au,          1.2987 Debye
        Dipole field          0.0010 Ry au, 
 
        Potential amp.       -0.0894 Ry
        Total length         46.3494 bohr
 

     total cpu time spent up to now is      371.8 secs

     total energy              =   -2963.53218314 Ry
     estimated scf accuracy    <     189.06156864 Ry

     iteration # 16     ecut=    29.40 Ry     beta= 0.05
     Davidson diagonalization with overlap
     ethr =  3.39E-03,  avg # of iterations =  3.0

     negative rho (up, down):  4.289E-03 0.000E+00
 
     Adding external electric field

     Computed dipole along edir(3) : 
        Dipole               -1.8486 Ry au,         -4.6987 Debye
        Dipole field         -0.0035 Ry au, 
 
        Potential amp.        0.3234 Ry
        Total length         46.3494 bohr
 

     total cpu time spent up to now is      383.2 secs

     total energy              =   -2951.51774538 Ry
     estimated scf accuracy    <     830.80631431 Ry

     iteration # 17     ecut=    29.40 Ry     beta= 0.05
     Davidson diagonalization with overlap
     ethr =  3.39E-03,  avg # of iterations =  2.2

     negative rho (up, down):  4.726E-03 0.000E+00
 
     Adding external electric field

     Computed dipole along edir(3) : 
        Dipole               -4.0145 Ry au,        -10.2039 Debye
        Dipole field         -0.0076 Ry au, 
 
        Potential amp.        0.7023 Ry
        Total length         46.3494 bohr
 

     total cpu time spent up to now is      394.2 secs

     total energy              =   -2946.25228936 Ry
     estimated scf accuracy    <     244.26637389 Ry

     iteration # 18     ecut=    29.40 Ry     beta= 0.05
     Davidson diagonalization with overlap
     ethr =  3.39E-03,  avg # of iterations = 10.9

     negative rho (up, down):  4.890E-03 0.000E+00
 
     Adding external electric field

     Computed dipole along edir(3) : 
        Dipole               -1.3411 Ry au,         -3.4087 Debye
        Dipole field         -0.0025 Ry au, 
 
        Potential amp.        0.2346 Ry
        Total length         46.3494 bohr
 

     total cpu time spent up to now is      415.5 secs

     total energy              =   -2953.98790820 Ry
     estimated scf accuracy    <       7.53436597 Ry

     iteration # 19     ecut=    29.40 Ry     beta= 0.05
     Davidson diagonalization with overlap
     ethr =  1.89E-03,  avg # of iterations =  5.1

     negative rho (up, down):  4.751E-03 0.000E+00
 
     Adding external electric field

     Computed dipole along edir(3) : 
        Dipole               -1.9011 Ry au,         -4.8322 Debye
        Dipole field         -0.0036 Ry au, 
 
        Potential amp.        0.3326 Ry
        Total length         46.3494 bohr
 

     total cpu time spent up to now is      427.6 secs

     total energy              =   -2954.28848795 Ry
     estimated scf accuracy    <      30.83902505 Ry

     iteration # 20     ecut=    29.40 Ry     beta= 0.05
     Davidson diagonalization with overlap
     ethr =  1.89E-03,  avg # of iterations =  1.9

     negative rho (up, down):  4.678E-03 0.000E+00
 
     Adding external electric field

     Computed dipole along edir(3) : 
        Dipole               -2.2049 Ry au,         -5.6042 Debye
        Dipole field         -0.0042 Ry au, 
 
        Potential amp.        0.3857 Ry
        Total length         46.3494 bohr
 

     total cpu time spent up to now is      438.4 secs

     total energy              =   -2954.41111559 Ry
     estimated scf accuracy    <       3.59486888 Ry

     iteration # 21     ecut=    29.40 Ry     beta= 0.05
     Davidson diagonalization with overlap
     ethr =  9.03E-04,  avg # of iterations =  1.7

     negative rho (up, down):  4.559E-03 0.000E+00
 
     Adding external electric field

     Computed dipole along edir(3) : 
        Dipole               -3.2827 Ry au,         -8.3438 Debye
        Dipole field         -0.0062 Ry au, 
 
        Potential amp.        0.5743 Ry
        Total length         46.3494 bohr
 

     total cpu time spent up to now is      449.0 secs

     total energy              =   -2953.94018494 Ry
     estimated scf accuracy    <       2.84852121 Ry

     iteration # 22     ecut=    29.40 Ry     beta= 0.05
     Davidson diagonalization with overlap
     c_bands:  1 eigenvalues not converged
     c_bands:  2 eigenvalues not converged
     ethr =  7.16E-04,  avg # of iterations = 18.0

     negative rho (up, down):  4.646E-03 0.000E+00
 
     Adding external electric field

     Computed dipole along edir(3) : 
        Dipole               -2.3419 Ry au,         -5.9525 Debye
        Dipole field         -0.0044 Ry au, 
 
        Potential amp.        0.4097 Ry
        Total length         46.3494 bohr
 

     total cpu time spent up to now is      470.2 secs

     total energy              =   -2953.98688583 Ry
     estimated scf accuracy    <      16.12092228 Ry

     iteration # 23     ecut=    29.40 Ry     beta= 0.05
     Davidson diagonalization with overlap
     ethr =  7.16E-04,  avg # of iterations =  4.0

     negative rho (up, down):  4.684E-03 0.000E+00
 
     Adding external electric field

     Computed dipole along edir(3) : 
        Dipole               -2.0961 Ry au,         -5.3278 Debye
        Dipole field         -0.0040 Ry au, 
 
        Potential amp.        0.3667 Ry
        Total length         46.3494 bohr
 

     total cpu time spent up to now is      481.6 secs

     total energy              =   -2954.09777954 Ry
     estimated scf accuracy    <       1.66731619 Ry

     iteration # 24     ecut=    29.40 Ry     beta= 0.05
     Davidson diagonalization with overlap
     ethr =  4.19E-04,  avg # of iterations =  1.9

     negative rho (up, down):  4.791E-03 0.000E+00
 
     Adding external electric field

     Computed dipole along edir(3) : 
        Dipole               -1.7779 Ry au,         -4.5190 Debye
        Dipole field         -0.0034 Ry au, 
 
        Potential amp.        0.3110 Ry
        Total length         46.3494 bohr
 

     total cpu time spent up to now is      492.3 secs

     total energy              =   -2954.07174847 Ry
     estimated scf accuracy    <       1.03840572 Ry

     iteration # 25     ecut=    29.40 Ry     beta= 0.05
     Davidson diagonalization with overlap
     ethr =  2.61E-04,  avg # of iterations =  4.8

     negative rho (up, down):  5.504E-03 0.000E+00
 
     Adding external electric field

     Computed dipole along edir(3) : 
        Dipole               -1.1073 Ry au,         -2.8145 Debye
        Dipole field         -0.0021 Ry au, 
 
        Potential amp.        0.1937 Ry
        Total length         46.3494 bohr
 

     total cpu time spent up to now is      504.0 secs

     total energy              =   -2953.96792331 Ry
     estimated scf accuracy    <       0.82125604 Ry

     iteration # 26     ecut=    29.40 Ry     beta= 0.05
     Davidson diagonalization with overlap
     ethr =  2.06E-04,  avg # of iterations = 11.6

     negative rho (up, down):  5.484E-03 0.000E+00
 
     Adding external electric field

     Computed dipole along edir(3) : 
        Dipole               -0.7573 Ry au,         -1.9247 Debye
        Dipole field         -0.0014 Ry au, 
 
        Potential amp.        0.1325 Ry
        Total length         46.3494 bohr
 

     total cpu time spent up to now is      520.6 secs

     total energy              =   -2953.99073250 Ry
     estimated scf accuracy    <      12.53576686 Ry

     iteration # 27     ecut=    29.40 Ry     beta= 0.05
     Davidson diagonalization with overlap
     ethr =  2.06E-04,  avg # of iterations =  3.0

     negative rho (up, down):  5.636E-03 0.000E+00
 
     Adding external electric field

     Computed dipole along edir(3) : 
        Dipole               -0.0138 Ry au,         -0.0350 Debye
        Dipole field         -0.0000 Ry au, 
 
        Potential amp.        0.0024 Ry
        Total length         46.3494 bohr
 

     total cpu time spent up to now is      531.8 secs

     total energy              =   -2953.86190876 Ry
     estimated scf accuracy    <       2.34742102 Ry

     iteration # 28     ecut=    29.40 Ry     beta= 0.05
     Davidson diagonalization with overlap
     c_bands:  1 eigenvalues not converged
     c_bands:  1 eigenvalues not converged
     c_bands:  3 eigenvalues not converged
     c_bands:  1 eigenvalues not converged
     ethr =  2.06E-04,  avg # of iterations = 16.7

     negative rho (up, down):  5.469E-03 0.000E+00
 
     Adding external electric field

     Computed dipole along edir(3) : 
        Dipole               -0.7670 Ry au,         -1.9495 Debye
        Dipole field         -0.0014 Ry au, 
 
        Potential amp.        0.1342 Ry
        Total length         46.3494 bohr
 

     total cpu time spent up to now is      549.1 secs

     total energy              =   -2953.88022744 Ry
     estimated scf accuracy    <       0.92099847 Ry

     iteration # 29     ecut=    29.40 Ry     beta= 0.05
     Davidson diagonalization with overlap
     ethr =  2.06E-04,  avg # of iterations =  7.1

     negative rho (up, down):  6.116E-03 0.000E+00
 
     Adding external electric field

     Computed dipole along edir(3) : 
        Dipole               -0.1704 Ry au,         -0.4332 Debye
        Dipole field         -0.0003 Ry au, 
 
        Potential amp.        0.0298 Ry
        Total length         46.3494 bohr
 

     total cpu time spent up to now is      561.8 secs

     total energy              =   -2953.96216665 Ry
     estimated scf accuracy    <       0.24557330 Ry

     iteration # 30     ecut=    29.40 Ry     beta= 0.05
     Davidson diagonalization with overlap
     c_bands:  1 eigenvalues not converged
     c_bands:  1 eigenvalues not converged
     ethr =  6.17E-05,  avg # of iterations = 10.0

     negative rho (up, down):  7.738E-03 0.000E+00
 
     Adding external electric field

     Computed dipole along edir(3) : 
        Dipole                0.5967 Ry au,          1.5167 Debye
        Dipole field          0.0011 Ry au, 
 
        Potential amp.       -0.1044 Ry
        Total length         46.3494 bohr
 

     total cpu time spent up to now is      575.3 secs

     total energy              =   -2953.95613223 Ry
     estimated scf accuracy    <       0.14518390 Ry

     iteration # 31     ecut=    29.40 Ry     beta= 0.05
     Davidson diagonalization with overlap
     c_bands:  2 eigenvalues not converged
     c_bands:  1 eigenvalues not converged
     ethr =  3.65E-05,  avg # of iterations = 13.1

     negative rho (up, down):  7.415E-03 0.000E+00
 
     Adding external electric field

     Computed dipole along edir(3) : 
        Dipole                0.4724 Ry au,          1.2007 Debye
        Dipole field          0.0009 Ry au, 
 
        Potential amp.       -0.0826 Ry
        Total length         46.3494 bohr
 

     total cpu time spent up to now is      593.0 secs

     total energy              =   -2953.96785608 Ry
     estimated scf accuracy    <       0.08023050 Ry

     iteration # 32     ecut=    29.40 Ry     beta= 0.05
     Davidson diagonalization with overlap
     c_bands:  2 eigenvalues not converged
     ethr =  2.02E-05,  avg # of iterations =  7.8

     negative rho (up, down):  7.436E-03 0.000E+00
 
     Adding external electric field

     Computed dipole along edir(3) : 
        Dipole                0.3204 Ry au,          0.8144 Debye
        Dipole field          0.0006 Ry au, 
 
        Potential amp.       -0.0561 Ry
        Total length         46.3494 bohr
 

     total cpu time spent up to now is      605.8 secs

     total energy              =   -2953.96242844 Ry
     estimated scf accuracy    <       0.05365200 Ry

     iteration # 33     ecut=    29.40 Ry     beta= 0.05
     Davidson diagonalization with overlap
     c_bands:  1 eigenvalues not converged
     c_bands:  1 eigenvalues not converged
     ethr =  1.35E-05,  avg # of iterations = 12.0

     negative rho (up, down):  8.506E-03 0.000E+00
 
     Adding external electric field

     Computed dipole along edir(3) : 
        Dipole                0.4784 Ry au,          1.2159 Debye
        Dipole field          0.0009 Ry au, 
 
        Potential amp.       -0.0837 Ry
        Total length         46.3494 bohr
 

     total cpu time spent up to now is      622.2 secs

     total energy              =   -2953.97280056 Ry
     estimated scf accuracy    <       0.03365011 Ry

     iteration # 34     ecut=    29.40 Ry     beta= 0.05
     Davidson diagonalization with overlap
     c_bands:  1 eigenvalues not converged
     c_bands:  1 eigenvalues not converged
     c_bands:  1 eigenvalues not converged
     ethr =  8.45E-06,  avg # of iterations = 13.5

     negative rho (up, down):  9.378E-03 0.000E+00
 
     Adding external electric field

     Computed dipole along edir(3) : 
        Dipole                0.5532 Ry au,          1.4061 Debye
        Dipole field          0.0010 Ry au, 
 
        Potential amp.       -0.0968 Ry
        Total length         46.3494 bohr
 

     total cpu time spent up to now is      638.3 secs

     total energy              =   -2953.96439718 Ry
     estimated scf accuracy    <       0.06801065 Ry

     iteration # 35     ecut=    29.40 Ry     beta= 0.05
     Davidson diagonalization with overlap
     c_bands:  1 eigenvalues not converged
     c_bands:  1 eigenvalues not converged
     ethr =  8.45E-06,  avg # of iterations = 14.0

     negative rho (up, down):  1.044E-02 0.000E+00
 
     Adding external electric field

     Computed dipole along edir(3) : 
        Dipole                0.5869 Ry au,          1.4919 Debye
        Dipole field          0.0011 Ry au, 
 
        Potential amp.       -0.1027 Ry
        Total length         46.3494 bohr
 

     total cpu time spent up to now is      657.2 secs

     total energy              =   -2953.96990476 Ry
     estimated scf accuracy    <       0.05351736 Ry

     iteration # 36     ecut=    29.40 Ry     beta= 0.05
     Davidson diagonalization with overlap
     c_bands:  2 eigenvalues not converged
     ethr =  8.45E-06,  avg # of iterations = 10.9

     negative rho (up, down):  1.060E-02 0.000E+00
 
     Adding external electric field

     Computed dipole along edir(3) : 
        Dipole                0.4499 Ry au,          1.1436 Debye
        Dipole field          0.0008 Ry au, 
 
        Potential amp.       -0.0787 Ry
        Total length         46.3494 bohr
 

     total cpu time spent up to now is      670.3 secs

     total energy              =   -2953.96856307 Ry
     estimated scf accuracy    <       0.03351786 Ry

     iteration # 37     ecut=    29.40 Ry     beta= 0.05
     Davidson diagonalization with overlap
     c_bands:  1 eigenvalues not converged
     c_bands:  1 eigenvalues not converged
     ethr =  8.42E-06,  avg # of iterations = 15.2

     negative rho (up, down):  1.076E-02 0.000E+00
 
     Adding external electric field

     Computed dipole along edir(3) : 
        Dipole                0.5710 Ry au,          1.4513 Debye
        Dipole field          0.0011 Ry au, 
 
        Potential amp.       -0.0999 Ry
        Total length         46.3494 bohr
 

     total cpu time spent up to now is      688.0 secs

     total energy              =   -2953.96667440 Ry
     estimated scf accuracy    <       0.03421334 Ry

     iteration # 38     ecut=    29.40 Ry     beta= 0.05
     Davidson diagonalization with overlap
     c_bands:  1 eigenvalues not converged
     c_bands:  1 eigenvalues not converged
     ethr =  8.42E-06,  avg # of iterations = 11.1

     negative rho (up, down):  1.118E-02 0.000E+00
 
     Adding external electric field

     Computed dipole along edir(3) : 
        Dipole                0.5898 Ry au,          1.4992 Debye
        Dipole field          0.0011 Ry au, 
 
        Potential amp.       -0.1032 Ry
        Total length         46.3494 bohr
 

     total cpu time spent up to now is      701.7 secs

     total energy              =   -2953.97203351 Ry
     estimated scf accuracy    <       0.02591755 Ry

     iteration # 39     ecut=    29.40 Ry     beta= 0.05
     Davidson diagonalization with overlap
     c_bands:  2 eigenvalues not converged
     ethr =  6.51E-06,  avg # of iterations =  9.1

     negative rho (up, down):  1.200E-02 0.000E+00
 
     Adding external electric field

     Computed dipole along edir(3) : 
        Dipole                0.3687 Ry au,          0.9372 Debye
        Dipole field          0.0007 Ry au, 
 
        Potential amp.       -0.0645 Ry
        Total length         46.3494 bohr
 

     total cpu time spent up to now is      715.8 secs

     total energy              =   -2953.96852508 Ry
     estimated scf accuracy    <       0.03772113 Ry

     iteration # 40     ecut=    29.40 Ry     beta= 0.05
     Davidson diagonalization with overlap
     c_bands:  2 eigenvalues not converged
     c_bands:  1 eigenvalues not converged
     c_bands:  1 eigenvalues not converged
     ethr =  6.51E-06,  avg # of iterations = 13.7

     negative rho (up, down):  1.103E-02 0.000E+00
 
     Adding external electric field

     Computed dipole along edir(3) : 
        Dipole                0.3802 Ry au,          0.9664 Debye
        Dipole field          0.0007 Ry au, 
 
        Potential amp.       -0.0665 Ry
        Total length         46.3494 bohr
 

     total cpu time spent up to now is      730.3 secs

     total energy              =   -2953.96799240 Ry
     estimated scf accuracy    <       0.01503379 Ry

     iteration # 41     ecut=    29.40 Ry     beta= 0.05
     Davidson diagonalization with overlap
     c_bands:  1 eigenvalues not converged
     ethr =  3.78E-06,  avg # of iterations = 12.1

     negative rho (up, down):  1.226E-02 0.000E+00
 
     Adding external electric field

     Computed dipole along edir(3) : 
        Dipole                0.5606 Ry au,          1.4250 Debye
        Dipole field          0.0011 Ry au, 
 
        Potential amp.       -0.0981 Ry
        Total length         46.3494 bohr
 

     total cpu time spent up to now is      747.0 secs

     total energy              =   -2953.96845790 Ry
     estimated scf accuracy    <       0.02247142 Ry

     iteration # 42     ecut=    29.40 Ry     beta= 0.05
     Davidson diagonalization with overlap
     c_bands:  1 eigenvalues not converged
     ethr =  3.78E-06,  avg # of iterations = 15.0

     negative rho (up, down):  1.261E-02 0.000E+00
 
     Adding external electric field

     Computed dipole along edir(3) : 
        Dipole                0.4862 Ry au,          1.2358 Debye
        Dipole field          0.0009 Ry au, 
 
        Potential amp.       -0.0851 Ry
        Total length         46.3494 bohr
 

     total cpu time spent up to now is      763.5 secs

     total energy              =   -2953.97052330 Ry
     estimated scf accuracy    <       0.00879199 Ry

     iteration # 43     ecut=    29.40 Ry     beta= 0.05
     Davidson diagonalization with overlap
     ethr =  2.21E-06,  avg # of iterations =  2.4

     negative rho (up, down):  1.277E-02 0.000E+00
 
     Adding external electric field

     Computed dipole along edir(3) : 
        Dipole                0.4502 Ry au,          1.1443 Debye
        Dipole field          0.0008 Ry au, 
 
        Potential amp.       -0.0788 Ry
        Total length         46.3494 bohr
 

     total cpu time spent up to now is      774.5 secs

     total energy              =   -2953.96949476 Ry
     estimated scf accuracy    <       0.00523204 Ry

     iteration # 44     ecut=    29.40 Ry     beta= 0.05
     Davidson diagonalization with overlap
     c_bands:  2 eigenvalues not converged
     ethr =  1.31E-06,  avg # of iterations = 13.4

     negative rho (up, down):  1.487E-02 0.000E+00
 
     Adding external electric field

     Computed dipole along edir(3) : 
        Dipole                0.4976 Ry au,          1.2648 Debye
        Dipole field          0.0009 Ry au, 
 
        Potential amp.       -0.0871 Ry
        Total length         46.3494 bohr
 

     total cpu time spent up to now is      791.7 secs

     total energy              =   -2953.97030759 Ry
     estimated scf accuracy    <       0.00328696 Ry

     iteration # 45     ecut=    29.40 Ry     beta= 0.05
     Davidson diagonalization with overlap
     ethr =  8.26E-07,  avg # of iterations =  6.1

     negative rho (up, down):  1.603E-02 0.000E+00
 
     Adding external electric field

     Computed dipole along edir(3) : 
        Dipole                0.4836 Ry au,          1.2292 Debye
        Dipole field          0.0009 Ry au, 
 
        Potential amp.       -0.0846 Ry
        Total length         46.3494 bohr
 

     total cpu time spent up to now is      804.2 secs

     total energy              =   -2953.97064561 Ry
     estimated scf accuracy    <       0.00190611 Ry

     iteration # 46     ecut=    29.40 Ry     beta= 0.05
     Davidson diagonalization with overlap
     ethr =  4.79E-07,  avg # of iterations =  4.4

     negative rho (up, down):  1.606E-02 0.000E+00
 
     Adding external electric field

     Computed dipole along edir(3) : 
        Dipole                0.4819 Ry au,          1.2248 Debye
        Dipole field          0.0009 Ry au, 
 
        Potential amp.       -0.0843 Ry
        Total length         46.3494 bohr
 

     total cpu time spent up to now is      816.1 secs

     total energy              =   -2953.97083864 Ry
     estimated scf accuracy    <       0.00173393 Ry

     iteration # 47     ecut=    29.40 Ry     beta= 0.05
     Davidson diagonalization with overlap
     ethr =  4.36E-07,  avg # of iterations =  1.0

     negative rho (up, down):  1.579E-02 0.000E+00
 
     Adding external electric field

     Computed dipole along edir(3) : 
        Dipole                0.5119 Ry au,          1.3012 Debye
        Dipole field          0.0010 Ry au, 
 
        Potential amp.       -0.0896 Ry
        Total length         46.3494 bohr
 

     total cpu time spent up to now is      826.0 secs

     total energy              =   -2953.97069161 Ry
     estimated scf accuracy    <       0.00198094 Ry

     iteration # 48     ecut=    29.40 Ry     beta= 0.05
     Davidson diagonalization with overlap
     ethr =  4.36E-07,  avg # of iterations =  4.9

     negative rho (up, down):  1.600E-02 0.000E+00
 
     Adding external electric field

     Computed dipole along edir(3) : 
        Dipole                0.4982 Ry au,          1.2663 Debye
        Dipole field          0.0009 Ry au, 
 
        Potential amp.       -0.0872 Ry
        Total length         46.3494 bohr
 

     total cpu time spent up to now is      837.6 secs

     total energy              =   -2953.97068365 Ry
     estimated scf accuracy    <       0.00058297 Ry

     iteration # 49     ecut=    29.40 Ry     beta= 0.05
     Davidson diagonalization with overlap
     ethr =  1.46E-07,  avg # of iterations =  6.1

     negative rho (up, down):  1.677E-02 0.000E+00
 
     Adding external electric field

     Computed dipole along edir(3) : 
        Dipole                0.5086 Ry au,          1.2928 Debye
        Dipole field          0.0010 Ry au, 
 
        Potential amp.       -0.0890 Ry
        Total length         46.3494 bohr
 

     total cpu time spent up to now is      854.2 secs

     total energy              =   -2953.97075382 Ry
     estimated scf accuracy    <       0.00098859 Ry

     iteration # 50     ecut=    29.40 Ry     beta= 0.05
     Davidson diagonalization with overlap
     ethr =  1.46E-07,  avg # of iterations =  5.1

     negative rho (up, down):  1.653E-02 0.000E+00
 
     Adding external electric field

     Computed dipole along edir(3) : 
        Dipole                0.5140 Ry au,          1.3064 Debye
        Dipole field          0.0010 Ry au, 
 
        Potential amp.       -0.0899 Ry
        Total length         46.3494 bohr
 

     total cpu time spent up to now is      868.4 secs

     total energy              =   -2953.97082685 Ry
     estimated scf accuracy    <       0.00068481 Ry

     iteration # 51     ecut=    29.40 Ry     beta= 0.05
     Davidson diagonalization with overlap
     ethr =  1.46E-07,  avg # of iterations =  1.0

     negative rho (up, down):  1.614E-02 0.000E+00
 
     Adding external electric field

     Computed dipole along edir(3) : 
        Dipole                0.5177 Ry au,          1.3159 Debye
        Dipole field          0.0010 Ry au, 
 
        Potential amp.       -0.0906 Ry
        Total length         46.3494 bohr
 

     total cpu time spent up to now is      878.3 secs

     total energy              =   -2953.97078862 Ry
     estimated scf accuracy    <       0.00039064 Ry

     iteration # 52     ecut=    29.40 Ry     beta= 0.05
     Davidson diagonalization with overlap
     ethr =  9.82E-08,  avg # of iterations =  5.6

     negative rho (up, down):  1.611E-02 0.000E+00
 
     Adding external electric field

     Computed dipole along edir(3) : 
        Dipole                0.5177 Ry au,          1.3158 Debye
        Dipole field          0.0010 Ry au, 
 
        Potential amp.       -0.0906 Ry
        Total length         46.3494 bohr
 

     total cpu time spent up to now is      891.1 secs

     total energy              =   -2953.97083619 Ry
     estimated scf accuracy    <       0.00012749 Ry

     iteration # 53     ecut=    29.40 Ry     beta= 0.05
     Davidson diagonalization with overlap
     ethr =  3.20E-08,  avg # of iterations =  5.2

     negative rho (up, down):  1.624E-02 0.000E+00
 
     Adding external electric field

     Computed dipole along edir(3) : 
        Dipole                0.5194 Ry au,          1.3203 Debye
        Dipole field          0.0010 Ry au, 
 
        Potential amp.       -0.0909 Ry
        Total length         46.3494 bohr
 

     total cpu time spent up to now is      903.7 secs

     total energy              =   -2953.97085326 Ry
     estimated scf accuracy    <       0.00012641 Ry

     iteration # 54     ecut=    29.40 Ry     beta= 0.05
     Davidson diagonalization with overlap
     ethr =  3.18E-08,  avg # of iterations =  3.8

     negative rho (up, down):  1.629E-02 0.000E+00
 
     Adding external electric field

     Computed dipole along edir(3) : 
        Dipole                0.5225 Ry au,          1.3280 Debye
        Dipole field          0.0010 Ry au, 
 
        Potential amp.       -0.0914 Ry
        Total length         46.3494 bohr
 

     total cpu time spent up to now is      914.9 secs

     total energy              =   -2953.97085456 Ry
     estimated scf accuracy    <       0.00009280 Ry

     iteration # 55     ecut=    29.40 Ry     beta= 0.05
     Davidson diagonalization with overlap
     ethr =  2.33E-08,  avg # of iterations =  5.2

     negative rho (up, down):  1.643E-02 0.000E+00
 
     Adding external electric field

     Computed dipole along edir(3) : 
        Dipole                0.5266 Ry au,          1.3384 Debye
        Dipole field          0.0010 Ry au, 
 
        Potential amp.       -0.0921 Ry
        Total length         46.3494 bohr
 

     total cpu time spent up to now is      926.9 secs

     total energy              =   -2953.97087017 Ry
     estimated scf accuracy    <       0.00005220 Ry

     iteration # 56     ecut=    29.40 Ry     beta= 0.05
     Davidson diagonalization with overlap
     ethr =  1.31E-08,  avg # of iterations =  5.0

     negative rho (up, down):  1.647E-02 0.000E+00
 
     Adding external electric field

     Computed dipole along edir(3) : 
        Dipole                0.5285 Ry au,          1.3434 Debye
        Dipole field          0.0010 Ry au, 
 
        Potential amp.       -0.0925 Ry
        Total length         46.3494 bohr
 

     total cpu time spent up to now is      943.9 secs

     total energy              =   -2953.97088657 Ry
     estimated scf accuracy    <       0.00006865 Ry

     iteration # 57     ecut=    29.40 Ry     beta= 0.05
     Davidson diagonalization with overlap
     ethr =  1.31E-08,  avg # of iterations =  4.4

     negative rho (up, down):  1.649E-02 0.000E+00
 
     Adding external electric field

     Computed dipole along edir(3) : 
        Dipole                0.5292 Ry au,          1.3450 Debye
        Dipole field          0.0010 Ry au, 
 
        Potential amp.       -0.0926 Ry
        Total length         46.3494 bohr
 

     total cpu time spent up to now is      956.5 secs

     total energy              =   -2953.97089620 Ry
     estimated scf accuracy    <       0.00002276 Ry

     iteration # 58     ecut=    29.40 Ry     beta= 0.05
     Davidson diagonalization with overlap
     ethr =  5.72E-09,  avg # of iterations =  5.1

     negative rho (up, down):  1.650E-02 0.000E+00
 
     Adding external electric field

     Computed dipole along edir(3) : 
        Dipole                0.5292 Ry au,          1.3451 Debye
        Dipole field          0.0010 Ry au, 
 
        Potential amp.       -0.0926 Ry
        Total length         46.3494 bohr
 

     total cpu time spent up to now is      973.8 secs

     total energy              =   -2953.97091229 Ry
     estimated scf accuracy    <       0.00003976 Ry

     iteration # 59     ecut=    29.40 Ry     beta= 0.05
     Davidson diagonalization with overlap
     ethr =  5.72E-09,  avg # of iterations =  1.0

     negative rho (up, down):  1.668E-02 0.000E+00
 
     Adding external electric field

     Computed dipole along edir(3) : 
        Dipole                0.5310 Ry au,          1.3496 Debye
        Dipole field          0.0010 Ry au, 
 
        Potential amp.       -0.0929 Ry
        Total length         46.3494 bohr
 

     total cpu time spent up to now is      983.8 secs

     total energy              =   -2953.97091469 Ry
     estimated scf accuracy    <       0.00003256 Ry

     iteration # 60     ecut=    29.40 Ry     beta= 0.05
     Davidson diagonalization with overlap
     ethr =  5.72E-09,  avg # of iterations =  5.1

     negative rho (up, down):  1.667E-02 0.000E+00
 
     Adding external electric field

     Computed dipole along edir(3) : 
        Dipole                0.5310 Ry au,          1.3496 Debye
        Dipole field          0.0010 Ry au, 
 
        Potential amp.       -0.0929 Ry
        Total length         46.3494 bohr
 

     total cpu time spent up to now is      998.9 secs

     total energy              =   -2953.97092586 Ry
     estimated scf accuracy    <       0.00001023 Ry

     iteration # 61     ecut=    29.40 Ry     beta= 0.05
     Davidson diagonalization with overlap
     ethr =  2.57E-09,  avg # of iterations =  1.7

     negative rho (up, down):  1.665E-02 0.000E+00
 
     Adding external electric field

     Computed dipole along edir(3) : 
        Dipole                0.5310 Ry au,          1.3497 Debye
        Dipole field          0.0010 Ry au, 
 
        Potential amp.       -0.0929 Ry
        Total length         46.3494 bohr
 

     total cpu time spent up to now is     1009.5 secs

     total energy              =   -2953.97092998 Ry
     estimated scf accuracy    <       0.00000952 Ry

     iteration # 62     ecut=    29.40 Ry     beta= 0.05
     Davidson diagonalization with overlap
     ethr =  2.39E-09,  avg # of iterations =  6.0

     negative rho (up, down):  1.667E-02 0.000E+00
 
     Adding external electric field

     Computed dipole along edir(3) : 
        Dipole                0.5311 Ry au,          1.3498 Debye
        Dipole field          0.0010 Ry au, 
 
        Potential amp.       -0.0929 Ry
        Total length         46.3494 bohr
 

     total cpu time spent up to now is     1023.4 secs

     total energy              =   -2953.97093656 Ry
     estimated scf accuracy    <       0.00000290 Ry

     iteration # 63     ecut=    29.40 Ry     beta= 0.05
     Davidson diagonalization with overlap
     ethr =  7.28E-10,  avg # of iterations =  5.4

     negative rho (up, down):  1.670E-02 0.000E+00
 
     Adding external electric field

     Computed dipole along edir(3) : 
        Dipole                0.5315 Ry au,          1.3509 Debye
        Dipole field          0.0010 Ry au, 
 
        Potential amp.       -0.0930 Ry
        Total length         46.3494 bohr
 

     total cpu time spent up to now is     1038.6 secs

     total energy              =   -2953.97094103 Ry
     estimated scf accuracy    <       0.00000303 Ry

     iteration # 64     ecut=    29.40 Ry     beta= 0.05
     Davidson diagonalization with overlap
     ethr =  7.28E-10,  avg # of iterations =  5.1

     negative rho (up, down):  1.673E-02 0.000E+00
 
     Adding external electric field

     Computed dipole along edir(3) : 
        Dipole                0.5317 Ry au,          1.3515 Debye
        Dipole field          0.0010 Ry au, 
 
        Potential amp.       -0.0930 Ry
        Total length         46.3494 bohr
 

     total cpu time spent up to now is     1051.7 secs

     total energy              =   -2953.97094537 Ry
     estimated scf accuracy    <       0.00000117 Ry

     iteration # 65     ecut=    29.40 Ry     beta= 0.05
     Davidson diagonalization with overlap
     ethr =  2.94E-10,  avg # of iterations =  5.9

     negative rho (up, down):  1.669E-02 0.000E+00
 
     Adding external electric field

     Computed dipole along edir(3) : 
        Dipole                0.5310 Ry au,          1.3496 Debye
        Dipole field          0.0010 Ry au, 
 
        Potential amp.       -0.0929 Ry
        Total length         46.3494 bohr
 

     total cpu time spent up to now is     1071.8 secs

     total energy              =   -2953.97094851 Ry
     estimated scf accuracy    <       0.00000661 Ry

     iteration # 66     ecut=    29.40 Ry     beta= 0.05
     Davidson diagonalization with overlap
     ethr =  2.94E-10,  avg # of iterations =  5.0

     negative rho (up, down):  1.668E-02 0.000E+00
 
     Adding external electric field

     Computed dipole along edir(3) : 
        Dipole                0.5308 Ry au,          1.3492 Debye
        Dipole field          0.0010 Ry au, 
 
        Potential amp.       -0.0929 Ry
        Total length         46.3494 bohr
 

     total cpu time spent up to now is     1089.6 secs

     total energy              =   -2953.97095215 Ry
     estimated scf accuracy    <       0.00000113 Ry

     iteration # 67     ecut=    29.40 Ry     beta= 0.05
     Davidson diagonalization with overlap
     ethr =  2.84E-10,  avg # of iterations =  5.5

     negative rho (up, down):  1.666E-02 0.000E+00
 
     Adding external electric field

     Computed dipole along edir(3) : 
        Dipole                0.5304 Ry au,          1.3481 Debye
        Dipole field          0.0010 Ry au, 
 
        Potential amp.       -0.0928 Ry
        Total length         46.3494 bohr
 

     total cpu time spent up to now is     1103.9 secs

     total energy              =   -2953.97095512 Ry
     estimated scf accuracy    <       0.00000087 Ry

     iteration # 68     ecut=    29.40 Ry     beta= 0.05
     Davidson diagonalization with overlap
     ethr =  2.18E-10,  avg # of iterations =  4.8

     negative rho (up, down):  1.666E-02 0.000E+00
 
     Adding external electric field

     Computed dipole along edir(3) : 
        Dipole                0.5302 Ry au,          1.3477 Debye
        Dipole field          0.0010 Ry au, 
 
        Potential amp.       -0.0928 Ry
        Total length         46.3494 bohr
 

     total cpu time spent up to now is     1115.8 secs

     total energy              =   -2953.97095769 Ry
     estimated scf accuracy    <       0.00000041 Ry

     iteration # 69     ecut=    29.40 Ry     beta= 0.05
     Davidson diagonalization with overlap
     ethr =  1.02E-10,  avg # of iterations =  5.1

     negative rho (up, down):  1.667E-02 0.000E+00
 
     Adding external electric field

     Computed dipole along edir(3) : 
        Dipole                0.5302 Ry au,          1.3476 Debye
        Dipole field          0.0010 Ry au, 
 
        Potential amp.       -0.0927 Ry
        Total length         46.3494 bohr
 

     total cpu time spent up to now is     1132.1 secs

     total energy              =   -2953.97096008 Ry
     estimated scf accuracy    <       0.00000031 Ry

     iteration # 70     ecut=    29.40 Ry     beta= 0.05
     Davidson diagonalization with overlap
     ethr =  7.77E-11,  avg # of iterations =  5.4

     negative rho (up, down):  1.665E-02 0.000E+00
 
     Adding external electric field

     Computed dipole along edir(3) : 
        Dipole                0.5298 Ry au,          1.3466 Debye
        Dipole field          0.0010 Ry au, 
 
        Potential amp.       -0.0927 Ry
        Total length         46.3494 bohr
 

     total cpu time spent up to now is     1146.3 secs

     total energy              =   -2953.97096226 Ry
     estimated scf accuracy    <       0.00000014 Ry

     iteration # 71     ecut=    29.40 Ry     beta= 0.05
     Davidson diagonalization with overlap
     ethr =  3.41E-11,  avg # of iterations =  4.9

     negative rho (up, down):  1.668E-02 0.000E+00
 
     Adding external electric field

     Computed dipole along edir(3) : 
        Dipole                0.5294 Ry au,          1.3457 Debye
        Dipole field          0.0010 Ry au, 
 
        Potential amp.       -0.0926 Ry
        Total length         46.3494 bohr
 

     total cpu time spent up to now is     1159.4 secs

     End of self-consistent calculation

          k = 0.0000 0.0000 0.0000 ( 18029 PWs)   bands (ev):

   -56.5946 -56.5610 -55.7125 -55.6785 -55.6684 -55.6337 -55.4920 -55.4558
   -55.3610 -55.2429 -55.2296 -55.2278 -55.2090 -55.1324 -54.7259 -54.6762
   -33.0213 -32.8691 -32.8409 -32.7710 -32.6801 -32.6475 -32.1803 -32.1509
   -32.0275 -31.9774 -31.9295 -31.9105 -31.8812 -31.8711 -31.8433 -31.8373
   -31.8182 -31.8133 -31.7904 -31.7752 -31.7678 -31.7116 -31.7071 -31.6696
   -31.6560 -31.6338 -31.6258 -31.6181 -31.5947 -31.5860 -31.5826 -31.5584
   -31.4658 -31.4530 -31.4191 -31.4062 -31.3791 -31.3698 -31.3566 -31.3376
   -31.3097 -31.2588 -31.2407 -30.9696 -30.9480 -30.9185 -30.8945 -30.7854
   -18.7348 -16.7501 -16.2864 -16.0452 -15.9508 -15.8686 -15.8289 -15.7856
   -15.6377 -15.5650 -15.5449 -15.5426 -15.4748 -15.3305 -15.2766 -15.1787
   -15.0925 -14.9513 -14.9398 -14.8998 -14.8859 -14.8500 -14.8460 -14.7950
   -14.6269 -14.5909 -14.5452 -14.4861 -14.3947 -14.1746 -13.7414 -13.6317
   -12.9725  -7.7749  -6.5574  -4.3172  -3.7849  -3.5192  -3.4877  -3.3591
    -3.3547  -3.3113  -3.1696  -3.1620  -3.0888  -3.0637  -3.0109  -2.9497
    -2.9050  -2.8650  -2.7783  -2.7653  -2.7457  -2.7371  -2.7158  -2.5996
    -2.5549  -2.5043  -2.4019  -2.2915  -2.2491  -2.2220  -2.1762  -2.1428
    -2.0916  -2.0798  -2.0682  -2.0565  -1.9514  -1.8308  -1.8054  -1.7823
    -1.7361  -1.7213  -1.7131  -1.6894  -1.6049  -1.4950  -1.4028  -1.3346
    -1.3278  -1.2531  -1.2450  -1.1866  -1.0736  -1.0128  -1.0100  -0.9887
    -0.8848  -0.8599  -0.7884  -0.7258  -0.6668  -0.6138  -0.5512  -0.4989
    -0.4759  -0.4664  -0.3685  -0.2990  -0.2740  -0.2186  -0.2091  -0.2048
    -0.1786  -0.0833  -0.0480   0.0286   0.0642   0.1119   0.1475   0.2260
     0.2859   0.3519   0.3988   0.4206   0.4862   0.5416   0.5971   0.6880
     0.7453   0.7511   0.7787   0.8373   0.8508   0.9250   1.0070   1.0271
     1.0933   1.1649   1.3284   1.3674   1.6132   1.6870   2.3114   2.6827
     2.8438   3.1391   3.3287   3.4667   3.6620   3.6723   3.6795   3.9007
     3.9291

          k = 0.0000 0.0419 0.0000 ( 17933 PWs)   bands (ev):

   -56.5896 -56.5659 -55.7075 -55.6833 -55.6637 -55.6383 -55.4869 -55.4607
   -55.3597 -55.2378 -55.2307 -55.2262 -55.2139 -55.1340 -54.7226 -54.6794
   -32.9679 -32.8648 -32.8447 -32.7578 -32.7034 -32.6934 -32.1281 -32.0974
   -31.9734 -31.9639 -31.9180 -31.9047 -31.8962 -31.8728 -31.8680 -31.8549
   -31.8340 -31.8313 -31.8197 -31.7549 -31.7386 -31.7013 -31.6946 -31.6732
   -31.6656 -31.6534 -31.6192 -31.5923 -31.5814 -31.5791 -31.5789 -31.5617
   -31.4615 -31.4409 -31.4349 -31.4256 -31.4036 -31.3819 -31.3695 -31.3578
   -31.3378 -31.3155 -31.1923 -30.9785 -30.9461 -30.9250 -30.8987 -30.8198
   -18.7345 -16.6290 -16.1674 -16.0034 -15.9427 -15.8911 -15.7887 -15.7677
   -15.6024 -15.5658 -15.5287 -15.5066 -15.4120 -15.2973 -15.2934 -15.2209
   -15.1815 -15.0307 -14.9545 -14.9239 -14.9186 -14.8895 -14.8257 -14.7731
   -14.6426 -14.6178 -14.5498 -14.5439 -14.4151 -14.2424 -13.7487 -13.6729
   -12.9825  -7.7721  -6.5576  -4.1354  -3.6081  -3.3639  -3.3353  -3.2920
    -3.2066  -3.1699  -3.1504  -3.1023  -3.0947  -3.0827  -3.0064  -2.9063
    -2.9032  -2.8244  -2.7530  -2.7461  -2.7298  -2.6870  -2.6495  -2.6111
    -2.5778  -2.5197  -2.4601  -2.4102  -2.3903  -2.3621  -2.2827  -2.2740
    -2.2237  -2.1994  -2.1193  -2.0245  -1.9845  -1.9791  -1.8583  -1.8029
    -1.7690  -1.7474  -1.6712  -1.5706  -1.4781  -1.4035  -1.3727  -1.3458
    -1.3340  -1.1781  -1.1386  -1.0814  -1.0623  -1.0195  -0.9989  -0.9391
    -0.8629  -0.8400  -0.7853  -0.7402  -0.6817  -0.5891  -0.5256  -0.4242
    -0.4071  -0.3872  -0.3667  -0.3488  -0.2734  -0.2566  -0.2220  -0.2074
    -0.1983  -0.0921  -0.0847  -0.0051   0.0266   0.0988   0.1575   0.1818
     0.2606   0.2888   0.3233   0.3524   0.3989   0.4351   0.4570   0.4734
     0.4816   0.6342   0.6845   0.7556   0.8367   0.9278   1.0132   1.0668
     1.0923   1.1254   1.2751   1.2819   1.5602   1.5704   2.1994   2.9494
     2.9553   3.1485   3.4958   3.5159   3.5506   3.6323   3.6758   3.8266
     3.8999

          k = 0.0000-0.0839 0.0000 ( 17884 PWs)   bands (ev):

   -56.5779 -56.5775 -55.6975 -55.6932 -55.6554 -55.6465 -55.4779 -55.4696
   -55.3585 -55.2318 -55.2259 -55.2257 -55.2245 -55.1356 -54.7188 -54.6832
   -32.8548 -32.8546 -32.8371 -32.8369 -32.7257 -32.7254 -32.0030 -31.9973
   -31.9703 -31.9621 -31.9321 -31.9293 -31.9038 -31.8908 -31.8857 -31.8822
   -31.8330 -31.8284 -31.8236 -31.8158 -31.7228 -31.7163 -31.6838 -31.6781
   -31.6517 -31.6176 -31.5860 -31.5716 -31.5702 -31.5700 -31.5587 -31.5286
   -31.4799 -31.4507 -31.4505 -31.4431 -31.4338 -31.4116 -31.4115 -31.4010
   -31.3675 -31.3391 -31.1017 -31.0393 -30.9440 -30.9199 -30.9023 -30.8572
   -18.7342 -16.3284 -16.3274 -15.9063 -15.9006 -15.7469 -15.7468 -15.7351
   -15.7261 -15.6152 -15.5189 -15.4106 -15.4003 -15.2705 -15.2531 -15.1889
   -15.1579 -15.1113 -15.0949 -15.0798 -15.0652 -14.7702 -14.7673 -14.6988
   -14.6722 -14.6547 -14.6422 -14.5028 -14.4835 -14.3298 -13.7356 -13.7356
   -12.9924  -7.7692  -6.5579  -3.6812  -3.6811  -3.1942  -3.1887  -3.1883
    -3.1875  -3.1257  -3.0935  -3.0877  -3.0788  -3.0055  -2.9403  -2.9086
    -2.8339  -2.8147  -2.7461  -2.7248  -2.7017  -2.6965  -2.6884  -2.6490
    -2.6456  -2.5644  -2.4934  -2.4676  -2.4527  -2.3954  -2.3447  -2.2126
    -2.1842  -2.0995  -2.0864  -2.0009  -1.9774  -1.9329  -1.8958  -1.8793
    -1.8281  -1.7943  -1.7201  -1.6517  -1.6440  -1.5337  -1.5158  -1.3139
    -1.2489  -1.1739  -1.0738  -1.0450  -1.0240  -0.9843  -0.9462  -0.9296
    -0.8630  -0.8186  -0.7222  -0.7206  -0.6988  -0.6176  -0.5282  -0.4788
    -0.4710  -0.4423  -0.3777  -0.3644  -0.3460  -0.3383  -0.2390  -0.1400
    -0.1317  -0.1179  -0.0624   0.0056   0.0765   0.1515   0.1552   0.1780
     0.2010   0.2272   0.2503   0.2899   0.3357   0.3428   0.3741   0.3864
     0.4122   0.4242   0.5134   0.6572   0.7404   0.9870   1.0342   1.1458
     1.1461   1.1679   1.2458   1.2534   1.3189   1.5279   2.0844   3.1942
     3.1948   3.3276   3.3279   3.3894   3.3896   3.7540   3.7739   3.9055
     3.9205

          k = 0.0380 0.0000 0.0000 ( 17913 PWs)   bands (ev):

   -56.5945 -56.5609 -55.7122 -55.6784 -55.6684 -55.6336 -55.4918 -55.4557
   -55.3608 -55.2428 -55.2295 -55.2277 -55.2089 -55.1323 -54.7258 -54.6761
   -33.0220 -32.8688 -32.8408 -32.7690 -32.6798 -32.6472 -32.1806 -32.1555
   -32.0276 -31.9572 -31.9288 -31.9108 -31.8744 -31.8710 -31.8580 -31.8432
   -31.8187 -31.8124 -31.7914 -31.7753 -31.7676 -31.7283 -31.6983 -31.6697
   -31.6383 -31.6334 -31.6256 -31.6178 -31.5945 -31.5850 -31.5837 -31.5566
   -31.4736 -31.4527 -31.4188 -31.4057 -31.3788 -31.3697 -31.3571 -31.3374
   -31.3095 -31.2586 -31.2399 -30.9694 -30.9499 -30.9184 -30.8938 -30.7852
   -18.7344 -16.6466 -16.2045 -16.1084 -16.0274 -15.9049 -15.7824 -15.6772
   -15.6666 -15.5528 -15.5385 -15.4938 -15.4802 -15.4390 -15.3375 -15.1053
   -15.0913 -15.0099 -15.0072 -14.9992 -14.9520 -14.9012 -14.6890 -14.6803
   -14.6702 -14.6310 -14.5545 -14.4963 -14.3933 -14.1737 -13.7386 -13.6314
   -12.9709  -7.7740  -6.5512  -4.0334  -3.6005  -3.5082  -3.4846  -3.3775
    -3.3128  -3.1721  -3.1288  -3.1170  -3.0996  -3.0872  -3.0159  -2.9036
    -2.8855  -2.8520  -2.8358  -2.7681  -2.7430  -2.7326  -2.7266  -2.5793
    -2.4938  -2.4615  -2.4093  -2.2578  -2.2238  -2.1988  -2.1730  -2.1104
    -2.0965  -2.0490  -1.9967  -1.8964  -1.8603  -1.8431  -1.7748  -1.7431
    -1.7303  -1.7199  -1.6876  -1.6394  -1.6138  -1.5348  -1.4457  -1.4015
    -1.3513  -1.2943  -1.2146  -1.1435  -1.0792  -1.0387  -1.0209  -0.9773
    -0.9547  -0.9016  -0.8884  -0.8265  -0.8067  -0.6612  -0.5699  -0.5679
    -0.5467  -0.4738  -0.4355  -0.3995  -0.3525  -0.3099  -0.2609  -0.2347
    -0.0641  -0.0360  -0.0012   0.0404   0.0546   0.1100   0.1973   0.2067
     0.2629   0.2757   0.2848   0.3697   0.4281   0.4573   0.5279   0.6118
     0.6432   0.6816   0.7837   0.7906   0.8144   0.9033   0.9402   0.9599
     0.9954   1.0570   1.2253   1.2790   1.5579   1.6211   2.1751   2.8260
     2.8579   3.1383   3.3055   3.4053   3.6870   3.6895   3.7555   3.7708
     3.9478

          k = 0.0380 0.0419 0.0000 ( 17878 PWs)   bands (ev):

   -56.5895 -56.5658 -55.7073 -55.6832 -55.6637 -55.6383 -55.4868 -55.4607
   -55.3597 -55.2378 -55.2306 -55.2261 -55.2138 -55.1339 -54.7226 -54.6794
   -32.9685 -32.8646 -32.8448 -32.7561 -32.7034 -32.6931 -32.1284 -32.1026
   -31.9735 -31.9466 -31.9172 -31.9050 -31.8849 -31.8728 -31.8679 -31.8566
   -31.8548 -31.8264 -31.8246 -31.7547 -31.7394 -31.6988 -31.6942 -31.6891
   -31.6713 -31.6264 -31.6191 -31.5922 -31.5811 -31.5808 -31.5774 -31.5608
   -31.4680 -31.4407 -31.4350 -31.4248 -31.4034 -31.3820 -31.3698 -31.3585
   -31.3377 -31.3154 -31.1918 -30.9785 -30.9475 -30.9248 -30.8988 -30.8198
   -18.7342 -16.5315 -16.0922 -16.0901 -15.9519 -15.8622 -15.8265 -15.7040
   -15.6657 -15.5646 -15.4725 -15.4369 -15.4067 -15.3998 -15.3064 -15.2392
   -15.0734 -15.0629 -15.0390 -14.9958 -14.9623 -14.8543 -14.8148 -14.7723
   -14.7147 -14.6031 -14.5819 -14.5162 -14.4152 -14.2421 -13.7468 -13.6731
   -12.9814  -7.7714  -6.5525  -3.8557  -3.4335  -3.3649  -3.3172  -3.2289
    -3.2152  -3.1344  -3.0449  -3.0036  -2.9967  -2.9772  -2.9532  -2.9219
    -2.8658  -2.8259  -2.7967  -2.7506  -2.6803  -2.6480  -2.6075  -2.5959
    -2.5678  -2.4997  -2.4464  -2.4019  -2.3738  -2.2974  -2.2502  -2.2194
    -2.1791  -2.1198  -2.1007  -2.0428  -1.9647  -1.9377  -1.8616  -1.8330
    -1.7807  -1.7032  -1.5981  -1.5272  -1.5053  -1.4422  -1.4160  -1.3867
    -1.3099  -1.2850  -1.1928  -1.1437  -1.0956  -1.0630  -1.0347  -1.0010
    -0.9327  -0.8583  -0.8020  -0.7468  -0.7169  -0.6819  -0.6473  -0.5800
    -0.5242  -0.4906  -0.4645  -0.4184  -0.3806  -0.3602  -0.3080  -0.3018
    -0.2236  -0.1679  -0.1080  -0.0736  -0.0194   0.0257   0.1105   0.1322
     0.1883   0.2299   0.2672   0.2941   0.3630   0.4015   0.4207   0.4629
     0.5073   0.6533   0.7248   0.7608   0.8980   0.9294   0.9755   1.0264
     1.0589   1.1523   1.1996   1.2578   1.4870   1.5919   2.1639   2.9420
     3.0991   3.1923   3.3533   3.5324   3.6180   3.6715   3.7762   3.8456
     3.9811

          k = 0.0380-0.0839 0.0000 ( 17916 PWs)   bands (ev):

   -56.5779 -56.5775 -55.6975 -55.6932 -55.6555 -55.6465 -55.4779 -55.4696
   -55.3585 -55.2318 -55.2259 -55.2257 -55.2245 -55.1356 -54.7188 -54.6832
   -32.8549 -32.8546 -32.8377 -32.8375 -32.7250 -32.7246 -32.0037 -31.9981
   -31.9798 -31.9728 -31.9095 -31.9075 -31.9036 -31.8901 -31.8863 -31.8826
   -31.8403 -31.8356 -31.8331 -31.8160 -31.7228 -31.7164 -31.6840 -31.6781
   -31.6525 -31.6176 -31.5860 -31.5709 -31.5707 -31.5705 -31.5537 -31.5295
   -31.4799 -31.4507 -31.4505 -31.4449 -31.4324 -31.4116 -31.4115 -31.4010
   -31.3709 -31.3391 -31.1017 -31.0391 -30.9448 -30.9200 -30.9032 -30.8571
   -18.7341 -16.2591 -16.2578 -15.9060 -15.9030 -15.8238 -15.8200 -15.7056
   -15.6975 -15.5893 -15.4840 -15.3907 -15.3756 -15.2483 -15.2222 -15.1779
   -15.1541 -15.1452 -15.1044 -15.0754 -15.0700 -14.8488 -14.8422 -14.7853
   -14.7644 -14.6239 -14.6087 -14.4961 -14.4727 -14.3284 -13.7354 -13.7354
   -12.9917  -7.7688  -6.5541  -3.4700  -3.4687  -3.1352  -3.1152  -3.1147
    -3.0923  -3.0895  -3.0811  -3.0256  -2.9896  -2.9379  -2.9199  -2.8631
    -2.7454  -2.7312  -2.6759  -2.6504  -2.6446  -2.6283  -2.6041  -2.5951
    -2.5631  -2.5137  -2.4860  -2.4230  -2.3589  -2.3133  -2.2983  -2.1582
    -2.1270  -2.0977  -2.0916  -2.0504  -2.0154  -1.9743  -1.9081  -1.8850
    -1.8640  -1.8193  -1.7985  -1.6185  -1.6043  -1.5409  -1.5276  -1.3456
    -1.3217  -1.2760  -1.2613  -1.2075  -1.1313  -1.1107  -1.0660  -1.0114
    -0.9726  -0.9539  -0.8552  -0.8413  -0.7459  -0.6727  -0.6361  -0.5850
    -0.5761  -0.5665  -0.5073  -0.4890  -0.3429  -0.3228  -0.2703  -0.2310
    -0.1578  -0.1371  -0.1082  -0.0966  -0.0767  -0.0446   0.0074   0.0321
     0.0514   0.0763   0.1573   0.2101   0.2686   0.2804   0.4408   0.5237
     0.5322   0.5483   0.7113   0.8185   0.8550   0.9962   1.0375   1.1536
     1.1554   1.1915   1.2126   1.2493   1.2801   1.5650   2.1336   3.1987
     3.2001   3.3590   3.3608   3.5579   3.5585   3.7253   3.7428   3.9185
     3.9399

          k = 0.0380-0.0419 0.0000 ( 17876 PWs)   bands (ev):

   -56.5895 -56.5658 -55.7073 -55.6832 -55.6637 -55.6383 -55.4868 -55.4607
   -55.3597 -55.2378 -55.2306 -55.2261 -55.2138 -55.1339 -54.7226 -54.6794
   -32.9685 -32.8646 -32.8448 -32.7561 -32.7034 -32.6930 -32.1284 -32.1026
   -31.9735 -31.9465 -31.9172 -31.9050 -31.8849 -31.8728 -31.8678 -31.8567
   -31.8548 -31.8265 -31.8246 -31.7547 -31.7394 -31.6989 -31.6924 -31.6908
   -31.6713 -31.6263 -31.6191 -31.5922 -31.5811 -31.5808 -31.5773 -31.5608
   -31.4680 -31.4407 -31.4350 -31.4248 -31.4034 -31.3820 -31.3697 -31.3586
   -31.3377 -31.3154 -31.1918 -30.9783 -30.9474 -30.9253 -30.8986 -30.8198
   -18.7342 -16.5313 -16.0922 -16.0907 -15.9519 -15.8617 -15.8266 -15.7036
   -15.6659 -15.5647 -15.4724 -15.4369 -15.4070 -15.4003 -15.3058 -15.2392
   -15.0731 -15.0629 -15.0389 -14.9951 -14.9621 -14.8536 -14.8161 -14.7736
   -14.7141 -14.6028 -14.5819 -14.5161 -14.4152 -14.2422 -13.7468 -13.6731
   -12.9814  -7.7713  -6.5527  -3.8551  -3.4323  -3.3662  -3.3182  -3.2277
    -3.2153  -3.1255  -3.0501  -3.0036  -2.9973  -2.9753  -2.9563  -2.9194
    -2.8656  -2.8311  -2.7959  -2.7596  -2.6802  -2.6460  -2.6140  -2.5912
    -2.5673  -2.4964  -2.4431  -2.4003  -2.3753  -2.2949  -2.2501  -2.2212
    -2.1693  -2.1306  -2.0973  -2.0529  -1.9603  -1.9383  -1.8631  -1.8192
    -1.7803  -1.6996  -1.6017  -1.5318  -1.5188  -1.4459  -1.4152  -1.3986
    -1.3127  -1.2620  -1.1908  -1.1479  -1.0960  -1.0648  -1.0344  -0.9994
    -0.9302  -0.8526  -0.8053  -0.7420  -0.7132  -0.6868  -0.6491  -0.5830
    -0.5370  -0.4801  -0.4665  -0.4261  -0.3786  -0.3597  -0.3054  -0.2908
    -0.2162  -0.1767  -0.1091  -0.0674  -0.0111   0.0352   0.0850   0.1311
     0.2108   0.2285   0.2692   0.3063   0.3437   0.4009   0.4198   0.4580
     0.5252   0.6434   0.7158   0.7576   0.8908   0.9273   0.9786   1.0264
     1.0601   1.1527   1.1992   1.2583   1.4856   1.5931   2.1632   2.9427
     3.0994   3.1924   3.3523   3.5322   3.6187   3.6711   3.7708   3.8441
     3.9794

          k =-0.0760-0.0000 0.0000 ( 17886 PWs)   bands (ev):

   -56.5945 -56.5609 -55.7120 -55.6784 -55.6685 -55.6336 -55.4918 -55.4557
   -55.3608 -55.2427 -55.2295 -55.2277 -55.2088 -55.1323 -54.7258 -54.6761
   -33.0227 -32.8687 -32.8407 -32.7671 -32.6801 -32.6472 -32.1809 -32.1599
   -32.0277 -31.9284 -31.9135 -31.9084 -31.9048 -31.8708 -31.8681 -31.8431
   -31.8198 -31.8118 -31.7924 -31.7758 -31.7675 -31.7401 -31.6888 -31.6696
   -31.6332 -31.6263 -31.6254 -31.6177 -31.5945 -31.5874 -31.5816 -31.5555
   -31.4824 -31.4527 -31.4189 -31.4053 -31.3788 -31.3696 -31.3580 -31.3373
   -31.3095 -31.2586 -31.2392 -30.9693 -30.9521 -30.9185 -30.8934 -30.7852
   -18.7342 -16.4863 -16.1914 -16.1585 -16.0308 -15.9592 -15.7791 -15.7144
   -15.5846 -15.5391 -15.5150 -15.5084 -15.4581 -15.4215 -15.3443 -15.1807
   -15.1317 -15.0839 -15.0711 -15.0381 -14.9260 -14.9139 -14.7557 -14.6442
   -14.6239 -14.5979 -14.5617 -14.4973 -14.3928 -14.1731 -13.7361 -13.6310
   -12.9694  -7.7731  -6.5452  -3.6443  -3.6420  -3.5428  -3.5116  -3.2343
    -3.2304  -3.1710  -3.1157  -3.0643  -3.0541  -3.0181  -2.9983  -2.9055
    -2.8231  -2.7947  -2.7553  -2.7197  -2.6855  -2.6817  -2.5225  -2.4887
    -2.4757  -2.4281  -2.3652  -2.3298  -2.2938  -2.1738  -2.1247  -2.1057
    -2.0985  -2.0068  -1.9724  -1.9668  -1.8966  -1.8752  -1.8283  -1.7297
    -1.6894  -1.6840  -1.6769  -1.6440  -1.6117  -1.5727  -1.4638  -1.4298
    -1.4061  -1.3175  -1.2613  -1.1927  -1.1720  -1.1322  -1.0698  -0.9569
    -0.9320  -0.9142  -0.8739  -0.7680  -0.7565  -0.7400  -0.7100  -0.7084
    -0.6658  -0.5947  -0.5032  -0.4432  -0.4285  -0.3544  -0.2812  -0.2301
    -0.2263  -0.1255  -0.0332   0.0285   0.0627   0.1099   0.1682   0.2028
     0.2080   0.2362   0.3272   0.3752   0.4329   0.4764   0.5170   0.5458
     0.5783   0.6792   0.7101   0.7529   0.8067   0.8582   0.8869   0.9557
     1.0068   1.0963   1.1422   1.2132   1.3372   1.6201   2.0565   2.8146
     2.9503   3.0495   3.1373   3.4930   3.5380   3.6988   3.8453   3.8699
     3.8770

          k =-0.0760 0.0419 0.0000 ( 17914 PWs)   bands (ev):

   -56.5896 -56.5659 -55.7072 -55.6832 -55.6638 -55.6383 -55.4868 -55.4607
   -55.3597 -55.2378 -55.2306 -55.2261 -55.2139 -55.1340 -54.7226 -54.6794
   -32.9693 -32.8646 -32.8448 -32.7547 -32.7036 -32.6930 -32.1288 -32.1078
   -31.9737 -31.9169 -31.9119 -31.9029 -31.8979 -31.8730 -31.8712 -31.8650
   -31.8550 -31.8327 -31.8259 -31.7548 -31.7405 -31.7066 -31.6966 -31.6850
   -31.6712 -31.6193 -31.6121 -31.5922 -31.5829 -31.5810 -31.5759 -31.5602
   -31.4753 -31.4407 -31.4354 -31.4243 -31.4033 -31.3820 -31.3705 -31.3594
   -31.3378 -31.3155 -31.1914 -30.9784 -30.9492 -30.9253 -30.8988 -30.8198
   -18.7340 -16.3728 -16.1463 -16.0882 -15.9548 -15.8924 -15.8525 -15.6638
   -15.6517 -15.5607 -15.4654 -15.4227 -15.4042 -15.3307 -15.3116 -15.2468
   -15.1809 -15.0679 -15.0320 -15.0104 -14.9785 -14.9622 -14.8050 -14.7962
   -14.7376 -14.5975 -14.5703 -14.5084 -14.4157 -14.2423 -13.7450 -13.6734
   -12.9804  -7.7708  -6.5478  -3.4355  -3.3877  -3.3738  -3.3375  -3.1224
    -3.1196  -3.0993  -3.0666  -2.9883  -2.9789  -2.9400  -2.9122  -2.8921
    -2.7628  -2.7193  -2.7045  -2.6593  -2.6066  -2.5922  -2.5589  -2.5151
    -2.4795  -2.4655  -2.4224  -2.4043  -2.3299  -2.2382  -2.2340  -2.1739
    -2.1709  -2.0699  -2.0404  -2.0234  -1.9791  -1.9161  -1.8891  -1.8096
    -1.7393  -1.7169  -1.6306  -1.5963  -1.5920  -1.5669  -1.4705  -1.3536
    -1.3396  -1.2836  -1.2441  -1.2186  -1.1851  -1.1168  -1.0825  -1.0335
    -0.9890  -0.9477  -0.9107  -0.8760  -0.8229  -0.7776  -0.7562  -0.6710
    -0.6236  -0.6057  -0.5571  -0.4911  -0.4628  -0.4125  -0.3910  -0.3706
    -0.3331  -0.2355  -0.1887  -0.1720  -0.1307  -0.0605   0.0045   0.0345
     0.1352   0.1810   0.2255   0.3368   0.3442   0.3952   0.4221   0.5491
     0.6145   0.7251   0.7927   0.8348   0.8694   0.9270   0.9703   1.0663
     1.1125   1.1352   1.1452   1.2450   1.3517   1.6133   2.1404   2.9548
     3.1330   3.1386   3.2393   3.6368   3.6980   3.7038   3.7411   3.9022
     3.9837

          k =-0.0760-0.0839 0.0000 ( 17948 PWs)   bands (ev):

   -56.5779 -56.5776 -55.6974 -55.6931 -55.6556 -55.6466 -55.4780 -55.4696
   -55.3586 -55.2318 -55.2260 -55.2258 -55.2245 -55.1356 -54.7188 -54.6832
   -32.8549 -32.8546 -32.8383 -32.8381 -32.7242 -32.7239 -32.0040 -31.9982
   -31.9867 -31.9798 -31.9035 -31.8889 -31.8876 -31.8833 -31.8766 -31.8751
   -31.8677 -31.8597 -31.8333 -31.8163 -31.7229 -31.7165 -31.6850 -31.6772
   -31.6534 -31.6177 -31.5860 -31.5715 -31.5713 -31.5694 -31.5486 -31.5305
   -31.4798 -31.4507 -31.4505 -31.4469 -31.4309 -31.4117 -31.4115 -31.4010
   -31.3745 -31.3391 -31.1017 -31.0390 -30.9456 -30.9200 -30.9041 -30.8571
   -18.7339 -16.1009 -16.0989 -16.0634 -16.0627 -15.7963 -15.7929 -15.7030
   -15.6975 -15.5658 -15.4453 -15.3412 -15.3286 -15.2945 -15.2680 -15.1578
   -15.1368 -15.1255 -15.1152 -15.0073 -14.9881 -14.9403 -14.9261 -14.9102
   -14.9031 -14.6084 -14.5920 -14.4920 -14.4661 -14.3272 -13.7353 -13.7353
   -12.9910  -7.7684  -6.5504  -3.1951  -3.1906  -3.1368  -3.1353  -3.1352
    -3.0780  -2.9774  -2.9304  -2.9285  -2.9275  -2.8398  -2.7823  -2.7746
    -2.7007  -2.6677  -2.6503  -2.5921  -2.5786  -2.5149  -2.4884  -2.4802
    -2.4624  -2.4388  -2.4375  -2.3437  -2.2776  -2.2317  -2.2265  -2.1670
    -2.1369  -2.0778  -2.0554  -2.0440  -2.0114  -1.9702  -1.9580  -1.9185
    -1.8779  -1.8431  -1.7798  -1.6135  -1.6044  -1.5954  -1.5749  -1.4520
    -1.4451  -1.4110  -1.3795  -1.3739  -1.3029  -1.2521  -1.2157  -1.1620
    -1.0769  -1.0553  -0.9508  -0.8987  -0.8555  -0.7985  -0.6945  -0.6740
    -0.6659  -0.6553  -0.6253  -0.5552  -0.5197  -0.5172  -0.3941  -0.3698
    -0.3313  -0.3020  -0.2437  -0.2152  -0.1551  -0.1240  -0.0545  -0.0401
    -0.0004   0.0763   0.1516   0.1856   0.2366   0.2430   0.5174   0.5911
     0.7204   0.7836   0.8459   0.9141   0.9794   1.0075   1.0371   1.1625
     1.1668   1.1763   1.1768   1.2470   1.2522   1.5918   2.1896   3.2588
     3.2590   3.3253   3.3259   3.6469   3.6531   3.7602   3.7704   3.9305
     3.9448

     the Fermi energy is     2.5096 ev

!    total energy              =   -2953.97098169 Ry
     estimated scf accuracy    <       0.00000006 Ry
     smearing contrib. (-TS)   =      -0.00442979 Ry
     internal energy E=F+TS    =   -2953.96655190 Ry

     The total energy is F=E-TS. E is the sum of the following terms:
     one-electron contribution =  -24343.87379504 Ry
     hartree contribution      =   12263.83566625 Ry
     xc contribution           =    -488.76449584 Ry
     ewald contribution        =    9614.83554374 Ry
     electric field correction =       0.00052899 Ry

     convergence has been achieved in  71 iterations

     Forces acting on atoms (cartesian axes, Ry/au):

     atom    1 type  1   force =    -0.00002588   -0.00048404    0.12440452
     atom    2 type  1   force =    -0.00003669   -0.00048582   -0.15979638
     atom    3 type  2   force =     0.00020052   -0.00023693   -0.06784486
     atom    4 type  2   force =     0.00000168   -0.00009182    0.02611032
     atom    5 type  2   force =    -0.01436425    0.00191536   -0.00991999
     atom    6 type  2   force =     0.01614854    0.00232571   -0.01029563
     atom    7 type  1   force =     0.00071734   -0.00389341    0.02848531
     atom    8 type  1   force =    -0.00033524   -0.00435836    0.10935616
     atom    9 type  2   force =     0.00002418    0.00001647    0.00005999
     atom   10 type  2   force =    -0.00225613    0.00266746   -0.07361365
     atom   11 type  2   force =     0.00079131   -0.00003055   -0.00022612
     atom   12 type  2   force =    -0.00042533    0.00004820   -0.00018833
     atom   13 type  1   force =    -0.00000759    0.00013611   -0.00012265
     atom   14 type  1   force =    -0.00034558    0.00047982   -0.00039763
     atom   15 type  2   force =     0.00002174   -0.00065409   -0.00020312
     atom   16 type  2   force =    -0.00018590   -0.00000480    0.00037751
     atom   17 type  2   force =    -0.00061520   -0.00031604   -0.00033195
     atom   18 type  2   force =     0.00025844   -0.00019300    0.00011178
     atom   19 type  1   force =     0.00045479    0.00000060   -0.00018209
     atom   20 type  1   force =    -0.00022416   -0.00059065   -0.00085929
     atom   21 type  2   force =     0.00006659   -0.00004028    0.09953510
     atom   22 type  2   force =     0.00011850   -0.00049993    0.00032858
     atom   23 type  2   force =    -0.07970338   -0.00006205   -0.03245842
     atom   24 type  2   force =     0.07957466    0.00037794   -0.03251554
     atom   25 type  1   force =    -0.00000593   -0.00057795    0.12404165
     atom   26 type  1   force =    -0.00010847   -0.00062736   -0.15992446
     atom   27 type  2   force =     0.00033234   -0.00035974   -0.06691704
     atom   28 type  2   force =    -0.00002472    0.00017847    0.02513427
     atom   29 type  2   force =    -0.01495481    0.00189505   -0.00989749
     atom   30 type  2   force =     0.01664178    0.00242236   -0.01022961
     atom   31 type  1   force =     0.00078149   -0.00077124    0.02375592
     atom   32 type  1   force =    -0.00022740    0.00200549    0.10998251
     atom   33 type  2   force =     0.00004625   -0.00027043    0.00032427
     atom   34 type  2   force =    -0.00212191    0.00206965   -0.07173448
     atom   35 type  2   force =     0.00021725   -0.00012255   -0.00008080
     atom   36 type  2   force =    -0.00015689   -0.00024794   -0.00015208
     atom   37 type  1   force =     0.00042461   -0.00002491    0.00036150
     atom   38 type  1   force =     0.00001450   -0.00056560   -0.00018075
     atom   39 type  2   force =     0.00006747    0.00018723    0.00065392
     atom   40 type  2   force =    -0.00008906   -0.00024260    0.00026448
     atom   41 type  2   force =     0.00073645   -0.00034687    0.00007706
     atom   42 type  2   force =    -0.00103029   -0.00041269    0.00057798
     atom   43 type  1   force =     0.00006891   -0.00035550    0.00026607
     atom   44 type  1   force =    -0.00033506   -0.00007453   -0.00100974
     atom   45 type  2   force =     0.00005698   -0.00004631    0.09949689
     atom   46 type  2   force =    -0.07971176    0.00000051   -0.03248128
     atom   47 type  2   force =     0.07959168    0.00042828   -0.03250701
     atom   48 type  3   force =    -0.00048092   -0.00009909   -0.00038333
     atom   49 type  4   force =    -0.00033632    0.00008183    0.00017235
     atom   50 type  5   force =    -0.00049202    0.00001462    0.00019552
     atom   51 type  5   force =    -0.00014281   -0.00062758    0.00056365
     atom   52 type  5   force =     0.00057592    0.00012675    0.00020534
     atom   53 type  2   force =    -0.01198672   -0.00631822    0.00280965
     atom   54 type  5   force =    -0.00015464   -0.00062744    0.00124582
     atom   55 type  5   force =     0.01295112    0.00728243   -0.00444442

     Total force =     0.423873     Total SCF correction =     0.000838
  @ DRIVER MODE: Message from server: STATUS
  @ DRIVER MODE: Message from server: GETFORCE
  @ DRIVER MODE: Returning v,forces,stress,ensemble 

     Writing output data file ./calc.save/
  @ DRIVER MODE: Message from server: EXIT
  @ DRIVE MODE: Exiting  
 
     init_run     :     10.84s CPU     11.05s WALL (       1 calls)
     electrons    :   1131.70s CPU   1148.13s WALL (       1 calls)
     forces       :      2.46s CPU      2.54s WALL (       1 calls)

     Called by init_run:
     wfcinit      :      4.84s CPU      4.89s WALL (       1 calls)
     potinit      :      5.35s CPU      5.42s WALL (       1 calls)
     hinit0       :      0.29s CPU      0.30s WALL (       1 calls)

     Called by electrons:
     c_bands      :    960.14s CPU    966.77s WALL (      71 calls)
     sum_band     :    115.84s CPU    119.83s WALL (      71 calls)
     v_of_rho     :     41.66s CPU     43.70s WALL (      72 calls)
     newd         :     17.09s CPU     20.92s WALL (      72 calls)
     mix_rho      :      1.56s CPU      1.57s WALL (      71 calls)
     vdW_kernel   :      4.54s CPU      4.56s WALL (       1 calls)

     Called by c_bands:
     init_us_2    :      7.98s CPU      8.01s WALL (    1440 calls)
     cegterg      :    939.66s CPU    946.00s WALL (     721 calls)

     Called by *egterg:
     cdiaghg      :    140.24s CPU    140.84s WALL (    6264 calls)
     h_psi        :    507.57s CPU    512.05s WALL (    6274 calls)
     s_psi        :     66.48s CPU     66.67s WALL (    6274 calls)
     g_psi        :      2.03s CPU      2.05s WALL (    5543 calls)

     Called by h_psi:
     h_psi:calbec :     63.70s CPU     63.98s WALL (    6274 calls)
     vloc_psi     :    372.70s CPU    376.34s WALL (    6274 calls)
     add_vuspsi   :     67.30s CPU     67.63s WALL (    6274 calls)

     General routines
     calbec       :     84.18s CPU     84.53s WALL (    7024 calls)
     fft          :     21.58s CPU     21.73s WALL (    4536 calls)
     ffts         :      0.14s CPU      0.14s WALL (     143 calls)
     fftw         :    416.64s CPU    420.71s WALL (  992130 calls)
     interpolate  :      0.44s CPU      0.44s WALL (      72 calls)
     davcio       :      0.00s CPU      0.29s WALL (      10 calls)
 
     Parallel routines
 
     PWSCF        :  19m 5.25s CPU  19m22.59s WALL

 
   This run was terminated on:   5: 6: 1  16Sep2021            

=------------------------------------------------------------------------------=
   JOB DONE.
=------------------------------------------------------------------------------=
