
     Program PWSCF v.6.7GPU starts on 15Sep2021 at 21:29:41 

     This program is part of the open-source Quantum ESPRESSO suite
     for quantum simulation of materials; please cite
         "P. Giannozzi et al., J. Phys.:Condens. Matter 21 395502 (2009);
         "P. Giannozzi et al., J. Phys.:Condens. Matter 29 465901 (2017);
         "P. Giannozzi et al., J. Chem. Phys. 152 154105 (2020);
          URL http://www.quantum-espresso.org", 
     in publications or presentations arising from this work. More details at
     http://www.quantum-espresso.org/quote

     Parallel version (MPI), running on    10 processors

     MPI processes distributed on     1 nodes
     R & G space division:  proc/nbgrp/npool/nimage =      10
     Reading input from /storage/home/hcoda1/3/ntian30/research/carbon/CxH_vib/H2O_calc/ads_slab/CHH2O_a/out_0025/pw.inp
Warning: card &CELL ignored
Warning: card   CELL_DYNAMICS='IPI', ignored
Warning: card / ignored

     Current dimensions of program PWSCF are:
     Max number of different atomic species (ntypx) = 10
     Max number of k-points (npk) =  40000
     Max angular momentum in pseudopotentials (lmaxx) =  3
     Presently no symmetry can be used with electric field

     Message from routine cell_base_init:
     DEPRECATED: use true lattice parameter, not A to a.u. conversion factor

     **************************************************************************
     Initializing libbeef V0.1.2 with the BEEF-vdW functional.
     Citation: Wellendorff et al., PRB 85, 235149 (2012).
     **************************************************************************


     IMPORTANT: XC functional enforced from input :
     Exchange-correlation= BEEF-VDW
                           (   1   4  43  14   2   0   0)
     Any further DFT definition will be discarded
     Please, verify this is what you really want


     Subspace diagonalization in iterative solution of the eigenvalue problem:
     one sub-group per band group will be used
     scalapack distributed-memory algorithm (size of sub-group:  3*  3 procs)

  @ DRIVER MODE: Connecting to 
 qe_1139763_2852624.sched-torque.pace.gatech.eduie__d4f3_scratch
  using UNIX socket
  @ DRIVER MODE: Message from server: STATUS
  @ DRIVER MODE: Message from server: INIT
  @ DRIVER MODE: Receiving replica           0          -1
  @ DRIVER MODE: Receiving encoded integer          25
  @ DRIVER MODE:  SCF:  T  FORCE:  T  STRESS:  F  VC:  F  ENSEMBLE:  F
  @ DRIVER MODE:  SCF:  T  FORCE:  T  STRESS:  F  VC:  F  ENSEMBLE:  F
 
     Parallelization info
     --------------------
     sticks:   dense  smooth     PW     G-vecs:    dense   smooth      PW
     Min         327     131     37                56683    14340    2191
     Max         328     133     38                56694    14346    2206
     Sum        3275    1317    379               566857   143421   21985
 
     Using Slab Decomposition
 


     bravais-lattice index     =            0
     lattice parameter (alat)  =       1.8897  a.u.
     unit-cell volume          =    6658.9804 (a.u.)^3
     number of atoms/cell      =           52
     number of atomic types    =            4
     number of electrons       =       391.00
     number of Kohn-Sham states=          205
     kinetic-energy cutoff     =      29.3995  Ry
     charge density cutoff     =     293.9946  Ry
     scf convergence threshold =      7.3E-08
     mixing beta               =       0.0500
     number of iterations used =            8  plain     mixing
     Exchange-correlation= BEEF-VDW
                           (   1   4  43  14   2   0   0)

     celldm(1)=   1.889726  celldm(2)=   0.000000  celldm(3)=   0.000000
     celldm(4)=   0.000000  celldm(5)=   0.000000  celldm(6)=   0.000000

     crystal axes: (cart. coord. in units of alat)
               a(1) = (   6.579727   0.000000   0.000000 )  
               a(2) = (  -0.000775   5.961596   0.000000 )  
               a(3) = (   0.000000   0.000000  25.155947 )  

     reciprocal axes: (cart. coord. in units 2 pi/alat)
               b(1) = (  0.151982  0.000020  0.000000 )  
               b(2) = (  0.000000  0.167740  0.000000 )  
               b(3) = (  0.000000  0.000000  0.039752 )  


     PseudoPot. # 1 for Ti read from file:
     /storage/coda1/p-amedford6/0/shared/rich_project_chbe-medford/medford-share/data/pseudos_module/espresso/nninc/pbe/van/Ti.UPF
     MD5 check sum: 8e4df49b7f0d34bbd5052bf3f5ea0213
     Pseudo is Ultrasoft, Zval = 12.0
     Generated by new atomic code, or converted to UPF format
     Using radial grid of  851 points,  6 beta functions with: 
                l(1) =   0
                l(2) =   0
                l(3) =   1
                l(4) =   1
                l(5) =   2
                l(6) =   2
     Q(r) pseudized with  8 coefficients,  rinner =    1.000   1.000   1.000
                                                       1.000   1.000

     PseudoPot. # 2 for O  read from file:
     /storage/coda1/p-amedford6/0/shared/rich_project_chbe-medford/medford-share/data/pseudos_module/espresso/nninc/pbe/van/O.UPF
     MD5 check sum: 78c19812648e8988a0fe644b0f25305e
     Pseudo is Ultrasoft, Zval =  6.0
     Generated by new atomic code, or converted to UPF format
     Using radial grid of  737 points,  4 beta functions with: 
                l(1) =   0
                l(2) =   0
                l(3) =   1
                l(4) =   1
     Q(r) pseudized with  8 coefficients,  rinner =    0.800   0.800   0.800


     PseudoPot. # 3 for C  read from file:
     /storage/coda1/p-amedford6/0/shared/rich_project_chbe-medford/medford-share/data/pseudos_module/espresso/nninc/pbe/van/C.UPF
     MD5 check sum: 1a69bf6b8db32088f5b2163dbdb77a27
     Pseudo is Ultrasoft, Zval =  4.0
     Generated by new atomic code, or converted to UPF format
     Using radial grid of  721 points,  4 beta functions with: 
                l(1) =   0
                l(2) =   0
                l(3) =   1
                l(4) =   1
     Q(r) pseudized with  8 coefficients,  rinner =    0.800   0.800   0.800


     PseudoPot. # 4 for H  read from file:
     /storage/coda1/p-amedford6/0/shared/rich_project_chbe-medford/medford-share/data/pseudos_module/espresso/nninc/pbe/van/H.UPF
     MD5 check sum: b5ee9d7bfd3a09ee7748110bda690ff7
     Pseudo is Ultrasoft, Zval =  1.0
     Generated by new atomic code, or converted to UPF format
     Using radial grid of  615 points,  1 beta functions with: 
                l(1) =   0
     Q(r) pseudized with  8 coefficients,  rinner =    0.800

     atomic species   valence    mass     pseudopotential
        Ti1           12.00    47.86700     Ti( 1.00)
        O1             6.00    15.99900     O ( 1.00)
        C1             4.00    12.01100     C ( 1.00)
        H1             1.00     1.00800     H ( 1.00)

     No symmetry found



   Cartesian axes

     site n.     atom                  positions (alat units)
         1           Ti1 tau(   1) = (   0.0004258   2.9801865   6.0000000  )
         2           Ti1 tau(   2) = (   3.2906075   1.4906267   6.0002472  )
         3           O1  tau(   3) = (   0.0006271   0.0005054   7.9858123  )
         4           O1  tau(   4) = (   3.2906025   0.0005020   7.3038282  )
         5           O1  tau(   5) = (   4.5942328   1.4918067   9.2879030  )
         6           O1  tau(   6) = (   1.9868534   1.4903216   9.2879459  )
         7           Ti1 tau(   7) = (   3.2871774   2.8648350   9.1721854  )
         8           Ti1 tau(   8) = (  -0.0000353   1.4301884   9.3769680  )
         9           O1  tau(   9) = (   3.2813214   0.0053726  11.3480220  )
        10           O1  tau(  10) = (  -0.0004909   5.9494466  10.5591019  )
        11           O1  tau(  11) = (   1.2709337   1.5062281  12.6398922  )
        12           O1  tau(  12) = (   5.2659652   1.5004022  12.6256763  )
        13           Ti1 tau(  13) = (   0.0747037   2.9811850  12.8215060  )
        14           Ti1 tau(  14) = (   3.3904977   1.4744036  12.5039750  )
        15           O1  tau(  15) = (   6.5763451   5.9564350  14.6046450  )
        16           O1  tau(  16) = (   3.2806839   0.0238217  13.9603601  )
        17           O1  tau(  17) = (   4.5226094   1.5694261  16.0518702  )
        18           O1  tau(  18) = (   2.0202940   1.5641231  16.0352509  )
        19           Ti1 tau(  19) = (   3.2640091   3.0260151  15.6942499  )
        20           Ti1 tau(  20) = (   6.5358820   1.5903963  16.1090211  )
        21           O1  tau(  21) = (   3.2904802   0.0005063   4.7018136  )
        22           O1  tau(  22) = (   6.5569505   0.0478586  17.2430089  )
        23           O1  tau(  23) = (   1.3043587   1.4918075   6.0039043  )
        24           O1  tau(  24) = (   5.2767064   1.4903225   6.0039473  )
        25           Ti1 tau(  25) = (   0.0000382   5.9609847   6.0000000  )
        26           Ti1 tau(  26) = (   3.2902200   4.4714249   6.0002472  )
        27           O1  tau(  27) = (   0.0002396   2.9813036   7.9858123  )
        28           O1  tau(  28) = (   3.2902150   2.9813002   7.3038282  )
        29           O1  tau(  29) = (   4.5938453   4.4726049   9.2879030  )
        30           O1  tau(  30) = (   1.9864658   4.4711199   9.2879459  )
        31           Ti1 tau(  31) = (   3.2859829   5.8469316   9.1661464  )
        32           Ti1 tau(  32) = (  -0.0001559   4.4089299   9.3799519  )
        33           O1  tau(  33) = (   3.2865236   2.9807090  11.3458169  )
        34           O1  tau(  34) = (   6.5781283   2.9667683  10.5610256  )
        35           O1  tau(  35) = (   1.2712900   4.4620179  12.6345536  )
        36           O1  tau(  36) = (   5.2651022   4.4720110  12.6184623  )
        37           Ti1 tau(  37) = (   0.0601624   5.9591143  12.7910897  )
        38           Ti1 tau(  38) = (   3.3902089   4.4660181  12.4873354  )
        39           O1  tau(  39) = (   6.5660314   2.9936061  14.6787526  )
        40           O1  tau(  40) = (   3.2777068   3.0094971  13.9036223  )
        41           O1  tau(  41) = (   4.5190982   4.4944638  16.0861991  )
        42           O1  tau(  42) = (   2.0255100   4.4980322  16.0740450  )
        43           Ti1 tau(  43) = (   3.2415938   0.0554625  15.8014791  )
        44           Ti1 tau(  44) = (   6.5310484   4.6110724  16.1360643  )
        45           O1  tau(  45) = (   3.2900926   2.9813045   4.7018136  )
        46           O1  tau(  46) = (   1.3039711   4.4726057   6.0039043  )
        47           O1  tau(  47) = (   5.2763189   4.4711207   6.0039473  )
        48           C1  tau(  48) = (   0.0160176   3.0093394  17.4896075  )
        49           H1  tau(  49) = (   0.0793418   3.1169436  18.5737113  )
        50           O1  tau(  50) = (   3.2580281   0.1500328  18.1801156  )
        51           H1  tau(  51) = (   4.0450954   5.6463884  18.5036456  )
        52           H1  tau(  52) = (   2.4670123   5.6427573  18.5175526  )

     number of k points=    10  Fermi-Dirac smearing, width (Ry)=  0.0073
                       cart. coord. in units 2pi/alat
        k(    1) = (   0.0000000   0.0000000   0.0000000), wk =   0.1250000
        k(    2) = (   0.0000000   0.0419351   0.0000000), wk =   0.2500000
        k(    3) = (   0.0000000  -0.0838702   0.0000000), wk =   0.1250000
        k(    4) = (   0.0379955   0.0000049   0.0000000), wk =   0.2500000
        k(    5) = (   0.0379955   0.0419400   0.0000000), wk =   0.2500000
        k(    6) = (   0.0379955  -0.0838652   0.0000000), wk =   0.2500000
        k(    7) = (   0.0379955  -0.0419301   0.0000000), wk =   0.2500000
        k(    8) = (  -0.0759910  -0.0000099   0.0000000), wk =   0.1250000
        k(    9) = (  -0.0759910   0.0419252   0.0000000), wk =   0.2500000
        k(   10) = (  -0.0759910  -0.0838800   0.0000000), wk =   0.1250000

     Dense  grid:   566857 G-vectors     FFT dimensions: (  72,  64, 270)

     Smooth grid:   143421 G-vectors     FFT dimensions: (  45,  40, 180)

     Estimated max dynamical RAM per process >     362.08 MB

     Estimated total dynamical RAM >       3.54 GB
     Cannot read rho : file not found

     Initial potential from superposition of free atoms

     starting charge  374.99918, renormalised to  391.00000

     negative rho (up, down):  1.886E-02 0.000E+00


     %%%%%%%%%%%%%%%%%%%%%%%%%%%%%%%%%%%%%%%%%%%%%%%%%%%%%%%%%%%%%%%%%%%%%%%%
     %                                                                      %
     % You are using vdW-DF, which was implemented by the Thonhauser group. %
     % Please cite the following two papers that made this development      %
     % possible and the two reviews that describe the various versions:     %
     %                                                                      %
     %   T. Thonhauser et al., PRL 115, 136402 (2015).                      %
     %   T. Thonhauser et al., PRB 76, 125112 (2007).                       %
     %   K. Berland et al., Rep. Prog. Phys. 78, 066501 (2015).             %
     %   D.C. Langreth et al., J. Phys.: Condens. Matter 21, 084203 (2009). %
     %                                                                      %
     %                                                                      %
     % If you are calculating the stress with vdW-DF, please also cite:     %
     %                                                                      %
     %   R. Sabatini et al., J. Phys.: Condens. Matter 24, 424209 (2012).   %
     %                                                                      %
     %%%%%%%%%%%%%%%%%%%%%%%%%%%%%%%%%%%%%%%%%%%%%%%%%%%%%%%%%%%%%%%%%%%%%%%%


 
     Adding external electric field

     Computed dipole along edir(3) : 
        Dipole               -4.6207 Ry au,        -11.7446 Debye
        Dipole field         -0.0087 Ry au, 
 
        Potential amp.        0.8083 Ry
        Total length         46.3494 bohr
 
     Starting wfcs are  295 atomic wfcs
  @ DRIVER MODE: Message from server: STATUS
  @ DRIVER MODE: Message from server: POSDATA
  @ DRIVER MODE: Reading and sharing cell 
  @ DRIVER MODE: Reading and sharing positions 
  @ DRIVER MODE: Received positions 

     total cpu time spent up to now is       10.9 secs

     Self-consistent Calculation

     iteration #  1     ecut=    29.40 Ry     beta= 0.05
     Davidson diagonalization with overlap
     c_bands:  4 eigenvalues not converged
     c_bands:  1 eigenvalues not converged
     c_bands:  1 eigenvalues not converged
     c_bands:  1 eigenvalues not converged
     c_bands:  2 eigenvalues not converged
     c_bands:  1 eigenvalues not converged
     c_bands:  2 eigenvalues not converged
     c_bands:  1 eigenvalues not converged
     ethr =  1.00E-05,  avg # of iterations = 19.4

     negative rho (up, down):  1.833E-02 0.000E+00
 
     Adding external electric field

     Computed dipole along edir(3) : 
        Dipole               14.8091 Ry au,         37.6410 Debye
        Dipole field          0.0279 Ry au, 
 
        Potential amp.       -2.5906 Ry
        Total length         46.3494 bohr
 

     total cpu time spent up to now is       47.7 secs

     total energy              =   -2877.66406306 Ry
     estimated scf accuracy    <     610.91092388 Ry

     iteration #  2     ecut=    29.40 Ry     beta= 0.05
     Davidson diagonalization with overlap
     ethr =  1.00E-02,  avg # of iterations = 14.4

     negative rho (up, down):  8.692E-03 0.000E+00
 
     Adding external electric field

     Computed dipole along edir(3) : 
        Dipole               -1.9211 Ry au,         -4.8829 Debye
        Dipole field         -0.0036 Ry au, 
 
        Potential amp.        0.3361 Ry
        Total length         46.3494 bohr
 

     total cpu time spent up to now is       78.5 secs

     total energy              =   -2816.87821699 Ry
     estimated scf accuracy    <   13963.60787437 Ry

     iteration #  3     ecut=    29.40 Ry     beta= 0.05
     Davidson diagonalization with overlap
     c_bands:  2 eigenvalues not converged
     c_bands:  3 eigenvalues not converged
     c_bands:  3 eigenvalues not converged
     c_bands:  1 eigenvalues not converged
     ethr =  1.00E-02,  avg # of iterations = 19.6

     negative rho (up, down):  8.655E-03 0.000E+00
 
     Adding external electric field

     Computed dipole along edir(3) : 
        Dipole               -2.2951 Ry au,         -5.8336 Debye
        Dipole field         -0.0043 Ry au, 
 
        Potential amp.        0.4015 Ry
        Total length         46.3494 bohr
 

     total cpu time spent up to now is      110.4 secs

     total energy              =   -2932.37787917 Ry
     estimated scf accuracy    <      21.96729720 Ry

     iteration #  4     ecut=    29.40 Ry     beta= 0.05
     Davidson diagonalization with overlap
     ethr =  5.62E-03,  avg # of iterations =  4.9

     negative rho (up, down):  8.656E-03 0.000E+00
 
     Adding external electric field

     Computed dipole along edir(3) : 
        Dipole               -2.5218 Ry au,         -6.4097 Debye
        Dipole field         -0.0048 Ry au, 
 
        Potential amp.        0.4411 Ry
        Total length         46.3494 bohr
 

     total cpu time spent up to now is      121.4 secs

     total energy              =   -2932.09975392 Ry
     estimated scf accuracy    <      14.66045109 Ry

     iteration #  5     ecut=    29.40 Ry     beta= 0.05
     Davidson diagonalization with overlap
     ethr =  3.75E-03,  avg # of iterations =  4.9

     negative rho (up, down):  8.591E-03 0.000E+00
 
     Adding external electric field

     Computed dipole along edir(3) : 
        Dipole               -2.2831 Ry au,         -5.8032 Debye
        Dipole field         -0.0043 Ry au, 
 
        Potential amp.        0.3994 Ry
        Total length         46.3494 bohr
 

     total cpu time spent up to now is      132.3 secs

     total energy              =   -2931.85335078 Ry
     estimated scf accuracy    <       8.54648372 Ry

     iteration #  6     ecut=    29.40 Ry     beta= 0.05
     Davidson diagonalization with overlap
     ethr =  2.19E-03,  avg # of iterations =  3.1

     negative rho (up, down):  8.783E-03 0.000E+00
 
     Adding external electric field

     Computed dipole along edir(3) : 
        Dipole               -0.6281 Ry au,         -1.5965 Debye
        Dipole field         -0.0012 Ry au, 
 
        Potential amp.        0.1099 Ry
        Total length         46.3494 bohr
 

     total cpu time spent up to now is      142.6 secs

     total energy              =   -2930.22002151 Ry
     estimated scf accuracy    <       6.19979000 Ry

     iteration #  7     ecut=    29.40 Ry     beta= 0.05
     Davidson diagonalization with overlap
     ethr =  1.59E-03,  avg # of iterations =  8.0

     negative rho (up, down):  8.891E-03 0.000E+00
 
     Adding external electric field

     Computed dipole along edir(3) : 
        Dipole               -1.4761 Ry au,         -3.7519 Debye
        Dipole field         -0.0028 Ry au, 
 
        Potential amp.        0.2582 Ry
        Total length         46.3494 bohr
 

     total cpu time spent up to now is      157.4 secs

     total energy              =   -2929.86840248 Ry
     estimated scf accuracy    <      66.52671188 Ry

     iteration #  8     ecut=    29.40 Ry     beta= 0.05
     Davidson diagonalization with overlap
     c_bands:  1 eigenvalues not converged
     c_bands:  2 eigenvalues not converged
     c_bands:  2 eigenvalues not converged
     c_bands:  1 eigenvalues not converged
     c_bands:  1 eigenvalues not converged
     ethr =  1.59E-03,  avg # of iterations = 18.2

     negative rho (up, down):  8.726E-03 0.000E+00
 
     Adding external electric field

     Computed dipole along edir(3) : 
        Dipole               -1.3665 Ry au,         -3.4733 Debye
        Dipole field         -0.0026 Ry au, 
 
        Potential amp.        0.2391 Ry
        Total length         46.3494 bohr
 

     total cpu time spent up to now is      174.2 secs

     total energy              =   -2931.30385748 Ry
     estimated scf accuracy    <      18.47620946 Ry

     iteration #  9     ecut=    29.40 Ry     beta= 0.05
     Davidson diagonalization with overlap
     ethr =  1.59E-03,  avg # of iterations =  1.1

     negative rho (up, down):  8.630E-03 0.000E+00
 
     Adding external electric field

     Computed dipole along edir(3) : 
        Dipole               -1.4556 Ry au,         -3.6997 Debye
        Dipole field         -0.0027 Ry au, 
 
        Potential amp.        0.2546 Ry
        Total length         46.3494 bohr
 

     total cpu time spent up to now is      183.8 secs

     total energy              =   -2931.32972021 Ry
     estimated scf accuracy    <       5.98966047 Ry

     iteration # 10     ecut=    29.40 Ry     beta= 0.05
     Davidson diagonalization with overlap
     ethr =  1.53E-03,  avg # of iterations =  1.0

     negative rho (up, down):  8.512E-03 0.000E+00
 
     Adding external electric field

     Computed dipole along edir(3) : 
        Dipole               -1.5331 Ry au,         -3.8968 Debye
        Dipole field         -0.0029 Ry au, 
 
        Potential amp.        0.2682 Ry
        Total length         46.3494 bohr
 

     total cpu time spent up to now is      193.4 secs

     total energy              =   -2931.03441667 Ry
     estimated scf accuracy    <       5.18710901 Ry

     iteration # 11     ecut=    29.40 Ry     beta= 0.05
     Davidson diagonalization with overlap
     ethr =  1.33E-03,  avg # of iterations =  5.3

     negative rho (up, down):  8.652E-03 0.000E+00
 
     Adding external electric field

     Computed dipole along edir(3) : 
        Dipole               -1.4075 Ry au,         -3.5774 Debye
        Dipole field         -0.0027 Ry au, 
 
        Potential amp.        0.2462 Ry
        Total length         46.3494 bohr
 

     total cpu time spent up to now is      204.6 secs

     total energy              =   -2931.16812989 Ry
     estimated scf accuracy    <       0.73283330 Ry

     iteration # 12     ecut=    29.40 Ry     beta= 0.05
     Davidson diagonalization with overlap
     ethr =  1.87E-04,  avg # of iterations = 10.0

     negative rho (up, down):  8.625E-03 0.000E+00
 
     Adding external electric field

     Computed dipole along edir(3) : 
        Dipole               -1.0452 Ry au,         -2.6566 Debye
        Dipole field         -0.0020 Ry au, 
 
        Potential amp.        0.1828 Ry
        Total length         46.3494 bohr
 

     total cpu time spent up to now is      218.4 secs

     total energy              =   -2931.19516705 Ry
     estimated scf accuracy    <       4.05112290 Ry

     iteration # 13     ecut=    29.40 Ry     beta= 0.05
     Davidson diagonalization with overlap
     ethr =  1.87E-04,  avg # of iterations =  1.2

     negative rho (up, down):  9.099E-03 0.000E+00
 
     Adding external electric field

     Computed dipole along edir(3) : 
        Dipole               -0.1051 Ry au,         -0.2671 Debye
        Dipole field         -0.0002 Ry au, 
 
        Potential amp.        0.0184 Ry
        Total length         46.3494 bohr
 

     total cpu time spent up to now is      228.1 secs

     total energy              =   -2931.16902324 Ry
     estimated scf accuracy    <       0.55543692 Ry

     iteration # 14     ecut=    29.40 Ry     beta= 0.05
     Davidson diagonalization with overlap
     ethr =  1.42E-04,  avg # of iterations =  2.0

     negative rho (up, down):  9.909E-03 0.000E+00
 
     Adding external electric field

     Computed dipole along edir(3) : 
        Dipole                0.6006 Ry au,          1.5266 Debye
        Dipole field          0.0011 Ry au, 
 
        Potential amp.       -0.1051 Ry
        Total length         46.3494 bohr
 

     total cpu time spent up to now is      238.6 secs

     total energy              =   -2931.18732037 Ry
     estimated scf accuracy    <       0.11327845 Ry

     iteration # 15     ecut=    29.40 Ry     beta= 0.05
     Davidson diagonalization with overlap
     c_bands:  1 eigenvalues not converged
     c_bands:  3 eigenvalues not converged
     c_bands:  3 eigenvalues not converged
     c_bands:  3 eigenvalues not converged
     c_bands:  3 eigenvalues not converged
     c_bands:  4 eigenvalues not converged
     c_bands:  4 eigenvalues not converged
     c_bands:  3 eigenvalues not converged
     ethr =  2.90E-05,  avg # of iterations = 21.1

     negative rho (up, down):  9.799E-03 0.000E+00
 
     Adding external electric field

     Computed dipole along edir(3) : 
        Dipole                0.6424 Ry au,          1.6327 Debye
        Dipole field          0.0012 Ry au, 
 
        Potential amp.       -0.1124 Ry
        Total length         46.3494 bohr
 

     total cpu time spent up to now is      261.3 secs

     total energy              =   -2931.21762842 Ry
     estimated scf accuracy    <       0.08271198 Ry

     iteration # 16     ecut=    29.40 Ry     beta= 0.05
     Davidson diagonalization with overlap
     c_bands:  2 eigenvalues not converged
     c_bands:  2 eigenvalues not converged
     ethr =  2.12E-05,  avg # of iterations = 10.5

     negative rho (up, down):  1.052E-02 0.000E+00
 
     Adding external electric field

     Computed dipole along edir(3) : 
        Dipole                0.6101 Ry au,          1.5506 Debye
        Dipole field          0.0012 Ry au, 
 
        Potential amp.       -0.1067 Ry
        Total length         46.3494 bohr
 

     total cpu time spent up to now is      273.6 secs

     total energy              =   -2931.21029596 Ry
     estimated scf accuracy    <       0.09302542 Ry

     iteration # 17     ecut=    29.40 Ry     beta= 0.05
     Davidson diagonalization with overlap
     ethr =  2.12E-05,  avg # of iterations =  2.6

     negative rho (up, down):  1.233E-02 0.000E+00
 
     Adding external electric field

     Computed dipole along edir(3) : 
        Dipole                0.5589 Ry au,          1.4206 Debye
        Dipole field          0.0011 Ry au, 
 
        Potential amp.       -0.0978 Ry
        Total length         46.3494 bohr
 

     total cpu time spent up to now is      284.1 secs

     total energy              =   -2931.20851627 Ry
     estimated scf accuracy    <       0.05173982 Ry

     iteration # 18     ecut=    29.40 Ry     beta= 0.05
     Davidson diagonalization with overlap
     c_bands:  1 eigenvalues not converged
     c_bands:  1 eigenvalues not converged
     c_bands:  2 eigenvalues not converged
     c_bands:  1 eigenvalues not converged
     ethr =  1.32E-05,  avg # of iterations = 15.7

     negative rho (up, down):  1.172E-02 0.000E+00
 
     Adding external electric field

     Computed dipole along edir(3) : 
        Dipole                0.4855 Ry au,          1.2341 Debye
        Dipole field          0.0009 Ry au, 
 
        Potential amp.       -0.0849 Ry
        Total length         46.3494 bohr
 

     total cpu time spent up to now is      303.3 secs

     total energy              =   -2931.21654424 Ry
     estimated scf accuracy    <       0.04368174 Ry

     iteration # 19     ecut=    29.40 Ry     beta= 0.05
     Davidson diagonalization with overlap
     ethr =  1.12E-05,  avg # of iterations =  2.0

     negative rho (up, down):  1.189E-02 0.000E+00
 
     Adding external electric field

     Computed dipole along edir(3) : 
        Dipole                0.6766 Ry au,          1.7198 Debye
        Dipole field          0.0013 Ry au, 
 
        Potential amp.       -0.1184 Ry
        Total length         46.3494 bohr
 

     total cpu time spent up to now is      313.2 secs

     total energy              =   -2931.21447820 Ry
     estimated scf accuracy    <       0.04955828 Ry

     iteration # 20     ecut=    29.40 Ry     beta= 0.05
     Davidson diagonalization with overlap
     ethr =  1.12E-05,  avg # of iterations =  5.0

     negative rho (up, down):  1.167E-02 0.000E+00
 
     Adding external electric field

     Computed dipole along edir(3) : 
        Dipole                0.6548 Ry au,          1.6644 Debye
        Dipole field          0.0012 Ry au, 
 
        Potential amp.       -0.1146 Ry
        Total length         46.3494 bohr
 

     total cpu time spent up to now is      324.4 secs

     total energy              =   -2931.21603371 Ry
     estimated scf accuracy    <       0.03421108 Ry

     iteration # 21     ecut=    29.40 Ry     beta= 0.05
     Davidson diagonalization with overlap
     ethr =  8.75E-06,  avg # of iterations =  1.0

     negative rho (up, down):  1.154E-02 0.000E+00
 
     Adding external electric field

     Computed dipole along edir(3) : 
        Dipole                0.5403 Ry au,          1.3733 Debye
        Dipole field          0.0010 Ry au, 
 
        Potential amp.       -0.0945 Ry
        Total length         46.3494 bohr
 

     total cpu time spent up to now is      334.0 secs

     total energy              =   -2931.21517104 Ry
     estimated scf accuracy    <       0.03282393 Ry

     iteration # 22     ecut=    29.40 Ry     beta= 0.05
     Davidson diagonalization with overlap
     ethr =  8.39E-06,  avg # of iterations =  2.0

     negative rho (up, down):  1.183E-02 0.000E+00
 
     Adding external electric field

     Computed dipole along edir(3) : 
        Dipole                0.4582 Ry au,          1.1646 Debye
        Dipole field          0.0009 Ry au, 
 
        Potential amp.       -0.0802 Ry
        Total length         46.3494 bohr
 

     total cpu time spent up to now is      344.4 secs

     total energy              =   -2931.21237085 Ry
     estimated scf accuracy    <       0.03134174 Ry

     iteration # 23     ecut=    29.40 Ry     beta= 0.05
     Davidson diagonalization with overlap
     ethr =  8.02E-06,  avg # of iterations =  4.5

     negative rho (up, down):  1.377E-02 0.000E+00
 
     Adding external electric field

     Computed dipole along edir(3) : 
        Dipole                0.8271 Ry au,          2.1022 Debye
        Dipole field          0.0016 Ry au, 
 
        Potential amp.       -0.1447 Ry
        Total length         46.3494 bohr
 

     total cpu time spent up to now is      355.4 secs

     total energy              =   -2931.20780093 Ry
     estimated scf accuracy    <       0.02118436 Ry

     iteration # 24     ecut=    29.40 Ry     beta= 0.05
     Davidson diagonalization with overlap
     c_bands:  2 eigenvalues not converged
     c_bands:  2 eigenvalues not converged
     c_bands:  1 eigenvalues not converged
     c_bands:  3 eigenvalues not converged
     c_bands:  1 eigenvalues not converged
     c_bands:  1 eigenvalues not converged
     ethr =  5.42E-06,  avg # of iterations = 17.0

     negative rho (up, down):  1.415E-02 0.000E+00
 
     Adding external electric field

     Computed dipole along edir(3) : 
        Dipole                0.8101 Ry au,          2.0590 Debye
        Dipole field          0.0015 Ry au, 
 
        Potential amp.       -0.1417 Ry
        Total length         46.3494 bohr
 

     total cpu time spent up to now is      378.1 secs

     total energy              =   -2931.21528592 Ry
     estimated scf accuracy    <       0.03649417 Ry

     iteration # 25     ecut=    29.40 Ry     beta= 0.05
     Davidson diagonalization with overlap
     ethr =  5.42E-06,  avg # of iterations =  6.6

     negative rho (up, down):  1.368E-02 0.000E+00
 
     Adding external electric field

     Computed dipole along edir(3) : 
        Dipole                0.8162 Ry au,          2.0746 Debye
        Dipole field          0.0015 Ry au, 
 
        Potential amp.       -0.1428 Ry
        Total length         46.3494 bohr
 

     total cpu time spent up to now is      389.5 secs

     total energy              =   -2931.21652569 Ry
     estimated scf accuracy    <       0.02114864 Ry

     iteration # 26     ecut=    29.40 Ry     beta= 0.05
     Davidson diagonalization with overlap
     ethr =  5.41E-06,  avg # of iterations =  1.0

     negative rho (up, down):  1.304E-02 0.000E+00
 
     Adding external electric field

     Computed dipole along edir(3) : 
        Dipole                0.7231 Ry au,          1.8380 Debye
        Dipole field          0.0014 Ry au, 
 
        Potential amp.       -0.1265 Ry
        Total length         46.3494 bohr
 

     total cpu time spent up to now is      399.0 secs

     total energy              =   -2931.21215494 Ry
     estimated scf accuracy    <       0.02209268 Ry

     iteration # 27     ecut=    29.40 Ry     beta= 0.05
     Davidson diagonalization with overlap
     ethr =  5.41E-06,  avg # of iterations =  6.1

     negative rho (up, down):  1.390E-02 0.000E+00
 
     Adding external electric field

     Computed dipole along edir(3) : 
        Dipole                0.6441 Ry au,          1.6371 Debye
        Dipole field          0.0012 Ry au, 
 
        Potential amp.       -0.1127 Ry
        Total length         46.3494 bohr
 

     total cpu time spent up to now is      411.0 secs

     total energy              =   -2931.21261426 Ry
     estimated scf accuracy    <       0.00668584 Ry

     iteration # 28     ecut=    29.40 Ry     beta= 0.05
     Davidson diagonalization with overlap
     c_bands:  1 eigenvalues not converged
     c_bands:  2 eigenvalues not converged
     c_bands:  2 eigenvalues not converged
     c_bands:  2 eigenvalues not converged
     c_bands:  1 eigenvalues not converged
     ethr =  1.71E-06,  avg # of iterations = 17.8

     negative rho (up, down):  1.439E-02 0.000E+00
 
     Adding external electric field

     Computed dipole along edir(3) : 
        Dipole                0.7867 Ry au,          1.9997 Debye
        Dipole field          0.0015 Ry au, 
 
        Potential amp.       -0.1376 Ry
        Total length         46.3494 bohr
 

     total cpu time spent up to now is      432.1 secs

     total energy              =   -2931.21359444 Ry
     estimated scf accuracy    <       0.00722555 Ry

     iteration # 29     ecut=    29.40 Ry     beta= 0.05
     Davidson diagonalization with overlap
     c_bands:  1 eigenvalues not converged
     c_bands:  1 eigenvalues not converged
     ethr =  1.71E-06,  avg # of iterations = 13.1

     negative rho (up, down):  1.571E-02 0.000E+00
 
     Adding external electric field

     Computed dipole along edir(3) : 
        Dipole                0.7869 Ry au,          2.0001 Debye
        Dipole field          0.0015 Ry au, 
 
        Potential amp.       -0.1377 Ry
        Total length         46.3494 bohr
 

     total cpu time spent up to now is      449.9 secs

     total energy              =   -2931.21551771 Ry
     estimated scf accuracy    <       0.00414987 Ry

     iteration # 30     ecut=    29.40 Ry     beta= 0.05
     Davidson diagonalization with overlap
     c_bands:  1 eigenvalues not converged
     c_bands:  1 eigenvalues not converged
     ethr =  1.06E-06,  avg # of iterations =  7.7

     negative rho (up, down):  1.679E-02 0.000E+00
 
     Adding external electric field

     Computed dipole along edir(3) : 
        Dipole                0.7695 Ry au,          1.9558 Debye
        Dipole field          0.0015 Ry au, 
 
        Potential amp.       -0.1346 Ry
        Total length         46.3494 bohr
 

     total cpu time spent up to now is      462.0 secs

     total energy              =   -2931.21522989 Ry
     estimated scf accuracy    <       0.00368021 Ry

     iteration # 31     ecut=    29.40 Ry     beta= 0.05
     Davidson diagonalization with overlap
     ethr =  9.41E-07,  avg # of iterations =  5.0

     negative rho (up, down):  1.702E-02 0.000E+00
 
     Adding external electric field

     Computed dipole along edir(3) : 
        Dipole                0.7671 Ry au,          1.9497 Debye
        Dipole field          0.0014 Ry au, 
 
        Potential amp.       -0.1342 Ry
        Total length         46.3494 bohr
 

     total cpu time spent up to now is      473.6 secs

     total energy              =   -2931.21531548 Ry
     estimated scf accuracy    <       0.00137823 Ry

     iteration # 32     ecut=    29.40 Ry     beta= 0.05
     Davidson diagonalization with overlap
     ethr =  3.52E-07,  avg # of iterations =  6.0

     negative rho (up, down):  1.737E-02 0.000E+00
 
     Adding external electric field

     Computed dipole along edir(3) : 
        Dipole                0.7915 Ry au,          2.0119 Debye
        Dipole field          0.0015 Ry au, 
 
        Potential amp.       -0.1385 Ry
        Total length         46.3494 bohr
 

     total cpu time spent up to now is      486.5 secs

     total energy              =   -2931.21554603 Ry
     estimated scf accuracy    <       0.00064636 Ry

     iteration # 33     ecut=    29.40 Ry     beta= 0.05
     Davidson diagonalization with overlap
     ethr =  1.65E-07,  avg # of iterations =  5.1

     negative rho (up, down):  1.768E-02 0.000E+00
 
     Adding external electric field

     Computed dipole along edir(3) : 
        Dipole                0.7981 Ry au,          2.0286 Debye
        Dipole field          0.0015 Ry au, 
 
        Potential amp.       -0.1396 Ry
        Total length         46.3494 bohr
 

     total cpu time spent up to now is      498.1 secs

     total energy              =   -2931.21566861 Ry
     estimated scf accuracy    <       0.00033422 Ry

     iteration # 34     ecut=    29.40 Ry     beta= 0.05
     Davidson diagonalization with overlap
     ethr =  8.55E-08,  avg # of iterations =  5.5

     negative rho (up, down):  1.806E-02 0.000E+00
 
     Adding external electric field

     Computed dipole along edir(3) : 
        Dipole                0.7795 Ry au,          1.9812 Debye
        Dipole field          0.0015 Ry au, 
 
        Potential amp.       -0.1364 Ry
        Total length         46.3494 bohr
 

     total cpu time spent up to now is      510.0 secs

     total energy              =   -2931.21566885 Ry
     estimated scf accuracy    <       0.00028509 Ry

     iteration # 35     ecut=    29.40 Ry     beta= 0.05
     Davidson diagonalization with overlap
     ethr =  7.29E-08,  avg # of iterations =  4.7

     negative rho (up, down):  1.824E-02 0.000E+00
 
     Adding external electric field

     Computed dipole along edir(3) : 
        Dipole                0.7775 Ry au,          1.9762 Debye
        Dipole field          0.0015 Ry au, 
 
        Potential amp.       -0.1360 Ry
        Total length         46.3494 bohr
 

     total cpu time spent up to now is      523.3 secs

     total energy              =   -2931.21574409 Ry
     estimated scf accuracy    <       0.00011826 Ry

     iteration # 36     ecut=    29.40 Ry     beta= 0.05
     Davidson diagonalization with overlap
     ethr =  3.02E-08,  avg # of iterations =  6.1

     negative rho (up, down):  1.817E-02 0.000E+00
 
     Adding external electric field

     Computed dipole along edir(3) : 
        Dipole                0.7767 Ry au,          1.9741 Debye
        Dipole field          0.0015 Ry au, 
 
        Potential amp.       -0.1359 Ry
        Total length         46.3494 bohr
 

     total cpu time spent up to now is      537.8 secs

     total energy              =   -2931.21579443 Ry
     estimated scf accuracy    <       0.00012560 Ry

     iteration # 37     ecut=    29.40 Ry     beta= 0.05
     Davidson diagonalization with overlap
     ethr =  3.02E-08,  avg # of iterations =  2.6

     negative rho (up, down):  1.805E-02 0.000E+00
 
     Adding external electric field

     Computed dipole along edir(3) : 
        Dipole                0.7783 Ry au,          1.9782 Debye
        Dipole field          0.0015 Ry au, 
 
        Potential amp.       -0.1361 Ry
        Total length         46.3494 bohr
 

     total cpu time spent up to now is      548.4 secs

     total energy              =   -2931.21581123 Ry
     estimated scf accuracy    <       0.00009142 Ry

     iteration # 38     ecut=    29.40 Ry     beta= 0.05
     Davidson diagonalization with overlap
     ethr =  2.34E-08,  avg # of iterations =  6.0

     negative rho (up, down):  1.823E-02 0.000E+00
 
     Adding external electric field

     Computed dipole along edir(3) : 
        Dipole                0.7909 Ry au,          2.0103 Debye
        Dipole field          0.0015 Ry au, 
 
        Potential amp.       -0.1384 Ry
        Total length         46.3494 bohr
 

     total cpu time spent up to now is      563.2 secs

     total energy              =   -2931.21585968 Ry
     estimated scf accuracy    <       0.00006563 Ry

     iteration # 39     ecut=    29.40 Ry     beta= 0.05
     Davidson diagonalization with overlap
     ethr =  1.68E-08,  avg # of iterations =  5.9

     negative rho (up, down):  1.824E-02 0.000E+00
 
     Adding external electric field

     Computed dipole along edir(3) : 
        Dipole                0.7850 Ry au,          1.9953 Debye
        Dipole field          0.0015 Ry au, 
 
        Potential amp.       -0.1373 Ry
        Total length         46.3494 bohr
 

     total cpu time spent up to now is      576.1 secs

     total energy              =   -2931.21589772 Ry
     estimated scf accuracy    <       0.00003244 Ry

     iteration # 40     ecut=    29.40 Ry     beta= 0.05
     Davidson diagonalization with overlap
     ethr =  8.30E-09,  avg # of iterations =  5.9

     negative rho (up, down):  1.824E-02 0.000E+00
 
     Adding external electric field

     Computed dipole along edir(3) : 
        Dipole                0.7833 Ry au,          1.9909 Debye
        Dipole field          0.0015 Ry au, 
 
        Potential amp.       -0.1370 Ry
        Total length         46.3494 bohr
 

     total cpu time spent up to now is      588.4 secs

     total energy              =   -2931.21592748 Ry
     estimated scf accuracy    <       0.00002058 Ry

     iteration # 41     ecut=    29.40 Ry     beta= 0.05
     Davidson diagonalization with overlap
     ethr =  5.26E-09,  avg # of iterations =  5.0

     negative rho (up, down):  1.826E-02 0.000E+00
 
     Adding external electric field

     Computed dipole along edir(3) : 
        Dipole                0.7838 Ry au,          1.9923 Debye
        Dipole field          0.0015 Ry au, 
 
        Potential amp.       -0.1371 Ry
        Total length         46.3494 bohr
 

     total cpu time spent up to now is      599.6 secs

     total energy              =   -2931.21595368 Ry
     estimated scf accuracy    <       0.00001110 Ry

     iteration # 42     ecut=    29.40 Ry     beta= 0.05
     Davidson diagonalization with overlap
     ethr =  2.84E-09,  avg # of iterations =  6.0

     negative rho (up, down):  1.833E-02 0.000E+00
 
     Adding external electric field

     Computed dipole along edir(3) : 
        Dipole                0.7864 Ry au,          1.9988 Debye
        Dipole field          0.0015 Ry au, 
 
        Potential amp.       -0.1376 Ry
        Total length         46.3494 bohr
 

     total cpu time spent up to now is      611.7 secs

     total energy              =   -2931.21597865 Ry
     estimated scf accuracy    <       0.00000506 Ry

     iteration # 43     ecut=    29.40 Ry     beta= 0.05
     Davidson diagonalization with overlap
     ethr =  1.29E-09,  avg # of iterations =  4.8

     negative rho (up, down):  1.833E-02 0.000E+00
 
     Adding external electric field

     Computed dipole along edir(3) : 
        Dipole                0.7865 Ry au,          1.9992 Debye
        Dipole field          0.0015 Ry au, 
 
        Potential amp.       -0.1376 Ry
        Total length         46.3494 bohr
 

     total cpu time spent up to now is      624.7 secs

     total energy              =   -2931.21600041 Ry
     estimated scf accuracy    <       0.00000155 Ry

     iteration # 44     ecut=    29.40 Ry     beta= 0.05
     Davidson diagonalization with overlap
     ethr =  3.96E-10,  avg # of iterations =  5.2

     negative rho (up, down):  1.831E-02 0.000E+00
 
     Adding external electric field

     Computed dipole along edir(3) : 
        Dipole                0.7862 Ry au,          1.9982 Debye
        Dipole field          0.0015 Ry au, 
 
        Potential amp.       -0.1375 Ry
        Total length         46.3494 bohr
 

     total cpu time spent up to now is      637.3 secs

     total energy              =   -2931.21601922 Ry
     estimated scf accuracy    <       0.00000147 Ry

     iteration # 45     ecut=    29.40 Ry     beta= 0.05
     Davidson diagonalization with overlap
     ethr =  3.76E-10,  avg # of iterations =  2.3

     negative rho (up, down):  1.830E-02 0.000E+00
 
     Adding external electric field

     Computed dipole along edir(3) : 
        Dipole                0.7859 Ry au,          1.9976 Debye
        Dipole field          0.0015 Ry au, 
 
        Potential amp.       -0.1375 Ry
        Total length         46.3494 bohr
 

     total cpu time spent up to now is      647.8 secs

     total energy              =   -2931.21603646 Ry
     estimated scf accuracy    <       0.00000091 Ry

     iteration # 46     ecut=    29.40 Ry     beta= 0.05
     Davidson diagonalization with overlap
     ethr =  2.32E-10,  avg # of iterations =  7.2

     negative rho (up, down):  1.830E-02 0.000E+00
 
     Adding external electric field

     Computed dipole along edir(3) : 
        Dipole                0.7861 Ry au,          1.9980 Debye
        Dipole field          0.0015 Ry au, 
 
        Potential amp.       -0.1375 Ry
        Total length         46.3494 bohr
 

     total cpu time spent up to now is      664.3 secs

     total energy              =   -2931.21605173 Ry
     estimated scf accuracy    <       0.00000160 Ry

     iteration # 47     ecut=    29.40 Ry     beta= 0.05
     Davidson diagonalization with overlap
     ethr =  2.32E-10,  avg # of iterations =  5.1

     negative rho (up, down):  1.830E-02 0.000E+00
 
     Adding external electric field

     Computed dipole along edir(3) : 
        Dipole                0.7862 Ry au,          1.9984 Debye
        Dipole field          0.0015 Ry au, 
 
        Potential amp.       -0.1375 Ry
        Total length         46.3494 bohr
 

     total cpu time spent up to now is      676.9 secs

     total energy              =   -2931.21606575 Ry
     estimated scf accuracy    <       0.00000049 Ry

     iteration # 48     ecut=    29.40 Ry     beta= 0.05
     Davidson diagonalization with overlap
     ethr =  1.25E-10,  avg # of iterations =  5.0

     negative rho (up, down):  1.830E-02 0.000E+00
 
     Adding external electric field

     Computed dipole along edir(3) : 
        Dipole                0.7861 Ry au,          1.9982 Debye
        Dipole field          0.0015 Ry au, 
 
        Potential amp.       -0.1375 Ry
        Total length         46.3494 bohr
 

     total cpu time spent up to now is      693.5 secs

     total energy              =   -2931.21607828 Ry
     estimated scf accuracy    <       0.00000046 Ry

     iteration # 49     ecut=    29.40 Ry     beta= 0.05
     Davidson diagonalization with overlap
     ethr =  1.19E-10,  avg # of iterations =  4.3

     negative rho (up, down):  1.829E-02 0.000E+00
 
     Adding external electric field

     Computed dipole along edir(3) : 
        Dipole                0.7860 Ry au,          1.9977 Debye
        Dipole field          0.0015 Ry au, 
 
        Potential amp.       -0.1375 Ry
        Total length         46.3494 bohr
 

     total cpu time spent up to now is      705.0 secs

     total energy              =   -2931.21608963 Ry
     estimated scf accuracy    <       0.00000018 Ry

     iteration # 50     ecut=    29.40 Ry     beta= 0.05
     Davidson diagonalization with overlap
     ethr =  4.51E-11,  avg # of iterations =  5.0

     negative rho (up, down):  1.829E-02 0.000E+00
 
     Adding external electric field

     Computed dipole along edir(3) : 
        Dipole                0.7858 Ry au,          1.9972 Debye
        Dipole field          0.0015 Ry au, 
 
        Potential amp.       -0.1375 Ry
        Total length         46.3494 bohr
 

     total cpu time spent up to now is      720.6 secs

     total energy              =   -2931.21609990 Ry
     estimated scf accuracy    <       0.00000020 Ry

     iteration # 51     ecut=    29.40 Ry     beta= 0.05
     Davidson diagonalization with overlap
     ethr =  4.51E-11,  avg # of iterations =  2.6

     negative rho (up, down):  1.828E-02 0.000E+00
 
     Adding external electric field

     Computed dipole along edir(3) : 
        Dipole                0.7859 Ry au,          1.9975 Debye
        Dipole field          0.0015 Ry au, 
 
        Potential amp.       -0.1375 Ry
        Total length         46.3494 bohr
 

     total cpu time spent up to now is      731.8 secs

     total energy              =   -2931.21610908 Ry
     estimated scf accuracy    <       0.00000010 Ry

     iteration # 52     ecut=    29.40 Ry     beta= 0.05
     Davidson diagonalization with overlap
     ethr =  2.63E-11,  avg # of iterations =  6.2

     negative rho (up, down):  1.828E-02 0.000E+00
 
     Adding external electric field

     Computed dipole along edir(3) : 
        Dipole                0.7859 Ry au,          1.9976 Debye
        Dipole field          0.0015 Ry au, 
 
        Potential amp.       -0.1375 Ry
        Total length         46.3494 bohr
 

     total cpu time spent up to now is      747.7 secs

     total energy              =   -2931.21611737 Ry
     estimated scf accuracy    <       0.00000009 Ry

     iteration # 53     ecut=    29.40 Ry     beta= 0.05
     Davidson diagonalization with overlap
     ethr =  2.38E-11,  avg # of iterations =  1.1

     negative rho (up, down):  1.827E-02 0.000E+00
 
     Adding external electric field

     Computed dipole along edir(3) : 
        Dipole                0.7859 Ry au,          1.9977 Debye
        Dipole field          0.0015 Ry au, 
 
        Potential amp.       -0.1375 Ry
        Total length         46.3494 bohr
 

     total cpu time spent up to now is      757.3 secs

     total energy              =   -2931.21612483 Ry
     estimated scf accuracy    <       0.00000010 Ry

     iteration # 54     ecut=    29.40 Ry     beta= 0.05
     Davidson diagonalization with overlap
     ethr =  2.38E-11,  avg # of iterations =  2.2

     negative rho (up, down):  1.826E-02 0.000E+00
 
     Adding external electric field

     Computed dipole along edir(3) : 
        Dipole                0.7859 Ry au,          1.9975 Debye
        Dipole field          0.0015 Ry au, 
 
        Potential amp.       -0.1375 Ry
        Total length         46.3494 bohr
 

     total cpu time spent up to now is      768.0 secs

     End of self-consistent calculation

          k = 0.0000 0.0000 0.0000 ( 18029 PWs)   bands (ev):

   -56.2780 -56.2443 -55.9076 -55.8880 -55.8691 -55.7087 -55.6574 -55.6504
   -55.6163 -55.5711 -55.5674 -55.5357 -55.0502 -55.0278 -55.0162 -54.9684
   -32.7049 -32.5262 -32.4980 -32.4691 -32.4436 -32.3780 -32.3318 -32.3004
   -32.2081 -32.1407 -32.1335 -32.1307 -32.1182 -32.1135 -32.0896 -32.0764
   -32.0725 -32.0645 -32.0293 -31.9251 -31.9038 -31.8937 -31.8877 -31.8821
   -31.8760 -31.8632 -31.8214 -31.8079 -31.7967 -31.7873 -31.7660 -31.7501
   -31.7460 -31.7347 -31.7289 -31.6749 -31.5637 -31.4496 -31.3775 -31.3536
   -31.2969 -31.2679 -31.2639 -31.2601 -31.1829 -31.1691 -31.0710 -31.0376
   -19.1831 -16.5788 -16.4286 -16.1900 -16.0548 -15.9604 -15.7847 -15.6424
   -15.6150 -15.5216 -15.5173 -15.4320 -15.4231 -15.3810 -15.3742 -15.3709
   -15.3536 -15.3240 -15.2846 -15.2752 -15.2681 -15.2369 -15.1756 -15.0833
   -15.0556 -15.0091 -14.9053 -14.8934 -14.8607 -14.6834 -13.5441 -13.4307
    -7.5496  -7.0335  -4.0225  -3.9380  -3.8202  -3.7796  -3.6888  -3.5699
    -3.3508  -3.3471  -3.0736  -3.0372  -2.9827  -2.9555  -2.9416  -2.8751
    -2.8014  -2.7580  -2.7196  -2.7005  -2.6820  -2.6587  -2.6539  -2.5877
    -2.5465  -2.4902  -2.4790  -2.4605  -2.3742  -2.3047  -2.2496  -2.2205
    -2.2136  -2.1741  -2.0967  -2.0787  -2.0659  -2.0128  -1.8985  -1.8140
    -1.7427  -1.7149  -1.6447  -1.6121  -1.5334  -1.4327  -1.3862  -1.3078
    -1.2900  -1.2856  -1.2231  -1.2055  -1.1293  -1.0393  -0.9801  -0.9277
    -0.8383  -0.8164  -0.7887  -0.7409  -0.7240  -0.6863  -0.6578  -0.6199
    -0.5671  -0.5563  -0.4718  -0.3234  -0.3069  -0.2819  -0.2659  -0.2243
    -0.1896  -0.1293  -0.1065  -0.0581  -0.0380   0.0057   0.0182   0.0572
     0.0859   0.1450   0.2616   0.2820   0.3004   0.3760   0.4898   0.5360
     0.5889   0.6912   0.7035   0.9050   0.9287   0.9772   1.1921   1.2334
     1.5623   1.6350   1.8889   2.6350   2.9940   3.1774   3.4669   3.4821
     3.5151   3.5877   3.7152   3.7492   3.8160

          k = 0.0000 0.0419 0.0000 ( 17933 PWs)   bands (ev):

   -56.2731 -56.2491 -55.9029 -55.8871 -55.8737 -55.7094 -55.6556 -55.6454
   -55.6212 -55.5692 -55.5658 -55.5406 -55.0451 -55.0252 -55.0211 -54.9708
   -32.6516 -32.5220 -32.5017 -32.4558 -32.3912 -32.3876 -32.3869 -32.2515
   -32.1950 -32.1354 -32.1213 -32.1116 -32.1073 -32.0878 -32.0826 -32.0753
   -32.0690 -32.0625 -32.0203 -31.9343 -31.9100 -31.9088 -31.8894 -31.8832
   -31.8721 -31.8663 -31.8291 -31.8223 -31.8161 -31.7976 -31.7919 -31.7871
   -31.7467 -31.7429 -31.7411 -31.7322 -31.5199 -31.3960 -31.3738 -31.3569
   -31.2947 -31.2804 -31.2624 -31.2555 -31.1952 -31.1785 -31.1279 -31.0578
   -19.1828 -16.4448 -16.3072 -16.0790 -15.9475 -15.8684 -15.7531 -15.7083
   -15.6592 -15.5830 -15.5385 -15.4691 -15.4249 -15.3942 -15.3734 -15.3489
   -15.3340 -15.3132 -15.2963 -15.2826 -15.2700 -15.2259 -15.2165 -15.1101
   -15.0782 -15.0614 -14.9603 -14.9597 -14.9172 -14.7491 -13.5496 -13.4709
    -7.5529  -7.0336  -3.8386  -3.7707  -3.6717  -3.6171  -3.5614  -3.4808
    -3.1794  -3.1357  -3.0489  -3.0253  -2.9298  -2.9162  -2.9045  -2.8481
    -2.8252  -2.7998  -2.7732  -2.7242  -2.7082  -2.6701  -2.6557  -2.6370
    -2.6159  -2.5932  -2.5473  -2.5368  -2.4306  -2.4261  -2.4130  -2.3989
    -2.3051  -2.2753  -2.2143  -2.1619  -2.0494  -1.9778  -1.8912  -1.8344
    -1.6781  -1.6445  -1.6194  -1.5612  -1.5212  -1.3629  -1.2659  -1.2471
    -1.1682  -1.1244  -1.0518  -1.0391  -1.0089  -0.9670  -0.9343  -0.9109
    -0.8564  -0.8264  -0.8045  -0.7540  -0.7272  -0.6955  -0.6873  -0.6550
    -0.6134  -0.5191  -0.4939  -0.4543  -0.4344  -0.4075  -0.3495  -0.2910
    -0.2133  -0.1716  -0.1516  -0.1058  -0.0470  -0.0185   0.0046   0.0251
     0.0378   0.0901   0.1489   0.2165   0.2846   0.3362   0.4005   0.4160
     0.5144   0.5295   0.5686   0.6278   0.8294   1.0944   1.1828   1.2672
     1.4980   1.5491   1.9625   2.5210   3.2616   3.2946   3.4723   3.4846
     3.5640   3.7195   3.7363   3.7476   3.8036

          k = 0.0000-0.0839 0.0000 ( 17884 PWs)   bands (ev):

   -56.2626 -56.2595 -55.8956 -55.8863 -55.8808 -55.7102 -55.6538 -55.6348
   -55.6318 -55.5708 -55.5555 -55.5509 -55.0331 -55.0331 -55.0224 -54.9736
   -32.5225 -32.5198 -32.5134 -32.5098 -32.4248 -32.4222 -32.2584 -32.2390
   -32.1758 -32.1675 -32.1523 -32.1054 -32.1030 -32.0958 -32.0837 -32.0593
   -32.0152 -31.9814 -31.9562 -31.9545 -31.9143 -31.9041 -31.8894 -31.8849
   -31.8814 -31.8725 -31.8719 -31.8710 -31.8645 -31.8596 -31.8087 -31.8003
   -31.7708 -31.7657 -31.7441 -31.7405 -31.4531 -31.3651 -31.3651 -31.3258
   -31.2920 -31.2646 -31.2640 -31.2637 -31.2255 -31.2253 -31.1842 -31.0770
   -19.1826 -16.1383 -16.0798 -16.0167 -15.9821 -15.8323 -15.8144 -15.7153
   -15.6658 -15.6205 -15.5916 -15.5220 -15.4624 -15.4398 -15.4395 -15.3876
   -15.3605 -15.2576 -15.2276 -15.1980 -15.1888 -15.1879 -15.1830 -15.1363
   -15.1156 -15.0953 -15.0900 -15.0408 -15.0392 -14.8341 -13.5335 -13.5335
    -7.5561  -7.0338  -3.6423  -3.3769  -3.3751  -3.3530  -3.2515  -3.2462
    -3.2093  -3.1818  -3.1785  -3.1686  -3.0740  -2.9602  -2.9440  -2.9401
    -2.9146  -2.9105  -2.8825  -2.8066  -2.7926  -2.6868  -2.6774  -2.6512
    -2.6335  -2.5694  -2.5504  -2.5228  -2.4828  -2.4500  -2.3777  -2.2821
    -2.2733  -2.2321  -2.1908  -1.9472  -1.9107  -1.8670  -1.8488  -1.8394
    -1.7023  -1.6597  -1.6189  -1.5069  -1.4640  -1.4530  -1.4019  -1.3947
    -1.3681  -1.3276  -1.2561  -1.2031  -1.1154  -1.0562  -1.0480  -0.9253
    -0.8676  -0.7231  -0.6216  -0.5864  -0.5668  -0.5238  -0.4944  -0.4632
    -0.4468  -0.4232  -0.4177  -0.3973  -0.3828  -0.3748  -0.3527  -0.2776
    -0.2659  -0.2603  -0.2229  -0.1939  -0.1874  -0.1605  -0.1562  -0.0896
    -0.0539  -0.0367   0.0021   0.0251   0.1384   0.2053   0.2745   0.3097
     0.3264   0.4025   0.6566   0.7798   0.8463   0.8502   1.3214   1.3244
     1.4541   1.4557   2.0676   2.3933   3.4802   3.4817   3.5717   3.5905
     3.6313   3.6320   3.6908   3.6925   3.7020

          k = 0.0380 0.0000 0.0000 ( 17913 PWs)   bands (ev):

   -56.2779 -56.2442 -55.9075 -55.8879 -55.8689 -55.7086 -55.6573 -55.6503
   -55.6162 -55.5710 -55.5673 -55.5355 -55.0501 -55.0277 -55.0161 -54.9683
   -32.7056 -32.5260 -32.4979 -32.4669 -32.4436 -32.3777 -32.3315 -32.3012
   -32.2080 -32.1481 -32.1436 -32.1302 -32.1143 -32.1067 -32.0898 -32.0768
   -32.0722 -32.0494 -32.0290 -31.9104 -31.9030 -31.8954 -31.8931 -31.8819
   -31.8765 -31.8631 -31.8212 -31.8050 -31.7966 -31.7876 -31.7699 -31.7582
   -31.7462 -31.7344 -31.7288 -31.6749 -31.5632 -31.4492 -31.3801 -31.3517
   -31.2990 -31.2677 -31.2636 -31.2591 -31.1828 -31.1689 -31.0708 -31.0375
   -19.1828 -16.5047 -16.3270 -16.0998 -15.9972 -15.9494 -15.8003 -15.7927
   -15.6878 -15.5515 -15.5280 -15.5246 -15.4669 -15.4522 -15.4378 -15.3663
   -15.3498 -15.3244 -15.2883 -15.2737 -15.2273 -15.1184 -15.1095 -15.0878
   -15.0623 -15.0151 -14.9767 -14.8947 -14.8552 -14.6821 -13.5411 -13.4304
    -7.5464  -7.0275  -3.8843  -3.7317  -3.6313  -3.5667  -3.5312  -3.4477
    -3.3425  -3.3320  -3.2887  -3.2057  -3.0470  -3.0225  -2.9798  -2.9371
    -2.8457  -2.7726  -2.7305  -2.7038  -2.6509  -2.6032  -2.5394  -2.5169
    -2.4818  -2.4555  -2.4215  -2.3821  -2.3745  -2.3190  -2.1815  -2.1627
    -2.1338  -2.0777  -2.0601  -1.9742  -1.9090  -1.8582  -1.8230  -1.7859
    -1.7279  -1.7155  -1.6968  -1.6107  -1.5536  -1.5080  -1.4381  -1.3810
    -1.3527  -1.3228  -1.2520  -1.2146  -1.1716  -1.1662  -1.1159  -1.0883
    -0.9948  -0.9212  -0.8234  -0.8110  -0.6926  -0.6621  -0.6233  -0.6138
    -0.5830  -0.5265  -0.4855  -0.4043  -0.3368  -0.3180  -0.2878  -0.2738
    -0.1960  -0.1748  -0.1410  -0.1076  -0.0827  -0.0571  -0.0262  -0.0041
     0.0395   0.1695   0.2161   0.2736   0.2858   0.3202   0.4131   0.4330
     0.4429   0.5237   0.7216   0.8200   0.9369   0.9891   1.1023   1.1644
     1.4449   1.5343   1.8972   2.5089   3.1779   3.1978   3.5086   3.5847
     3.6556   3.6931   3.7009   3.7104   3.7556

          k = 0.0380 0.0419 0.0000 ( 17878 PWs)   bands (ev):

   -56.2730 -56.2491 -55.9028 -55.8871 -55.8736 -55.7094 -55.6556 -55.6453
   -55.6212 -55.5691 -55.5658 -55.5406 -55.0450 -55.0252 -55.0211 -54.9708
   -32.6523 -32.5218 -32.5018 -32.4540 -32.3909 -32.3876 -32.3870 -32.2522
   -32.1948 -32.1352 -32.1214 -32.1103 -32.1085 -32.0994 -32.0902 -32.0762
   -32.0627 -32.0418 -32.0209 -31.9345 -31.9078 -31.8971 -31.8894 -31.8886
   -31.8729 -31.8663 -31.8246 -31.8224 -31.8163 -31.7987 -31.7918 -31.7869
   -31.7567 -31.7460 -31.7411 -31.7318 -31.5195 -31.3957 -31.3758 -31.3559
   -31.2962 -31.2803 -31.2621 -31.2553 -31.1953 -31.1784 -31.1278 -31.0577
   -19.1826 -16.3774 -16.2118 -15.9951 -15.8987 -15.8466 -15.7925 -15.7445
   -15.6964 -15.6156 -15.5344 -15.4999 -15.4753 -15.4257 -15.4115 -15.3780
   -15.3608 -15.3336 -15.3146 -15.3030 -15.2921 -15.1663 -15.1411 -15.1187
   -15.1021 -15.0644 -15.0226 -14.9625 -14.9113 -14.7484 -13.5475 -13.4712
    -7.5510  -7.0284  -3.7394  -3.5740  -3.5475  -3.3974  -3.3733  -3.2929
    -3.1683  -3.1410  -3.1245  -3.0340  -2.9976  -2.8801  -2.8623  -2.8338
    -2.8007  -2.7548  -2.7317  -2.7163  -2.6951  -2.6886  -2.6586  -2.6083
    -2.5822  -2.5703  -2.5234  -2.4677  -2.4308  -2.3985  -2.3687  -2.3391
    -2.2402  -2.2058  -2.1352  -2.1194  -2.0015  -1.9799  -1.9007  -1.7829
    -1.7134  -1.6795  -1.6238  -1.5186  -1.4327  -1.3527  -1.3257  -1.3069
    -1.2253  -1.1945  -1.1447  -1.1243  -1.1158  -1.0641  -1.0230  -0.9946
    -0.9747  -0.8918  -0.8578  -0.8146  -0.8062  -0.7644  -0.7340  -0.7227
    -0.6726  -0.6348  -0.6121  -0.5611  -0.5019  -0.4825  -0.4669  -0.3866
    -0.3245  -0.2914  -0.2385  -0.2049  -0.1617  -0.1299  -0.0458   0.0124
     0.0683   0.1293   0.2206   0.2852   0.3204   0.3696   0.3897   0.4360
     0.4801   0.5039   0.5827   0.5982   0.8125   1.0453   1.1977   1.2741
     1.4204   1.5120   1.9775   2.4989   3.2823   3.4400   3.5130   3.5661
     3.6168   3.6898   3.7235   3.7958   3.8068

          k = 0.0380-0.0839 0.0000 ( 17916 PWs)   bands (ev):

   -56.2626 -56.2595 -55.8956 -55.8863 -55.8808 -55.7102 -55.6538 -55.6347
   -55.6318 -55.5709 -55.5556 -55.5510 -55.0331 -55.0331 -55.0224 -54.9736
   -32.5231 -32.5204 -32.5134 -32.5098 -32.4239 -32.4214 -32.2585 -32.2392
   -32.1765 -32.1676 -32.1523 -32.1047 -32.1031 -32.0958 -32.0843 -32.0593
   -32.0160 -31.9758 -31.9602 -31.9584 -31.9132 -31.9032 -31.8915 -31.8870
   -31.8822 -31.8719 -31.8673 -31.8631 -31.8581 -31.8548 -31.8097 -31.8030
   -31.7708 -31.7656 -31.7518 -31.7479 -31.4531 -31.3658 -31.3658 -31.3256
   -31.2926 -31.2654 -31.2639 -31.2636 -31.2255 -31.2254 -31.1842 -31.0771
   -19.1824 -16.1000 -16.0265 -15.9506 -15.9201 -15.7814 -15.7606 -15.6748
   -15.6180 -15.6115 -15.6037 -15.5482 -15.5387 -15.5059 -15.4698 -15.3753
   -15.3533 -15.3401 -15.3130 -15.2633 -15.2583 -15.1862 -15.1797 -15.1383
   -15.1363 -15.0982 -15.0842 -15.0355 -15.0337 -14.8316 -13.5334 -13.5333
    -7.5555  -7.0293  -3.6343  -3.3503  -3.1847  -3.1632  -3.1405  -3.0644
    -3.0492  -3.0272  -3.0172  -2.9885  -2.9477  -2.8957  -2.8822  -2.8469
    -2.8324  -2.8062  -2.7949  -2.7751  -2.7569  -2.6655  -2.6565  -2.6257
    -2.6068  -2.5964  -2.5694  -2.5290  -2.5008  -2.4322  -2.4128  -2.3550
    -2.2938  -2.0242  -2.0021  -1.9469  -1.9202  -1.8824  -1.8538  -1.8242
    -1.7533  -1.7356  -1.6987  -1.6741  -1.6348  -1.5872  -1.5545  -1.4935
    -1.4534  -1.3895  -1.3670  -1.3209  -1.1885  -1.0247  -0.9938  -0.9412
    -0.8819  -0.8219  -0.7997  -0.7638  -0.7309  -0.7011  -0.6791  -0.6751
    -0.6049  -0.5993  -0.5708  -0.5652  -0.5479  -0.5105  -0.4969  -0.4595
    -0.4146  -0.4026  -0.3731  -0.3389  -0.2984  -0.1524  -0.1094   0.0016
     0.0284   0.0806   0.1479   0.2260   0.3133   0.3241   0.3390   0.4066
     0.4154   0.4349   0.6754   0.7364   0.8281   0.8349   1.3373   1.3400
     1.4400   1.4413   2.0855   2.4647   3.4748   3.4758   3.5728   3.6036
     3.6456   3.6529   3.6835   3.7160   3.8596

          k = 0.0380-0.0419 0.0000 ( 17876 PWs)   bands (ev):

   -56.2730 -56.2491 -55.9028 -55.8871 -55.8736 -55.7094 -55.6556 -55.6453
   -55.6212 -55.5691 -55.5657 -55.5406 -55.0450 -55.0252 -55.0211 -54.9708
   -32.6523 -32.5218 -32.5018 -32.4540 -32.3909 -32.3876 -32.3870 -32.2522
   -32.1948 -32.1352 -32.1212 -32.1109 -32.1087 -32.0988 -32.0901 -32.0762
   -32.0627 -32.0418 -32.0209 -31.9345 -31.9078 -31.8972 -31.8895 -31.8886
   -31.8729 -31.8663 -31.8243 -31.8225 -31.8163 -31.7988 -31.7919 -31.7868
   -31.7568 -31.7459 -31.7411 -31.7318 -31.5195 -31.3957 -31.3758 -31.3559
   -31.2961 -31.2804 -31.2621 -31.2553 -31.1953 -31.1784 -31.1278 -31.0577
   -19.1826 -16.3776 -16.2116 -15.9949 -15.8987 -15.8467 -15.7932 -15.7446
   -15.6961 -15.6155 -15.5344 -15.4991 -15.4752 -15.4252 -15.4125 -15.3780
   -15.3605 -15.3333 -15.3147 -15.3043 -15.2914 -15.1667 -15.1404 -15.1194
   -15.1012 -15.0646 -15.0227 -14.9626 -14.9113 -14.7483 -13.5475 -13.4712
    -7.5510  -7.0284  -3.7388  -3.5734  -3.5471  -3.3998  -3.3740  -3.2940
    -3.1722  -3.1564  -3.1096  -3.0317  -2.9914  -2.8821  -2.8588  -2.8301
    -2.8010  -2.7571  -2.7379  -2.7203  -2.6957  -2.6907  -2.6521  -2.6071
    -2.5815  -2.5723  -2.5266  -2.4661  -2.4362  -2.3978  -2.3724  -2.3425
    -2.2456  -2.2051  -2.1317  -2.1222  -2.0013  -1.9825  -1.8876  -1.8021
    -1.7013  -1.6766  -1.6095  -1.5184  -1.4265  -1.3589  -1.3239  -1.3161
    -1.2193  -1.1871  -1.1434  -1.1251  -1.1132  -1.0573  -1.0227  -0.9857
    -0.9715  -0.8881  -0.8511  -0.8132  -0.8044  -0.7611  -0.7362  -0.7103
    -0.6842  -0.6465  -0.6035  -0.5496  -0.5073  -0.4998  -0.4589  -0.4088
    -0.3300  -0.3082  -0.2232  -0.1889  -0.1632  -0.1496  -0.0416   0.0024
     0.0681   0.1202   0.2284   0.2896   0.3216   0.3578   0.3883   0.4314
     0.4890   0.5078   0.5825   0.5974   0.8115   1.0446   1.1978   1.2749
     1.4202   1.5127   1.9753   2.4972   3.2823   3.4407   3.5122   3.5659
     3.6195   3.6828   3.7368   3.7908   3.7973

          k =-0.0760-0.0000 0.0000 ( 17886 PWs)   bands (ev):

   -56.2779 -56.2442 -55.9074 -55.8879 -55.8689 -55.7085 -55.6573 -55.6501
   -55.6162 -55.5710 -55.5673 -55.5355 -55.0500 -55.0277 -55.0161 -54.9682
   -32.7064 -32.5259 -32.4978 -32.4647 -32.4438 -32.3780 -32.3315 -32.3021
   -32.2078 -32.1589 -32.1466 -32.1300 -32.1124 -32.0974 -32.0897 -32.0774
   -32.0721 -32.0382 -32.0289 -31.9044 -31.9025 -31.8934 -31.8916 -31.8819
   -31.8766 -31.8630 -31.8211 -31.8028 -31.7965 -31.7883 -31.7851 -31.7616
   -31.7446 -31.7345 -31.7287 -31.6752 -31.5627 -31.4489 -31.3826 -31.3506
   -31.3013 -31.2676 -31.2634 -31.2584 -31.1827 -31.1689 -31.0709 -31.0374
   -19.1825 -16.4103 -16.1614 -16.0105 -16.0025 -15.8998 -15.8835 -15.7884
   -15.7172 -15.6335 -15.6154 -15.6018 -15.5468 -15.5301 -15.5090 -15.3571
   -15.3134 -15.3130 -15.2893 -15.2637 -15.1779 -15.1634 -15.1248 -15.0722
   -15.0389 -15.0368 -14.9279 -14.8965 -14.8531 -14.6814 -13.5382 -13.4301
    -7.5434  -7.0216  -3.8680  -3.6041  -3.4375  -3.4050  -3.3648  -3.3487
    -3.3319  -3.2374  -3.2073  -3.1736  -3.1010  -3.0561  -2.9831  -2.9177
    -2.8242  -2.7674  -2.6795  -2.6381  -2.6101  -2.5290  -2.4856  -2.4568
    -2.4203  -2.4155  -2.3803  -2.3078  -2.2308  -2.2188  -2.1843  -2.1426
    -2.1056  -2.0895  -2.0790  -2.0460  -2.0355  -1.9808  -1.9747  -1.7110
    -1.6852  -1.6744  -1.6170  -1.6043  -1.5866  -1.5594  -1.5119  -1.4688
    -1.3371  -1.3268  -1.3147  -1.2876  -1.2592  -1.2212  -1.1413  -1.1230
    -1.1063  -1.0612  -1.0157  -0.8885  -0.7257  -0.6331  -0.6271  -0.5838
    -0.5617  -0.5484  -0.5202  -0.4830  -0.4303  -0.4205  -0.3877  -0.3171
    -0.2953  -0.2683  -0.1764  -0.1463  -0.1200  -0.1066  -0.0567  -0.0315
     0.0276   0.1441   0.1989   0.2514   0.2716   0.3005   0.3653   0.4644
     0.5656   0.6568   0.6682   0.7349   0.8590   0.9750   1.0114   1.1429
     1.3039   1.4488   1.9019   2.4020   3.1902   3.3253   3.3334   3.4971
     3.5109   3.6069   3.6869   3.7816   3.8484

          k =-0.0760 0.0419 0.0000 ( 17914 PWs)   bands (ev):

   -56.2730 -56.2491 -55.9028 -55.8871 -55.8737 -55.7094 -55.6556 -55.6452
   -55.6212 -55.5692 -55.5658 -55.5407 -55.0451 -55.0252 -55.0211 -54.9708
   -32.6532 -32.5218 -32.5018 -32.4524 -32.3909 -32.3879 -32.3872 -32.2532
   -32.1949 -32.1351 -32.1234 -32.1196 -32.1081 -32.0941 -32.0922 -32.0766
   -32.0628 -32.0277 -32.0217 -31.9349 -31.9071 -31.8964 -31.8893 -31.8797
   -31.8733 -31.8664 -31.8304 -31.8172 -31.8151 -31.8003 -31.7920 -31.7868
   -31.7682 -31.7487 -31.7411 -31.7320 -31.5193 -31.3955 -31.3780 -31.3552
   -31.2979 -31.2804 -31.2621 -31.2553 -31.1953 -31.1784 -31.1279 -31.0578
   -19.1824 -16.2939 -16.0402 -15.9266 -15.8926 -15.8455 -15.8138 -15.7484
   -15.6993 -15.6263 -15.5863 -15.5770 -15.5178 -15.4925 -15.4808 -15.4034
   -15.3787 -15.3356 -15.3127 -15.3015 -15.2688 -15.2249 -15.1425 -15.1219
   -15.0822 -15.0498 -15.0246 -14.9707 -14.9088 -14.7481 -13.5455 -13.4715
    -7.5493  -7.0233  -3.7304  -3.5540  -3.2522  -3.1810  -3.1434  -3.1255
    -3.0611  -3.0164  -3.0010  -2.9746  -2.9445  -2.9136  -2.8767  -2.8200
    -2.7920  -2.7811  -2.7485  -2.7404  -2.6631  -2.6073  -2.5828  -2.5749
    -2.5672  -2.5561  -2.5249  -2.5124  -2.4258  -2.3567  -2.3060  -2.2541
    -2.1822  -2.1562  -2.0093  -1.9639  -1.9440  -1.9121  -1.8971  -1.8828
    -1.8445  -1.6659  -1.5966  -1.5080  -1.4814  -1.4348  -1.3913  -1.3606
    -1.3255  -1.2822  -1.2417  -1.2078  -1.1861  -1.1623  -1.1389  -1.1046
    -1.0930  -1.0479  -1.0214  -0.9819  -0.8994  -0.8822  -0.8561  -0.7884
    -0.7392  -0.7057  -0.6695  -0.6369  -0.6116  -0.5850  -0.5643  -0.5208
    -0.4895  -0.3510  -0.3308  -0.2643  -0.2320  -0.1609  -0.0763   0.0314
     0.0684   0.2232   0.2405   0.2762   0.3685   0.3810   0.4631   0.5250
     0.5428   0.6095   0.6166   0.6952   0.7579   0.8864   1.2148   1.2799
     1.3517   1.4852   1.9908   2.4863   3.2726   3.4011   3.4938   3.5197
     3.5768   3.6030   3.6856   3.8105   3.8241

          k =-0.0760-0.0839 0.0000 ( 17948 PWs)   bands (ev):

   -56.2627 -56.2595 -55.8956 -55.8864 -55.8809 -55.7103 -55.6539 -55.6347
   -55.6318 -55.5709 -55.5556 -55.5510 -55.0331 -55.0331 -55.0224 -54.9736
   -32.5238 -32.5211 -32.5135 -32.5098 -32.4231 -32.4205 -32.2587 -32.2395
   -32.1772 -32.1677 -32.1525 -32.1040 -32.1031 -32.0962 -32.0843 -32.0593
   -32.0169 -31.9700 -31.9635 -31.9617 -31.9120 -31.9021 -31.8930 -31.8884
   -31.8824 -31.8720 -31.8700 -31.8619 -31.8451 -31.8424 -31.8118 -31.8045
   -31.7706 -31.7655 -31.7614 -31.7569 -31.4531 -31.3665 -31.3665 -31.3255
   -31.2933 -31.2663 -31.2639 -31.2636 -31.2255 -31.2254 -31.1842 -31.0771
   -19.1822 -16.0569 -15.9570 -15.8159 -15.7820 -15.7444 -15.7434 -15.6975
   -15.6632 -15.6344 -15.6301 -15.5418 -15.5122 -15.4871 -15.4823 -15.4168
   -15.4099 -15.4038 -15.4002 -15.3304 -15.3248 -15.2270 -15.2181 -15.1371
   -15.1299 -15.0948 -15.0763 -15.0328 -15.0304 -14.8295 -13.5332 -13.5331
    -7.5549  -7.0249  -3.6312  -3.3500  -3.1554  -3.0265  -2.9849  -2.8971
    -2.8717  -2.8624  -2.8619  -2.7988  -2.7548  -2.7438  -2.7035  -2.6774
    -2.6711  -2.6488  -2.6446  -2.6134  -2.6115  -2.6061  -2.6038  -2.5904
    -2.5548  -2.5067  -2.5040  -2.4917  -2.4847  -2.4358  -2.3670  -2.3301
    -2.2563  -2.1624  -2.1613  -2.0888  -2.0534  -1.9788  -1.9696  -1.9647
    -1.9459  -1.9190  -1.7809  -1.6741  -1.6488  -1.6339  -1.5810  -1.5728
    -1.5207  -1.3264  -1.3099  -1.2509  -1.1830  -1.1600  -1.1206  -1.1076
    -1.0485  -1.0444  -1.0242  -0.9885  -0.9792  -0.9348  -0.9070  -0.8196
    -0.7969  -0.7692  -0.7493  -0.6806  -0.6545  -0.6117  -0.5749  -0.5476
    -0.5295  -0.5045  -0.4343  -0.3913  -0.3262  -0.2822  -0.2171   0.0247
     0.0324   0.2221   0.2983   0.3880   0.4539   0.4741   0.4883   0.5504
     0.6193   0.6260   0.6419   0.6631   0.7376   0.7423   1.3633   1.3658
     1.4166   1.4171   2.1040   2.5282   3.5390   3.5437   3.5587   3.5794
     3.5875   3.6326   3.6484   3.6818   3.9623

     the Fermi energy is     2.4968 ev

!    total energy              =   -2931.21619351 Ry
     estimated scf accuracy    <       0.00000004 Ry
     smearing contrib. (-TS)   =      -0.01053786 Ry
     internal energy E=F+TS    =   -2931.20565564 Ry

     The total energy is F=E-TS. E is the sum of the following terms:
     one-electron contribution =  -24525.72570043 Ry
     hartree contribution      =   12349.34345742 Ry
     xc contribution           =    -481.84166497 Ry
     ewald contribution        =    9727.01708690 Ry
     electric field correction =       0.00116544 Ry

     convergence has been achieved in  54 iterations

     Forces acting on atoms (cartesian axes, Ry/au):

     atom    1 type  1   force =     0.00017142   -0.00009065    0.14780879
     atom    2 type  1   force =     0.00001166    0.00055816   -0.16852642
     atom    3 type  2   force =     0.00012275    0.00257643   -0.06041889
     atom    4 type  2   force =    -0.00023230   -0.00139605    0.04034644
     atom    5 type  2   force =    -0.02184112    0.00008935    0.00384838
     atom    6 type  2   force =     0.02068747   -0.00004000    0.00305669
     atom    7 type  1   force =     0.00105499    0.00043807    0.00002656
     atom    8 type  1   force =    -0.00060264    0.00111843   -0.00046100
     atom    9 type  2   force =    -0.00007470    0.00015489   -0.00039430
     atom   10 type  2   force =     0.00022728   -0.00015690    0.00047995
     atom   11 type  2   force =     0.00009074   -0.00023161    0.00009359
     atom   12 type  2   force =    -0.00026067   -0.00027265   -0.00006733
     atom   13 type  1   force =     0.00016145   -0.00045956   -0.00054526
     atom   14 type  1   force =     0.00022641   -0.00026076    0.00056822
     atom   15 type  2   force =     0.00005358   -0.00021085    0.00023082
     atom   16 type  2   force =    -0.00003170    0.00011677   -0.00007766
     atom   17 type  2   force =    -0.00013037    0.00016138   -0.00041302
     atom   18 type  2   force =    -0.00038045   -0.00012488   -0.00000379
     atom   19 type  1   force =     0.00053667    0.00089969   -0.00005406
     atom   20 type  1   force =    -0.00047341   -0.00062983    0.00112357
     atom   21 type  2   force =     0.00009065   -0.00009945    0.10203658
     atom   22 type  2   force =     0.00006427    0.00036163   -0.00016444
     atom   23 type  2   force =    -0.07528252    0.00018029   -0.03470925
     atom   24 type  2   force =     0.07530708    0.00061873   -0.03479996
     atom   25 type  1   force =    -0.00002931   -0.00011710    0.14835398
     atom   26 type  1   force =     0.00006300   -0.00187129   -0.16844595
     atom   27 type  2   force =     0.00016157    0.00246385   -0.05952913
     atom   28 type  2   force =    -0.00017071   -0.00144555    0.04095197
     atom   29 type  2   force =    -0.02194717    0.00144571    0.00421065
     atom   30 type  2   force =     0.02064607    0.00072989    0.00339324
     atom   31 type  1   force =     0.00110158   -0.00045320    0.00004609
     atom   32 type  1   force =    -0.00066330   -0.00067293   -0.00041730
     atom   33 type  2   force =     0.00011290   -0.00014194   -0.00062170
     atom   34 type  2   force =     0.00021814    0.00062533   -0.00051305
     atom   35 type  2   force =    -0.00016252    0.00015801   -0.00015936
     atom   36 type  2   force =     0.00054589   -0.00031099   -0.00012791
     atom   37 type  1   force =     0.00006969    0.00047657    0.00008772
     atom   38 type  1   force =    -0.00006864    0.00035810    0.00044609
     atom   39 type  2   force =     0.00001404   -0.00059314    0.00050984
     atom   40 type  2   force =    -0.00006158   -0.00043362    0.00042164
     atom   41 type  2   force =    -0.00059048   -0.00093234   -0.00024474
     atom   42 type  2   force =     0.00037130   -0.00061517    0.00008748
     atom   43 type  1   force =     0.00091864   -0.00103841    0.00005616
     atom   44 type  1   force =    -0.00060770   -0.00024349    0.00006205
     atom   45 type  2   force =     0.00008389   -0.00009046    0.10198330
     atom   46 type  2   force =    -0.07530068    0.00010192   -0.03471976
     atom   47 type  2   force =     0.07533133    0.00054281   -0.03482111
     atom   48 type  3   force =     0.00001363   -0.00085949   -0.00042520
     atom   49 type  4   force =     0.00027218   -0.00015230    0.00025539
     atom   50 type  2   force =    -0.01279010   -0.00547006    0.00450275
     atom   51 type  4   force =    -0.00070473   -0.00125404    0.00078514
     atom   52 type  4   force =     0.01367652    0.00649268   -0.00511249

     Total force =     0.402295     Total SCF correction =     0.000654
  @ DRIVER MODE: Message from server: STATUS
  @ DRIVER MODE: Message from server: GETFORCE
  @ DRIVER MODE: Returning v,forces,stress,ensemble 

     Writing output data file ./calc.save/
  @ DRIVER MODE: Message from server: EXIT
  @ DRIVE MODE: Exiting  
 
     init_run     :     10.48s CPU     10.69s WALL (       1 calls)
     electrons    :    745.63s CPU    757.08s WALL (       1 calls)
     forces       :      2.18s CPU      2.26s WALL (       1 calls)

     Called by init_run:
     wfcinit      :      4.64s CPU      4.71s WALL (       1 calls)
     potinit      :      5.28s CPU      5.34s WALL (       1 calls)
     hinit0       :      0.24s CPU      0.25s WALL (       1 calls)

     Called by electrons:
     c_bands      :    623.99s CPU    628.49s WALL (      54 calls)
     sum_band     :     82.61s CPU     85.42s WALL (      54 calls)
     v_of_rho     :     31.37s CPU     32.85s WALL (      55 calls)
     newd         :     11.33s CPU     14.02s WALL (      55 calls)
     mix_rho      :      1.11s CPU      1.12s WALL (      54 calls)
     vdW_kernel   :      4.54s CPU      4.56s WALL (       1 calls)

     Called by c_bands:
     init_us_2    :      4.75s CPU      4.77s WALL (    1100 calls)
     cegterg      :    609.74s CPU    614.02s WALL (     541 calls)

     Called by *egterg:
     cdiaghg      :     90.24s CPU     90.64s WALL (    4157 calls)
     h_psi        :    339.53s CPU    342.60s WALL (    4167 calls)
     s_psi        :     43.00s CPU     43.13s WALL (    4167 calls)
     g_psi        :      1.20s CPU      1.21s WALL (    3616 calls)

     Called by h_psi:
     h_psi:calbec :     41.12s CPU     41.33s WALL (    4167 calls)
     vloc_psi     :    253.09s CPU    255.54s WALL (    4167 calls)
     add_vuspsi   :     43.08s CPU     43.31s WALL (    4167 calls)

     General routines
     calbec       :     56.12s CPU     56.39s WALL (    4747 calls)
     fft          :     15.45s CPU     15.58s WALL (    3465 calls)
     ffts         :      0.09s CPU      0.10s WALL (     109 calls)
     fftw         :    286.96s CPU    289.67s WALL (  685614 calls)
     interpolate  :      0.31s CPU      0.32s WALL (      55 calls)
     davcio       :      0.00s CPU      0.19s WALL (      10 calls)
 
     Parallel routines
 
     PWSCF        :  12m38.50s CPU  12m50.64s WALL

 
   This run was terminated on:  21:42:32  15Sep2021            

=------------------------------------------------------------------------------=
   JOB DONE.
=------------------------------------------------------------------------------=
