
     Program PWSCF v.6.7GPU starts on 23Aug2021 at 18: 5:32 

     This program is part of the open-source Quantum ESPRESSO suite
     for quantum simulation of materials; please cite
         "P. Giannozzi et al., J. Phys.:Condens. Matter 21 395502 (2009);
         "P. Giannozzi et al., J. Phys.:Condens. Matter 29 465901 (2017);
         "P. Giannozzi et al., J. Chem. Phys. 152 154105 (2020);
          URL http://www.quantum-espresso.org", 
     in publications or presentations arising from this work. More details at
     http://www.quantum-espresso.org/quote

     Parallel version (MPI), running on     6 processors

     MPI processes distributed on     1 nodes
     R & G space division:  proc/nbgrp/npool/nimage =       6
     Reading input from /storage/home/hcoda1/3/ntian30/research/carbon/CH_vib/ads_slab/CHNNHH_a/out_0010/pw.inp
Warning: card &CELL ignored
Warning: card   CELL_DYNAMICS='IPI', ignored
Warning: card / ignored

     Current dimensions of program PWSCF are:
     Max number of different atomic species (ntypx) = 10
     Max number of k-points (npk) =  40000
     Max angular momentum in pseudopotentials (lmaxx) =  3
     Presently no symmetry can be used with electric field

     Message from routine cell_base_init:
     DEPRECATED: use true lattice parameter, not A to a.u. conversion factor

     **************************************************************************
     Initializing libbeef V0.1.2 with the BEEF-vdW functional.
     Citation: Wellendorff et al., PRB 85, 235149 (2012).
     **************************************************************************


     IMPORTANT: XC functional enforced from input :
     Exchange-correlation= BEEF-VDW
                           (   1   4  43  14   2   0   0)
     Any further DFT definition will be discarded
     Please, verify this is what you really want


     Subspace diagonalization in iterative solution of the eigenvalue problem:
     one sub-group per band group will be used
     scalapack distributed-memory algorithm (size of sub-group:  2*  2 procs)

  @ DRIVER MODE: Connecting to 
 qe_1139763_2632796.sched-torque.pace.gatech.edup43lt52q_scratch
  using UNIX socket
  @ DRIVER MODE: Message from server: STATUS
  @ DRIVER MODE: Message from server: INIT
  @ DRIVER MODE: Receiving replica           0          -1
  @ DRIVER MODE: Receiving encoded integer          25
  @ DRIVER MODE:  SCF:  T  FORCE:  T  STRESS:  F  VC:  F  ENSEMBLE:  F
  @ DRIVER MODE:  SCF:  T  FORCE:  T  STRESS:  F  VC:  F  ENSEMBLE:  F
 
     Parallelization info
     --------------------
     sticks:   dense  smooth     PW     G-vecs:    dense   smooth      PW
     Min         545     219     63                94473    23902    3663
     Max         546     222     64                94484    23905    3665
     Sum        3275    1317    379               566857   143421   21985
 
     Using Slab Decomposition
 


     bravais-lattice index     =            0
     lattice parameter (alat)  =       1.8897  a.u.
     unit-cell volume          =    6658.9804 (a.u.)^3
     number of atoms/cell      =           53
     number of atomic types    =            5
     number of electrons       =       395.00
     number of Kohn-Sham states=          207
     kinetic-energy cutoff     =      29.3995  Ry
     charge density cutoff     =     293.9946  Ry
     scf convergence threshold =      7.3E-08
     mixing beta               =       0.0500
     number of iterations used =            8  plain     mixing
     Exchange-correlation= BEEF-VDW
                           (   1   4  43  14   2   0   0)

     celldm(1)=   1.889726  celldm(2)=   0.000000  celldm(3)=   0.000000
     celldm(4)=   0.000000  celldm(5)=   0.000000  celldm(6)=   0.000000

     crystal axes: (cart. coord. in units of alat)
               a(1) = (   6.579727   0.000000   0.000000 )  
               a(2) = (  -0.000775   5.961596   0.000000 )  
               a(3) = (   0.000000   0.000000  25.155947 )  

     reciprocal axes: (cart. coord. in units 2 pi/alat)
               b(1) = (  0.151982  0.000020  0.000000 )  
               b(2) = (  0.000000  0.167740  0.000000 )  
               b(3) = (  0.000000  0.000000  0.039752 )  


     PseudoPot. # 1 for Ti read from file:
     /storage/coda1/p-amedford6/0/shared/rich_project_chbe-medford/medford-share/data/pseudos_module/espresso/nninc/pbe/van/Ti.UPF
     MD5 check sum: 8e4df49b7f0d34bbd5052bf3f5ea0213
     Pseudo is Ultrasoft, Zval = 12.0
     Generated by new atomic code, or converted to UPF format
     Using radial grid of  851 points,  6 beta functions with: 
                l(1) =   0
                l(2) =   0
                l(3) =   1
                l(4) =   1
                l(5) =   2
                l(6) =   2
     Q(r) pseudized with  8 coefficients,  rinner =    1.000   1.000   1.000
                                                       1.000   1.000

     PseudoPot. # 2 for O  read from file:
     /storage/coda1/p-amedford6/0/shared/rich_project_chbe-medford/medford-share/data/pseudos_module/espresso/nninc/pbe/van/O.UPF
     MD5 check sum: 78c19812648e8988a0fe644b0f25305e
     Pseudo is Ultrasoft, Zval =  6.0
     Generated by new atomic code, or converted to UPF format
     Using radial grid of  737 points,  4 beta functions with: 
                l(1) =   0
                l(2) =   0
                l(3) =   1
                l(4) =   1
     Q(r) pseudized with  8 coefficients,  rinner =    0.800   0.800   0.800


     PseudoPot. # 3 for N  read from file:
     /storage/coda1/p-amedford6/0/shared/rich_project_chbe-medford/medford-share/data/pseudos_module/espresso/nninc/pbe/van/N.UPF
     MD5 check sum: 90d10febe142ad51ac9d5be1deb811c4
     Pseudo is Ultrasoft, Zval =  5.0
     Generated by new atomic code, or converted to UPF format
     Using radial grid of  729 points,  4 beta functions with: 
                l(1) =   0
                l(2) =   0
                l(3) =   1
                l(4) =   1
     Q(r) pseudized with  8 coefficients,  rinner =    0.800   0.800   0.800


     PseudoPot. # 4 for C  read from file:
     /storage/coda1/p-amedford6/0/shared/rich_project_chbe-medford/medford-share/data/pseudos_module/espresso/nninc/pbe/van/C.UPF
     MD5 check sum: 1a69bf6b8db32088f5b2163dbdb77a27
     Pseudo is Ultrasoft, Zval =  4.0
     Generated by new atomic code, or converted to UPF format
     Using radial grid of  721 points,  4 beta functions with: 
                l(1) =   0
                l(2) =   0
                l(3) =   1
                l(4) =   1
     Q(r) pseudized with  8 coefficients,  rinner =    0.800   0.800   0.800


     PseudoPot. # 5 for H  read from file:
     /storage/coda1/p-amedford6/0/shared/rich_project_chbe-medford/medford-share/data/pseudos_module/espresso/nninc/pbe/van/H.UPF
     MD5 check sum: b5ee9d7bfd3a09ee7748110bda690ff7
     Pseudo is Ultrasoft, Zval =  1.0
     Generated by new atomic code, or converted to UPF format
     Using radial grid of  615 points,  1 beta functions with: 
                l(1) =   0
     Q(r) pseudized with  8 coefficients,  rinner =    0.800

     atomic species   valence    mass     pseudopotential
        Ti1           12.00    47.86700     Ti( 1.00)
        O1             6.00    15.99900     O ( 1.00)
        N1             5.00    14.00700     N ( 1.00)
        C1             4.00    12.01100     C ( 1.00)
        H1             1.00     1.00800     H ( 1.00)

     No symmetry found



   Cartesian axes

     site n.     atom                  positions (alat units)
         1           Ti1 tau(   1) = (   0.0004258   2.9801865   6.0000000  )
         2           Ti1 tau(   2) = (   3.2906075   1.4906267   6.0002472  )
         3           O1  tau(   3) = (   0.0006271   0.0005054   7.9858123  )
         4           O1  tau(   4) = (   3.2906025   0.0005020   7.3038282  )
         5           O1  tau(   5) = (   4.5942328   1.4918067   9.2879030  )
         6           O1  tau(   6) = (   1.9868534   1.4903216   9.2879459  )
         7           Ti1 tau(   7) = (   3.2907910   2.8959150   9.1758416  )
         8           Ti1 tau(   8) = (   0.0015273   1.4827037   9.2680791  )
         9           O1  tau(   9) = (   3.2912281   5.9459940  11.3193265  )
        10           O1  tau(  10) = (   0.0116148   5.9584955  10.6183126  )
        11           O1  tau(  11) = (   1.3103257   1.4650607  12.6442557  )
        12           O1  tau(  12) = (   5.3047449   1.4806448  12.6312737  )
        13           Ti1 tau(  13) = (   6.5337005   3.0128982  12.6900614  )
        14           Ti1 tau(  14) = (   3.2207025   1.4698770  12.4715817  )
        15           O1  tau(  15) = (   6.5518216   5.9146589  14.6704082  )
        16           O1  tau(  16) = (   3.3240203   5.9583723  13.8895330  )
        17           O1  tau(  17) = (   4.5456974   1.5225049  16.1264218  )
        18           O1  tau(  18) = (   2.0489736   1.4727210  15.9535721  )
        19           Ti1 tau(  19) = (   3.2591190   2.9927146  15.6788090  )
        20           Ti1 tau(  20) = (   0.0289511   1.3544711  15.7732889  )
        21           O1  tau(  21) = (   3.2904802   0.0005063   4.7018136  )
        22           O1  tau(  22) = (   0.0559926   0.0451390  17.2112278  )
        23           O1  tau(  23) = (   1.3043587   1.4918075   6.0039043  )
        24           O1  tau(  24) = (   5.2767064   1.4903225   6.0039473  )
        25           Ti1 tau(  25) = (   0.0000382   5.9609847   6.0000000  )
        26           Ti1 tau(  26) = (   3.2902200   4.4714249   6.0002472  )
        27           O1  tau(  27) = (   0.0002396   2.9813036   7.9858123  )
        28           O1  tau(  28) = (   3.2902150   2.9813002   7.3038282  )
        29           O1  tau(  29) = (   4.5938453   4.4726049   9.2879030  )
        30           O1  tau(  30) = (   1.9864658   4.4711199   9.2879459  )
        31           Ti1 tau(  31) = (   3.2891106   5.8743827   9.1763621  )
        32           Ti1 tau(  32) = (   0.0006254   4.4649316   9.2693709  )
        33           O1  tau(  33) = (   3.2889932   2.9698301  11.3211337  )
        34           O1  tau(  34) = (   0.0092240   2.9805883  10.6323155  )
        35           O1  tau(  35) = (   1.3069247   4.4567274  12.6410950  )
        36           O1  tau(  36) = (   5.3013738   4.4587240  12.6283471  )
        37           Ti1 tau(  37) = (   6.5339814   0.0202798  12.5235249  )
        38           Ti1 tau(  38) = (   3.2191325   4.4512509  12.4750946  )
        39           O1  tau(  39) = (   6.5688456   2.9522374  14.7547250  )
        40           O1  tau(  40) = (   3.3031296   2.9710333  13.8824388  )
        41           O1  tau(  41) = (   4.5425837   4.4734130  15.9989242  )
        42           O1  tau(  42) = (   2.0771424   4.4889556  16.0364895  )
        43           Ti1 tau(  43) = (   3.3121389   0.0026565  15.6888161  )
        44           Ti1 tau(  44) = (   6.5128106   4.4989306  16.3061806  )
        45           O1  tau(  45) = (   3.2900926   2.9813045   4.7018136  )
        46           O1  tau(  46) = (   1.3039711   4.4726057   6.0039043  )
        47           O1  tau(  47) = (   5.2763189   4.4711207   6.0039473  )
        48           N1  tau(  48) = (   0.4628824   2.9849886  17.7976856  )
        49           C1  tau(  49) = (   1.4182946   2.9618240  18.6700831  )
        50           H1  tau(  50) = (   2.3503500   2.6458988  18.1556329  )
        51           N1  tau(  51) = (   5.7893717   3.5482605  18.2279111  )
        52           H1  tau(  52) = (   5.8942619   4.0012392  19.1365464  )
        53           H1  tau(  53) = (   5.0734348   2.8266848  18.2415795  )

     number of k points=    10  Fermi-Dirac smearing, width (Ry)=  0.0073
                       cart. coord. in units 2pi/alat
        k(    1) = (   0.0000000   0.0000000   0.0000000), wk =   0.1250000
        k(    2) = (   0.0000000   0.0419351   0.0000000), wk =   0.2500000
        k(    3) = (   0.0000000  -0.0838702   0.0000000), wk =   0.1250000
        k(    4) = (   0.0379955   0.0000049   0.0000000), wk =   0.2500000
        k(    5) = (   0.0379955   0.0419400   0.0000000), wk =   0.2500000
        k(    6) = (   0.0379955  -0.0838652   0.0000000), wk =   0.2500000
        k(    7) = (   0.0379955  -0.0419301   0.0000000), wk =   0.2500000
        k(    8) = (  -0.0759910  -0.0000099   0.0000000), wk =   0.1250000
        k(    9) = (  -0.0759910   0.0419252   0.0000000), wk =   0.2500000
        k(   10) = (  -0.0759910  -0.0838800   0.0000000), wk =   0.1250000

     Dense  grid:   566857 G-vectors     FFT dimensions: (  72,  64, 270)

     Smooth grid:   143421 G-vectors     FFT dimensions: (  45,  40, 180)

     Estimated max dynamical RAM per process >     600.99 MB

     Estimated total dynamical RAM >       3.52 GB
     Cannot read rho : file not found

     Initial potential from superposition of free atoms

     starting charge  378.99916, renormalised to  395.00000

     negative rho (up, down):  1.775E-02 0.000E+00


     %%%%%%%%%%%%%%%%%%%%%%%%%%%%%%%%%%%%%%%%%%%%%%%%%%%%%%%%%%%%%%%%%%%%%%%%
     %                                                                      %
     % You are using vdW-DF, which was implemented by the Thonhauser group. %
     % Please cite the following two papers that made this development      %
     % possible and the two reviews that describe the various versions:     %
     %                                                                      %
     %   T. Thonhauser et al., PRL 115, 136402 (2015).                      %
     %   T. Thonhauser et al., PRB 76, 125112 (2007).                       %
     %   K. Berland et al., Rep. Prog. Phys. 78, 066501 (2015).             %
     %   D.C. Langreth et al., J. Phys.: Condens. Matter 21, 084203 (2009). %
     %                                                                      %
     %                                                                      %
     % If you are calculating the stress with vdW-DF, please also cite:     %
     %                                                                      %
     %   R. Sabatini et al., J. Phys.: Condens. Matter 24, 424209 (2012).   %
     %                                                                      %
     %%%%%%%%%%%%%%%%%%%%%%%%%%%%%%%%%%%%%%%%%%%%%%%%%%%%%%%%%%%%%%%%%%%%%%%%


 
     Adding external electric field

     Computed dipole along edir(3) : 
        Dipole               -8.0620 Ry au,        -20.4914 Debye
        Dipole field         -0.0152 Ry au, 
 
        Potential amp.        1.4103 Ry
        Total length         46.3494 bohr
 
     Starting wfcs are  299 atomic wfcs
  @ DRIVER MODE: Message from server: STATUS
  @ DRIVER MODE: Message from server: POSDATA
  @ DRIVER MODE: Reading and sharing cell 
  @ DRIVER MODE: Reading and sharing positions 
  @ DRIVER MODE: Received positions 

     total cpu time spent up to now is       19.0 secs

     Self-consistent Calculation

     iteration #  1     ecut=    29.40 Ry     beta= 0.05
     Davidson diagonalization with overlap
     c_bands:  1 eigenvalues not converged
     c_bands:  1 eigenvalues not converged
     c_bands:  2 eigenvalues not converged
     c_bands:  3 eigenvalues not converged
     c_bands:  3 eigenvalues not converged
     c_bands:  2 eigenvalues not converged
     c_bands:  1 eigenvalues not converged
     ethr =  1.00E-05,  avg # of iterations = 19.3

     negative rho (up, down):  1.562E-02 0.000E+00
 
     Adding external electric field

     Computed dipole along edir(3) : 
        Dipole               38.2044 Ry au,         97.1059 Debye
        Dipole field          0.0721 Ry au, 
 
        Potential amp.       -6.6833 Ry
        Total length         46.3494 bohr
 

     total cpu time spent up to now is       85.8 secs

     total energy              =   -2614.87290849 Ry
     estimated scf accuracy    <    3583.89704321 Ry

     iteration #  2     ecut=    29.40 Ry     beta= 0.05
     Davidson diagonalization with overlap
     c_bands:  5 eigenvalues not converged
     c_bands:  5 eigenvalues not converged
     c_bands:  5 eigenvalues not converged
     c_bands:  5 eigenvalues not converged
     ethr =  1.00E-02,  avg # of iterations = 20.9

     negative rho (up, down):  5.539E-03 0.000E+00
 
     Adding external electric field

     Computed dipole along edir(3) : 
        Dipole               -2.5296 Ry au,         -6.4296 Debye
        Dipole field         -0.0048 Ry au, 
 
        Potential amp.        0.4425 Ry
        Total length         46.3494 bohr
 

     total cpu time spent up to now is      197.6 secs

     total energy              =   -2464.44748625 Ry
     estimated scf accuracy    <   63328.58603953 Ry

     iteration #  3     ecut=    29.40 Ry     beta= 0.05
     Davidson diagonalization with overlap
     ethr =  1.00E-02,  avg # of iterations = 14.8

     negative rho (up, down):  5.598E-03 0.000E+00
 
     Adding external electric field

     Computed dipole along edir(3) : 
        Dipole               -4.5015 Ry au,        -11.4417 Debye
        Dipole field         -0.0085 Ry au, 
 
        Potential amp.        0.7875 Ry
        Total length         46.3494 bohr
 

     total cpu time spent up to now is      273.6 secs

     total energy              =   -2917.99310976 Ry
     estimated scf accuracy    <    3742.77422747 Ry

     iteration #  4     ecut=    29.40 Ry     beta= 0.05
     Davidson diagonalization with overlap
     c_bands:  3 eigenvalues not converged
     ethr =  1.00E-02,  avg # of iterations = 15.4

     negative rho (up, down):  5.632E-03 0.000E+00
 
     Adding external electric field

     Computed dipole along edir(3) : 
        Dipole               -5.4193 Ry au,        -13.7746 Debye
        Dipole field         -0.0102 Ry au, 
 
        Potential amp.        0.9480 Ry
        Total length         46.3494 bohr
 

     total cpu time spent up to now is      307.7 secs

     total energy              =   -2931.09453954 Ry
     estimated scf accuracy    <     635.12144795 Ry

     iteration #  5     ecut=    29.40 Ry     beta= 0.05
     Davidson diagonalization with overlap
     c_bands:  3 eigenvalues not converged
     ethr =  1.00E-02,  avg # of iterations =  7.6

     negative rho (up, down):  5.627E-03 0.000E+00
 
     Adding external electric field

     Computed dipole along edir(3) : 
        Dipole               -5.8773 Ry au,        -14.9385 Debye
        Dipole field         -0.0111 Ry au, 
 
        Potential amp.        1.0281 Ry
        Total length         46.3494 bohr
 

     total cpu time spent up to now is      330.1 secs

     total energy              =   -2932.42493505 Ry
     estimated scf accuracy    <     260.83708403 Ry

     iteration #  6     ecut=    29.40 Ry     beta= 0.05
     Davidson diagonalization with overlap
     ethr =  1.00E-02,  avg # of iterations =  4.8

     negative rho (up, down):  5.684E-03 0.000E+00
 
     Adding external electric field

     Computed dipole along edir(3) : 
        Dipole               -6.1083 Ry au,        -15.5257 Debye
        Dipole field         -0.0115 Ry au, 
 
        Potential amp.        1.0686 Ry
        Total length         46.3494 bohr
 

     total cpu time spent up to now is      350.9 secs

     total energy              =   -2932.08822398 Ry
     estimated scf accuracy    <     189.72989077 Ry

     iteration #  7     ecut=    29.40 Ry     beta= 0.05
     Davidson diagonalization with overlap
     c_bands:  1 eigenvalues not converged
     c_bands:  1 eigenvalues not converged
     ethr =  1.00E-02,  avg # of iterations = 12.6

     negative rho (up, down):  5.206E-03 0.000E+00
 
     Adding external electric field

     Computed dipole along edir(3) : 
        Dipole               -5.5243 Ry au,        -14.0414 Debye
        Dipole field         -0.0104 Ry au, 
 
        Potential amp.        0.9664 Ry
        Total length         46.3494 bohr
 

     total cpu time spent up to now is      378.7 secs

     total energy              =   -2941.21180303 Ry
     estimated scf accuracy    <      25.78392823 Ry

     iteration #  8     ecut=    29.40 Ry     beta= 0.05
     Davidson diagonalization with overlap
     ethr =  6.53E-03,  avg # of iterations =  1.4

     negative rho (up, down):  4.642E-03 0.000E+00
 
     Adding external electric field

     Computed dipole along edir(3) : 
        Dipole               -2.0646 Ry au,         -5.2476 Debye
        Dipole field         -0.0039 Ry au, 
 
        Potential amp.        0.3612 Ry
        Total length         46.3494 bohr
 

     total cpu time spent up to now is      396.9 secs

     total energy              =   -2939.06933779 Ry
     estimated scf accuracy    <      23.04347847 Ry

     iteration #  9     ecut=    29.40 Ry     beta= 0.05
     Davidson diagonalization with overlap
     ethr =  5.83E-03,  avg # of iterations = 10.4

     negative rho (up, down):  4.331E-03 0.000E+00
 
     Adding external electric field

     Computed dipole along edir(3) : 
        Dipole               -1.0419 Ry au,         -2.6483 Debye
        Dipole field         -0.0020 Ry au, 
 
        Potential amp.        0.1823 Ry
        Total length         46.3494 bohr
 

     total cpu time spent up to now is      421.4 secs

     total energy              =   -2948.12125709 Ry
     estimated scf accuracy    <     243.94232878 Ry

     iteration # 10     ecut=    29.40 Ry     beta= 0.05
     Davidson diagonalization with overlap
     ethr =  5.83E-03,  avg # of iterations =  2.2

     negative rho (up, down):  3.221E-03 0.000E+00
 
     Adding external electric field

     Computed dipole along edir(3) : 
        Dipole                1.4657 Ry au,          3.7254 Debye
        Dipole field          0.0028 Ry au, 
 
        Potential amp.       -0.2564 Ry
        Total length         46.3494 bohr
 

     total cpu time spent up to now is      440.1 secs

     total energy              =   -2953.38554432 Ry
     estimated scf accuracy    <     584.10518870 Ry

     iteration # 11     ecut=    29.40 Ry     beta= 0.05
     Davidson diagonalization with overlap
     c_bands:  1 eigenvalues not converged
     ethr =  5.83E-03,  avg # of iterations = 17.1

     negative rho (up, down):  3.306E-03 0.000E+00
 
     Adding external electric field

     Computed dipole along edir(3) : 
        Dipole                0.2864 Ry au,          0.7280 Debye
        Dipole field          0.0005 Ry au, 
 
        Potential amp.       -0.0501 Ry
        Total length         46.3494 bohr
 

     total cpu time spent up to now is      472.8 secs

     total energy              =   -2943.63898434 Ry
     estimated scf accuracy    <    1719.72851646 Ry

     iteration # 12     ecut=    29.40 Ry     beta= 0.05
     Davidson diagonalization with overlap
     ethr =  5.83E-03,  avg # of iterations =  1.3

     negative rho (up, down):  3.711E-03 0.000E+00
 
     Adding external electric field

     Computed dipole along edir(3) : 
        Dipole               -3.5443 Ry au,         -9.0088 Debye
        Dipole field         -0.0067 Ry au, 
 
        Potential amp.        0.6200 Ry
        Total length         46.3494 bohr
 

     total cpu time spent up to now is      490.6 secs

     total energy              =   -2913.04317261 Ry
     estimated scf accuracy    <    1428.04668500 Ry

     iteration # 13     ecut=    29.40 Ry     beta= 0.05
     Davidson diagonalization with overlap
     ethr =  5.83E-03,  avg # of iterations = 10.9

     negative rho (up, down):  3.604E-03 0.000E+00
 
     Adding external electric field

     Computed dipole along edir(3) : 
        Dipole               -1.9983 Ry au,         -5.0792 Debye
        Dipole field         -0.0038 Ry au, 
 
        Potential amp.        0.3496 Ry
        Total length         46.3494 bohr
 

     total cpu time spent up to now is      533.1 secs

     total energy              =   -2936.27475738 Ry
     estimated scf accuracy    <      85.90440517 Ry

     iteration # 14     ecut=    29.40 Ry     beta= 0.05
     Davidson diagonalization with overlap
     ethr =  5.83E-03,  avg # of iterations =  2.6

     negative rho (up, down):  3.799E-03 0.000E+00
 
     Adding external electric field

     Computed dipole along edir(3) : 
        Dipole               -2.7044 Ry au,         -6.8738 Debye
        Dipole field         -0.0051 Ry au, 
 
        Potential amp.        0.4731 Ry
        Total length         46.3494 bohr
 

     total cpu time spent up to now is      552.1 secs

     total energy              =   -2939.23750763 Ry
     estimated scf accuracy    <       2.91798992 Ry

     iteration # 15     ecut=    29.40 Ry     beta= 0.05
     Davidson diagonalization with overlap
     ethr =  7.39E-04,  avg # of iterations =  4.6

     negative rho (up, down):  4.129E-03 0.000E+00
 
     Adding external electric field

     Computed dipole along edir(3) : 
        Dipole               -4.0694 Ry au,        -10.3434 Debye
        Dipole field         -0.0077 Ry au, 
 
        Potential amp.        0.7119 Ry
        Total length         46.3494 bohr
 

     total cpu time spent up to now is      572.6 secs

     total energy              =   -2939.93729205 Ry
     estimated scf accuracy    <       3.01987757 Ry

     iteration # 16     ecut=    29.40 Ry     beta= 0.05
     Davidson diagonalization with overlap
     ethr =  7.39E-04,  avg # of iterations = 12.8

     negative rho (up, down):  4.121E-03 0.000E+00
 
     Adding external electric field

     Computed dipole along edir(3) : 
        Dipole               -2.7279 Ry au,         -6.9335 Debye
        Dipole field         -0.0051 Ry au, 
 
        Potential amp.        0.4772 Ry
        Total length         46.3494 bohr
 

     total cpu time spent up to now is      600.7 secs

     total energy              =   -2937.68914740 Ry
     estimated scf accuracy    <     145.88370173 Ry

     iteration # 17     ecut=    29.40 Ry     beta= 0.05
     Davidson diagonalization with overlap
     c_bands:  1 eigenvalues not converged
     ethr =  7.39E-04,  avg # of iterations = 10.8

     negative rho (up, down):  4.956E-03 0.000E+00
 
     Adding external electric field

     Computed dipole along edir(3) : 
        Dipole               -3.6617 Ry au,         -9.3072 Debye
        Dipole field         -0.0069 Ry au, 
 
        Potential amp.        0.6406 Ry
        Total length         46.3494 bohr
 

     total cpu time spent up to now is      624.4 secs

     total energy              =   -2940.00103330 Ry
     estimated scf accuracy    <       3.46162419 Ry

     iteration # 18     ecut=    29.40 Ry     beta= 0.05
     Davidson diagonalization with overlap
     c_bands:  5 eigenvalues not converged
     c_bands:  1 eigenvalues not converged
     ethr =  7.39E-04,  avg # of iterations = 15.4

     negative rho (up, down):  4.704E-03 0.000E+00
 
     Adding external electric field

     Computed dipole along edir(3) : 
        Dipole               -2.8796 Ry au,         -7.3193 Debye
        Dipole field         -0.0054 Ry au, 
 
        Potential amp.        0.5037 Ry
        Total length         46.3494 bohr
 

     total cpu time spent up to now is      657.6 secs

     total energy              =   -2938.52640981 Ry
     estimated scf accuracy    <     838.75726269 Ry

     iteration # 19     ecut=    29.40 Ry     beta= 0.05
     Davidson diagonalization with overlap
     ethr =  7.39E-04,  avg # of iterations =  6.0

     negative rho (up, down):  5.252E-03 0.000E+00
 
     Adding external electric field

     Computed dipole along edir(3) : 
        Dipole               -2.6969 Ry au,         -6.8548 Debye
        Dipole field         -0.0051 Ry au, 
 
        Potential amp.        0.4718 Ry
        Total length         46.3494 bohr
 

     total cpu time spent up to now is      678.2 secs

     total energy              =   -2940.66281150 Ry
     estimated scf accuracy    <     107.68690964 Ry

     iteration # 20     ecut=    29.40 Ry     beta= 0.05
     Davidson diagonalization with overlap
     ethr =  7.39E-04,  avg # of iterations =  1.4

     negative rho (up, down):  5.307E-03 0.000E+00
 
     Adding external electric field

     Computed dipole along edir(3) : 
        Dipole               -1.6565 Ry au,         -4.2105 Debye
        Dipole field         -0.0031 Ry au, 
 
        Potential amp.        0.2898 Ry
        Total length         46.3494 bohr
 

     total cpu time spent up to now is      696.2 secs

     total energy              =   -2936.09048686 Ry
     estimated scf accuracy    <     495.54164940 Ry

     iteration # 21     ecut=    29.40 Ry     beta= 0.05
     Davidson diagonalization with overlap
     c_bands:  1 eigenvalues not converged
     c_bands:  2 eigenvalues not converged
     c_bands:  2 eigenvalues not converged
     c_bands:  1 eigenvalues not converged
     c_bands:  3 eigenvalues not converged
     ethr =  7.39E-04,  avg # of iterations = 18.7

     negative rho (up, down):  5.895E-03 0.000E+00
 
     Adding external electric field

     Computed dipole along edir(3) : 
        Dipole               -0.5916 Ry au,         -1.5037 Debye
        Dipole field         -0.0011 Ry au, 
 
        Potential amp.        0.1035 Ry
        Total length         46.3494 bohr
 

     total cpu time spent up to now is      728.0 secs

     total energy              =   -2938.88729928 Ry
     estimated scf accuracy    <       3.27677211 Ry

     iteration # 22     ecut=    29.40 Ry     beta= 0.05
     Davidson diagonalization with overlap
     ethr =  7.39E-04,  avg # of iterations =  8.6

     negative rho (up, down):  5.937E-03 0.000E+00
 
     Adding external electric field

     Computed dipole along edir(3) : 
        Dipole               -0.6494 Ry au,         -1.6506 Debye
        Dipole field         -0.0012 Ry au, 
 
        Potential amp.        0.1136 Ry
        Total length         46.3494 bohr
 

     total cpu time spent up to now is      750.5 secs

     total energy              =   -2939.03020873 Ry
     estimated scf accuracy    <       0.82809054 Ry

     iteration # 23     ecut=    29.40 Ry     beta= 0.05
     Davidson diagonalization with overlap
     c_bands:  5 eigenvalues not converged
     c_bands:  2 eigenvalues not converged
     ethr =  2.10E-04,  avg # of iterations = 11.4

     negative rho (up, down):  6.943E-03 0.000E+00
 
     Adding external electric field

     Computed dipole along edir(3) : 
        Dipole               -0.7782 Ry au,         -1.9780 Debye
        Dipole field         -0.0015 Ry au, 
 
        Potential amp.        0.1361 Ry
        Total length         46.3494 bohr
 

     total cpu time spent up to now is      774.7 secs

     total energy              =   -2938.98766540 Ry
     estimated scf accuracy    <       0.67742705 Ry

     iteration # 24     ecut=    29.40 Ry     beta= 0.05
     Davidson diagonalization with overlap
     c_bands:  1 eigenvalues not converged
     c_bands:  1 eigenvalues not converged
     ethr =  1.72E-04,  avg # of iterations = 13.3

     negative rho (up, down):  9.273E-03 0.000E+00
 
     Adding external electric field

     Computed dipole along edir(3) : 
        Dipole               -0.2413 Ry au,         -0.6134 Debye
        Dipole field         -0.0005 Ry au, 
 
        Potential amp.        0.0422 Ry
        Total length         46.3494 bohr
 

     total cpu time spent up to now is      799.3 secs

     total energy              =   -2938.99510920 Ry
     estimated scf accuracy    <       0.67559966 Ry

     iteration # 25     ecut=    29.40 Ry     beta= 0.05
     Davidson diagonalization with overlap
     c_bands:  2 eigenvalues not converged
     ethr =  1.71E-04,  avg # of iterations =  6.1

     negative rho (up, down):  1.075E-02 0.000E+00
 
     Adding external electric field

     Computed dipole along edir(3) : 
        Dipole               -0.0750 Ry au,         -0.1907 Debye
        Dipole field         -0.0001 Ry au, 
 
        Potential amp.        0.0131 Ry
        Total length         46.3494 bohr
 

     total cpu time spent up to now is      820.7 secs

     total energy              =   -2939.02083720 Ry
     estimated scf accuracy    <       0.33807009 Ry

     iteration # 26     ecut=    29.40 Ry     beta= 0.05
     Davidson diagonalization with overlap
     ethr =  8.56E-05,  avg # of iterations =  2.9

     negative rho (up, down):  1.303E-02 0.000E+00
 
     Adding external electric field

     Computed dipole along edir(3) : 
        Dipole               -0.1392 Ry au,         -0.3538 Debye
        Dipole field         -0.0003 Ry au, 
 
        Potential amp.        0.0244 Ry
        Total length         46.3494 bohr
 

     total cpu time spent up to now is      840.4 secs

     total energy              =   -2939.03590747 Ry
     estimated scf accuracy    <       0.38996052 Ry

     iteration # 27     ecut=    29.40 Ry     beta= 0.05
     Davidson diagonalization with overlap
     c_bands:  2 eigenvalues not converged
     ethr =  8.56E-05,  avg # of iterations =  8.0

     negative rho (up, down):  1.817E-02 0.000E+00
 
     Adding external electric field

     Computed dipole along edir(3) : 
        Dipole               -0.2545 Ry au,         -0.6469 Debye
        Dipole field         -0.0005 Ry au, 
 
        Potential amp.        0.0445 Ry
        Total length         46.3494 bohr
 

     total cpu time spent up to now is      862.2 secs

     total energy              =   -2939.03752272 Ry
     estimated scf accuracy    <       0.45671473 Ry

     iteration # 28     ecut=    29.40 Ry     beta= 0.05
     Davidson diagonalization with overlap
     ethr =  8.56E-05,  avg # of iterations =  7.0

     negative rho (up, down):  2.902E-02 0.000E+00
 
     Adding external electric field

     Computed dipole along edir(3) : 
        Dipole               -0.1621 Ry au,         -0.4121 Debye
        Dipole field         -0.0003 Ry au, 
 
        Potential amp.        0.0284 Ry
        Total length         46.3494 bohr
 

     total cpu time spent up to now is      883.5 secs

     total energy              =   -2939.03133072 Ry
     estimated scf accuracy    <       0.53557072 Ry

     iteration # 29     ecut=    29.40 Ry     beta= 0.05
     Davidson diagonalization with overlap
     ethr =  8.56E-05,  avg # of iterations =  3.2

     negative rho (up, down):  2.706E-02 0.000E+00
 
     Adding external electric field

     Computed dipole along edir(3) : 
        Dipole               -0.0317 Ry au,         -0.0804 Debye
        Dipole field         -0.0001 Ry au, 
 
        Potential amp.        0.0055 Ry
        Total length         46.3494 bohr
 

     total cpu time spent up to now is      903.0 secs

     total energy              =   -2938.99753216 Ry
     estimated scf accuracy    <       0.72258370 Ry

     iteration # 30     ecut=    29.40 Ry     beta= 0.05
     Davidson diagonalization with overlap
     c_bands:  5 eigenvalues not converged
     c_bands:  2 eigenvalues not converged
     c_bands:  3 eigenvalues not converged
     ethr =  8.56E-05,  avg # of iterations = 14.5

     negative rho (up, down):  1.858E-02 0.000E+00
 
     Adding external electric field

     Computed dipole along edir(3) : 
        Dipole                0.1425 Ry au,          0.3623 Debye
        Dipole field          0.0003 Ry au, 
 
        Potential amp.       -0.0249 Ry
        Total length         46.3494 bohr
 

     total cpu time spent up to now is      930.9 secs

     total energy              =   -2938.99522805 Ry
     estimated scf accuracy    <       0.10905394 Ry

     iteration # 31     ecut=    29.40 Ry     beta= 0.05
     Davidson diagonalization with overlap
     c_bands:  4 eigenvalues not converged
     c_bands:  4 eigenvalues not converged
     c_bands:  3 eigenvalues not converged
     c_bands:  1 eigenvalues not converged
     c_bands:  4 eigenvalues not converged
     c_bands:  3 eigenvalues not converged
     ethr =  2.76E-05,  avg # of iterations = 20.6

     negative rho (up, down):  1.699E-02 0.000E+00
 
     Adding external electric field

     Computed dipole along edir(3) : 
        Dipole               -0.0128 Ry au,         -0.0325 Debye
        Dipole field         -0.0000 Ry au, 
 
        Potential amp.        0.0022 Ry
        Total length         46.3494 bohr
 

     total cpu time spent up to now is      966.0 secs

     total energy              =   -2939.00073354 Ry
     estimated scf accuracy    <       0.09999666 Ry

     iteration # 32     ecut=    29.40 Ry     beta= 0.05
     Davidson diagonalization with overlap
     ethr =  2.53E-05,  avg # of iterations =  7.2

     negative rho (up, down):  1.733E-02 0.000E+00
 
     Adding external electric field

     Computed dipole along edir(3) : 
        Dipole                0.0823 Ry au,          0.2091 Debye
        Dipole field          0.0002 Ry au, 
 
        Potential amp.       -0.0144 Ry
        Total length         46.3494 bohr
 

     total cpu time spent up to now is      987.6 secs

     total energy              =   -2939.00104477 Ry
     estimated scf accuracy    <       0.03008103 Ry

     iteration # 33     ecut=    29.40 Ry     beta= 0.05
     Davidson diagonalization with overlap
     c_bands:  1 eigenvalues not converged
     c_bands:  2 eigenvalues not converged
     c_bands:  1 eigenvalues not converged
     ethr =  7.62E-06,  avg # of iterations = 17.7

     negative rho (up, down):  1.927E-02 0.000E+00
 
     Adding external electric field

     Computed dipole along edir(3) : 
        Dipole                0.2403 Ry au,          0.6108 Debye
        Dipole field          0.0005 Ry au, 
 
        Potential amp.       -0.0420 Ry
        Total length         46.3494 bohr
 

     total cpu time spent up to now is     1020.5 secs

     total energy              =   -2939.00195887 Ry
     estimated scf accuracy    <       0.01883512 Ry

     iteration # 34     ecut=    29.40 Ry     beta= 0.05
     Davidson diagonalization with overlap
     c_bands:  2 eigenvalues not converged
     c_bands:  2 eigenvalues not converged
     c_bands:  2 eigenvalues not converged
     c_bands:  2 eigenvalues not converged
     c_bands:  2 eigenvalues not converged
     c_bands:  2 eigenvalues not converged
     c_bands:  2 eigenvalues not converged
     c_bands:  3 eigenvalues not converged
     ethr =  4.77E-06,  avg # of iterations = 19.1

     negative rho (up, down):  1.881E-02 0.000E+00
 
     Adding external electric field

     Computed dipole along edir(3) : 
        Dipole                0.2198 Ry au,          0.5587 Debye
        Dipole field          0.0004 Ry au, 
 
        Potential amp.       -0.0385 Ry
        Total length         46.3494 bohr
 

     total cpu time spent up to now is     1055.6 secs

     total energy              =   -2939.00260596 Ry
     estimated scf accuracy    <       0.15355795 Ry

     iteration # 35     ecut=    29.40 Ry     beta= 0.05
     Davidson diagonalization with overlap
     c_bands:  1 eigenvalues not converged
     c_bands:  1 eigenvalues not converged
     c_bands:  1 eigenvalues not converged
     c_bands:  1 eigenvalues not converged
     c_bands:  1 eigenvalues not converged
     c_bands:  3 eigenvalues not converged
     ethr =  4.77E-06,  avg # of iterations = 18.9

     negative rho (up, down):  1.753E-02 0.000E+00
 
     Adding external electric field

     Computed dipole along edir(3) : 
        Dipole                0.1586 Ry au,          0.4031 Debye
        Dipole field          0.0003 Ry au, 
 
        Potential amp.       -0.0277 Ry
        Total length         46.3494 bohr
 

     total cpu time spent up to now is     1084.8 secs

     total energy              =   -2939.00368376 Ry
     estimated scf accuracy    <       0.01496002 Ry

     iteration # 36     ecut=    29.40 Ry     beta= 0.05
     Davidson diagonalization with overlap
     c_bands:  2 eigenvalues not converged
     c_bands:  1 eigenvalues not converged
     c_bands:  1 eigenvalues not converged
     c_bands:  3 eigenvalues not converged
     c_bands:  2 eigenvalues not converged
     c_bands:  1 eigenvalues not converged
     ethr =  3.79E-06,  avg # of iterations = 17.7

     negative rho (up, down):  1.657E-02 0.000E+00
 
     Adding external electric field

     Computed dipole along edir(3) : 
        Dipole                0.2338 Ry au,          0.5943 Debye
        Dipole field          0.0004 Ry au, 
 
        Potential amp.       -0.0409 Ry
        Total length         46.3494 bohr
 

     total cpu time spent up to now is     1114.8 secs

     total energy              =   -2939.00425281 Ry
     estimated scf accuracy    <       0.02491767 Ry

     iteration # 37     ecut=    29.40 Ry     beta= 0.05
     Davidson diagonalization with overlap
     c_bands:  1 eigenvalues not converged
     ethr =  3.79E-06,  avg # of iterations =  8.4

     negative rho (up, down):  1.730E-02 0.000E+00
 
     Adding external electric field

     Computed dipole along edir(3) : 
        Dipole                0.2167 Ry au,          0.5508 Debye
        Dipole field          0.0004 Ry au, 
 
        Potential amp.       -0.0379 Ry
        Total length         46.3494 bohr
 

     total cpu time spent up to now is     1137.0 secs

     total energy              =   -2939.00469819 Ry
     estimated scf accuracy    <       0.00531064 Ry

     iteration # 38     ecut=    29.40 Ry     beta= 0.05
     Davidson diagonalization with overlap
     c_bands:  2 eigenvalues not converged
     c_bands:  1 eigenvalues not converged
     c_bands:  2 eigenvalues not converged
     c_bands:  1 eigenvalues not converged
     ethr =  1.34E-06,  avg # of iterations = 17.1

     negative rho (up, down):  1.637E-02 0.000E+00
 
     Adding external electric field

     Computed dipole along edir(3) : 
        Dipole                0.2855 Ry au,          0.7256 Debye
        Dipole field          0.0005 Ry au, 
 
        Potential amp.       -0.0499 Ry
        Total length         46.3494 bohr
 

     total cpu time spent up to now is     1168.7 secs

     total energy              =   -2939.00470234 Ry
     estimated scf accuracy    <       0.02564593 Ry

     iteration # 39     ecut=    29.40 Ry     beta= 0.05
     Davidson diagonalization with overlap
     c_bands:  1 eigenvalues not converged
     c_bands:  2 eigenvalues not converged
     c_bands:  1 eigenvalues not converged
     c_bands:  2 eigenvalues not converged
     c_bands:  1 eigenvalues not converged
     ethr =  1.34E-06,  avg # of iterations = 17.1

     negative rho (up, down):  1.661E-02 0.000E+00
 
     Adding external electric field

     Computed dipole along edir(3) : 
        Dipole                0.2902 Ry au,          0.7375 Debye
        Dipole field          0.0005 Ry au, 
 
        Potential amp.       -0.0508 Ry
        Total length         46.3494 bohr
 

     total cpu time spent up to now is     1197.7 secs

     total energy              =   -2939.00544529 Ry
     estimated scf accuracy    <       0.00100299 Ry

     iteration # 40     ecut=    29.40 Ry     beta= 0.05
     Davidson diagonalization with overlap
     c_bands:  2 eigenvalues not converged
     c_bands:  2 eigenvalues not converged
     c_bands:  1 eigenvalues not converged
     ethr =  2.54E-07,  avg # of iterations = 15.1

     negative rho (up, down):  1.649E-02 0.000E+00
 
     Adding external electric field

     Computed dipole along edir(3) : 
        Dipole                0.2757 Ry au,          0.7007 Debye
        Dipole field          0.0005 Ry au, 
 
        Potential amp.       -0.0482 Ry
        Total length         46.3494 bohr
 

     total cpu time spent up to now is     1227.5 secs

     total energy              =   -2939.00551645 Ry
     estimated scf accuracy    <       0.00077078 Ry

     iteration # 41     ecut=    29.40 Ry     beta= 0.05
     Davidson diagonalization with overlap
     ethr =  1.95E-07,  avg # of iterations = 10.8

     negative rho (up, down):  1.721E-02 0.000E+00
 
     Adding external electric field

     Computed dipole along edir(3) : 
        Dipole                0.3022 Ry au,          0.7682 Debye
        Dipole field          0.0006 Ry au, 
 
        Potential amp.       -0.0529 Ry
        Total length         46.3494 bohr
 

     total cpu time spent up to now is     1252.1 secs

     total energy              =   -2939.00567400 Ry
     estimated scf accuracy    <       0.00050765 Ry

     iteration # 42     ecut=    29.40 Ry     beta= 0.05
     Davidson diagonalization with overlap
     c_bands:  2 eigenvalues not converged
     c_bands:  1 eigenvalues not converged
     ethr =  1.29E-07,  avg # of iterations = 14.6

     negative rho (up, down):  1.735E-02 0.000E+00
 
     Adding external electric field

     Computed dipole along edir(3) : 
        Dipole                0.3100 Ry au,          0.7878 Debye
        Dipole field          0.0006 Ry au, 
 
        Potential amp.       -0.0542 Ry
        Total length         46.3494 bohr
 

     total cpu time spent up to now is     1281.7 secs

     total energy              =   -2939.00574761 Ry
     estimated scf accuracy    <       0.00033422 Ry

     iteration # 43     ecut=    29.40 Ry     beta= 0.05
     Davidson diagonalization with overlap
     ethr =  8.46E-08,  avg # of iterations = 11.2

     negative rho (up, down):  1.710E-02 0.000E+00
 
     Adding external electric field

     Computed dipole along edir(3) : 
        Dipole                0.3100 Ry au,          0.7881 Debye
        Dipole field          0.0006 Ry au, 
 
        Potential amp.       -0.0542 Ry
        Total length         46.3494 bohr
 

     total cpu time spent up to now is     1305.1 secs

     total energy              =   -2939.00577689 Ry
     estimated scf accuracy    <       0.00018535 Ry

     iteration # 44     ecut=    29.40 Ry     beta= 0.05
     Davidson diagonalization with overlap
     c_bands:  1 eigenvalues not converged
     ethr =  4.69E-08,  avg # of iterations = 13.4

     negative rho (up, down):  1.675E-02 0.000E+00
 
     Adding external electric field

     Computed dipole along edir(3) : 
        Dipole                0.3098 Ry au,          0.7874 Debye
        Dipole field          0.0006 Ry au, 
 
        Potential amp.       -0.0542 Ry
        Total length         46.3494 bohr
 

     total cpu time spent up to now is     1330.3 secs

     total energy              =   -2939.00580459 Ry
     estimated scf accuracy    <       0.00009848 Ry

     iteration # 45     ecut=    29.40 Ry     beta= 0.05
     Davidson diagonalization with overlap
     ethr =  2.49E-08,  avg # of iterations =  9.0

     negative rho (up, down):  1.680E-02 0.000E+00
 
     Adding external electric field

     Computed dipole along edir(3) : 
        Dipole                0.3107 Ry au,          0.7897 Debye
        Dipole field          0.0006 Ry au, 
 
        Potential amp.       -0.0544 Ry
        Total length         46.3494 bohr
 

     total cpu time spent up to now is     1355.1 secs

     total energy              =   -2939.00584104 Ry
     estimated scf accuracy    <       0.00004331 Ry

     iteration # 46     ecut=    29.40 Ry     beta= 0.05
     Davidson diagonalization with overlap
     c_bands:  1 eigenvalues not converged
     ethr =  1.10E-08,  avg # of iterations =  9.3

     negative rho (up, down):  1.683E-02 0.000E+00
 
     Adding external electric field

     Computed dipole along edir(3) : 
        Dipole                0.3105 Ry au,          0.7893 Debye
        Dipole field          0.0006 Ry au, 
 
        Potential amp.       -0.0543 Ry
        Total length         46.3494 bohr
 

     total cpu time spent up to now is     1378.9 secs

     total energy              =   -2939.00586465 Ry
     estimated scf accuracy    <       0.00002514 Ry

     iteration # 47     ecut=    29.40 Ry     beta= 0.05
     Davidson diagonalization with overlap
     c_bands:  1 eigenvalues not converged
     c_bands:  2 eigenvalues not converged
     ethr =  6.36E-09,  avg # of iterations = 14.0

     negative rho (up, down):  1.671E-02 0.000E+00
 
     Adding external electric field

     Computed dipole along edir(3) : 
        Dipole                0.3088 Ry au,          0.7850 Debye
        Dipole field          0.0006 Ry au, 
 
        Potential amp.       -0.0540 Ry
        Total length         46.3494 bohr
 

     total cpu time spent up to now is     1408.6 secs

     total energy              =   -2939.00588676 Ry
     estimated scf accuracy    <       0.00002386 Ry

     iteration # 48     ecut=    29.40 Ry     beta= 0.05
     Davidson diagonalization with overlap
     c_bands:  1 eigenvalues not converged
     c_bands:  2 eigenvalues not converged
     ethr =  6.04E-09,  avg # of iterations = 13.0

     negative rho (up, down):  1.667E-02 0.000E+00
 
     Adding external electric field

     Computed dipole along edir(3) : 
        Dipole                0.3073 Ry au,          0.7812 Debye
        Dipole field          0.0006 Ry au, 
 
        Potential amp.       -0.0538 Ry
        Total length         46.3494 bohr
 

     total cpu time spent up to now is     1434.0 secs

     total energy              =   -2939.00590781 Ry
     estimated scf accuracy    <       0.00000967 Ry

     iteration # 49     ecut=    29.40 Ry     beta= 0.05
     Davidson diagonalization with overlap
     c_bands:  1 eigenvalues not converged
     ethr =  2.45E-09,  avg # of iterations = 13.1

     negative rho (up, down):  1.660E-02 0.000E+00
 
     Adding external electric field

     Computed dipole along edir(3) : 
        Dipole                0.3057 Ry au,          0.7771 Debye
        Dipole field          0.0006 Ry au, 
 
        Potential amp.       -0.0535 Ry
        Total length         46.3494 bohr
 

     total cpu time spent up to now is     1459.9 secs

     total energy              =   -2939.00592519 Ry
     estimated scf accuracy    <       0.00000604 Ry

     iteration # 50     ecut=    29.40 Ry     beta= 0.05
     Davidson diagonalization with overlap
     ethr =  1.53E-09,  avg # of iterations = 10.4

     negative rho (up, down):  1.653E-02 0.000E+00
 
     Adding external electric field

     Computed dipole along edir(3) : 
        Dipole                0.3057 Ry au,          0.7770 Debye
        Dipole field          0.0006 Ry au, 
 
        Potential amp.       -0.0535 Ry
        Total length         46.3494 bohr
 

     total cpu time spent up to now is     1486.0 secs

     total energy              =   -2939.00594095 Ry
     estimated scf accuracy    <       0.00000498 Ry

     iteration # 51     ecut=    29.40 Ry     beta= 0.05
     Davidson diagonalization with overlap
     ethr =  1.26E-09,  avg # of iterations =  7.3

     negative rho (up, down):  1.652E-02 0.000E+00
 
     Adding external electric field

     Computed dipole along edir(3) : 
        Dipole                0.3057 Ry au,          0.7769 Debye
        Dipole field          0.0006 Ry au, 
 
        Potential amp.       -0.0535 Ry
        Total length         46.3494 bohr
 

     total cpu time spent up to now is     1507.7 secs

     total energy              =   -2939.00595515 Ry
     estimated scf accuracy    <       0.00000276 Ry

     iteration # 52     ecut=    29.40 Ry     beta= 0.05
     Davidson diagonalization with overlap
     ethr =  6.98E-10,  avg # of iterations =  9.5

     negative rho (up, down):  1.649E-02 0.000E+00
 
     Adding external electric field

     Computed dipole along edir(3) : 
        Dipole                0.3052 Ry au,          0.7757 Debye
        Dipole field          0.0006 Ry au, 
 
        Potential amp.       -0.0534 Ry
        Total length         46.3494 bohr
 

     total cpu time spent up to now is     1532.3 secs

     total energy              =   -2939.00596786 Ry
     estimated scf accuracy    <       0.00000159 Ry

     iteration # 53     ecut=    29.40 Ry     beta= 0.05
     Davidson diagonalization with overlap
     ethr =  4.02E-10,  avg # of iterations =  9.6

     negative rho (up, down):  1.648E-02 0.000E+00
 
     Adding external electric field

     Computed dipole along edir(3) : 
        Dipole                0.3051 Ry au,          0.7755 Debye
        Dipole field          0.0006 Ry au, 
 
        Potential amp.       -0.0534 Ry
        Total length         46.3494 bohr
 

     total cpu time spent up to now is     1556.5 secs

     total energy              =   -2939.00597936 Ry
     estimated scf accuracy    <       0.00000104 Ry

     iteration # 54     ecut=    29.40 Ry     beta= 0.05
     Davidson diagonalization with overlap
     c_bands:  1 eigenvalues not converged
     ethr =  2.63E-10,  avg # of iterations = 14.3

     negative rho (up, down):  1.646E-02 0.000E+00
 
     Adding external electric field

     Computed dipole along edir(3) : 
        Dipole                0.3054 Ry au,          0.7762 Debye
        Dipole field          0.0006 Ry au, 
 
        Potential amp.       -0.0534 Ry
        Total length         46.3494 bohr
 

     total cpu time spent up to now is     1584.2 secs

     total energy              =   -2939.00598960 Ry
     estimated scf accuracy    <       0.00000049 Ry

     iteration # 55     ecut=    29.40 Ry     beta= 0.05
     Davidson diagonalization with overlap
     ethr =  1.24E-10,  avg # of iterations = 10.2

     negative rho (up, down):  1.643E-02 0.000E+00
 
     Adding external electric field

     Computed dipole along edir(3) : 
        Dipole                0.3050 Ry au,          0.7753 Debye
        Dipole field          0.0006 Ry au, 
 
        Potential amp.       -0.0534 Ry
        Total length         46.3494 bohr
 

     total cpu time spent up to now is     1612.4 secs

     total energy              =   -2939.00599886 Ry
     estimated scf accuracy    <       0.00000037 Ry

     iteration # 56     ecut=    29.40 Ry     beta= 0.05
     Davidson diagonalization with overlap
     c_bands:  1 eigenvalues not converged
     ethr =  9.29E-11,  avg # of iterations =  7.3

     negative rho (up, down):  1.643E-02 0.000E+00
 
     Adding external electric field

     Computed dipole along edir(3) : 
        Dipole                0.3050 Ry au,          0.7753 Debye
        Dipole field          0.0006 Ry au, 
 
        Potential amp.       -0.0534 Ry
        Total length         46.3494 bohr
 

     total cpu time spent up to now is     1634.5 secs

     total energy              =   -2939.00600719 Ry
     estimated scf accuracy    <       0.00000017 Ry

     iteration # 57     ecut=    29.40 Ry     beta= 0.05
     Davidson diagonalization with overlap
     ethr =  4.21E-11,  avg # of iterations = 11.9

     negative rho (up, down):  1.642E-02 0.000E+00
 
     Adding external electric field

     Computed dipole along edir(3) : 
        Dipole                0.3050 Ry au,          0.7754 Debye
        Dipole field          0.0006 Ry au, 
 
        Potential amp.       -0.0534 Ry
        Total length         46.3494 bohr
 

     total cpu time spent up to now is     1662.3 secs

     total energy              =   -2939.00601467 Ry
     estimated scf accuracy    <       0.00000014 Ry

     iteration # 58     ecut=    29.40 Ry     beta= 0.05
     Davidson diagonalization with overlap
     ethr =  3.63E-11,  avg # of iterations =  4.5

     negative rho (up, down):  1.643E-02 0.000E+00
 
     Adding external electric field

     Computed dipole along edir(3) : 
        Dipole                0.3052 Ry au,          0.7756 Debye
        Dipole field          0.0006 Ry au, 
 
        Potential amp.       -0.0534 Ry
        Total length         46.3494 bohr
 

     total cpu time spent up to now is     1682.5 secs

     total energy              =   -2939.00602141 Ry
     estimated scf accuracy    <       0.00000009 Ry

     iteration # 59     ecut=    29.40 Ry     beta= 0.05
     Davidson diagonalization with overlap
     c_bands:  1 eigenvalues not converged
     ethr =  2.20E-11,  avg # of iterations = 12.4

     negative rho (up, down):  1.641E-02 0.000E+00
 
     Adding external electric field

     Computed dipole along edir(3) : 
        Dipole                0.3049 Ry au,          0.7750 Debye
        Dipole field          0.0006 Ry au, 
 
        Potential amp.       -0.0533 Ry
        Total length         46.3494 bohr
 

     total cpu time spent up to now is     1715.0 secs

     total energy              =   -2939.00602754 Ry
     estimated scf accuracy    <       0.00000011 Ry

     iteration # 60     ecut=    29.40 Ry     beta= 0.05
     Davidson diagonalization with overlap
     ethr =  2.20E-11,  avg # of iterations = 10.2

     negative rho (up, down):  1.642E-02 0.000E+00
 
     Adding external electric field

     Computed dipole along edir(3) : 
        Dipole                0.3050 Ry au,          0.7753 Debye
        Dipole field          0.0006 Ry au, 
 
        Potential amp.       -0.0534 Ry
        Total length         46.3494 bohr
 

     total cpu time spent up to now is     1746.3 secs

     total energy              =   -2939.00603305 Ry
     estimated scf accuracy    <       0.00000010 Ry

     iteration # 61     ecut=    29.40 Ry     beta= 0.05
     Davidson diagonalization with overlap
     ethr =  2.20E-11,  avg # of iterations =  5.2

     negative rho (up, down):  1.648E-02 0.000E+00
 
     Adding external electric field

     Computed dipole along edir(3) : 
        Dipole                0.3046 Ry au,          0.7742 Debye
        Dipole field          0.0006 Ry au, 
 
        Potential amp.       -0.0533 Ry
        Total length         46.3494 bohr
 

     total cpu time spent up to now is     1767.6 secs

     End of self-consistent calculation

          k = 0.0000 0.0000 0.0000 ( 18029 PWs)   bands (ev):

   -56.1072 -56.1049 -56.0730 -56.0686 -55.9952 -55.9607 -55.9549 -55.9196
   -55.9045 -55.8703 -55.8689 -55.8346 -55.6509 -55.5861 -55.0769 -55.0429
   -32.6640 -32.5882 -32.4868 -32.4264 -32.4123 -32.4083 -32.3996 -32.3600
   -32.3472 -32.3325 -32.3066 -32.2853 -32.2787 -32.2594 -32.2525 -32.2457
   -32.2102 -32.1969 -32.1944 -32.1899 -32.1858 -32.1645 -32.1595 -32.1423
   -32.1176 -32.1030 -32.1019 -32.1008 -32.0959 -32.0924 -32.0711 -32.0443
   -32.0440 -32.0291 -32.0220 -32.0025 -31.9808 -31.9541 -31.8777 -31.8496
   -31.8014 -31.7393 -31.4835 -31.3963 -31.3738 -31.3005 -31.2140 -31.1028
   -17.9799 -16.8731 -16.5833 -16.3679 -16.2624 -16.2471 -16.1406 -15.9553
   -15.8221 -15.7938 -15.6871 -15.6806 -15.6393 -15.6271 -15.5980 -15.5744
   -15.5659 -15.5398 -15.5370 -15.5207 -15.4765 -15.4531 -15.4340 -15.3380
   -15.2980 -15.2373 -15.2151 -15.1542 -15.0321 -14.7976 -13.5791 -13.4628
   -13.3101  -8.0416  -6.3595  -4.3450  -4.2471  -4.0706  -4.0097  -3.9667
    -3.9591  -3.7196  -3.6867  -3.3279  -3.2954  -3.2755  -3.2651  -3.2539
    -3.1356  -3.0191  -2.9635  -2.9213  -2.9111  -2.9004  -2.8932  -2.8805
    -2.8545  -2.8322  -2.7288  -2.6842  -2.6532  -2.5431  -2.5251  -2.4342
    -2.4170  -2.4061  -2.3715  -2.3511  -2.3424  -2.3163  -2.3051  -2.2784
    -2.1938  -2.1448  -2.0295  -1.9661  -1.8870  -1.8515  -1.7035  -1.6599
    -1.5724  -1.5662  -1.5472  -1.5248  -1.4917  -1.4057  -1.3312  -1.2419
    -1.1997  -1.1623  -1.1265  -1.0831  -1.0014  -0.9827  -0.9653  -0.8692
    -0.8651  -0.8558  -0.8131  -0.6111  -0.5868  -0.5526  -0.5399  -0.4628
    -0.4043  -0.3874  -0.3665  -0.3187  -0.2585  -0.1952  -0.1495  -0.1344
    -0.1230  -0.1196  -0.0855  -0.0594   0.0835   0.0941   0.1882   0.2000
     0.2234   0.3505   0.5245   0.5622   0.5851   0.7051   0.8763   0.9455
     1.0474   1.1385   1.5158   1.5610   2.4053   3.0306   3.1169   3.1506
     3.1701   3.2755   3.3084   3.4781   3.4935   3.5287   3.5481

          k = 0.0000 0.0419 0.0000 ( 17933 PWs)   bands (ev):

   -56.1021 -56.0996 -56.0779 -56.0737 -55.9912 -55.9588 -55.9566 -55.9236
   -55.8995 -55.8751 -55.8640 -55.8393 -55.6494 -55.5875 -55.0719 -55.0478
   -32.6061 -32.5343 -32.4331 -32.3980 -32.3953 -32.3852 -32.3720 -32.3312
   -32.3224 -32.3204 -32.3139 -32.3027 -32.2844 -32.2668 -32.2661 -32.2624
   -32.2456 -32.1919 -32.1864 -32.1827 -32.1783 -32.1724 -32.1610 -32.1469
   -32.1366 -32.1191 -32.1067 -32.1065 -32.0972 -32.0904 -32.0833 -32.0758
   -32.0739 -32.0407 -32.0395 -32.0311 -32.0244 -31.9573 -31.8830 -31.8479
   -31.8013 -31.7649 -31.4294 -31.3928 -31.3768 -31.2879 -31.2266 -31.1599
   -17.9761 -16.7367 -16.4634 -16.2596 -16.1587 -16.1440 -16.1021 -15.9873
   -15.8941 -15.8558 -15.7096 -15.6870 -15.6566 -15.6302 -15.6252 -15.5812
   -15.5793 -15.5579 -15.5521 -15.5132 -15.4830 -15.4711 -15.4269 -15.3542
   -15.3009 -15.2957 -15.2691 -15.2107 -15.0635 -14.8863 -13.5832 -13.5024
   -13.3099  -8.0421  -6.3532  -4.3196  -4.0552  -3.9066  -3.8324  -3.8151
    -3.8023  -3.5661  -3.4486  -3.3573  -3.2919  -3.2097  -3.1681  -3.1480
    -3.1233  -3.0951  -3.0730  -3.0460  -2.9961  -2.9925  -2.9489  -2.8848
    -2.8564  -2.8469  -2.8021  -2.7870  -2.7595  -2.7285  -2.6229  -2.5903
    -2.5618  -2.5222  -2.5124  -2.3703  -2.3662  -2.3412  -2.2912  -2.2188
    -2.1170  -1.9983  -1.9525  -1.8908  -1.8646  -1.7841  -1.7471  -1.6774
    -1.5204  -1.4732  -1.4027  -1.3714  -1.3385  -1.2899  -1.2114  -1.1375
    -1.1217  -1.0777  -1.0539  -1.0194  -0.9952  -0.9838  -0.9273  -0.9099
    -0.8617  -0.7956  -0.7729  -0.7244  -0.6987  -0.6299  -0.5971  -0.5653
    -0.5380  -0.4572  -0.3888  -0.3586  -0.3262  -0.2949  -0.2926  -0.2562
    -0.2220  -0.1502  -0.1202  -0.0712   0.0056   0.0651   0.0912   0.1251
     0.2335   0.2365   0.2563   0.3704   0.5485   0.5647   0.7030   0.9261
     1.1351   1.2211   1.4696   1.4731   2.4106   3.2253   3.2673   3.2784
     3.3350   3.3859   3.4363   3.4872   3.5022   3.5329   3.5668

          k = 0.0000-0.0839 0.0000 ( 17884 PWs)   bands (ev):

   -56.0911 -56.0889 -56.0886 -56.0846 -55.9859 -55.9640 -55.9511 -55.9290
   -55.8895 -55.8851 -55.8550 -55.8483 -55.6478 -55.5890 -55.0599 -55.0597
   -32.4669 -32.4623 -32.4027 -32.4014 -32.3859 -32.3843 -32.3658 -32.3536
   -32.3136 -32.2966 -32.2905 -32.2878 -32.2863 -32.2739 -32.2378 -32.2204
   -32.2181 -32.2132 -32.2108 -32.2010 -32.1786 -32.1772 -32.1696 -32.1673
   -32.1544 -32.1534 -32.1410 -32.1385 -32.1378 -32.1324 -32.0874 -32.0822
   -32.0739 -32.0665 -32.0614 -32.0337 -32.0303 -31.9722 -31.8885 -31.8413
   -31.8020 -31.7951 -31.3847 -31.3845 -31.2965 -31.2963 -31.2573 -31.2572
   -17.9724 -16.3986 -16.3821 -16.1857 -16.1763 -16.0342 -16.0100 -15.9412
   -15.9122 -15.8918 -15.8640 -15.8317 -15.8185 -15.6629 -15.6565 -15.5934
   -15.5064 -15.4957 -15.4753 -15.4746 -15.4543 -15.4382 -15.4370 -15.4098
   -15.3867 -15.3522 -15.3417 -15.1870 -15.1089 -15.0312 -13.5653 -13.5648
   -13.3098  -8.0427  -6.3473  -4.3001  -3.6072  -3.5879  -3.5280  -3.5081
    -3.4840  -3.4730  -3.4657  -3.3939  -3.3934  -3.3495  -3.2902  -3.2547
    -3.2212  -3.1965  -3.1781  -3.0689  -3.0632  -3.0420  -3.0112  -2.9637
    -2.9279  -2.8830  -2.8588  -2.8271  -2.8122  -2.7556  -2.7055  -2.6639
    -2.5856  -2.5322  -2.4823  -2.4468  -2.4013  -2.2051  -2.1876  -2.0345
    -2.0162  -1.9477  -1.8556  -1.7997  -1.7704  -1.7422  -1.5867  -1.5835
    -1.5355  -1.5248  -1.4790  -1.4648  -1.4513  -1.4096  -1.3830  -1.2894
    -1.2307  -1.1813  -1.1520  -0.9397  -0.9062  -0.8665  -0.7853  -0.7729
    -0.7341  -0.7174  -0.7069  -0.7021  -0.6158  -0.5934  -0.5632  -0.5514
    -0.5427  -0.5003  -0.4907  -0.4489  -0.4050  -0.3639  -0.3570  -0.3157
    -0.3097  -0.2833  -0.2514  -0.2083  -0.1952  -0.0987  -0.0301   0.1084
     0.1450   0.1495   0.1739   0.2798   0.5020   0.5804   0.6876   0.7528
     1.2788   1.2794   1.4059   1.4084   2.4180   3.3304   3.3539   3.3707
     3.3982   3.4662   3.4779   3.5641   3.5909   3.6213   3.6339

          k = 0.0380 0.0000 0.0000 ( 17913 PWs)   bands (ev):

   -56.1070 -56.1048 -56.0729 -56.0685 -55.9951 -55.9606 -55.9548 -55.9195
   -55.9042 -55.8702 -55.8689 -55.8345 -55.6508 -55.5860 -55.0768 -55.0428
   -32.6641 -32.5891 -32.4919 -32.4277 -32.4121 -32.4084 -32.3994 -32.3646
   -32.3472 -32.3151 -32.3057 -32.2853 -32.2786 -32.2565 -32.2462 -32.2453
   -32.2099 -32.2079 -32.1942 -32.1917 -32.1654 -32.1643 -32.1610 -32.1426
   -32.1185 -32.1021 -32.1017 -32.0974 -32.0967 -32.0855 -32.0709 -32.0652
   -32.0437 -32.0288 -32.0222 -32.0014 -31.9813 -31.9543 -31.8786 -31.8508
   -31.8017 -31.7392 -31.4831 -31.3996 -31.3718 -31.3003 -31.2139 -31.1025
   -17.9777 -16.8045 -16.4994 -16.3007 -16.2603 -16.1595 -16.1401 -15.9978
   -15.8290 -15.8215 -15.7947 -15.7910 -15.7256 -15.7142 -15.6811 -15.6475
   -15.6262 -15.4949 -15.4570 -15.4480 -15.3974 -15.3705 -15.3516 -15.3479
   -15.2948 -15.2750 -15.2546 -15.2107 -15.0228 -14.7974 -13.5758 -13.4625
   -13.3190  -8.0197  -6.3313  -4.3520  -4.1756  -3.8660  -3.8083  -3.7658
    -3.7293  -3.6743  -3.6430  -3.5892  -3.3448  -3.3282  -3.3147  -3.2185
    -3.1797  -3.1488  -3.0235  -2.9837  -2.9021  -2.8923  -2.8395  -2.8099
    -2.7892  -2.7036  -2.6861  -2.6641  -2.5683  -2.5270  -2.5049  -2.4773
    -2.3909  -2.3761  -2.3486  -2.3126  -2.3006  -2.2448  -2.2010  -2.1040
    -2.0817  -2.0396  -2.0061  -1.9427  -1.8916  -1.8306  -1.7825  -1.7010
    -1.6558  -1.6369  -1.5454  -1.5377  -1.5037  -1.4197  -1.3925  -1.3763
    -1.3485  -1.2514  -1.1934  -1.1219  -1.0331  -0.9677  -0.9376  -0.9131
    -0.8951  -0.8294  -0.7809  -0.6973  -0.6471  -0.5904  -0.5428  -0.5167
    -0.4226  -0.3927  -0.3702  -0.3404  -0.3183  -0.2958  -0.2638  -0.2420
    -0.2309  -0.2178  -0.1368  -0.0501  -0.0024   0.0489   0.1175   0.1529
     0.2248   0.2726   0.3481   0.4702   0.5948   0.6120   0.8790   0.9103
     0.9574   1.1081   1.4043   1.4782   2.3988   3.0648   3.0913   3.3546
     3.3755   3.4066   3.4482   3.4617   3.4801   3.4936   3.5408

          k = 0.0380 0.0419 0.0000 ( 17878 PWs)   bands (ev):

   -56.1020 -56.0995 -56.0779 -56.0737 -55.9912 -55.9588 -55.9565 -55.9236
   -55.8993 -55.8751 -55.8641 -55.8393 -55.6493 -55.5874 -55.0718 -55.0478
   -32.6062 -32.5351 -32.4390 -32.3978 -32.3951 -32.3853 -32.3733 -32.3311
   -32.3226 -32.3169 -32.3071 -32.3035 -32.2844 -32.2669 -32.2654 -32.2537
   -32.2431 -32.2035 -32.1903 -32.1785 -32.1780 -32.1598 -32.1551 -32.1501
   -32.1390 -32.1206 -32.1020 -32.0962 -32.0953 -32.0911 -32.0830 -32.0755
   -32.0740 -32.0633 -32.0353 -32.0304 -32.0291 -31.9577 -31.8835 -31.8492
   -31.8022 -31.7647 -31.4291 -31.3954 -31.3758 -31.2877 -31.2267 -31.1597
   -17.9745 -16.6741 -16.3861 -16.1978 -16.1551 -16.1017 -16.0572 -15.9900
   -15.9288 -15.8585 -15.7582 -15.7448 -15.7341 -15.7041 -15.6922 -15.5964
   -15.5717 -15.5493 -15.5084 -15.4886 -15.4656 -15.4275 -15.4223 -15.3534
   -15.3447 -15.3359 -15.3039 -15.2316 -15.0548 -14.8866 -13.5810 -13.5026
   -13.3174  -8.0206  -6.3274  -4.3425  -3.9996  -3.6938  -3.6555  -3.6160
    -3.5562  -3.4931  -3.4537  -3.4199  -3.2827  -3.2125  -3.1927  -3.1273
    -3.1143  -3.0854  -3.0242  -2.9866  -2.9794  -2.9254  -2.9044  -2.8830
    -2.8366  -2.8148  -2.7978  -2.7479  -2.7275  -2.7106  -2.6371  -2.5833
    -2.5568  -2.4412  -2.4204  -2.3556  -2.3198  -2.2691  -2.2389  -2.1394
    -2.0990  -2.0593  -2.0227  -1.9408  -1.8449  -1.8036  -1.6879  -1.6292
    -1.5693  -1.5266  -1.5000  -1.4330  -1.4062  -1.3738  -1.3197  -1.2697
    -1.2498  -1.2009  -1.1219  -1.0925  -1.0442  -1.0318  -0.9985  -0.9491
    -0.8783  -0.8536  -0.8258  -0.7919  -0.7773  -0.7266  -0.6944  -0.6521
    -0.5884  -0.5629  -0.5452  -0.4957  -0.4308  -0.3927  -0.3316  -0.2970
    -0.2754  -0.2071  -0.1570  -0.0459   0.0213   0.0816   0.1189   0.1730
     0.2517   0.2984   0.3186   0.3796   0.4672   0.5235   0.6220   0.8616
     1.1462   1.2260   1.3921   1.4538   2.4022   3.2069   3.2751   3.3392
     3.3770   3.4423   3.4528   3.5394   3.5805   3.6138   3.6223

          k = 0.0380-0.0839 0.0000 ( 17916 PWs)   bands (ev):

   -56.0911 -56.0889 -56.0886 -56.0846 -55.9860 -55.9641 -55.9511 -55.9290
   -55.8894 -55.8850 -55.8551 -55.8484 -55.6478 -55.5890 -55.0599 -55.0597
   -32.4671 -32.4626 -32.4034 -32.4021 -32.3859 -32.3843 -32.3658 -32.3536
   -32.3274 -32.3088 -32.2916 -32.2753 -32.2687 -32.2597 -32.2385 -32.2208
   -32.2192 -32.2121 -32.2096 -32.2018 -32.1881 -32.1872 -32.1806 -32.1685
   -32.1621 -32.1525 -32.1358 -32.1322 -32.1179 -32.1159 -32.0873 -32.0819
   -32.0737 -32.0667 -32.0615 -32.0454 -32.0422 -31.9720 -31.8891 -31.8421
   -31.8034 -31.7952 -31.3856 -31.3855 -31.2965 -31.2962 -31.2573 -31.2572
   -17.9712 -16.3532 -16.3471 -16.1361 -16.1251 -16.0133 -15.9845 -15.9400
   -15.8781 -15.8544 -15.8476 -15.8073 -15.7954 -15.6816 -15.6682 -15.6028
   -15.5602 -15.5528 -15.5135 -15.5104 -15.5082 -15.4692 -15.4541 -15.4426
   -15.4019 -15.3964 -15.3872 -15.1711 -15.1007 -15.0263 -13.5651 -13.5646
   -13.3164  -8.0211  -6.3232  -4.3265  -3.6013  -3.5818  -3.3887  -3.3697
    -3.3413  -3.3139  -3.2973  -3.2739  -3.2051  -3.1877  -3.1749  -3.1649
    -3.1323  -3.1162  -3.0960  -3.0243  -2.9749  -2.9617  -2.9404  -2.9230
    -2.8963  -2.8716  -2.8409  -2.8200  -2.8015  -2.7280  -2.7153  -2.6899
    -2.6337  -2.5401  -2.4864  -2.2876  -2.2493  -2.2016  -2.1436  -2.0479
    -2.0051  -1.9863  -1.9574  -1.9141  -1.8911  -1.8535  -1.7920  -1.7762
    -1.7367  -1.7188  -1.6266  -1.5864  -1.5025  -1.4659  -1.3746  -1.3406
    -1.2618  -1.2415  -1.1218  -1.0800  -1.0322  -0.9939  -0.9354  -0.9065
    -0.8533  -0.8507  -0.8115  -0.8057  -0.7693  -0.7147  -0.6925  -0.6754
    -0.6705  -0.6495  -0.6264  -0.5381  -0.5268  -0.4452  -0.3836  -0.3157
    -0.2902  -0.1778  -0.1373  -0.0161  -0.0080   0.0172   0.0384   0.0671
     0.0987   0.2082   0.2937   0.3352   0.4639   0.5407   0.6320   0.7110
     1.2920   1.2927   1.3953   1.3969   2.4095   3.3182   3.3426   3.3942
     3.4106   3.4554   3.4648   3.6208   3.6378   3.6614   3.6667

          k = 0.0380-0.0419 0.0000 ( 17876 PWs)   bands (ev):

   -56.1020 -56.0995 -56.0779 -56.0737 -55.9912 -55.9588 -55.9565 -55.9236
   -55.8993 -55.8751 -55.8641 -55.8393 -55.6493 -55.5874 -55.0718 -55.0478
   -32.6062 -32.5351 -32.4390 -32.3978 -32.3951 -32.3853 -32.3733 -32.3310
   -32.3226 -32.3166 -32.3066 -32.3042 -32.2844 -32.2669 -32.2655 -32.2532
   -32.2431 -32.2047 -32.1900 -32.1786 -32.1780 -32.1590 -32.1550 -32.1506
   -32.1377 -32.1191 -32.1053 -32.0962 -32.0953 -32.0911 -32.0830 -32.0755
   -32.0740 -32.0632 -32.0354 -32.0302 -32.0292 -31.9571 -31.8837 -31.8487
   -31.8022 -31.7649 -31.4290 -31.3954 -31.3758 -31.2877 -31.2267 -31.1597
   -17.9744 -16.6746 -16.3861 -16.2017 -16.1538 -16.1021 -16.0578 -15.9884
   -15.9294 -15.8585 -15.7585 -15.7378 -15.7131 -15.6968 -15.6942 -15.6242
   -15.5920 -15.5377 -15.5126 -15.4897 -15.4664 -15.4271 -15.4193 -15.3477
   -15.3411 -15.3352 -15.3032 -15.2328 -15.0542 -14.8868 -13.5810 -13.5026
   -13.3179  -8.0202  -6.3265  -4.3326  -3.9990  -3.6984  -3.6486  -3.5982
    -3.5554  -3.4928  -3.4519  -3.4194  -3.2801  -3.2311  -3.2033  -3.1424
    -3.1200  -3.0867  -3.0451  -3.0011  -2.9767  -2.9265  -2.9102  -2.8873
    -2.8553  -2.8169  -2.7989  -2.7469  -2.7326  -2.6704  -2.6176  -2.5695
    -2.5530  -2.5297  -2.4321  -2.3529  -2.3360  -2.2713  -2.2506  -2.1377
    -2.0921  -2.0735  -1.9872  -1.9003  -1.8480  -1.7856  -1.6826  -1.6232
    -1.5631  -1.5141  -1.4841  -1.4352  -1.4025  -1.3707  -1.3075  -1.2568
    -1.2125  -1.1713  -1.1236  -1.0760  -1.0513  -1.0192  -0.9899  -0.9311
    -0.8898  -0.8673  -0.8274  -0.7992  -0.7489  -0.7146  -0.6888  -0.6406
    -0.6212  -0.5677  -0.5600  -0.4797  -0.4108  -0.3921  -0.3415  -0.2876
    -0.2596  -0.2295  -0.1798  -0.0699   0.0032   0.0504   0.1092   0.1644
     0.1973   0.2819   0.3187   0.3724   0.4677   0.5295   0.6390   0.8617
     1.1461   1.2258   1.3919   1.4544   2.4049   3.2115   3.2767   3.3460
     3.3768   3.4352   3.4643   3.5444   3.5748   3.6157   3.6324

          k =-0.0760-0.0000 0.0000 ( 17886 PWs)   bands (ev):

   -56.1070 -56.1047 -56.0729 -56.0685 -55.9951 -55.9605 -55.9548 -55.9195
   -55.9040 -55.8702 -55.8690 -55.8345 -55.6508 -55.5860 -55.0768 -55.0428
   -32.6643 -32.5900 -32.4968 -32.4291 -32.4119 -32.4085 -32.3993 -32.3691
   -32.3473 -32.3073 -32.2865 -32.2835 -32.2779 -32.2537 -32.2453 -32.2407
   -32.2370 -32.2099 -32.1942 -32.1868 -32.1646 -32.1624 -32.1432 -32.1196
   -32.1192 -32.1124 -32.1021 -32.0993 -32.0986 -32.0947 -32.0792 -32.0708
   -32.0436 -32.0287 -32.0232 -32.0005 -31.9822 -31.9546 -31.8799 -31.8522
   -31.8020 -31.7392 -31.4827 -31.4028 -31.3705 -31.3003 -31.2138 -31.1026
   -17.9757 -16.7171 -16.4179 -16.2376 -16.2128 -16.1405 -16.0954 -15.9767
   -15.9076 -15.8778 -15.8145 -15.7967 -15.7920 -15.7791 -15.7772 -15.7344
   -15.6454 -15.4977 -15.4598 -15.4555 -15.4049 -15.3751 -15.3480 -15.3398
   -15.3118 -15.2586 -15.2030 -15.1865 -15.0186 -14.7974 -13.5728 -13.4622
   -13.3278  -7.9980  -6.3014  -4.3705  -4.1557  -3.7846  -3.7225  -3.6616
    -3.5366  -3.5039  -3.5026  -3.4317  -3.3630  -3.3512  -3.3287  -3.3155
    -3.1568  -3.1350  -2.9826  -2.9066  -2.8875  -2.8729  -2.8506  -2.7246
    -2.6671  -2.6647  -2.6046  -2.5845  -2.5296  -2.4937  -2.4612  -2.4241
    -2.3920  -2.3899  -2.3333  -2.3256  -2.3234  -2.3093  -2.2396  -2.2225
    -2.1498  -2.0427  -1.9259  -1.8951  -1.8294  -1.7451  -1.7010  -1.6947
    -1.6858  -1.6557  -1.6511  -1.5688  -1.5386  -1.4743  -1.4419  -1.4061
    -1.3802  -1.3353  -1.2913  -1.2661  -1.2588  -1.1051  -0.9758  -0.9498
    -0.8800  -0.8398  -0.7943  -0.7788  -0.7125  -0.6503  -0.5945  -0.5617
    -0.5344  -0.4879  -0.4773  -0.4395  -0.3703  -0.3618  -0.3179  -0.2819
    -0.2695  -0.2322  -0.1014  -0.0742  -0.0401  -0.0106   0.1544   0.1825
     0.2400   0.3511   0.3978   0.4689   0.4880   0.5926   0.6562   0.8923
     0.9785   1.0838   1.2751   1.4225   2.3922   3.0674   3.0728   3.1684
     3.3184   3.3609   3.4431   3.4781   3.4861   3.5311   3.5576

          k =-0.0760 0.0419 0.0000 ( 17914 PWs)   bands (ev):

   -56.1020 -56.0995 -56.0779 -56.0737 -55.9912 -55.9588 -55.9565 -55.9236
   -55.8992 -55.8751 -55.8642 -55.8394 -55.6494 -55.5875 -55.0718 -55.0478
   -32.6066 -32.5361 -32.4448 -32.3978 -32.3951 -32.3855 -32.3749 -32.3311
   -32.3228 -32.3195 -32.3083 -32.2860 -32.2820 -32.2672 -32.2655 -32.2441
   -32.2411 -32.2263 -32.1905 -32.1779 -32.1745 -32.1587 -32.1545 -32.1401
   -32.1213 -32.1206 -32.1026 -32.1011 -32.0944 -32.0912 -32.0828 -32.0827
   -32.0743 -32.0731 -32.0362 -32.0327 -32.0324 -31.9576 -31.8844 -31.8503
   -31.8032 -31.7648 -31.4288 -31.3982 -31.3751 -31.2878 -31.2267 -31.1598
   -17.9728 -16.5960 -16.3056 -16.1477 -16.1096 -16.0995 -16.0060 -15.9931
   -15.8804 -15.8497 -15.8399 -15.7737 -15.7641 -15.7504 -15.7290 -15.6838
   -15.6480 -15.5613 -15.5098 -15.4893 -15.4791 -15.4447 -15.4027 -15.3847
   -15.3646 -15.3478 -15.2774 -15.2158 -15.0496 -14.8873 -13.5789 -13.5030
   -13.3254  -7.9989  -6.2991  -4.3629  -3.9859  -3.6264  -3.4668  -3.4435
    -3.3774  -3.3537  -3.2652  -3.2313  -3.2205  -3.1885  -3.1510  -3.1182
    -3.1003  -3.0684  -3.0514  -3.0175  -2.9619  -2.9353  -2.8783  -2.8185
    -2.8129  -2.7896  -2.7736  -2.7213  -2.6826  -2.5853  -2.5826  -2.5791
    -2.5226  -2.4465  -2.4201  -2.2974  -2.2516  -2.2186  -2.2062  -2.1569
    -2.1091  -2.0706  -1.9701  -1.9514  -1.8874  -1.7438  -1.7117  -1.6603
    -1.6447  -1.5889  -1.5493  -1.5125  -1.4523  -1.4198  -1.4096  -1.3730
    -1.3260  -1.3082  -1.2675  -1.2493  -1.1982  -1.1663  -1.1416  -1.1116
    -1.0389  -0.9810  -0.9584  -0.8875  -0.8648  -0.8303  -0.7877  -0.7482
    -0.7155  -0.6593  -0.6209  -0.5716  -0.4624  -0.4076  -0.3703  -0.2919
    -0.2687  -0.1765  -0.1500  -0.0194   0.0713   0.1561   0.2150   0.2438
     0.2708   0.3145   0.3670   0.4189   0.4744   0.4991   0.5202   0.7203
     1.1610   1.2295   1.3156   1.4432   2.3965   3.1876   3.2362   3.2729
     3.3498   3.3885   3.3967   3.5121   3.5510   3.6261   3.6932

          k =-0.0760-0.0839 0.0000 ( 17948 PWs)   bands (ev):

   -56.0911 -56.0889 -56.0886 -56.0846 -55.9860 -55.9641 -55.9511 -55.9290
   -55.8894 -55.8850 -55.8552 -55.8485 -55.6478 -55.5890 -55.0599 -55.0597
   -32.4674 -32.4629 -32.4042 -32.4029 -32.3860 -32.3843 -32.3660 -32.3537
   -32.3348 -32.3154 -32.2919 -32.2753 -32.2496 -32.2399 -32.2391 -32.2206
   -32.2203 -32.2109 -32.2084 -32.2028 -32.2017 -32.1937 -32.1879 -32.1738
   -32.1690 -32.1506 -32.1343 -32.1316 -32.0888 -32.0868 -32.0851 -32.0811
   -32.0735 -32.0701 -32.0669 -32.0648 -32.0610 -31.9719 -31.8897 -31.8429
   -31.8048 -31.7953 -31.3866 -31.3864 -31.2964 -31.2962 -31.2574 -31.2573
   -17.9700 -16.3088 -16.2930 -16.0765 -16.0318 -16.0277 -16.0069 -15.9185
   -15.8282 -15.8090 -15.7949 -15.7773 -15.7622 -15.6823 -15.6567 -15.6344
   -15.6305 -15.6178 -15.5629 -15.5572 -15.5539 -15.5490 -15.5290 -15.4959
   -15.4134 -15.4084 -15.3975 -15.1596 -15.0942 -15.0224 -13.5649 -13.5644
   -13.3230  -7.9997  -6.2973  -4.3574  -3.6017  -3.5830  -3.3563  -3.3081
    -3.2836  -3.2746  -3.1597  -3.0575  -3.0274  -3.0148  -2.9762  -2.9580
    -2.9455  -2.9331  -2.9203  -2.9010  -2.8753  -2.8418  -2.8363  -2.7901
    -2.7736  -2.7526  -2.7351  -2.7134  -2.7124  -2.6718  -2.6659  -2.6272
    -2.5892  -2.5436  -2.4341  -2.3807  -2.3430  -2.2926  -2.2361  -2.2251
    -2.2162  -2.1622  -2.1570  -2.1231  -2.0382  -1.9623  -1.8272  -1.8052
    -1.7723  -1.7317  -1.6982  -1.6019  -1.5571  -1.5078  -1.4560  -1.3998
    -1.3883  -1.3456  -1.3087  -1.2422  -1.2255  -1.1856  -1.1645  -1.1023
    -1.0604  -1.0563  -0.9929  -0.9255  -0.8677  -0.8646  -0.8441  -0.8285
    -0.7714  -0.7234  -0.6568  -0.6076  -0.5659  -0.4690  -0.4120  -0.2963
    -0.1873  -0.0684   0.0028   0.0069   0.0622   0.1397   0.1852   0.2198
     0.2306   0.2488   0.3402   0.4121   0.4310   0.4451   0.5148   0.6975
     1.3102   1.3114   1.3803   1.3812   2.4017   3.3188   3.3572   3.3713
     3.4027   3.5475   3.5503   3.5624   3.5660   3.6844   3.7279

     the Fermi energy is     3.0278 ev

!    total energy              =   -2939.00608376 Ry
     estimated scf accuracy    <       0.00000002 Ry
     smearing contrib. (-TS)   =      -0.02200354 Ry
     internal energy E=F+TS    =   -2938.98408023 Ry

     The total energy is F=E-TS. E is the sum of the following terms:
     one-electron contribution =  -24452.73805015 Ry
     hartree contribution      =   12311.43009707 Ry
     xc contribution           =    -485.12807304 Ry
     ewald contribution        =    9687.45177081 Ry
     electric field correction =       0.00017508 Ry

     convergence has been achieved in  61 iterations

     Forces acting on atoms (cartesian axes, Ry/au):

     atom    1 type  1   force =     0.00018777   -0.00029039    0.09692445
     atom    2 type  1   force =     0.00007268   -0.00079038   -0.17497785
     atom    3 type  2   force =     0.00014605   -0.00008616   -0.02552282
     atom    4 type  2   force =    -0.00003300   -0.00142662    0.05153198
     atom    5 type  2   force =    -0.01205471   -0.00173035    0.00279572
     atom    6 type  2   force =     0.01347352   -0.00133937    0.00223535
     atom    7 type  1   force =     0.00041089    0.00016016   -0.01208250
     atom    8 type  1   force =     0.00019050    0.02419131    0.02898909
     atom    9 type  2   force =    -0.00004143    0.00052062   -0.00005987
     atom   10 type  2   force =    -0.00266792    0.00014624   -0.01164145
     atom   11 type  2   force =    -0.00003840    0.00026827    0.00004243
     atom   12 type  2   force =    -0.00023254   -0.00001486    0.00013746
     atom   13 type  1   force =    -0.00012826    0.00114796   -0.00015156
     atom   14 type  1   force =    -0.00000656    0.00050666    0.00006353
     atom   15 type  2   force =     0.00007278   -0.00025256   -0.00002420
     atom   16 type  2   force =    -0.00021411    0.00023118   -0.00033461
     atom   17 type  2   force =     0.00034781    0.00015159   -0.00041057
     atom   18 type  2   force =    -0.00027673    0.00011470   -0.00011598
     atom   19 type  1   force =    -0.00018904   -0.00020331   -0.00041659
     atom   20 type  1   force =     0.00019372    0.00016042   -0.00005503
     atom   21 type  2   force =     0.00007005   -0.00007120    0.10297023
     atom   22 type  2   force =    -0.00000802   -0.00035720   -0.00044605
     atom   23 type  2   force =    -0.07169201   -0.00016726   -0.02791973
     atom   24 type  2   force =     0.07159504    0.00028951   -0.02796100
     atom   25 type  1   force =     0.00003375   -0.00024631    0.09680803
     atom   26 type  1   force =    -0.00000374   -0.00018753   -0.17514773
     atom   27 type  2   force =     0.00015614   -0.00026680   -0.02419059
     atom   28 type  2   force =     0.00001248   -0.00117809    0.05208427
     atom   29 type  2   force =    -0.01221307    0.00078379    0.00247358
     atom   30 type  2   force =     0.01351499    0.00126507    0.00188124
     atom   31 type  1   force =     0.00045450    0.00287515   -0.01396973
     atom   32 type  1   force =     0.00038863   -0.02518393    0.03047982
     atom   33 type  2   force =     0.00004243   -0.00008171   -0.00016414
     atom   34 type  2   force =    -0.00184156   -0.00050190   -0.02072308
     atom   35 type  2   force =    -0.00000880    0.00021997   -0.00005770
     atom   36 type  2   force =     0.00018206    0.00033127    0.00015699
     atom   37 type  1   force =    -0.00020732   -0.00086108   -0.00003940
     atom   38 type  1   force =     0.00008004    0.00012827   -0.00021688
     atom   39 type  2   force =     0.00009199    0.00036207   -0.00018398
     atom   40 type  2   force =    -0.00006616    0.00007701    0.00039598
     atom   41 type  2   force =     0.00050674    0.00006451   -0.00017505
     atom   42 type  2   force =    -0.00028789   -0.00000161   -0.00036402
     atom   43 type  1   force =    -0.00036781    0.00034352    0.00015132
     atom   44 type  1   force =     0.00009645    0.00033461    0.00014058
     atom   45 type  2   force =     0.00005365   -0.00006577    0.10299149
     atom   46 type  2   force =    -0.07172474   -0.00011947   -0.02792069
     atom   47 type  2   force =     0.07160809    0.00025749   -0.02794685
     atom   48 type  3   force =    -0.00116160    0.00026030    0.00011683
     atom   49 type  4   force =     0.00330832   -0.00200975   -0.00119746
     atom   50 type  5   force =    -0.00161407    0.00195841    0.00121139
     atom   51 type  3   force =    -0.00036499    0.00037914   -0.00033259
     atom   52 type  5   force =     0.00010803   -0.00003814   -0.00005162
     atom   53 type  5   force =     0.00004538   -0.00005749    0.00021960

     Total force =     0.369018     Total SCF correction =     0.000261
  @ DRIVER MODE: Message from server: STATUS
  @ DRIVER MODE: Message from server: GETFORCE
  @ DRIVER MODE: Returning v,forces,stress,ensemble 

     Writing output data file ./calc.save/
  @ DRIVER MODE: Message from server: EXIT
  @ DRIVE MODE: Exiting  
 
     init_run     :     18.31s CPU     18.69s WALL (       1 calls)
     electrons    :   1706.25s CPU   1748.65s WALL (       1 calls)
     forces       :      4.12s CPU      4.31s WALL (       1 calls)

     Called by init_run:
     wfcinit      :      8.16s CPU      8.27s WALL (       1 calls)
     potinit      :      9.09s CPU      9.20s WALL (       1 calls)
     hinit0       :      0.49s CPU      0.51s WALL (       1 calls)

     Called by electrons:
     c_bands      :   1443.07s CPU   1467.43s WALL (      61 calls)
     sum_band     :    176.51s CPU    185.26s WALL (      61 calls)
     v_of_rho     :     66.14s CPU     68.60s WALL (      62 calls)
     newd         :     26.12s CPU     33.00s WALL (      62 calls)
     mix_rho      :      2.54s CPU      2.62s WALL (      61 calls)
     vdW_kernel   :      7.68s CPU      7.71s WALL (       1 calls)

     Called by c_bands:
     init_us_2    :     10.30s CPU     10.40s WALL (    1240 calls)
     cegterg      :   1414.65s CPU   1438.38s WALL (     621 calls)

     Called by *egterg:
     cdiaghg      :    198.00s CPU    199.68s WALL (    7282 calls)
     h_psi        :    773.48s CPU    787.78s WALL (    7292 calls)
     s_psi        :    110.30s CPU    111.16s WALL (    7292 calls)
     g_psi        :      2.81s CPU      2.84s WALL (    6661 calls)

     Called by h_psi:
     h_psi:calbec :    101.41s CPU    103.15s WALL (    7292 calls)
     vloc_psi     :    557.82s CPU    565.34s WALL (    7292 calls)
     add_vuspsi   :    110.07s CPU    112.45s WALL (    7292 calls)

     General routines
     calbec       :    132.44s CPU    134.40s WALL (    7942 calls)
     fft          :     35.69s CPU     36.00s WALL (    3906 calls)
     ffts         :      0.22s CPU      0.22s WALL (     123 calls)
     fftw         :    607.68s CPU    615.74s WALL (  834684 calls)
     interpolate  :      0.69s CPU      0.70s WALL (      62 calls)
     davcio       :      0.00s CPU      0.27s WALL (      10 calls)
 
     Parallel routines
 
     PWSCF        :  28m48.92s CPU  29m32.49s WALL

 
   This run was terminated on:  18:35: 4  23Aug2021            

=------------------------------------------------------------------------------=
   JOB DONE.
=------------------------------------------------------------------------------=
