
     Program PWSCF v.6.7GPU starts on 16Sep2021 at  8:42: 3 

     This program is part of the open-source Quantum ESPRESSO suite
     for quantum simulation of materials; please cite
         "P. Giannozzi et al., J. Phys.:Condens. Matter 21 395502 (2009);
         "P. Giannozzi et al., J. Phys.:Condens. Matter 29 465901 (2017);
         "P. Giannozzi et al., J. Chem. Phys. 152 154105 (2020);
          URL http://www.quantum-espresso.org", 
     in publications or presentations arising from this work. More details at
     http://www.quantum-espresso.org/quote

     Parallel version (MPI), running on    10 processors

     MPI processes distributed on     1 nodes
     R & G space division:  proc/nbgrp/npool/nimage =      10
     Reading input from /storage/home/hcoda1/3/ntian30/research/carbon/CxH_vib/H2O_calc/ads_slab/CH2NHHH2O_a/out_0050/pw.inp
Warning: card &CELL ignored
Warning: card   CELL_DYNAMICS='IPI', ignored
Warning: card / ignored

     Current dimensions of program PWSCF are:
     Max number of different atomic species (ntypx) = 10
     Max number of k-points (npk) =  40000
     Max angular momentum in pseudopotentials (lmaxx) =  3
     Presently no symmetry can be used with electric field

     Message from routine cell_base_init:
     DEPRECATED: use true lattice parameter, not A to a.u. conversion factor

     **************************************************************************
     Initializing libbeef V0.1.2 with the BEEF-vdW functional.
     Citation: Wellendorff et al., PRB 85, 235149 (2012).
     **************************************************************************


     IMPORTANT: XC functional enforced from input :
     Exchange-correlation= BEEF-VDW
                           (   1   4  43  14   2   0   0)
     Any further DFT definition will be discarded
     Please, verify this is what you really want


     Subspace diagonalization in iterative solution of the eigenvalue problem:
     one sub-group per band group will be used
     scalapack distributed-memory algorithm (size of sub-group:  3*  3 procs)

  @ DRIVER MODE: Connecting to 
 qe_1139763_2852609.sched-torque.pace.gatech.edufkll0ld7_scratch
  using UNIX socket
  @ DRIVER MODE: Message from server: STATUS
  @ DRIVER MODE: Message from server: INIT
  @ DRIVER MODE: Receiving replica           0          -1
  @ DRIVER MODE: Receiving encoded integer          25
  @ DRIVER MODE:  SCF:  T  FORCE:  T  STRESS:  F  VC:  F  ENSEMBLE:  F
  @ DRIVER MODE:  SCF:  T  FORCE:  T  STRESS:  F  VC:  F  ENSEMBLE:  F
 
     Parallelization info
     --------------------
     sticks:   dense  smooth     PW     G-vecs:    dense   smooth      PW
     Min         327     131     37                56683    14340    2191
     Max         328     133     38                56694    14346    2206
     Sum        3275    1317    379               566857   143421   21985
 
     Using Slab Decomposition
 


     bravais-lattice index     =            0
     lattice parameter (alat)  =       1.8897  a.u.
     unit-cell volume          =    6658.9804 (a.u.)^3
     number of atoms/cell      =           56
     number of atomic types    =            5
     number of electrons       =       399.00
     number of Kohn-Sham states=          209
     kinetic-energy cutoff     =      29.3995  Ry
     charge density cutoff     =     293.9946  Ry
     scf convergence threshold =      7.3E-08
     mixing beta               =       0.0500
     number of iterations used =            8  plain     mixing
     Exchange-correlation= BEEF-VDW
                           (   1   4  43  14   2   0   0)

     celldm(1)=   1.889726  celldm(2)=   0.000000  celldm(3)=   0.000000
     celldm(4)=   0.000000  celldm(5)=   0.000000  celldm(6)=   0.000000

     crystal axes: (cart. coord. in units of alat)
               a(1) = (   6.579727   0.000000   0.000000 )  
               a(2) = (  -0.000775   5.961596   0.000000 )  
               a(3) = (   0.000000   0.000000  25.155947 )  

     reciprocal axes: (cart. coord. in units 2 pi/alat)
               b(1) = (  0.151982  0.000020  0.000000 )  
               b(2) = (  0.000000  0.167740  0.000000 )  
               b(3) = (  0.000000  0.000000  0.039752 )  


     PseudoPot. # 1 for Ti read from file:
     /storage/coda1/p-amedford6/0/shared/rich_project_chbe-medford/medford-share/data/pseudos_module/espresso/nninc/pbe/van/Ti.UPF
     MD5 check sum: 8e4df49b7f0d34bbd5052bf3f5ea0213
     Pseudo is Ultrasoft, Zval = 12.0
     Generated by new atomic code, or converted to UPF format
     Using radial grid of  851 points,  6 beta functions with: 
                l(1) =   0
                l(2) =   0
                l(3) =   1
                l(4) =   1
                l(5) =   2
                l(6) =   2
     Q(r) pseudized with  8 coefficients,  rinner =    1.000   1.000   1.000
                                                       1.000   1.000

     PseudoPot. # 2 for O  read from file:
     /storage/coda1/p-amedford6/0/shared/rich_project_chbe-medford/medford-share/data/pseudos_module/espresso/nninc/pbe/van/O.UPF
     MD5 check sum: 78c19812648e8988a0fe644b0f25305e
     Pseudo is Ultrasoft, Zval =  6.0
     Generated by new atomic code, or converted to UPF format
     Using radial grid of  737 points,  4 beta functions with: 
                l(1) =   0
                l(2) =   0
                l(3) =   1
                l(4) =   1
     Q(r) pseudized with  8 coefficients,  rinner =    0.800   0.800   0.800


     PseudoPot. # 3 for N  read from file:
     /storage/coda1/p-amedford6/0/shared/rich_project_chbe-medford/medford-share/data/pseudos_module/espresso/nninc/pbe/van/N.UPF
     MD5 check sum: 90d10febe142ad51ac9d5be1deb811c4
     Pseudo is Ultrasoft, Zval =  5.0
     Generated by new atomic code, or converted to UPF format
     Using radial grid of  729 points,  4 beta functions with: 
                l(1) =   0
                l(2) =   0
                l(3) =   1
                l(4) =   1
     Q(r) pseudized with  8 coefficients,  rinner =    0.800   0.800   0.800


     PseudoPot. # 4 for C  read from file:
     /storage/coda1/p-amedford6/0/shared/rich_project_chbe-medford/medford-share/data/pseudos_module/espresso/nninc/pbe/van/C.UPF
     MD5 check sum: 1a69bf6b8db32088f5b2163dbdb77a27
     Pseudo is Ultrasoft, Zval =  4.0
     Generated by new atomic code, or converted to UPF format
     Using radial grid of  721 points,  4 beta functions with: 
                l(1) =   0
                l(2) =   0
                l(3) =   1
                l(4) =   1
     Q(r) pseudized with  8 coefficients,  rinner =    0.800   0.800   0.800


     PseudoPot. # 5 for H  read from file:
     /storage/coda1/p-amedford6/0/shared/rich_project_chbe-medford/medford-share/data/pseudos_module/espresso/nninc/pbe/van/H.UPF
     MD5 check sum: b5ee9d7bfd3a09ee7748110bda690ff7
     Pseudo is Ultrasoft, Zval =  1.0
     Generated by new atomic code, or converted to UPF format
     Using radial grid of  615 points,  1 beta functions with: 
                l(1) =   0
     Q(r) pseudized with  8 coefficients,  rinner =    0.800

     atomic species   valence    mass     pseudopotential
        Ti1           12.00    47.86700     Ti( 1.00)
        O1             6.00    15.99900     O ( 1.00)
        N1             5.00    14.00700     N ( 1.00)
        C1             4.00    12.01100     C ( 1.00)
        H1             1.00     1.00800     H ( 1.00)

     No symmetry found



   Cartesian axes

     site n.     atom                  positions (alat units)
         1           Ti1 tau(   1) = (   0.0004258   2.9801865   6.0000000  )
         2           Ti1 tau(   2) = (   3.2906075   1.4906267   6.0002472  )
         3           O1  tau(   3) = (   0.0006271   0.0005054   7.9858123  )
         4           O1  tau(   4) = (   3.2906025   0.0005020   7.3038282  )
         5           O1  tau(   5) = (   4.5942328   1.4918067   9.2879030  )
         6           O1  tau(   6) = (   1.9868534   1.4903216   9.2879459  )
         7           Ti1 tau(   7) = (   3.2907910   2.8959150   9.1758416  )
         8           Ti1 tau(   8) = (   0.0015273   1.4827037   9.2680791  )
         9           O1  tau(   9) = (   3.2861202   0.0128588  11.3777969  )
        10           O1  tau(  10) = (   0.0116148   5.9584955  10.6183126  )
        11           O1  tau(  11) = (   1.2831632   1.4993340  12.6921085  )
        12           O1  tau(  12) = (   5.2921761   1.5015178  12.6679780  )
        13           Ti1 tau(  13) = (   0.0111066   2.9912061  12.5123142  )
        14           Ti1 tau(  14) = (   3.3187119   1.4875497  12.5412637  )
        15           O1  tau(  15) = (   6.5416963   5.9006142  14.6662030  )
        16           O1  tau(  16) = (   3.3066524   0.0016155  14.0179881  )
        17           O1  tau(  17) = (   4.5377470   1.5714702  16.1207712  )
        18           O1  tau(  18) = (   1.9925948   1.5577299  16.0387284  )
        19           Ti1 tau(  19) = (   3.2598466   3.0207798  15.7337896  )
        20           Ti1 tau(  20) = (   0.0086319   1.3133152  15.8444473  )
        21           O1  tau(  21) = (   3.2904802   0.0005063   4.7018136  )
        22           O1  tau(  22) = (   6.5660721   0.1678205  17.2271563  )
        23           O1  tau(  23) = (   1.3043587   1.4918075   6.0039043  )
        24           O1  tau(  24) = (   5.2767064   1.4903225   6.0039473  )
        25           Ti1 tau(  25) = (   0.0000382   5.9609847   6.0000000  )
        26           Ti1 tau(  26) = (   3.2902200   4.4714249   6.0002472  )
        27           O1  tau(  27) = (   0.0002396   2.9813036   7.9858123  )
        28           O1  tau(  28) = (   3.2902150   2.9813002   7.3038282  )
        29           O1  tau(  29) = (   4.5938453   4.4726049   9.2879030  )
        30           O1  tau(  30) = (   1.9864658   4.4711199   9.2879459  )
        31           Ti1 tau(  31) = (   3.2891106   5.8743827   9.1763621  )
        32           Ti1 tau(  32) = (   0.0006254   4.4649316   9.2693709  )
        33           O1  tau(  33) = (   3.2870289   2.9785969  11.3746142  )
        34           O1  tau(  34) = (   0.0092240   2.9805883  10.6323155  )
        35           O1  tau(  35) = (   1.2865429   4.4729593  12.6568099  )
        36           O1  tau(  36) = (   5.2907978   4.4713399  12.6331247  )
        37           Ti1 tau(  37) = (   0.0245089   0.0029545  12.5000319  )
        38           Ti1 tau(  38) = (   3.3192338   4.4773935  12.5310228  )
        39           O1  tau(  39) = (   6.5398775   3.0461246  14.9162120  )
        40           O1  tau(  40) = (   3.2968145   3.0151409  13.9465962  )
        41           O1  tau(  41) = (   4.5189833   4.4812017  16.2068643  )
        42           O1  tau(  42) = (   1.9905864   4.4756957  16.1679402  )
        43           Ti1 tau(  43) = (   3.3140030   0.0507474  15.8534526  )
        44           Ti1 tau(  44) = (   0.0184218   4.5194176  15.9927436  )
        45           O1  tau(  45) = (   3.2900926   2.9813045   4.7018136  )
        46           O1  tau(  46) = (   1.3039711   4.4726057   6.0039043  )
        47           O1  tau(  47) = (   5.2763189   4.4711207   6.0039473  )
        48           N1  tau(  48) = (   6.2908993   3.4294391  18.1752670  )
        49           C1  tau(  49) = (   0.7550536   3.1452864  19.0745941  )
        50           H1  tau(  50) = (   1.1396299   3.9643166  19.6610198  )
        51           H1  tau(  51) = (   1.3301158   2.2513941  18.9084762  )
        52           H1  tau(  52) = (   5.7550451   4.2450011  18.4501662  )
        53           H1  tau(  53) = (   5.6463078   2.6497838  18.0429669  )
        54           O1  tau(  54) = (   3.1180431   0.1968263  18.2683150  )
        55           H1  tau(  55) = (   3.8687171   5.7182160  18.6922429  )
        56           H1  tau(  56) = (   2.3471514   5.6040609  18.4451484  )

     number of k points=    10  Fermi-Dirac smearing, width (Ry)=  0.0073
                       cart. coord. in units 2pi/alat
        k(    1) = (   0.0000000   0.0000000   0.0000000), wk =   0.1250000
        k(    2) = (   0.0000000   0.0419351   0.0000000), wk =   0.2500000
        k(    3) = (   0.0000000  -0.0838702   0.0000000), wk =   0.1250000
        k(    4) = (   0.0379955   0.0000049   0.0000000), wk =   0.2500000
        k(    5) = (   0.0379955   0.0419400   0.0000000), wk =   0.2500000
        k(    6) = (   0.0379955  -0.0838652   0.0000000), wk =   0.2500000
        k(    7) = (   0.0379955  -0.0419301   0.0000000), wk =   0.2500000
        k(    8) = (  -0.0759910  -0.0000099   0.0000000), wk =   0.1250000
        k(    9) = (  -0.0759910   0.0419252   0.0000000), wk =   0.2500000
        k(   10) = (  -0.0759910  -0.0838800   0.0000000), wk =   0.1250000

     Dense  grid:   566857 G-vectors     FFT dimensions: (  72,  64, 270)

     Smooth grid:   143421 G-vectors     FFT dimensions: (  45,  40, 180)

     Estimated max dynamical RAM per process >     366.69 MB

     Estimated total dynamical RAM >       3.58 GB
     Cannot read rho : file not found

     Initial potential from superposition of free atoms

     starting charge  382.99914, renormalised to  399.00000

     negative rho (up, down):  1.613E-02 0.000E+00


     %%%%%%%%%%%%%%%%%%%%%%%%%%%%%%%%%%%%%%%%%%%%%%%%%%%%%%%%%%%%%%%%%%%%%%%%
     %                                                                      %
     % You are using vdW-DF, which was implemented by the Thonhauser group. %
     % Please cite the following two papers that made this development      %
     % possible and the two reviews that describe the various versions:     %
     %                                                                      %
     %   T. Thonhauser et al., PRL 115, 136402 (2015).                      %
     %   T. Thonhauser et al., PRB 76, 125112 (2007).                       %
     %   K. Berland et al., Rep. Prog. Phys. 78, 066501 (2015).             %
     %   D.C. Langreth et al., J. Phys.: Condens. Matter 21, 084203 (2009). %
     %                                                                      %
     %                                                                      %
     % If you are calculating the stress with vdW-DF, please also cite:     %
     %                                                                      %
     %   R. Sabatini et al., J. Phys.: Condens. Matter 24, 424209 (2012).   %
     %                                                                      %
     %%%%%%%%%%%%%%%%%%%%%%%%%%%%%%%%%%%%%%%%%%%%%%%%%%%%%%%%%%%%%%%%%%%%%%%%


 
     Adding external electric field

     Computed dipole along edir(3) : 
        Dipole              -11.3169 Ry au,        -28.7647 Debye
        Dipole field         -0.0214 Ry au, 
 
        Potential amp.        1.9797 Ry
        Total length         46.3494 bohr
 
     Starting wfcs are  302 atomic wfcs
  @ DRIVER MODE: Message from server: STATUS
  @ DRIVER MODE: Message from server: POSDATA
  @ DRIVER MODE: Reading and sharing cell 
  @ DRIVER MODE: Reading and sharing positions 
  @ DRIVER MODE: Received positions 

     total cpu time spent up to now is       11.9 secs

     Self-consistent Calculation

     iteration #  1     ecut=    29.40 Ry     beta= 0.05
     Davidson diagonalization with overlap
     c_bands:  3 eigenvalues not converged
     c_bands:  3 eigenvalues not converged
     c_bands:  1 eigenvalues not converged
     c_bands:  4 eigenvalues not converged
     c_bands:  1 eigenvalues not converged
     c_bands:  1 eigenvalues not converged
     c_bands:  1 eigenvalues not converged
     c_bands:  2 eigenvalues not converged
     c_bands:  3 eigenvalues not converged
     ethr =  1.00E-05,  avg # of iterations = 24.0

     negative rho (up, down):  1.095E-02 0.000E+00
 
     Adding external electric field

     Computed dipole along edir(3) : 
        Dipole               48.4799 Ry au,        123.2236 Debye
        Dipole field          0.0915 Ry au, 
 
        Potential amp.       -8.4808 Ry
        Total length         46.3494 bohr
 

     total cpu time spent up to now is       55.7 secs

     total energy              =   -2437.54755141 Ry
     estimated scf accuracy    <    5825.83532473 Ry

     iteration #  2     ecut=    29.40 Ry     beta= 0.05
     Davidson diagonalization with overlap
     ethr =  1.00E-02,  avg # of iterations = 27.1

     negative rho (up, down):  1.921E-03 0.000E+00
 
     Adding external electric field

     Computed dipole along edir(3) : 
        Dipole               -1.5659 Ry au,         -3.9802 Debye
        Dipole field         -0.0030 Ry au, 
 
        Potential amp.        0.2739 Ry
        Total length         46.3494 bohr
 

     total cpu time spent up to now is      132.2 secs

     total energy              =   -2441.46185834 Ry
     estimated scf accuracy    <   70096.97634365 Ry

     iteration #  3     ecut=    29.40 Ry     beta= 0.05
     Davidson diagonalization with overlap
     ethr =  1.00E-02,  avg # of iterations = 16.1

     negative rho (up, down):  1.993E-03 0.000E+00
 
     Adding external electric field

     Computed dipole along edir(3) : 
        Dipole               -4.2492 Ry au,        -10.8004 Debye
        Dipole field         -0.0080 Ry au, 
 
        Potential amp.        0.7433 Ry
        Total length         46.3494 bohr
 

     total cpu time spent up to now is      180.0 secs

     total energy              =   -2942.11761765 Ry
     estimated scf accuracy    <    5034.81552286 Ry

     iteration #  4     ecut=    29.40 Ry     beta= 0.05
     Davidson diagonalization with overlap
     ethr =  1.00E-02,  avg # of iterations = 11.2

     negative rho (up, down):  2.045E-03 0.000E+00
 
     Adding external electric field

     Computed dipole along edir(3) : 
        Dipole               -6.0938 Ry au,        -15.4889 Debye
        Dipole field         -0.0115 Ry au, 
 
        Potential amp.        1.0660 Ry
        Total length         46.3494 bohr
 

     total cpu time spent up to now is      198.7 secs

     total energy              =   -2939.27713523 Ry
     estimated scf accuracy    <    2099.46226645 Ry

     iteration #  5     ecut=    29.40 Ry     beta= 0.05
     Davidson diagonalization with overlap
     c_bands:  2 eigenvalues not converged
     c_bands:  3 eigenvalues not converged
     ethr =  1.00E-02,  avg # of iterations = 11.3

     negative rho (up, down):  2.101E-03 0.000E+00
 
     Adding external electric field

     Computed dipole along edir(3) : 
        Dipole               -6.3312 Ry au,        -16.0922 Debye
        Dipole field         -0.0119 Ry au, 
 
        Potential amp.        1.1075 Ry
        Total length         46.3494 bohr
 

     total cpu time spent up to now is      214.9 secs

     total energy              =   -2948.53601286 Ry
     estimated scf accuracy    <     445.45320231 Ry

     iteration #  6     ecut=    29.40 Ry     beta= 0.05
     Davidson diagonalization with overlap
     ethr =  1.00E-02,  avg # of iterations =  6.9

     negative rho (up, down):  2.102E-03 0.000E+00
 
     Adding external electric field

     Computed dipole along edir(3) : 
        Dipole               -6.1265 Ry au,        -15.5719 Debye
        Dipole field         -0.0116 Ry au, 
 
        Potential amp.        1.0717 Ry
        Total length         46.3494 bohr
 

     total cpu time spent up to now is      228.1 secs

     total energy              =   -2955.25242249 Ry
     estimated scf accuracy    <      79.15856787 Ry

     iteration #  7     ecut=    29.40 Ry     beta= 0.05
     Davidson diagonalization with overlap
     ethr =  1.00E-02,  avg # of iterations =  2.6

     negative rho (up, down):  2.186E-03 0.000E+00
 
     Adding external electric field

     Computed dipole along edir(3) : 
        Dipole               -4.0915 Ry au,        -10.3996 Debye
        Dipole field         -0.0077 Ry au, 
 
        Potential amp.        0.7158 Ry
        Total length         46.3494 bohr
 

     total cpu time spent up to now is      238.8 secs

     total energy              =   -2956.38288447 Ry
     estimated scf accuracy    <      53.04276138 Ry

     iteration #  8     ecut=    29.40 Ry     beta= 0.05
     Davidson diagonalization with overlap
     ethr =  1.00E-02,  avg # of iterations =  1.1

     negative rho (up, down):  2.275E-03 0.000E+00
 
     Adding external electric field

     Computed dipole along edir(3) : 
        Dipole               -2.6712 Ry au,         -6.7895 Debye
        Dipole field         -0.0050 Ry au, 
 
        Potential amp.        0.4673 Ry
        Total length         46.3494 bohr
 

     total cpu time spent up to now is      248.7 secs

     total energy              =   -2956.83363950 Ry
     estimated scf accuracy    <      57.54734647 Ry

     iteration #  9     ecut=    29.40 Ry     beta= 0.05
     Davidson diagonalization with overlap
     ethr =  1.00E-02,  avg # of iterations =  1.0

     negative rho (up, down):  2.329E-03 0.000E+00
 
     Adding external electric field

     Computed dipole along edir(3) : 
        Dipole               -2.2922 Ry au,         -5.8261 Debye
        Dipole field         -0.0043 Ry au, 
 
        Potential amp.        0.4010 Ry
        Total length         46.3494 bohr
 

     total cpu time spent up to now is      258.4 secs

     total energy              =   -2958.80856832 Ry
     estimated scf accuracy    <     468.80748656 Ry

     iteration # 10     ecut=    29.40 Ry     beta= 0.05
     Davidson diagonalization with overlap
     ethr =  1.00E-02,  avg # of iterations =  1.0

     negative rho (up, down):  3.017E-03 0.000E+00
 
     Adding external electric field

     Computed dipole along edir(3) : 
        Dipole                0.0273 Ry au,          0.0695 Debye
        Dipole field          0.0001 Ry au, 
 
        Potential amp.       -0.0048 Ry
        Total length         46.3494 bohr
 

     total cpu time spent up to now is      268.2 secs

     total energy              =   -2960.95243459 Ry
     estimated scf accuracy    <     667.12041628 Ry

     iteration # 11     ecut=    29.40 Ry     beta= 0.05
     Davidson diagonalization with overlap
     ethr =  1.00E-02,  avg # of iterations =  4.7

     negative rho (up, down):  2.998E-03 0.000E+00
 
     Adding external electric field

     Computed dipole along edir(3) : 
        Dipole               -1.7216 Ry au,         -4.3759 Debye
        Dipole field         -0.0032 Ry au, 
 
        Potential amp.        0.3012 Ry
        Total length         46.3494 bohr
 

     total cpu time spent up to now is      280.0 secs

     total energy              =   -2952.04608667 Ry
     estimated scf accuracy    <     930.25320563 Ry

     iteration # 12     ecut=    29.40 Ry     beta= 0.05
     Davidson diagonalization with overlap
     ethr =  1.00E-02,  avg # of iterations =  2.1

     negative rho (up, down):  2.938E-03 0.000E+00
 
     Adding external electric field

     Computed dipole along edir(3) : 
        Dipole               -2.8818 Ry au,         -7.3249 Debye
        Dipole field         -0.0054 Ry au, 
 
        Potential amp.        0.5041 Ry
        Total length         46.3494 bohr
 

     total cpu time spent up to now is      290.6 secs

     total energy              =   -2952.44957600 Ry
     estimated scf accuracy    <     155.61381536 Ry

     iteration # 13     ecut=    29.40 Ry     beta= 0.05
     Davidson diagonalization with overlap
     ethr =  1.00E-02,  avg # of iterations =  4.5

     negative rho (up, down):  2.886E-03 0.000E+00
 
     Adding external electric field

     Computed dipole along edir(3) : 
        Dipole               -2.6407 Ry au,         -6.7120 Debye
        Dipole field         -0.0050 Ry au, 
 
        Potential amp.        0.4620 Ry
        Total length         46.3494 bohr
 

     total cpu time spent up to now is      301.9 secs

     total energy              =   -2954.51753673 Ry
     estimated scf accuracy    <      45.17777446 Ry

     iteration # 14     ecut=    29.40 Ry     beta= 0.05
     Davidson diagonalization with overlap
     ethr =  1.00E-02,  avg # of iterations =  1.4

     negative rho (up, down):  2.787E-03 0.000E+00
 
     Adding external electric field

     Computed dipole along edir(3) : 
        Dipole               -3.6653 Ry au,         -9.3163 Debye
        Dipole field         -0.0069 Ry au, 
 
        Potential amp.        0.6412 Ry
        Total length         46.3494 bohr
 

     total cpu time spent up to now is      311.8 secs

     total energy              =   -2953.21873513 Ry
     estimated scf accuracy    <      40.34732743 Ry

     iteration # 15     ecut=    29.40 Ry     beta= 0.05
     Davidson diagonalization with overlap
     ethr =  1.00E-02,  avg # of iterations =  1.4

     negative rho (up, down):  2.915E-03 0.000E+00
 
     Adding external electric field

     Computed dipole along edir(3) : 
        Dipole               -3.9758 Ry au,        -10.1055 Debye
        Dipole field         -0.0075 Ry au, 
 
        Potential amp.        0.6955 Ry
        Total length         46.3494 bohr
 

     total cpu time spent up to now is      321.7 secs

     total energy              =   -2952.89855490 Ry
     estimated scf accuracy    <      22.70760587 Ry

     iteration # 16     ecut=    29.40 Ry     beta= 0.05
     Davidson diagonalization with overlap
     c_bands:  4 eigenvalues not converged
     c_bands:  1 eigenvalues not converged
     ethr =  5.69E-03,  avg # of iterations =  6.9

     negative rho (up, down):  2.846E-03 0.000E+00
 
     Adding external electric field

     Computed dipole along edir(3) : 
        Dipole               -4.1095 Ry au,        -10.4453 Debye
        Dipole field         -0.0078 Ry au, 
 
        Potential amp.        0.7189 Ry
        Total length         46.3494 bohr
 

     total cpu time spent up to now is      334.0 secs

     total energy              =   -2954.38537577 Ry
     estimated scf accuracy    <       2.18395036 Ry

     iteration # 17     ecut=    29.40 Ry     beta= 0.05
     Davidson diagonalization with overlap
     c_bands:  3 eigenvalues not converged
     c_bands:  2 eigenvalues not converged
     c_bands:  1 eigenvalues not converged
     c_bands:  3 eigenvalues not converged
     ethr =  5.47E-04,  avg # of iterations = 18.1

     negative rho (up, down):  2.827E-03 0.000E+00
 
     Adding external electric field

     Computed dipole along edir(3) : 
        Dipole               -4.0623 Ry au,        -10.3253 Debye
        Dipole field         -0.0077 Ry au, 
 
        Potential amp.        0.7106 Ry
        Total length         46.3494 bohr
 

     total cpu time spent up to now is      356.1 secs

     total energy              =   -2956.55151608 Ry
     estimated scf accuracy    <      31.79103912 Ry

     iteration # 18     ecut=    29.40 Ry     beta= 0.05
     Davidson diagonalization with overlap
     ethr =  5.47E-04,  avg # of iterations =  2.6

     negative rho (up, down):  2.760E-03 0.000E+00
 
     Adding external electric field

     Computed dipole along edir(3) : 
        Dipole               -4.6394 Ry au,        -11.7921 Debye
        Dipole field         -0.0088 Ry au, 
 
        Potential amp.        0.8116 Ry
        Total length         46.3494 bohr
 

     total cpu time spent up to now is      366.6 secs

     total energy              =   -2957.35381211 Ry
     estimated scf accuracy    <      44.43164392 Ry

     iteration # 19     ecut=    29.40 Ry     beta= 0.05
     Davidson diagonalization with overlap
     ethr =  5.47E-04,  avg # of iterations =  2.5

     negative rho (up, down):  2.882E-03 0.000E+00
 
     Adding external electric field

     Computed dipole along edir(3) : 
        Dipole               -4.3886 Ry au,        -11.1547 Debye
        Dipole field         -0.0083 Ry au, 
 
        Potential amp.        0.7677 Ry
        Total length         46.3494 bohr
 

     total cpu time spent up to now is      377.4 secs

     total energy              =   -2957.58971756 Ry
     estimated scf accuracy    <     304.58517895 Ry

     iteration # 20     ecut=    29.40 Ry     beta= 0.05
     Davidson diagonalization with overlap
     ethr =  5.47E-04,  avg # of iterations =  1.3

     negative rho (up, down):  2.891E-03 0.000E+00
 
     Adding external electric field

     Computed dipole along edir(3) : 
        Dipole               -4.3131 Ry au,        -10.9629 Debye
        Dipole field         -0.0081 Ry au, 
 
        Potential amp.        0.7545 Ry
        Total length         46.3494 bohr
 

     total cpu time spent up to now is      387.4 secs

     total energy              =   -2957.64987087 Ry
     estimated scf accuracy    <     320.18076904 Ry

     iteration # 21     ecut=    29.40 Ry     beta= 0.05
     Davidson diagonalization with overlap
     ethr =  5.47E-04,  avg # of iterations =  1.0

     negative rho (up, down):  2.969E-03 0.000E+00
 
     Adding external electric field

     Computed dipole along edir(3) : 
        Dipole               -3.4645 Ry au,         -8.8060 Debye
        Dipole field         -0.0065 Ry au, 
 
        Potential amp.        0.6061 Ry
        Total length         46.3494 bohr
 

     total cpu time spent up to now is      397.1 secs

     total energy              =   -2956.83295313 Ry
     estimated scf accuracy    <     332.31013164 Ry

     iteration # 22     ecut=    29.40 Ry     beta= 0.05
     Davidson diagonalization with overlap
     ethr =  5.47E-04,  avg # of iterations =  1.2

     negative rho (up, down):  2.916E-03 0.000E+00
 
     Adding external electric field

     Computed dipole along edir(3) : 
        Dipole               -2.2028 Ry au,         -5.5989 Debye
        Dipole field         -0.0042 Ry au, 
 
        Potential amp.        0.3853 Ry
        Total length         46.3494 bohr
 

     total cpu time spent up to now is      407.2 secs

     total energy              =   -2955.55056586 Ry
     estimated scf accuracy    <     214.06346443 Ry

     iteration # 23     ecut=    29.40 Ry     beta= 0.05
     Davidson diagonalization with overlap
     ethr =  5.47E-04,  avg # of iterations =  4.0

     negative rho (up, down):  3.036E-03 0.000E+00
 
     Adding external electric field

     Computed dipole along edir(3) : 
        Dipole               -1.7051 Ry au,         -4.3339 Debye
        Dipole field         -0.0032 Ry au, 
 
        Potential amp.        0.2983 Ry
        Total length         46.3494 bohr
 

     total cpu time spent up to now is      418.5 secs

     total energy              =   -2955.93007046 Ry
     estimated scf accuracy    <      29.61596143 Ry

     iteration # 24     ecut=    29.40 Ry     beta= 0.05
     Davidson diagonalization with overlap
     ethr =  5.47E-04,  avg # of iterations =  1.0

     negative rho (up, down):  3.104E-03 0.000E+00
 
     Adding external electric field

     Computed dipole along edir(3) : 
        Dipole               -1.4024 Ry au,         -3.5644 Debye
        Dipole field         -0.0026 Ry au, 
 
        Potential amp.        0.2453 Ry
        Total length         46.3494 bohr
 

     total cpu time spent up to now is      428.3 secs

     total energy              =   -2955.75706654 Ry
     estimated scf accuracy    <      39.52168854 Ry

     iteration # 25     ecut=    29.40 Ry     beta= 0.05
     Davidson diagonalization with overlap
     ethr =  5.47E-04,  avg # of iterations =  1.0

     negative rho (up, down):  3.909E-03 0.000E+00
 
     Adding external electric field

     Computed dipole along edir(3) : 
        Dipole                0.7246 Ry au,          1.8417 Debye
        Dipole field          0.0014 Ry au, 
 
        Potential amp.       -0.1268 Ry
        Total length         46.3494 bohr
 

     total cpu time spent up to now is      438.0 secs

     total energy              =   -2954.87820716 Ry
     estimated scf accuracy    <      26.07239309 Ry

     iteration # 26     ecut=    29.40 Ry     beta= 0.05
     Davidson diagonalization with overlap
     ethr =  5.47E-04,  avg # of iterations = 12.5

     negative rho (up, down):  3.721E-03 0.000E+00
 
     Adding external electric field

     Computed dipole along edir(3) : 
        Dipole                0.2700 Ry au,          0.6862 Debye
        Dipole field          0.0005 Ry au, 
 
        Potential amp.       -0.0472 Ry
        Total length         46.3494 bohr
 

     total cpu time spent up to now is      456.2 secs

     total energy              =   -2955.44595094 Ry
     estimated scf accuracy    <       4.03886533 Ry

     iteration # 27     ecut=    29.40 Ry     beta= 0.05
     Davidson diagonalization with overlap
     ethr =  5.47E-04,  avg # of iterations =  1.1

     negative rho (up, down):  3.633E-03 0.000E+00
 
     Adding external electric field

     Computed dipole along edir(3) : 
        Dipole                0.2991 Ry au,          0.7602 Debye
        Dipole field          0.0006 Ry au, 
 
        Potential amp.       -0.0523 Ry
        Total length         46.3494 bohr
 

     total cpu time spent up to now is      466.1 secs

     total energy              =   -2955.38686179 Ry
     estimated scf accuracy    <       3.53427220 Ry

     iteration # 28     ecut=    29.40 Ry     beta= 0.05
     Davidson diagonalization with overlap
     ethr =  5.47E-04,  avg # of iterations =  1.0

     negative rho (up, down):  3.613E-03 0.000E+00
 
     Adding external electric field

     Computed dipole along edir(3) : 
        Dipole                0.2573 Ry au,          0.6541 Debye
        Dipole field          0.0005 Ry au, 
 
        Potential amp.       -0.0450 Ry
        Total length         46.3494 bohr
 

     total cpu time spent up to now is      475.8 secs

     total energy              =   -2955.41316664 Ry
     estimated scf accuracy    <       3.02982838 Ry

     iteration # 29     ecut=    29.40 Ry     beta= 0.05
     Davidson diagonalization with overlap
     ethr =  5.47E-04,  avg # of iterations =  1.0

     negative rho (up, down):  3.554E-03 0.000E+00
 
     Adding external electric field

     Computed dipole along edir(3) : 
        Dipole                0.1259 Ry au,          0.3201 Debye
        Dipole field          0.0002 Ry au, 
 
        Potential amp.       -0.0220 Ry
        Total length         46.3494 bohr
 

     total cpu time spent up to now is      485.6 secs

     total energy              =   -2955.36170194 Ry
     estimated scf accuracy    <       3.06964763 Ry

     iteration # 30     ecut=    29.40 Ry     beta= 0.05
     Davidson diagonalization with overlap
     ethr =  5.47E-04,  avg # of iterations =  1.0

     negative rho (up, down):  3.534E-03 0.000E+00
 
     Adding external electric field

     Computed dipole along edir(3) : 
        Dipole               -0.8182 Ry au,         -2.0797 Debye
        Dipole field         -0.0015 Ry au, 
 
        Potential amp.        0.1431 Ry
        Total length         46.3494 bohr
 

     total cpu time spent up to now is      495.3 secs

     total energy              =   -2955.05629643 Ry
     estimated scf accuracy    <       2.97676505 Ry

     iteration # 31     ecut=    29.40 Ry     beta= 0.05
     Davidson diagonalization with overlap
     ethr =  5.47E-04,  avg # of iterations =  2.0

     negative rho (up, down):  3.629E-03 0.000E+00
 
     Adding external electric field

     Computed dipole along edir(3) : 
        Dipole               -1.0283 Ry au,         -2.6138 Debye
        Dipole field         -0.0019 Ry au, 
 
        Potential amp.        0.1799 Ry
        Total length         46.3494 bohr
 

     total cpu time spent up to now is      506.1 secs

     total energy              =   -2955.30211585 Ry
     estimated scf accuracy    <       9.92956166 Ry

     iteration # 32     ecut=    29.40 Ry     beta= 0.05
     Davidson diagonalization with overlap
     ethr =  5.47E-04,  avg # of iterations =  3.1

     negative rho (up, down):  3.830E-03 0.000E+00
 
     Adding external electric field

     Computed dipole along edir(3) : 
        Dipole               -0.5904 Ry au,         -1.5008 Debye
        Dipole field         -0.0011 Ry au, 
 
        Potential amp.        0.1033 Ry
        Total length         46.3494 bohr
 

     total cpu time spent up to now is      517.1 secs

     total energy              =   -2955.26096279 Ry
     estimated scf accuracy    <       9.68555977 Ry

     iteration # 33     ecut=    29.40 Ry     beta= 0.05
     Davidson diagonalization with overlap
     ethr =  5.47E-04,  avg # of iterations =  2.0

     negative rho (up, down):  3.778E-03 0.000E+00
 
     Adding external electric field

     Computed dipole along edir(3) : 
        Dipole               -0.9544 Ry au,         -2.4259 Debye
        Dipole field         -0.0018 Ry au, 
 
        Potential amp.        0.1670 Ry
        Total length         46.3494 bohr
 

     total cpu time spent up to now is      527.3 secs

     total energy              =   -2955.45211645 Ry
     estimated scf accuracy    <       8.60348616 Ry

     iteration # 34     ecut=    29.40 Ry     beta= 0.05
     Davidson diagonalization with overlap
     ethr =  5.47E-04,  avg # of iterations =  5.7

     negative rho (up, down):  3.827E-03 0.000E+00
 
     Adding external electric field

     Computed dipole along edir(3) : 
        Dipole               -0.8593 Ry au,         -2.1841 Debye
        Dipole field         -0.0016 Ry au, 
 
        Potential amp.        0.1503 Ry
        Total length         46.3494 bohr
 

     total cpu time spent up to now is      538.7 secs

     total energy              =   -2955.59360999 Ry
     estimated scf accuracy    <       9.60946309 Ry

     iteration # 35     ecut=    29.40 Ry     beta= 0.05
     Davidson diagonalization with overlap
     c_bands:  1 eigenvalues not converged
     ethr =  5.47E-04,  avg # of iterations = 12.6

     negative rho (up, down):  5.044E-03 0.000E+00
 
     Adding external electric field

     Computed dipole along edir(3) : 
        Dipole               -0.0474 Ry au,         -0.1204 Debye
        Dipole field         -0.0001 Ry au, 
 
        Potential amp.        0.0083 Ry
        Total length         46.3494 bohr
 

     total cpu time spent up to now is      552.0 secs

     total energy              =   -2955.40134848 Ry
     estimated scf accuracy    <       9.37242364 Ry

     iteration # 36     ecut=    29.40 Ry     beta= 0.05
     Davidson diagonalization with overlap
     c_bands:  1 eigenvalues not converged
     c_bands:  1 eigenvalues not converged
     c_bands:  2 eigenvalues not converged
     c_bands:  1 eigenvalues not converged
     c_bands:  2 eigenvalues not converged
     c_bands:  4 eigenvalues not converged
     ethr =  5.47E-04,  avg # of iterations = 19.0

     negative rho (up, down):  4.367E-03 0.000E+00
 
     Adding external electric field

     Computed dipole along edir(3) : 
        Dipole               -0.3311 Ry au,         -0.8416 Debye
        Dipole field         -0.0006 Ry au, 
 
        Potential amp.        0.0579 Ry
        Total length         46.3494 bohr
 

     total cpu time spent up to now is      569.2 secs

     total energy              =   -2955.13403465 Ry
     estimated scf accuracy    <       4.77061903 Ry

     iteration # 37     ecut=    29.40 Ry     beta= 0.05
     Davidson diagonalization with overlap
     ethr =  5.47E-04,  avg # of iterations =  3.2

     negative rho (up, down):  4.512E-03 0.000E+00
 
     Adding external electric field

     Computed dipole along edir(3) : 
        Dipole               -0.4563 Ry au,         -1.1599 Debye
        Dipole field         -0.0009 Ry au, 
 
        Potential amp.        0.0798 Ry
        Total length         46.3494 bohr
 

     total cpu time spent up to now is      580.2 secs

     total energy              =   -2955.31412773 Ry
     estimated scf accuracy    <       4.91722419 Ry

     iteration # 38     ecut=    29.40 Ry     beta= 0.05
     Davidson diagonalization with overlap
     ethr =  5.47E-04,  avg # of iterations =  4.3

     negative rho (up, down):  4.557E-03 0.000E+00
 
     Adding external electric field

     Computed dipole along edir(3) : 
        Dipole                0.4370 Ry au,          1.1108 Debye
        Dipole field          0.0008 Ry au, 
 
        Potential amp.       -0.0765 Ry
        Total length         46.3494 bohr
 

     total cpu time spent up to now is      591.1 secs

     total energy              =   -2955.11811395 Ry
     estimated scf accuracy    <       4.00863629 Ry

     iteration # 39     ecut=    29.40 Ry     beta= 0.05
     Davidson diagonalization with overlap
     ethr =  5.47E-04,  avg # of iterations =  3.3

     negative rho (up, down):  5.526E-03 0.000E+00
 
     Adding external electric field

     Computed dipole along edir(3) : 
        Dipole                1.4059 Ry au,          3.5735 Debye
        Dipole field          0.0027 Ry au, 
 
        Potential amp.       -0.2459 Ry
        Total length         46.3494 bohr
 

     total cpu time spent up to now is      601.8 secs

     total energy              =   -2954.68715561 Ry
     estimated scf accuracy    <       5.93500009 Ry

     iteration # 40     ecut=    29.40 Ry     beta= 0.05
     Davidson diagonalization with overlap
     c_bands:  2 eigenvalues not converged
     c_bands:  1 eigenvalues not converged
     c_bands:  1 eigenvalues not converged
     c_bands:  1 eigenvalues not converged
     c_bands:  1 eigenvalues not converged
     c_bands:  1 eigenvalues not converged
     c_bands:  2 eigenvalues not converged
     ethr =  5.47E-04,  avg # of iterations = 18.7

     negative rho (up, down):  4.585E-03 0.000E+00
 
     Adding external electric field

     Computed dipole along edir(3) : 
        Dipole                0.3425 Ry au,          0.8705 Debye
        Dipole field          0.0006 Ry au, 
 
        Potential amp.       -0.0599 Ry
        Total length         46.3494 bohr
 

     total cpu time spent up to now is      622.9 secs

     total energy              =   -2954.93812855 Ry
     estimated scf accuracy    <       5.08095797 Ry

     iteration # 41     ecut=    29.40 Ry     beta= 0.05
     Davidson diagonalization with overlap
     ethr =  5.47E-04,  avg # of iterations =  6.5

     negative rho (up, down):  4.448E-03 0.000E+00
 
     Adding external electric field

     Computed dipole along edir(3) : 
        Dipole                0.0699 Ry au,          0.1777 Debye
        Dipole field          0.0001 Ry au, 
 
        Potential amp.       -0.0122 Ry
        Total length         46.3494 bohr
 

     total cpu time spent up to now is      634.6 secs

     total energy              =   -2954.93017807 Ry
     estimated scf accuracy    <       0.83467549 Ry

     iteration # 42     ecut=    29.40 Ry     beta= 0.05
     Davidson diagonalization with overlap
     c_bands:  4 eigenvalues not converged
     c_bands:  1 eigenvalues not converged
     c_bands:  1 eigenvalues not converged
     c_bands:  2 eigenvalues not converged
     c_bands:  1 eigenvalues not converged
     c_bands:  2 eigenvalues not converged
     ethr =  2.09E-04,  avg # of iterations = 19.4

     negative rho (up, down):  4.341E-03 0.000E+00
 
     Adding external electric field

     Computed dipole along edir(3) : 
        Dipole                0.0486 Ry au,          0.1235 Debye
        Dipole field          0.0001 Ry au, 
 
        Potential amp.       -0.0085 Ry
        Total length         46.3494 bohr
 

     total cpu time spent up to now is      654.9 secs

     total energy              =   -2955.24341423 Ry
     estimated scf accuracy    <       4.10407453 Ry

     iteration # 43     ecut=    29.40 Ry     beta= 0.05
     Davidson diagonalization with overlap
     ethr =  2.09E-04,  avg # of iterations =  3.0

     negative rho (up, down):  4.345E-03 0.000E+00
 
     Adding external electric field

     Computed dipole along edir(3) : 
        Dipole                0.0925 Ry au,          0.2352 Debye
        Dipole field          0.0002 Ry au, 
 
        Potential amp.       -0.0162 Ry
        Total length         46.3494 bohr
 

     total cpu time spent up to now is      665.7 secs

     total energy              =   -2955.22417278 Ry
     estimated scf accuracy    <       4.03929500 Ry

     iteration # 44     ecut=    29.40 Ry     beta= 0.05
     Davidson diagonalization with overlap
     ethr =  2.09E-04,  avg # of iterations =  1.1

     negative rho (up, down):  4.804E-03 0.000E+00
 
     Adding external electric field

     Computed dipole along edir(3) : 
        Dipole                0.4845 Ry au,          1.2316 Debye
        Dipole field          0.0009 Ry au, 
 
        Potential amp.       -0.0848 Ry
        Total length         46.3494 bohr
 

     total cpu time spent up to now is      675.5 secs

     total energy              =   -2955.00524618 Ry
     estimated scf accuracy    <       3.83805848 Ry

     iteration # 45     ecut=    29.40 Ry     beta= 0.05
     Davidson diagonalization with overlap
     c_bands:  1 eigenvalues not converged
     c_bands:  3 eigenvalues not converged
     c_bands:  1 eigenvalues not converged
     c_bands:  3 eigenvalues not converged
     c_bands:  3 eigenvalues not converged
     ethr =  2.09E-04,  avg # of iterations = 19.5

     negative rho (up, down):  4.651E-03 0.000E+00
 
     Adding external electric field

     Computed dipole along edir(3) : 
        Dipole                0.4362 Ry au,          1.1086 Debye
        Dipole field          0.0008 Ry au, 
 
        Potential amp.       -0.0763 Ry
        Total length         46.3494 bohr
 

     total cpu time spent up to now is      693.4 secs

     total energy              =   -2955.07806594 Ry
     estimated scf accuracy    <       1.43188249 Ry

     iteration # 46     ecut=    29.40 Ry     beta= 0.05
     Davidson diagonalization with overlap
     ethr =  2.09E-04,  avg # of iterations =  1.7

     negative rho (up, down):  4.827E-03 0.000E+00
 
     Adding external electric field

     Computed dipole along edir(3) : 
        Dipole                0.4629 Ry au,          1.1767 Debye
        Dipole field          0.0009 Ry au, 
 
        Potential amp.       -0.0810 Ry
        Total length         46.3494 bohr
 

     total cpu time spent up to now is      703.3 secs

     total energy              =   -2955.07833370 Ry
     estimated scf accuracy    <       0.28717074 Ry

     iteration # 47     ecut=    29.40 Ry     beta= 0.05
     Davidson diagonalization with overlap
     ethr =  7.20E-05,  avg # of iterations =  7.0

     negative rho (up, down):  5.192E-03 0.000E+00
 
     Adding external electric field

     Computed dipole along edir(3) : 
        Dipole                0.4944 Ry au,          1.2567 Debye
        Dipole field          0.0009 Ry au, 
 
        Potential amp.       -0.0865 Ry
        Total length         46.3494 bohr
 

     total cpu time spent up to now is      715.1 secs

     total energy              =   -2955.05963649 Ry
     estimated scf accuracy    <       1.11162655 Ry

     iteration # 48     ecut=    29.40 Ry     beta= 0.05
     Davidson diagonalization with overlap
     c_bands:  2 eigenvalues not converged
     c_bands:  1 eigenvalues not converged
     ethr =  7.20E-05,  avg # of iterations = 17.3

     negative rho (up, down):  5.503E-03 0.000E+00
 
     Adding external electric field

     Computed dipole along edir(3) : 
        Dipole                0.7126 Ry au,          1.8114 Debye
        Dipole field          0.0013 Ry au, 
 
        Potential amp.       -0.1247 Ry
        Total length         46.3494 bohr
 

     total cpu time spent up to now is      730.6 secs

     total energy              =   -2955.06825467 Ry
     estimated scf accuracy    <       0.54384470 Ry

     iteration # 49     ecut=    29.40 Ry     beta= 0.05
     Davidson diagonalization with overlap
     ethr =  7.20E-05,  avg # of iterations =  4.8

     negative rho (up, down):  5.893E-03 0.000E+00
 
     Adding external electric field

     Computed dipole along edir(3) : 
        Dipole                0.7121 Ry au,          1.8100 Debye
        Dipole field          0.0013 Ry au, 
 
        Potential amp.       -0.1246 Ry
        Total length         46.3494 bohr
 

     total cpu time spent up to now is      741.9 secs

     total energy              =   -2955.06708493 Ry
     estimated scf accuracy    <       0.69285358 Ry

     iteration # 50     ecut=    29.40 Ry     beta= 0.05
     Davidson diagonalization with overlap
     ethr =  7.20E-05,  avg # of iterations =  6.6

     negative rho (up, down):  6.201E-03 0.000E+00
 
     Adding external electric field

     Computed dipole along edir(3) : 
        Dipole                0.7628 Ry au,          1.9390 Debye
        Dipole field          0.0014 Ry au, 
 
        Potential amp.       -0.1334 Ry
        Total length         46.3494 bohr
 

     total cpu time spent up to now is      753.8 secs

     total energy              =   -2955.08326320 Ry
     estimated scf accuracy    <       0.03406675 Ry

     iteration # 51     ecut=    29.40 Ry     beta= 0.05
     Davidson diagonalization with overlap
     c_bands:  3 eigenvalues not converged
     c_bands:  3 eigenvalues not converged
     c_bands:  2 eigenvalues not converged
     c_bands:  1 eigenvalues not converged
     c_bands:  1 eigenvalues not converged
     c_bands:  1 eigenvalues not converged
     c_bands:  2 eigenvalues not converged
     c_bands:  3 eigenvalues not converged
     ethr =  8.54E-06,  avg # of iterations = 19.8

     negative rho (up, down):  6.130E-03 0.000E+00
 
     Adding external electric field

     Computed dipole along edir(3) : 
        Dipole                0.7927 Ry au,          2.0147 Debye
        Dipole field          0.0015 Ry au, 
 
        Potential amp.       -0.1387 Ry
        Total length         46.3494 bohr
 

     total cpu time spent up to now is      775.7 secs

     total energy              =   -2955.07792024 Ry
     estimated scf accuracy    <       0.32559013 Ry

     iteration # 52     ecut=    29.40 Ry     beta= 0.05
     Davidson diagonalization with overlap
     c_bands:  1 eigenvalues not converged
     c_bands:  1 eigenvalues not converged
     c_bands:  1 eigenvalues not converged
     ethr =  8.54E-06,  avg # of iterations = 14.7

     negative rho (up, down):  6.169E-03 0.000E+00
 
     Adding external electric field

     Computed dipole along edir(3) : 
        Dipole                0.7108 Ry au,          1.8066 Debye
        Dipole field          0.0013 Ry au, 
 
        Potential amp.       -0.1243 Ry
        Total length         46.3494 bohr
 

     total cpu time spent up to now is      790.4 secs

     total energy              =   -2955.08177332 Ry
     estimated scf accuracy    <       0.14932016 Ry

     iteration # 53     ecut=    29.40 Ry     beta= 0.05
     Davidson diagonalization with overlap
     ethr =  8.54E-06,  avg # of iterations =  6.7

     negative rho (up, down):  6.522E-03 0.000E+00
 
     Adding external electric field

     Computed dipole along edir(3) : 
        Dipole                0.7585 Ry au,          1.9280 Debye
        Dipole field          0.0014 Ry au, 
 
        Potential amp.       -0.1327 Ry
        Total length         46.3494 bohr
 

     total cpu time spent up to now is      802.1 secs

     total energy              =   -2955.08400188 Ry
     estimated scf accuracy    <       0.07635338 Ry

     iteration # 54     ecut=    29.40 Ry     beta= 0.05
     Davidson diagonalization with overlap
     c_bands:  1 eigenvalues not converged
     ethr =  8.54E-06,  avg # of iterations = 12.3

     negative rho (up, down):  8.140E-03 0.000E+00
 
     Adding external electric field

     Computed dipole along edir(3) : 
        Dipole                0.8432 Ry au,          2.1432 Debye
        Dipole field          0.0016 Ry au, 
 
        Potential amp.       -0.1475 Ry
        Total length         46.3494 bohr
 

     total cpu time spent up to now is      815.6 secs

     total energy              =   -2955.08453079 Ry
     estimated scf accuracy    <       0.02893412 Ry

     iteration # 55     ecut=    29.40 Ry     beta= 0.05
     Davidson diagonalization with overlap
     ethr =  7.25E-06,  avg # of iterations =  4.9

     negative rho (up, down):  9.915E-03 0.000E+00
 
     Adding external electric field

     Computed dipole along edir(3) : 
        Dipole                0.9522 Ry au,          2.4204 Debye
        Dipole field          0.0018 Ry au, 
 
        Potential amp.       -0.1666 Ry
        Total length         46.3494 bohr
 

     total cpu time spent up to now is      826.9 secs

     total energy              =   -2955.08447688 Ry
     estimated scf accuracy    <       0.06207006 Ry

     iteration # 56     ecut=    29.40 Ry     beta= 0.05
     Davidson diagonalization with overlap
     ethr =  7.25E-06,  avg # of iterations =  8.9

     negative rho (up, down):  1.017E-02 0.000E+00
 
     Adding external electric field

     Computed dipole along edir(3) : 
        Dipole                0.9255 Ry au,          2.3525 Debye
        Dipole field          0.0017 Ry au, 
 
        Potential amp.       -0.1619 Ry
        Total length         46.3494 bohr
 

     total cpu time spent up to now is      839.4 secs

     total energy              =   -2955.08637945 Ry
     estimated scf accuracy    <       0.04024975 Ry

     iteration # 57     ecut=    29.40 Ry     beta= 0.05
     Davidson diagonalization with overlap
     ethr =  7.25E-06,  avg # of iterations =  1.0

     negative rho (up, down):  1.243E-02 0.000E+00
 
     Adding external electric field

     Computed dipole along edir(3) : 
        Dipole                0.9064 Ry au,          2.3040 Debye
        Dipole field          0.0017 Ry au, 
 
        Potential amp.       -0.1586 Ry
        Total length         46.3494 bohr
 

     total cpu time spent up to now is      849.2 secs

     total energy              =   -2955.08577544 Ry
     estimated scf accuracy    <       0.03113528 Ry

     iteration # 58     ecut=    29.40 Ry     beta= 0.05
     Davidson diagonalization with overlap
     ethr =  7.25E-06,  avg # of iterations =  6.7

     negative rho (up, down):  1.391E-02 0.000E+00
 
     Adding external electric field

     Computed dipole along edir(3) : 
        Dipole                0.9606 Ry au,          2.4416 Debye
        Dipole field          0.0018 Ry au, 
 
        Potential amp.       -0.1680 Ry
        Total length         46.3494 bohr
 

     total cpu time spent up to now is      860.8 secs

     total energy              =   -2955.08642524 Ry
     estimated scf accuracy    <       0.00070812 Ry

     iteration # 59     ecut=    29.40 Ry     beta= 0.05
     Davidson diagonalization with overlap
     c_bands:  2 eigenvalues not converged
     c_bands:  2 eigenvalues not converged
     c_bands:  2 eigenvalues not converged
     c_bands:  1 eigenvalues not converged
     ethr =  1.77E-07,  avg # of iterations = 17.2

     negative rho (up, down):  1.387E-02 0.000E+00
 
     Adding external electric field

     Computed dipole along edir(3) : 
        Dipole                0.9609 Ry au,          2.4423 Debye
        Dipole field          0.0018 Ry au, 
 
        Potential amp.       -0.1681 Ry
        Total length         46.3494 bohr
 

     total cpu time spent up to now is      881.8 secs

     total energy              =   -2955.08669993 Ry
     estimated scf accuracy    <       0.00145399 Ry

     iteration # 60     ecut=    29.40 Ry     beta= 0.05
     Davidson diagonalization with overlap
     ethr =  1.77E-07,  avg # of iterations =  2.9

     negative rho (up, down):  1.433E-02 0.000E+00
 
     Adding external electric field

     Computed dipole along edir(3) : 
        Dipole                0.9439 Ry au,          2.3991 Debye
        Dipole field          0.0018 Ry au, 
 
        Potential amp.       -0.1651 Ry
        Total length         46.3494 bohr
 

     total cpu time spent up to now is      892.1 secs

     total energy              =   -2955.08640200 Ry
     estimated scf accuracy    <       0.00131644 Ry

     iteration # 61     ecut=    29.40 Ry     beta= 0.05
     Davidson diagonalization with overlap
     c_bands:  2 eigenvalues not converged
     c_bands:  1 eigenvalues not converged
     c_bands:  1 eigenvalues not converged
     ethr =  1.77E-07,  avg # of iterations = 16.6

     negative rho (up, down):  1.443E-02 0.000E+00
 
     Adding external electric field

     Computed dipole along edir(3) : 
        Dipole                0.9476 Ry au,          2.4086 Debye
        Dipole field          0.0018 Ry au, 
 
        Potential amp.       -0.1658 Ry
        Total length         46.3494 bohr
 

     total cpu time spent up to now is      912.2 secs

     total energy              =   -2955.08664973 Ry
     estimated scf accuracy    <       0.00044751 Ry

     iteration # 62     ecut=    29.40 Ry     beta= 0.05
     Davidson diagonalization with overlap
     ethr =  1.12E-07,  avg # of iterations =  1.3

     negative rho (up, down):  1.463E-02 0.000E+00
 
     Adding external electric field

     Computed dipole along edir(3) : 
        Dipole                0.9616 Ry au,          2.4440 Debye
        Dipole field          0.0018 Ry au, 
 
        Potential amp.       -0.1682 Ry
        Total length         46.3494 bohr
 

     total cpu time spent up to now is      922.1 secs

     total energy              =   -2955.08658871 Ry
     estimated scf accuracy    <       0.00033644 Ry

     iteration # 63     ecut=    29.40 Ry     beta= 0.05
     Davidson diagonalization with overlap
     ethr =  8.43E-08,  avg # of iterations = 14.6

     negative rho (up, down):  1.472E-02 0.000E+00
 
     Adding external electric field

     Computed dipole along edir(3) : 
        Dipole                0.9557 Ry au,          2.4292 Debye
        Dipole field          0.0018 Ry au, 
 
        Potential amp.       -0.1672 Ry
        Total length         46.3494 bohr
 

     total cpu time spent up to now is      940.2 secs

     total energy              =   -2955.08664564 Ry
     estimated scf accuracy    <       0.00013460 Ry

     iteration # 64     ecut=    29.40 Ry     beta= 0.05
     Davidson diagonalization with overlap
     ethr =  3.37E-08,  avg # of iterations = 11.2

     negative rho (up, down):  1.480E-02 0.000E+00
 
     Adding external electric field

     Computed dipole along edir(3) : 
        Dipole                0.9556 Ry au,          2.4289 Debye
        Dipole field          0.0018 Ry au, 
 
        Potential amp.       -0.1672 Ry
        Total length         46.3494 bohr
 

     total cpu time spent up to now is      954.0 secs

     total energy              =   -2955.08665432 Ry
     estimated scf accuracy    <       0.00007126 Ry

     iteration # 65     ecut=    29.40 Ry     beta= 0.05
     Davidson diagonalization with overlap
     ethr =  1.79E-08,  avg # of iterations = 14.3

     negative rho (up, down):  1.498E-02 0.000E+00
 
     Adding external electric field

     Computed dipole along edir(3) : 
        Dipole                0.9577 Ry au,          2.4344 Debye
        Dipole field          0.0018 Ry au, 
 
        Potential amp.       -0.1675 Ry
        Total length         46.3494 bohr
 

     total cpu time spent up to now is      969.9 secs

     total energy              =   -2955.08666828 Ry
     estimated scf accuracy    <       0.00004212 Ry

     iteration # 66     ecut=    29.40 Ry     beta= 0.05
     Davidson diagonalization with overlap
     c_bands:  1 eigenvalues not converged
     ethr =  1.06E-08,  avg # of iterations =  7.4

     negative rho (up, down):  1.509E-02 0.000E+00
 
     Adding external electric field

     Computed dipole along edir(3) : 
        Dipole                0.9599 Ry au,          2.4399 Debye
        Dipole field          0.0018 Ry au, 
 
        Potential amp.       -0.1679 Ry
        Total length         46.3494 bohr
 

     total cpu time spent up to now is      982.2 secs

     total energy              =   -2955.08667336 Ry
     estimated scf accuracy    <       0.00002649 Ry

     iteration # 67     ecut=    29.40 Ry     beta= 0.05
     Davidson diagonalization with overlap
     ethr =  6.64E-09,  avg # of iterations = 12.0

     negative rho (up, down):  1.515E-02 0.000E+00
 
     Adding external electric field

     Computed dipole along edir(3) : 
        Dipole                0.9603 Ry au,          2.4407 Debye
        Dipole field          0.0018 Ry au, 
 
        Potential amp.       -0.1680 Ry
        Total length         46.3494 bohr
 

     total cpu time spent up to now is      998.1 secs

     total energy              =   -2955.08668110 Ry
     estimated scf accuracy    <       0.00001294 Ry

     iteration # 68     ecut=    29.40 Ry     beta= 0.05
     Davidson diagonalization with overlap
     ethr =  3.24E-09,  avg # of iterations =  2.6

     negative rho (up, down):  1.514E-02 0.000E+00
 
     Adding external electric field

     Computed dipole along edir(3) : 
        Dipole                0.9605 Ry au,          2.4414 Debye
        Dipole field          0.0018 Ry au, 
 
        Potential amp.       -0.1680 Ry
        Total length         46.3494 bohr
 

     total cpu time spent up to now is     1008.9 secs

     total energy              =   -2955.08668465 Ry
     estimated scf accuracy    <       0.00001145 Ry

     iteration # 69     ecut=    29.40 Ry     beta= 0.05
     Davidson diagonalization with overlap
     ethr =  2.87E-09,  avg # of iterations =  8.7

     negative rho (up, down):  1.526E-02 0.000E+00
 
     Adding external electric field

     Computed dipole along edir(3) : 
        Dipole                0.9601 Ry au,          2.4402 Debye
        Dipole field          0.0018 Ry au, 
 
        Potential amp.       -0.1679 Ry
        Total length         46.3494 bohr
 

     total cpu time spent up to now is     1021.6 secs

     total energy              =   -2955.08668864 Ry
     estimated scf accuracy    <       0.00000948 Ry

     iteration # 70     ecut=    29.40 Ry     beta= 0.05
     Davidson diagonalization with overlap
     ethr =  2.38E-09,  avg # of iterations = 10.0

     negative rho (up, down):  1.528E-02 0.000E+00
 
     Adding external electric field

     Computed dipole along edir(3) : 
        Dipole                0.9599 Ry au,          2.4399 Debye
        Dipole field          0.0018 Ry au, 
 
        Potential amp.       -0.1679 Ry
        Total length         46.3494 bohr
 

     total cpu time spent up to now is     1034.9 secs

     total energy              =   -2955.08669240 Ry
     estimated scf accuracy    <       0.00000239 Ry

     iteration # 71     ecut=    29.40 Ry     beta= 0.05
     Davidson diagonalization with overlap
     ethr =  6.00E-10,  avg # of iterations = 14.1

     negative rho (up, down):  1.529E-02 0.000E+00
 
     Adding external electric field

     Computed dipole along edir(3) : 
        Dipole                0.9599 Ry au,          2.4399 Debye
        Dipole field          0.0018 Ry au, 
 
        Potential amp.       -0.1679 Ry
        Total length         46.3494 bohr
 

     total cpu time spent up to now is     1052.2 secs

     total energy              =   -2955.08669545 Ry
     estimated scf accuracy    <       0.00000164 Ry

     iteration # 72     ecut=    29.40 Ry     beta= 0.05
     Davidson diagonalization with overlap
     ethr =  4.12E-10,  avg # of iterations =  5.8

     negative rho (up, down):  1.530E-02 0.000E+00
 
     Adding external electric field

     Computed dipole along edir(3) : 
        Dipole                0.9601 Ry au,          2.4403 Debye
        Dipole field          0.0018 Ry au, 
 
        Potential amp.       -0.1680 Ry
        Total length         46.3494 bohr
 

     total cpu time spent up to now is     1063.9 secs

     total energy              =   -2955.08669790 Ry
     estimated scf accuracy    <       0.00000094 Ry

     iteration # 73     ecut=    29.40 Ry     beta= 0.05
     Davidson diagonalization with overlap
     ethr =  2.35E-10,  avg # of iterations = 14.1

     negative rho (up, down):  1.530E-02 0.000E+00
 
     Adding external electric field

     Computed dipole along edir(3) : 
        Dipole                0.9598 Ry au,          2.4395 Debye
        Dipole field          0.0018 Ry au, 
 
        Potential amp.       -0.1679 Ry
        Total length         46.3494 bohr
 

     total cpu time spent up to now is     1081.2 secs

     total energy              =   -2955.08670016 Ry
     estimated scf accuracy    <       0.00000081 Ry

     iteration # 74     ecut=    29.40 Ry     beta= 0.05
     Davidson diagonalization with overlap
     c_bands:  1 eigenvalues not converged
     ethr =  2.03E-10,  avg # of iterations = 16.1

     negative rho (up, down):  1.530E-02 0.000E+00
 
     Adding external electric field

     Computed dipole along edir(3) : 
        Dipole                0.9597 Ry au,          2.4392 Debye
        Dipole field          0.0018 Ry au, 
 
        Potential amp.       -0.1679 Ry
        Total length         46.3494 bohr
 

     total cpu time spent up to now is     1097.5 secs

     total energy              =   -2955.08670224 Ry
     estimated scf accuracy    <       0.00000056 Ry

     iteration # 75     ecut=    29.40 Ry     beta= 0.05
     Davidson diagonalization with overlap
     ethr =  1.41E-10,  avg # of iterations = 10.4

     negative rho (up, down):  1.529E-02 0.000E+00
 
     Adding external electric field

     Computed dipole along edir(3) : 
        Dipole                0.9592 Ry au,          2.4382 Debye
        Dipole field          0.0018 Ry au, 
 
        Potential amp.       -0.1678 Ry
        Total length         46.3494 bohr
 

     total cpu time spent up to now is     1110.4 secs

     total energy              =   -2955.08670406 Ry
     estimated scf accuracy    <       0.00000027 Ry

     iteration # 76     ecut=    29.40 Ry     beta= 0.05
     Davidson diagonalization with overlap
     c_bands:  1 eigenvalues not converged
     ethr =  6.70E-11,  avg # of iterations = 17.2

     negative rho (up, down):  1.529E-02 0.000E+00
 
     Adding external electric field

     Computed dipole along edir(3) : 
        Dipole                0.9592 Ry au,          2.4381 Debye
        Dipole field          0.0018 Ry au, 
 
        Potential amp.       -0.1678 Ry
        Total length         46.3494 bohr
 

     total cpu time spent up to now is     1131.6 secs

     total energy              =   -2955.08670577 Ry
     estimated scf accuracy    <       0.00000028 Ry

     iteration # 77     ecut=    29.40 Ry     beta= 0.05
     Davidson diagonalization with overlap
     ethr =  6.70E-11,  avg # of iterations =  2.8

     negative rho (up, down):  1.529E-02 0.000E+00
 
     Adding external electric field

     Computed dipole along edir(3) : 
        Dipole                0.9592 Ry au,          2.4382 Debye
        Dipole field          0.0018 Ry au, 
 
        Potential amp.       -0.1678 Ry
        Total length         46.3494 bohr
 

     total cpu time spent up to now is     1142.0 secs

     total energy              =   -2955.08670715 Ry
     estimated scf accuracy    <       0.00000023 Ry

     iteration # 78     ecut=    29.40 Ry     beta= 0.05
     Davidson diagonalization with overlap
     ethr =  5.75E-11,  avg # of iterations = 11.0

     negative rho (up, down):  1.529E-02 0.000E+00
 
     Adding external electric field

     Computed dipole along edir(3) : 
        Dipole                0.9592 Ry au,          2.4381 Debye
        Dipole field          0.0018 Ry au, 
 
        Potential amp.       -0.1678 Ry
        Total length         46.3494 bohr
 

     total cpu time spent up to now is     1155.5 secs

     total energy              =   -2955.08670848 Ry
     estimated scf accuracy    <       0.00000015 Ry

     iteration # 79     ecut=    29.40 Ry     beta= 0.05
     Davidson diagonalization with overlap
     c_bands:  1 eigenvalues not converged
     ethr =  3.69E-11,  avg # of iterations = 15.6

     negative rho (up, down):  1.530E-02 0.000E+00
 
     Adding external electric field

     Computed dipole along edir(3) : 
        Dipole                0.9592 Ry au,          2.4380 Debye
        Dipole field          0.0018 Ry au, 
 
        Potential amp.       -0.1678 Ry
        Total length         46.3494 bohr
 

     total cpu time spent up to now is     1173.0 secs

     total energy              =   -2955.08670961 Ry
     estimated scf accuracy    <       0.00000035 Ry

     iteration # 80     ecut=    29.40 Ry     beta= 0.05
     Davidson diagonalization with overlap
     c_bands:  1 eigenvalues not converged
     ethr =  3.69E-11,  avg # of iterations = 16.1

     negative rho (up, down):  1.530E-02 0.000E+00
 
     Adding external electric field

     Computed dipole along edir(3) : 
        Dipole                0.9606 Ry au,          2.4417 Debye
        Dipole field          0.0018 Ry au, 
 
        Potential amp.       -0.1680 Ry
        Total length         46.3494 bohr
 

     total cpu time spent up to now is     1192.5 secs

     End of self-consistent calculation

          k = 0.0000 0.0000 0.0000 ( 18029 PWs)   bands (ev):

   -55.5424 -55.5090 -55.5058 -55.4885 -55.4749 -55.4264 -55.3901 -55.3705
   -55.3536 -55.3409 -55.3357 -55.3074 -55.2956 -55.1127 -54.5350 -54.5009
   -32.0984 -32.0011 -31.9146 -31.8997 -31.8744 -31.8594 -31.8457 -31.8409
   -31.7979 -31.7632 -31.7571 -31.7538 -31.7439 -31.7198 -31.7142 -31.6934
   -31.6838 -31.6812 -31.6696 -31.6612 -31.6401 -31.6225 -31.6054 -31.5993
   -31.5701 -31.5661 -31.5615 -31.5590 -31.5566 -31.5440 -31.5349 -31.5281
   -31.5238 -31.5186 -31.5081 -31.4957 -31.4843 -31.4690 -31.4668 -31.4519
   -31.3382 -31.2937 -30.9442 -30.8504 -30.8283 -30.7606 -30.6738 -30.5629
   -19.2941 -16.3999 -16.3095 -16.0869 -15.9220 -15.8427 -15.7459 -15.6053
   -15.5340 -15.4233 -15.3871 -15.2283 -15.2036 -15.1971 -15.1623 -15.1454
   -15.1058 -15.0876 -15.0586 -15.0471 -15.0455 -15.0237 -14.9871 -14.9832
   -14.9406 -14.9276 -14.8689 -14.7724 -14.7044 -14.6404 -14.3267 -13.0372
   -12.9199  -9.2137  -7.0391  -6.5550  -4.6049  -3.7197  -3.5988  -3.5608
    -3.5033  -3.4473  -3.4105  -3.2989  -3.0699  -3.0224  -2.9773  -2.9305
    -2.8104  -2.7394  -2.7349  -2.6562  -2.5802  -2.5383  -2.4839  -2.4748
    -2.3968  -2.3631  -2.3453  -2.3219  -2.2791  -2.2504  -2.2092  -2.1179
    -2.0965  -2.0199  -1.9899  -1.9449  -1.9415  -1.8936  -1.8756  -1.8369
    -1.8357  -1.8262  -1.8056  -1.7680  -1.7251  -1.6733  -1.5785  -1.5551
    -1.3853  -1.2734  -1.2101  -1.1819  -1.1290  -1.0974  -1.0318  -0.9835
    -0.9692  -0.9333  -0.8664  -0.7639  -0.6986  -0.6859  -0.6255  -0.5342
    -0.4763  -0.4398  -0.3562  -0.3303  -0.3117  -0.3064  -0.2421  -0.1746
    -0.1281  -0.0539  -0.0378   0.0178   0.0404   0.0908   0.1215   0.1881
     0.2439   0.2843   0.3360   0.3904   0.3919   0.4069   0.4419   0.4435
     0.5436   0.5556   0.5777   0.6785   0.7775   0.9659   1.0636   1.0988
     1.3961   1.4116   1.4880   1.6724   2.0637   2.1118   3.5185   3.5488
     3.6326   3.6879   3.6969   3.7267   3.7833   4.0366   4.0481   4.0702
     4.0833

          k = 0.0000 0.0419 0.0000 ( 17933 PWs)   bands (ev):

   -55.5373 -55.5108 -55.5039 -55.4873 -55.4798 -55.4217 -55.3947 -55.3656
   -55.3546 -55.3406 -55.3359 -55.3122 -55.2946 -55.1135 -54.5299 -54.5059
   -32.0417 -31.9471 -31.8598 -31.8512 -31.8344 -31.8268 -31.8066 -31.8023
   -31.7930 -31.7726 -31.7688 -31.7489 -31.7455 -31.7241 -31.7128 -31.7089
   -31.6932 -31.6874 -31.6790 -31.6551 -31.6472 -31.6444 -31.5998 -31.5952
   -31.5858 -31.5803 -31.5773 -31.5734 -31.5678 -31.5661 -31.5579 -31.5419
   -31.5402 -31.5287 -31.5209 -31.5148 -31.5057 -31.4963 -31.4794 -31.4742
   -31.3391 -31.3313 -30.8900 -30.8470 -30.8313 -30.7480 -30.6864 -30.6201
   -19.2938 -16.3548 -16.2089 -15.9757 -15.8518 -15.7636 -15.6389 -15.5572
   -15.4921 -15.4188 -15.3711 -15.3443 -15.2470 -15.2180 -15.1567 -15.1503
   -15.1064 -15.0939 -15.0732 -15.0534 -15.0452 -15.0310 -15.0284 -14.9921
   -14.9863 -14.9181 -14.9143 -14.8289 -14.7600 -14.6999 -14.4305 -13.0408
   -12.9591  -9.2112  -7.0437  -6.5426  -4.6101  -3.6102  -3.4847  -3.3935
    -3.3511  -3.2719  -3.2656  -3.1559  -3.0190  -2.8773  -2.8462  -2.8229
    -2.7617  -2.6882  -2.6746  -2.6374  -2.5986  -2.5614  -2.5462  -2.5077
    -2.4803  -2.4564  -2.4361  -2.3677  -2.3424  -2.3137  -2.2869  -2.2708
    -2.2324  -2.1496  -2.1229  -2.1052  -2.0788  -2.0600  -2.0005  -1.9771
    -1.8583  -1.8421  -1.7826  -1.6938  -1.6336  -1.5344  -1.4475  -1.3555
    -1.3257  -1.2967  -1.2401  -1.1015  -1.0601  -0.9811  -0.8777  -0.8577
    -0.8513  -0.8364  -0.7636  -0.7210  -0.6498  -0.6124  -0.5379  -0.5245
    -0.4853  -0.4617  -0.4562  -0.3738  -0.3456  -0.3232  -0.2535  -0.1960
    -0.1308  -0.1113  -0.0994  -0.0559  -0.0377   0.0431   0.0619   0.1192
     0.1848   0.2110   0.2156   0.2577   0.2791   0.3046   0.4138   0.4491
     0.4931   0.5125   0.5838   0.6460   0.7461   0.7651   0.8193   0.9720
     1.0969   1.2892   1.6721   1.7490   2.0186   2.0222   3.5037   3.7569
     3.7746   3.7852   3.8520   3.9244   3.9575   3.9697   4.0003   4.0659
     4.1042

          k = 0.0000-0.0839 0.0000 ( 17884 PWs)   bands (ev):

   -55.5279 -55.5201 -55.4919 -55.4918 -55.4862 -55.4140 -55.4023 -55.3560
   -55.3556 -55.3500 -55.3242 -55.3238 -55.2937 -55.1144 -54.5179 -54.5178
   -31.9096 -31.8972 -31.8147 -31.8145 -31.7993 -31.7981 -31.7859 -31.7832
   -31.7831 -31.7639 -31.7311 -31.7306 -31.7205 -31.7192 -31.7179 -31.7130
   -31.7043 -31.6848 -31.6773 -31.6758 -31.6696 -31.6520 -31.6290 -31.6279
   -31.6206 -31.6169 -31.6135 -31.6131 -31.5880 -31.5871 -31.5796 -31.5795
   -31.5690 -31.5441 -31.5173 -31.5138 -31.5044 -31.5040 -31.5011 -31.4786
   -31.3776 -31.3362 -30.8390 -30.8388 -30.7569 -30.7567 -30.7172 -30.7172
   -19.2935 -16.3326 -15.9585 -15.8785 -15.7325 -15.6875 -15.5655 -15.5308
   -15.5095 -15.4466 -15.3761 -15.3600 -15.3482 -15.3166 -15.2002 -15.1485
   -15.1363 -15.1334 -15.1256 -15.0657 -15.0031 -14.9711 -14.9612 -14.9602
   -14.9571 -14.9472 -14.9012 -14.8896 -14.8462 -14.8402 -14.5786 -13.0219
   -13.0216  -9.2087  -7.0484  -6.5314  -4.6154  -3.5685  -3.1486  -3.0815
    -3.0471  -3.0039  -2.9721  -2.9629  -2.9224  -2.9097  -2.8816  -2.8302
    -2.8289  -2.7675  -2.7338  -2.7055  -2.6959  -2.6738  -2.6601  -2.5950
    -2.5571  -2.5182  -2.4529  -2.4228  -2.4056  -2.3994  -2.3802  -2.3560
    -2.2847  -2.2322  -2.1960  -2.1727  -2.1164  -2.0141  -1.9697  -1.9120
    -1.8640  -1.6890  -1.6617  -1.5929  -1.5282  -1.4660  -1.4471  -1.3145
    -1.3097  -1.2543  -1.1720  -1.0447  -1.0260  -1.0069  -1.0011  -0.9883
    -0.9463  -0.9342  -0.9094  -0.7904  -0.7263  -0.7011  -0.6266  -0.5797
    -0.4818  -0.3540  -0.2760  -0.2246  -0.2037  -0.1801  -0.1721  -0.1437
    -0.1319  -0.1109  -0.0901  -0.0391  -0.0294  -0.0200   0.0420   0.0622
     0.0878   0.1108   0.1687   0.1886   0.2117   0.2347   0.2357   0.2740
     0.2929   0.3086   0.6015   0.6556   0.6595   0.6651   0.8424   0.8727
     1.0249   1.0344   1.8138   1.8150   1.9543   1.9545   3.4856   3.8435
     3.8855   3.9049   3.9169   4.0237   4.0261   4.0805   4.1029   4.1253
     4.1507

          k = 0.0380 0.0000 0.0000 ( 17913 PWs)   bands (ev):

   -55.5423 -55.5089 -55.5057 -55.4883 -55.4748 -55.4264 -55.3900 -55.3702
   -55.3535 -55.3410 -55.3356 -55.3073 -55.2955 -55.1126 -54.5349 -54.5008
   -32.0985 -32.0020 -31.9200 -31.9017 -31.8747 -31.8635 -31.8460 -31.8407
   -31.7977 -31.7630 -31.7537 -31.7443 -31.7393 -31.7141 -31.7127 -31.6932
   -31.6815 -31.6767 -31.6589 -31.6489 -31.6400 -31.6232 -31.6222 -31.5990
   -31.5703 -31.5656 -31.5599 -31.5583 -31.5493 -31.5439 -31.5412 -31.5342
   -31.5279 -31.5204 -31.5083 -31.5012 -31.4829 -31.4689 -31.4670 -31.4524
   -31.3394 -31.2936 -30.9437 -30.8539 -30.8263 -30.7604 -30.6737 -30.5627
   -19.2938 -16.3679 -16.2517 -16.0081 -15.9275 -15.7904 -15.6477 -15.6199
   -15.5377 -15.4424 -15.3883 -15.3252 -15.3105 -15.2458 -15.2406 -15.2245
   -15.2190 -15.1464 -15.0621 -15.0306 -15.0222 -14.9844 -14.9446 -14.8988
   -14.8897 -14.8450 -14.8016 -14.7780 -14.7760 -14.7280 -14.3252 -13.0339
   -12.9196  -9.2142  -7.0441  -6.5483  -4.5966  -3.6515  -3.5132  -3.4448
    -3.3235  -3.2655  -3.1917  -3.1573  -3.0694  -3.0438  -3.0199  -2.9903
    -2.9408  -2.8728  -2.8184  -2.6808  -2.6280  -2.6007  -2.5000  -2.4142
    -2.3229  -2.3061  -2.2797  -2.2316  -2.2040  -2.1789  -2.1498  -2.1172
    -2.0795  -2.0234  -1.9524  -1.9283  -1.9008  -1.8761  -1.8495  -1.8288
    -1.7983  -1.7819  -1.7195  -1.6430  -1.6144  -1.5770  -1.5414  -1.4578
    -1.3577  -1.2936  -1.2472  -1.1877  -1.1658  -1.1065  -1.0479  -1.0342
    -0.9684  -0.9645  -0.9428  -0.8912  -0.8516  -0.8404  -0.6241  -0.5270
    -0.5109  -0.4398  -0.4264  -0.3847  -0.3610  -0.2850  -0.2242  -0.1689
    -0.1392  -0.1097  -0.0884  -0.0386   0.0066   0.0333   0.0916   0.1465
     0.1748   0.1912   0.2320   0.2581   0.2772   0.3217   0.4069   0.4273
     0.4363   0.4945   0.5285   0.5969   0.6567   0.7487   0.9355   1.1126
     1.2731   1.4016   1.4999   1.6413   1.9512   2.0290   3.5542   3.5637
     3.6493   3.8230   3.8706   3.8971   3.9409   3.9866   4.0161   4.0374
     4.0682

          k = 0.0380 0.0419 0.0000 ( 17878 PWs)   bands (ev):

   -55.5372 -55.5108 -55.5038 -55.4873 -55.4798 -55.4216 -55.3946 -55.3653
   -55.3545 -55.3405 -55.3360 -55.3122 -55.2946 -55.1135 -54.5299 -54.5058
   -32.0418 -31.9479 -31.8661 -31.8530 -31.8349 -31.8269 -31.8106 -31.8030
   -31.7928 -31.7726 -31.7688 -31.7491 -31.7320 -31.7236 -31.7093 -31.7062
   -31.6873 -31.6835 -31.6791 -31.6454 -31.6446 -31.6368 -31.6163 -31.5949
   -31.5834 -31.5798 -31.5734 -31.5715 -31.5686 -31.5651 -31.5525 -31.5511
   -31.5387 -31.5299 -31.5263 -31.5213 -31.5056 -31.5007 -31.4794 -31.4753
   -31.3408 -31.3313 -30.8896 -30.8497 -30.8303 -30.7478 -30.6865 -30.6199
   -19.2936 -16.3452 -16.1406 -15.9001 -15.8704 -15.6936 -15.5737 -15.5384
   -15.4924 -15.4221 -15.3912 -15.3464 -15.3046 -15.2820 -15.2134 -15.2014
   -15.1661 -15.1168 -15.0999 -15.0769 -15.0684 -15.0213 -14.9829 -14.9545
   -14.9275 -14.8981 -14.8739 -14.8423 -14.8260 -14.7819 -14.4292 -13.0385
   -12.9594  -9.2129  -7.0518  -6.5288  -4.5991  -3.6009  -3.3629  -3.2922
    -3.1644  -3.1473  -3.0360  -2.9860  -2.9637  -2.9068  -2.8701  -2.8259
    -2.7884  -2.7254  -2.6441  -2.6015  -2.5660  -2.5435  -2.5312  -2.4825
    -2.4274  -2.3978  -2.3725  -2.3447  -2.3312  -2.3040  -2.2521  -2.2431
    -2.2042  -2.1715  -2.1300  -2.0762  -2.0516  -1.9863  -1.9758  -1.9338
    -1.8499  -1.7670  -1.7249  -1.6349  -1.6009  -1.5500  -1.4213  -1.3671
    -1.3408  -1.2731  -1.2199  -1.1365  -1.0474  -1.0287  -0.9751  -0.9298
    -0.9077  -0.8846  -0.8478  -0.7993  -0.7874  -0.7153  -0.6269  -0.5818
    -0.5495  -0.5158  -0.4817  -0.4594  -0.4283  -0.3411  -0.2974  -0.2709
    -0.2450  -0.2169  -0.1794  -0.1569  -0.1112  -0.0991  -0.0522   0.0306
     0.0462   0.1001   0.1221   0.1827   0.2247   0.3382   0.3636   0.4457
     0.4858   0.5488   0.5949   0.6146   0.7124   0.7651   0.8676   0.9225
     1.0471   1.2380   1.6829   1.7524   1.9408   2.0038   3.5255   3.7458
     3.7546   3.8014   3.8956   3.9676   3.9814   4.0165   4.0770   4.1120
     4.1417

          k = 0.0380-0.0839 0.0000 ( 17916 PWs)   bands (ev):

   -55.5279 -55.5201 -55.4919 -55.4918 -55.4862 -55.4141 -55.4023 -55.3560
   -55.3556 -55.3499 -55.3243 -55.3239 -55.2937 -55.1144 -54.5180 -54.5178
   -31.9098 -31.8974 -31.8155 -31.8153 -31.7994 -31.7985 -31.7865 -31.7833
   -31.7831 -31.7655 -31.7478 -31.7410 -31.7311 -31.7134 -31.7000 -31.6919
   -31.6906 -31.6854 -31.6820 -31.6792 -31.6748 -31.6554 -31.6305 -31.6294
   -31.6128 -31.6128 -31.5997 -31.5967 -31.5951 -31.5880 -31.5879 -31.5795
   -31.5614 -31.5436 -31.5292 -31.5258 -31.5066 -31.5041 -31.5031 -31.4799
   -31.3774 -31.3387 -30.8400 -30.8399 -30.7568 -30.7566 -30.7172 -30.7172
   -19.2934 -16.3306 -15.9237 -15.8360 -15.6942 -15.6393 -15.5595 -15.4829
   -15.4544 -15.4259 -15.3722 -15.3684 -15.3159 -15.2862 -15.2034 -15.1668
   -15.1616 -15.1379 -15.1225 -15.1080 -15.0749 -15.0183 -15.0118 -14.9863
   -14.9801 -14.9287 -14.9194 -14.9087 -14.8961 -14.8944 -14.5730 -13.0217
   -13.0214  -9.2108  -7.0589  -6.5138  -4.6018  -3.5694  -3.1076  -3.0514
    -3.0002  -2.8736  -2.8323  -2.8048  -2.7941  -2.7428  -2.7233  -2.7046
    -2.6583  -2.6577  -2.6354  -2.6296  -2.6193  -2.5889  -2.5739  -2.5246
    -2.5203  -2.4734  -2.4521  -2.4321  -2.3908  -2.3709  -2.3366  -2.3058
    -2.2733  -2.2292  -2.1888  -2.1411  -2.1026  -2.0542  -1.9631  -1.8155
    -1.7446  -1.7037  -1.6247  -1.6046  -1.5277  -1.4862  -1.4708  -1.4475
    -1.4055  -1.3774  -1.3040  -1.2466  -1.2299  -1.2103  -1.1989  -1.0943
    -1.0321  -0.8920  -0.8561  -0.8496  -0.7932  -0.7700  -0.6612  -0.5954
    -0.5428  -0.5180  -0.4731  -0.3913  -0.3823  -0.3574  -0.3496  -0.3339
    -0.2935  -0.2079  -0.1940  -0.1859  -0.1351  -0.1008  -0.0626  -0.0481
    -0.0068   0.0081   0.1731   0.2010   0.2254   0.2974   0.3635   0.4412
     0.5159   0.5178   0.5491   0.6301   0.6767   0.7201   0.8042   0.8466
     1.0116   1.0220   1.8272   1.8285   1.9447   1.9454   3.5104   3.7993
     3.8244   3.8944   3.9132   3.9919   4.0045   4.0851   4.1124   4.1465
     4.1848

          k = 0.0380-0.0419 0.0000 ( 17876 PWs)   bands (ev):

   -55.5372 -55.5108 -55.5038 -55.4873 -55.4798 -55.4216 -55.3946 -55.3653
   -55.3545 -55.3405 -55.3360 -55.3122 -55.2946 -55.1135 -54.5299 -54.5058
   -32.0418 -31.9479 -31.8661 -31.8532 -31.8348 -31.8269 -31.8106 -31.8030
   -31.7928 -31.7726 -31.7688 -31.7491 -31.7319 -31.7238 -31.7094 -31.7064
   -31.6873 -31.6835 -31.6791 -31.6455 -31.6446 -31.6367 -31.6162 -31.5949
   -31.5835 -31.5798 -31.5734 -31.5687 -31.5657 -31.5651 -31.5559 -31.5513
   -31.5412 -31.5297 -31.5265 -31.5213 -31.5056 -31.5016 -31.4794 -31.4739
   -31.3401 -31.3318 -30.8896 -30.8497 -30.8303 -30.7478 -30.6865 -30.6199
   -19.2936 -16.3458 -16.1399 -15.8990 -15.8706 -15.6931 -15.5751 -15.5379
   -15.4925 -15.4211 -15.3908 -15.3482 -15.3002 -15.2836 -15.2136 -15.2025
   -15.1736 -15.1157 -15.0975 -15.0816 -15.0670 -15.0213 -14.9823 -14.9554
   -14.9211 -14.8980 -14.8732 -14.8422 -14.8264 -14.7822 -14.4295 -13.0385
   -12.9594  -9.2120  -7.0513  -6.5320  -4.5991  -3.6031  -3.3612  -3.2929
    -3.1564  -3.1123  -3.0381  -3.0172  -2.9831  -2.9029  -2.8648  -2.8248
    -2.7966  -2.7268  -2.6573  -2.6021  -2.5662  -2.5468  -2.5255  -2.4832
    -2.4308  -2.4063  -2.3743  -2.3466  -2.3351  -2.3027  -2.2491  -2.2410
    -2.1960  -2.1710  -2.1314  -2.0786  -2.0546  -2.0074  -1.9555  -1.9368
    -1.8407  -1.7553  -1.7166  -1.6177  -1.5983  -1.5446  -1.4189  -1.3642
    -1.3352  -1.2665  -1.2199  -1.1356  -1.0500  -1.0252  -0.9852  -0.9248
    -0.9083  -0.8897  -0.8515  -0.7984  -0.7765  -0.7150  -0.6374  -0.5862
    -0.5447  -0.5139  -0.4772  -0.4652  -0.4213  -0.3385  -0.2989  -0.2645
    -0.2460  -0.2153  -0.1810  -0.1590  -0.1110  -0.0967  -0.0526   0.0230
     0.0494   0.0830   0.1193   0.1832   0.2213   0.3443   0.3615   0.4505
     0.4729   0.5423   0.5918   0.6122   0.7159   0.7660   0.8673   0.9249
     1.0474   1.2383   1.6829   1.7524   1.9406   2.0045   3.5418   3.7465
     3.7555   3.7986   3.8979   3.9687   3.9837   4.0056   4.0859   4.1146
     4.1373

          k =-0.0760-0.0000 0.0000 ( 17886 PWs)   bands (ev):

   -55.5422 -55.5088 -55.5057 -55.4883 -55.4748 -55.4264 -55.3900 -55.3700
   -55.3534 -55.3411 -55.3356 -55.3072 -55.2955 -55.1126 -54.5348 -54.5008
   -32.0986 -32.0029 -31.9250 -31.9039 -31.8752 -31.8675 -31.8463 -31.8404
   -31.7976 -31.7629 -31.7537 -31.7441 -31.7144 -31.7138 -31.7053 -31.6927
   -31.6813 -31.6713 -31.6556 -31.6496 -31.6400 -31.6222 -31.6127 -31.5995
   -31.5800 -31.5705 -31.5657 -31.5585 -31.5580 -31.5417 -31.5380 -31.5319
   -31.5281 -31.5231 -31.5136 -31.5056 -31.4818 -31.4687 -31.4673 -31.4533
   -31.3408 -31.2936 -30.9433 -30.8573 -30.8249 -30.7603 -30.6736 -30.5627
   -19.2935 -16.3499 -16.1199 -16.0376 -15.8589 -15.7258 -15.6103 -15.5692
   -15.4860 -15.4536 -15.4103 -15.3885 -15.3786 -15.3228 -15.3210 -15.3080
   -15.2626 -15.2108 -15.0563 -15.0324 -14.9780 -14.9704 -14.9489 -14.9278
   -14.9121 -14.8757 -14.8091 -14.7985 -14.7109 -14.6884 -14.3240 -13.0308
   -12.9192  -9.2147  -7.0491  -6.5419  -4.5879  -3.6498  -3.4758  -3.4316
    -3.1699  -3.1216  -3.0536  -3.0490  -3.0268  -3.0005  -2.9800  -2.9324
    -2.8716  -2.8569  -2.8010  -2.7851  -2.5949  -2.4722  -2.4081  -2.3671
    -2.2722  -2.1999  -2.1953  -2.1768  -2.1412  -2.1105  -2.0759  -2.0371
    -2.0285  -2.0191  -2.0034  -1.9616  -1.9349  -1.9055  -1.8788  -1.8557
    -1.8339  -1.8024  -1.7595  -1.6953  -1.6339  -1.5179  -1.3852  -1.3578
    -1.2780  -1.2192  -1.1994  -1.1809  -1.1780  -1.1416  -1.1226  -1.0945
    -1.0233  -1.0164  -0.9939  -0.9494  -0.8656  -0.8605  -0.8204  -0.8046
    -0.7397  -0.5068  -0.4630  -0.4003  -0.3830  -0.3061  -0.2580  -0.2340
    -0.2242  -0.1674  -0.1304  -0.0631  -0.0431  -0.0375  -0.0059   0.0584
     0.0727   0.1303   0.1380   0.2148   0.2527   0.2926   0.3052   0.3841
     0.3935   0.4485   0.5113   0.5851   0.7230   0.7698   0.9520   0.9865
     1.1360   1.4063   1.5213   1.6164   1.8212   1.9740   3.5622   3.5858
     3.6121   3.7009   3.8239   3.9073   3.9284   3.9916   4.0358   4.0469
     4.1025

          k =-0.0760 0.0419 0.0000 ( 17914 PWs)   bands (ev):

   -55.5371 -55.5108 -55.5038 -55.4873 -55.4798 -55.4217 -55.3947 -55.3652
   -55.3545 -55.3405 -55.3362 -55.3123 -55.2946 -55.1135 -54.5299 -54.5059
   -32.0422 -31.9490 -31.8721 -31.8552 -31.8353 -31.8272 -31.8150 -31.8037
   -31.7928 -31.7726 -31.7688 -31.7493 -31.7244 -31.7133 -31.7092 -31.7004
   -31.6869 -31.6794 -31.6743 -31.6446 -31.6429 -31.6365 -31.6010 -31.5963
   -31.5851 -31.5828 -31.5798 -31.5732 -31.5714 -31.5706 -31.5507 -31.5454
   -31.5361 -31.5355 -31.5296 -31.5280 -31.5092 -31.5056 -31.4795 -31.4750
   -31.3421 -31.3319 -30.8893 -30.8527 -30.8296 -30.7478 -30.6865 -30.6200
   -19.2934 -16.3386 -16.0059 -15.9601 -15.7829 -15.6354 -15.5313 -15.4970
   -15.4390 -15.4261 -15.3868 -15.3449 -15.3409 -15.3348 -15.2773 -15.2712
   -15.2391 -15.1966 -15.1009 -15.0921 -15.0500 -15.0134 -14.9797 -14.9699
   -14.9464 -14.9233 -14.9023 -14.8420 -14.7989 -14.7953 -14.4287 -13.0364
   -12.9597  -9.2138  -7.0592  -6.5186  -4.5879  -3.6077  -3.3297  -3.2785
    -3.0678  -2.9401  -2.8937  -2.8794  -2.8067  -2.7766  -2.7672  -2.7305
    -2.7228  -2.6798  -2.6065  -2.5844  -2.5394  -2.5116  -2.4988  -2.4377
    -2.4349  -2.3703  -2.3565  -2.2990  -2.2641  -2.2561  -2.2154  -2.1541
    -2.1429  -2.1158  -2.1020  -2.0924  -2.0600  -2.0174  -2.0081  -1.8099
    -1.7370  -1.7271  -1.6820  -1.6410  -1.6036  -1.5091  -1.4461  -1.3356
    -1.3199  -1.2728  -1.2023  -1.1566  -1.1264  -1.1203  -1.0381  -1.0159
    -0.9979  -0.9292  -0.9123  -0.8846  -0.8533  -0.8116  -0.7837  -0.7758
    -0.7609  -0.6787  -0.6330  -0.6127  -0.5665  -0.5022  -0.4806  -0.3538
    -0.3363  -0.3235  -0.2882  -0.2470  -0.2344  -0.2181  -0.0894  -0.0465
    -0.0061   0.0511   0.1577   0.1905   0.2308   0.2674   0.4249   0.4393
     0.4628   0.5986   0.7234   0.7289   0.7567   0.8108   0.8704   0.9442
     0.9719   1.1058   1.6980   1.7545   1.8630   1.9930   3.5651   3.7345
     3.7533   3.7728   3.8149   3.8788   3.9477   3.9816   4.0399   4.0966
     4.1853

          k =-0.0760-0.0839 0.0000 ( 17948 PWs)   bands (ev):

   -55.5279 -55.5201 -55.4919 -55.4918 -55.4862 -55.4141 -55.4023 -55.3559
   -55.3556 -55.3498 -55.3244 -55.3241 -55.2938 -55.1145 -54.5180 -54.5178
   -31.9101 -31.8978 -31.8163 -31.8161 -31.7995 -31.7988 -31.7870 -31.7834
   -31.7832 -31.7671 -31.7558 -31.7485 -31.7312 -31.7135 -31.6945 -31.6883
   -31.6853 -31.6831 -31.6785 -31.6718 -31.6691 -31.6593 -31.6316 -31.6305
   -31.6114 -31.6114 -31.6086 -31.5991 -31.5879 -31.5796 -31.5692 -31.5634
   -31.5541 -31.5537 -31.5514 -31.5418 -31.5122 -31.5041 -31.5036 -31.4810
   -31.3772 -31.3411 -30.8410 -30.8409 -30.7568 -30.7566 -30.7173 -30.7172
   -19.2933 -16.3287 -15.8833 -15.7843 -15.6543 -15.5713 -15.5486 -15.4753
   -15.4173 -15.3834 -15.3272 -15.3043 -15.2904 -15.2750 -15.2402 -15.2146
   -15.1949 -15.1513 -15.1340 -15.1158 -15.0846 -15.0593 -15.0484 -15.0431
   -15.0375 -15.0029 -14.9985 -14.9130 -14.9037 -14.9003 -14.5683 -13.0215
   -13.0212  -9.2128  -7.0689  -6.4968  -4.5878  -3.5741  -3.0934  -3.0477
    -2.9933  -2.8547  -2.7939  -2.7282  -2.6921  -2.6496  -2.5990  -2.5655
    -2.5474  -2.4965  -2.4887  -2.4237  -2.4081  -2.3926  -2.3741  -2.3708
    -2.3624  -2.3251  -2.2901  -2.2764  -2.2695  -2.2602  -2.2466  -2.1998
    -2.1845  -2.1530  -2.1436  -2.1097  -2.0811  -2.0503  -1.9391  -1.9053
    -1.8810  -1.8180  -1.7522  -1.7465  -1.6652  -1.6433  -1.5876  -1.5837
    -1.5683  -1.5258  -1.3981  -1.2916  -1.2804  -1.2293  -1.1979  -1.1728
    -1.1100  -1.0591  -1.0049  -1.0019  -0.9097  -0.8646  -0.8379  -0.7363
    -0.7064  -0.6983  -0.5813  -0.5570  -0.5180  -0.5066  -0.5005  -0.4412
    -0.4336  -0.4100  -0.3276  -0.3084  -0.2813  -0.2697  -0.2073  -0.0469
    -0.0162   0.0284   0.1560   0.1959   0.3587   0.3897   0.4221   0.5280
     0.5730   0.6204   0.6249   0.7479   0.7578   0.8450   0.8572   0.8744
     0.9102   0.9219   1.8449   1.8463   1.9318   1.9318   3.5346   3.7778
     3.8433   3.8506   3.8879   4.0241   4.0679   4.1268   4.1302   4.1396
     4.1583

     the Fermi energy is     3.6050 ev

!    total energy              =   -2955.08672011 Ry
     estimated scf accuracy    <       0.00000005 Ry
     smearing contrib. (-TS)   =      -0.04072360 Ry
     internal energy E=F+TS    =   -2955.04599651 Ry

     The total energy is F=E-TS. E is the sum of the following terms:
     one-electron contribution =  -23873.40055919 Ry
     hartree contribution      =   12028.87857542 Ry
     xc contribution           =    -489.74026011 Ry
     ewald contribution        =    9379.21450585 Ry
     electric field correction =       0.00174151 Ry

     convergence has been achieved in  80 iterations

     Forces acting on atoms (cartesian axes, Ry/au):

     atom    1 type  1   force =    -0.00000262   -0.00025272    0.09337419
     atom    2 type  1   force =    -0.00015589   -0.00038597   -0.17806410
     atom    3 type  2   force =     0.00001288   -0.00034560   -0.02031898
     atom    4 type  2   force =    -0.00003567   -0.00190190    0.05858338
     atom    5 type  2   force =    -0.01017985   -0.00084991    0.00745437
     atom    6 type  2   force =     0.01152009   -0.00017598    0.00625567
     atom    7 type  1   force =    -0.00076429    0.00202831   -0.01057574
     atom    8 type  1   force =     0.00031758    0.00074163   -0.00335309
     atom    9 type  2   force =     0.00024510    0.00042636    0.00016395
     atom   10 type  2   force =    -0.00108477    0.00267784   -0.00406962
     atom   11 type  2   force =    -0.00026635    0.00005266    0.00002188
     atom   12 type  2   force =    -0.00004996   -0.00002965    0.00012375
     atom   13 type  1   force =     0.00075230    0.00072268    0.00040789
     atom   14 type  1   force =    -0.00093355   -0.00011070   -0.00009320
     atom   15 type  2   force =    -0.00012883   -0.00029066    0.00057434
     atom   16 type  2   force =     0.00032148    0.00055526    0.00008275
     atom   17 type  2   force =     0.00009133   -0.00028019    0.00032294
     atom   18 type  2   force =     0.00066817    0.00021295    0.00008137
     atom   19 type  1   force =    -0.00081961   -0.00065329    0.00001882
     atom   20 type  1   force =     0.00024066   -0.00063503   -0.00030662
     atom   21 type  2   force =     0.00002163   -0.00011388    0.10387869
     atom   22 type  2   force =    -0.00010398   -0.00126050    0.00039454
     atom   23 type  2   force =    -0.07054084   -0.00020905   -0.02693438
     atom   24 type  2   force =     0.07035854    0.00022884   -0.02697984
     atom   25 type  1   force =     0.00003648   -0.00022646    0.09300006
     atom   26 type  1   force =    -0.00024067   -0.00045067   -0.17803192
     atom   27 type  2   force =     0.00006975   -0.00024180   -0.01930355
     atom   28 type  2   force =     0.00002399   -0.00162565    0.05767493
     atom   29 type  2   force =    -0.01076567   -0.00046466    0.00808393
     atom   30 type  2   force =     0.01198557   -0.00007594    0.00684383
     atom   31 type  1   force =    -0.00063304    0.00609271   -0.01380562
     atom   32 type  1   force =     0.00028184   -0.00085940   -0.00341221
     atom   33 type  2   force =     0.00014210    0.00006796    0.00002076
     atom   34 type  2   force =    -0.00051028   -0.00107183   -0.00266950
     atom   35 type  2   force =    -0.00040594    0.00006338    0.00004626
     atom   36 type  2   force =     0.00003817    0.00001893    0.00026629
     atom   37 type  1   force =     0.00083167   -0.00082254    0.00025000
     atom   38 type  1   force =    -0.00088711    0.00033661   -0.00054657
     atom   39 type  2   force =    -0.00023390   -0.00011853   -0.00012422
     atom   40 type  2   force =     0.00033308    0.00014443    0.00044262
     atom   41 type  2   force =     0.00002444   -0.00027394    0.00000826
     atom   42 type  2   force =     0.00060536   -0.00010421   -0.00039502
     atom   43 type  1   force =    -0.00107314    0.00008851    0.00010355
     atom   44 type  1   force =     0.00130336   -0.00040038   -0.00025373
     atom   45 type  2   force =     0.00000879   -0.00012127    0.10388103
     atom   46 type  2   force =    -0.07053974   -0.00017016   -0.02691662
     atom   47 type  2   force =     0.07036738    0.00026835   -0.02698296
     atom   48 type  3   force =     0.00068323   -0.00024752    0.00032174
     atom   49 type  4   force =     0.00081507    0.00135673    0.00002059
     atom   50 type  5   force =    -0.00049215   -0.00088941   -0.00065867
     atom   51 type  5   force =     0.00016309    0.00002783    0.00028246
     atom   52 type  5   force =     0.00031492   -0.00018560   -0.00030667
     atom   53 type  5   force =    -0.00037329   -0.00022946    0.00064871
     atom   54 type  2   force =     0.01245740    0.00734375   -0.00148815
     atom   55 type  5   force =     0.00033865    0.00072348   -0.00050159
     atom   56 type  5   force =    -0.01415296   -0.00810472    0.00245903

     Total force =     0.366433     Total SCF correction =     0.000751
  @ DRIVER MODE: Message from server: STATUS
  @ DRIVER MODE: Message from server: GETFORCE
  @ DRIVER MODE: Returning v,forces,stress,ensemble 

     Writing output data file ./calc.save/
  @ DRIVER MODE: Message from server: EXIT
  @ DRIVE MODE: Exiting  
 
     init_run     :     10.72s CPU     10.99s WALL (       1 calls)
     electrons    :   1162.44s CPU   1180.58s WALL (       1 calls)
     forces       :      2.31s CPU      2.40s WALL (       1 calls)

     Called by init_run:
     wfcinit      :      4.75s CPU      4.84s WALL (       1 calls)
     potinit      :      5.33s CPU      5.40s WALL (       1 calls)
     hinit0       :      0.29s CPU      0.31s WALL (       1 calls)

     Called by electrons:
     c_bands      :    976.25s CPU    983.57s WALL (      80 calls)
     sum_band     :    126.15s CPU    130.44s WALL (      80 calls)
     v_of_rho     :     44.22s CPU     46.59s WALL (      81 calls)
     newd         :     18.45s CPU     22.43s WALL (      81 calls)
     mix_rho      :      1.64s CPU      1.76s WALL (      80 calls)
     vdW_kernel   :      4.54s CPU      4.55s WALL (       1 calls)

     Called by c_bands:
     init_us_2    :      7.34s CPU      7.40s WALL (    1620 calls)
     cegterg      :    954.61s CPU    961.52s WALL (     813 calls)

     Called by *egterg:
     cdiaghg      :    156.66s CPU    157.51s WALL (    7315 calls)
     h_psi        :    518.57s CPU    523.33s WALL (    7327 calls)
     s_psi        :     68.00s CPU     68.22s WALL (    7327 calls)
     g_psi        :      1.81s CPU      1.83s WALL (    6504 calls)

     Called by h_psi:
     h_psi:calbec :     64.19s CPU     64.53s WALL (    7327 calls)
     vloc_psi     :    382.73s CPU    386.50s WALL (    7327 calls)
     add_vuspsi   :     68.28s CPU     68.64s WALL (    7327 calls)

     General routines
     calbec       :     86.32s CPU     86.73s WALL (    8167 calls)
     fft          :     22.80s CPU     23.01s WALL (    5103 calls)
     ffts         :      0.15s CPU      0.15s WALL (     161 calls)
     fftw         :    433.83s CPU    438.05s WALL ( 1037418 calls)
     interpolate  :      0.47s CPU      0.47s WALL (      81 calls)
     davcio       :      0.00s CPU      0.80s WALL (      10 calls)
 
     Parallel routines
 
     PWSCF        :  19m35.77s CPU  19m57.03s WALL

 
   This run was terminated on:   9: 2: 0  16Sep2021            

=------------------------------------------------------------------------------=
   JOB DONE.
=------------------------------------------------------------------------------=
