
     Program PWSCF v.6.7GPU starts on  3Aug2021 at  1:49:16 

     This program is part of the open-source Quantum ESPRESSO suite
     for quantum simulation of materials; please cite
         "P. Giannozzi et al., J. Phys.:Condens. Matter 21 395502 (2009);
         "P. Giannozzi et al., J. Phys.:Condens. Matter 29 465901 (2017);
         "P. Giannozzi et al., J. Chem. Phys. 152 154105 (2020);
          URL http://www.quantum-espresso.org", 
     in publications or presentations arising from this work. More details at
     http://www.quantum-espresso.org/quote

     Parallel version (MPI), running on    16 processors

     MPI processes distributed on     1 nodes
     R & G space division:  proc/nbgrp/npool/nimage =      16
     Reading input from /storage/home/hcoda1/3/ntian30/research/carbon/02Aug_vib_paired/ads_slab/CH3NHHH_a/out_0045/pw.inp
Warning: card &CELL ignored
Warning: card   CELL_DYNAMICS='IPI', ignored
Warning: card / ignored

     Current dimensions of program PWSCF are:
     Max number of different atomic species (ntypx) = 10
     Max number of k-points (npk) =  40000
     Max angular momentum in pseudopotentials (lmaxx) =  3
     Presently no symmetry can be used with electric field

     Message from routine cell_base_init:
     DEPRECATED: use true lattice parameter, not A to a.u. conversion factor

     **************************************************************************
     Initializing libbeef V0.1.2 with the BEEF-vdW functional.
     Citation: Wellendorff et al., PRB 85, 235149 (2012).
     **************************************************************************


     IMPORTANT: XC functional enforced from input :
     Exchange-correlation= BEEF-VDW
                           (   1   4  43  14   2   0   0)
     Any further DFT definition will be discarded
     Please, verify this is what you really want


     Subspace diagonalization in iterative solution of the eigenvalue problem:
     one sub-group per band group will be used
     scalapack distributed-memory algorithm (size of sub-group:  4*  4 procs)

  @ DRIVER MODE: Connecting to 
 qe_1139763_2482537.sched-torque.pace.gatech.eduh_zaal3x_scratch
  using UNIX socket
  @ DRIVER MODE: Message from server: STATUS
  @ DRIVER MODE: Message from server: INIT
  @ DRIVER MODE: Receiving replica           0          -1
  @ DRIVER MODE: Receiving encoded integer          25
  @ DRIVER MODE:  SCF:  T  FORCE:  T  STRESS:  F  VC:  F  ENSEMBLE:  F
  @ DRIVER MODE:  SCF:  T  FORCE:  T  STRESS:  F  VC:  F  ENSEMBLE:  F
 
     Parallelization info
     --------------------
     sticks:   dense  smooth     PW     G-vecs:    dense   smooth      PW
     Min         204      82     23                35422     8962    1367
     Max         205      84     24                35435     8968    1382
     Sum        3275    1317    379               566857   143421   21985
 
     Using Slab Decomposition
 


     bravais-lattice index     =            0
     lattice parameter (alat)  =       1.8897  a.u.
     unit-cell volume          =    6658.9804 (a.u.)^3
     number of atoms/cell      =           55
     number of atomic types    =            5
     number of electrons       =       393.00
     number of Kohn-Sham states=          206
     kinetic-energy cutoff     =      29.3995  Ry
     charge density cutoff     =     293.9946  Ry
     scf convergence threshold =      7.3E-08
     mixing beta               =       0.0500
     number of iterations used =            8  plain     mixing
     Exchange-correlation= BEEF-VDW
                           (   1   4  43  14   2   0   0)

     celldm(1)=   1.889726  celldm(2)=   0.000000  celldm(3)=   0.000000
     celldm(4)=   0.000000  celldm(5)=   0.000000  celldm(6)=   0.000000

     crystal axes: (cart. coord. in units of alat)
               a(1) = (   6.579727   0.000000   0.000000 )  
               a(2) = (  -0.000775   5.961596   0.000000 )  
               a(3) = (   0.000000   0.000000  25.155947 )  

     reciprocal axes: (cart. coord. in units 2 pi/alat)
               b(1) = (  0.151982  0.000020  0.000000 )  
               b(2) = (  0.000000  0.167740  0.000000 )  
               b(3) = (  0.000000  0.000000  0.039752 )  


     PseudoPot. # 1 for Ti read from file:
     /storage/coda1/p-amedford6/0/shared/rich_project_chbe-medford/medford-share/data/pseudos_module/espresso/nninc/pbe/van/Ti.UPF
     MD5 check sum: 8e4df49b7f0d34bbd5052bf3f5ea0213
     Pseudo is Ultrasoft, Zval = 12.0
     Generated by new atomic code, or converted to UPF format
     Using radial grid of  851 points,  6 beta functions with: 
                l(1) =   0
                l(2) =   0
                l(3) =   1
                l(4) =   1
                l(5) =   2
                l(6) =   2
     Q(r) pseudized with  8 coefficients,  rinner =    1.000   1.000   1.000
                                                       1.000   1.000

     PseudoPot. # 2 for O  read from file:
     /storage/coda1/p-amedford6/0/shared/rich_project_chbe-medford/medford-share/data/pseudos_module/espresso/nninc/pbe/van/O.UPF
     MD5 check sum: 78c19812648e8988a0fe644b0f25305e
     Pseudo is Ultrasoft, Zval =  6.0
     Generated by new atomic code, or converted to UPF format
     Using radial grid of  737 points,  4 beta functions with: 
                l(1) =   0
                l(2) =   0
                l(3) =   1
                l(4) =   1
     Q(r) pseudized with  8 coefficients,  rinner =    0.800   0.800   0.800


     PseudoPot. # 3 for N  read from file:
     /storage/coda1/p-amedford6/0/shared/rich_project_chbe-medford/medford-share/data/pseudos_module/espresso/nninc/pbe/van/N.UPF
     MD5 check sum: 90d10febe142ad51ac9d5be1deb811c4
     Pseudo is Ultrasoft, Zval =  5.0
     Generated by new atomic code, or converted to UPF format
     Using radial grid of  729 points,  4 beta functions with: 
                l(1) =   0
                l(2) =   0
                l(3) =   1
                l(4) =   1
     Q(r) pseudized with  8 coefficients,  rinner =    0.800   0.800   0.800


     PseudoPot. # 4 for C  read from file:
     /storage/coda1/p-amedford6/0/shared/rich_project_chbe-medford/medford-share/data/pseudos_module/espresso/nninc/pbe/van/C.UPF
     MD5 check sum: 1a69bf6b8db32088f5b2163dbdb77a27
     Pseudo is Ultrasoft, Zval =  4.0
     Generated by new atomic code, or converted to UPF format
     Using radial grid of  721 points,  4 beta functions with: 
                l(1) =   0
                l(2) =   0
                l(3) =   1
                l(4) =   1
     Q(r) pseudized with  8 coefficients,  rinner =    0.800   0.800   0.800


     PseudoPot. # 5 for H  read from file:
     /storage/coda1/p-amedford6/0/shared/rich_project_chbe-medford/medford-share/data/pseudos_module/espresso/nninc/pbe/van/H.UPF
     MD5 check sum: b5ee9d7bfd3a09ee7748110bda690ff7
     Pseudo is Ultrasoft, Zval =  1.0
     Generated by new atomic code, or converted to UPF format
     Using radial grid of  615 points,  1 beta functions with: 
                l(1) =   0
     Q(r) pseudized with  8 coefficients,  rinner =    0.800

     atomic species   valence    mass     pseudopotential
        Ti1           12.00    47.86700     Ti( 1.00)
        O1             6.00    15.99900     O ( 1.00)
        N1             5.00    14.00700     N ( 1.00)
        C1             4.00    12.01100     C ( 1.00)
        H1             1.00     1.00800     H ( 1.00)

     No symmetry found



   Cartesian axes

     site n.     atom                  positions (alat units)
         1           Ti1 tau(   1) = (   0.0004258   2.9801865   6.0000000  )
         2           Ti1 tau(   2) = (   3.2906075   1.4906267   6.0002472  )
         3           O1  tau(   3) = (   0.0006271   0.0005054   7.9858123  )
         4           O1  tau(   4) = (   3.2906025   0.0005020   7.3038282  )
         5           O1  tau(   5) = (   4.5942328   1.4918067   9.2879030  )
         6           O1  tau(   6) = (   1.9868534   1.4903216   9.2879459  )
         7           Ti1 tau(   7) = (   3.2907910   2.8959150   9.1758416  )
         8           Ti1 tau(   8) = (   0.0015273   1.4827037   9.2680791  )
         9           O1  tau(   9) = (   3.2636084   5.9406443  11.4082010  )
        10           O1  tau(  10) = (   0.0116148   5.9584955  10.6183126  )
        11           O1  tau(  11) = (   1.2642105   1.4849797  12.6947803  )
        12           O1  tau(  12) = (   5.2691575   1.4821021  12.6650678  )
        13           Ti1 tau(  13) = (   6.5574234   2.9640577  12.4921542  )
        14           Ti1 tau(  14) = (   3.2619390   1.4709553  12.5527290  )
        15           O1  tau(  15) = (   6.5247406   5.9594380  14.6832748  )
        16           O1  tau(  16) = (   3.2695906   5.9428997  14.0562986  )
        17           O1  tau(  17) = (   4.5175969   1.4707097  16.2986306  )
        18           O1  tau(  18) = (   1.9406912   1.4777946  16.2473769  )
        19           Ti1 tau(  19) = (   3.2491105   2.9422209  15.8109686  )
        20           Ti1 tau(  20) = (   6.5361480   1.3378720  15.9626387  )
        21           O1  tau(  21) = (   3.2904802   0.0005063   4.7018136  )
        22           O1  tau(  22) = (   6.5280740   5.8897732  17.4332532  )
        23           O1  tau(  23) = (   1.3043587   1.4918075   6.0039043  )
        24           O1  tau(  24) = (   5.2767064   1.4903225   6.0039473  )
        25           Ti1 tau(  25) = (   0.0000382   5.9609847   6.0000000  )
        26           Ti1 tau(  26) = (   3.2902200   4.4714249   6.0002472  )
        27           O1  tau(  27) = (   0.0002396   2.9813036   7.9858123  )
        28           O1  tau(  28) = (   3.2902150   2.9813002   7.3038282  )
        29           O1  tau(  29) = (   4.5938453   4.4726049   9.2879030  )
        30           O1  tau(  30) = (   1.9864658   4.4711199   9.2879459  )
        31           Ti1 tau(  31) = (   3.2891106   5.8743827   9.1763621  )
        32           Ti1 tau(  32) = (   0.0006254   4.4649316   9.2693709  )
        33           O1  tau(  33) = (   3.2649920   2.9642658  11.3997388  )
        34           O1  tau(  34) = (   0.0092240   2.9805883  10.6323155  )
        35           O1  tau(  35) = (   1.2634527   4.4478426  12.7061968  )
        36           O1  tau(  36) = (   5.2693862   4.4495813  12.6755241  )
        37           Ti1 tau(  37) = (   6.5522441   5.9483113  12.5008436  )
        38           Ti1 tau(  38) = (   3.2626494   4.4468850  12.5575576  )
        39           O1  tau(  39) = (   6.4970557   2.9363996  15.0046851  )
        40           O1  tau(  40) = (   3.2722650   2.9529576  14.0194401  )
        41           O1  tau(  41) = (   4.5170401   4.4205294  16.2730734  )
        42           O1  tau(  42) = (   1.9466746   4.4191161  16.2235312  )
        43           Ti1 tau(  43) = (   3.2419262   5.9323414  15.8513663  )
        44           Ti1 tau(  44) = (   6.5549466   4.5556212  15.8889459  )
        45           O1  tau(  45) = (   3.2900926   2.9813045   4.7018136  )
        46           O1  tau(  46) = (   1.3039711   4.4726057   6.0039043  )
        47           O1  tau(  47) = (   5.2763189   4.4711207   6.0039473  )
        48           N1  tau(  48) = (   4.8657738   4.5798987  19.4796958  )
        49           C1  tau(  49) = (   5.7271871   3.4329544  19.8049648  )
        50           H1  tau(  50) = (   6.3241292   3.1721029  18.9298488  )
        51           H1  tau(  51) = (   6.4229137   3.7195585  20.5942015  )
        52           H1  tau(  52) = (   5.1874390   2.5328885  20.1195193  )
        53           H1  tau(  53) = (   5.9066942   5.7389963  18.1772939  )
        54           H1  tau(  54) = (   4.2103208   4.3266459  18.7469397  )
        55           H1  tau(  55) = (   4.3187305   4.8445830  20.2870342  )

     number of k points=    10  Fermi-Dirac smearing, width (Ry)=  0.0073
                       cart. coord. in units 2pi/alat
        k(    1) = (   0.0000000   0.0000000   0.0000000), wk =   0.1250000
        k(    2) = (   0.0000000   0.0419351   0.0000000), wk =   0.2500000
        k(    3) = (   0.0000000  -0.0838702   0.0000000), wk =   0.1250000
        k(    4) = (   0.0379955   0.0000049   0.0000000), wk =   0.2500000
        k(    5) = (   0.0379955   0.0419400   0.0000000), wk =   0.2500000
        k(    6) = (   0.0379955  -0.0838652   0.0000000), wk =   0.2500000
        k(    7) = (   0.0379955  -0.0419301   0.0000000), wk =   0.2500000
        k(    8) = (  -0.0759910  -0.0000099   0.0000000), wk =   0.1250000
        k(    9) = (  -0.0759910   0.0419252   0.0000000), wk =   0.2500000
        k(   10) = (  -0.0759910  -0.0838800   0.0000000), wk =   0.1250000

     Dense  grid:   566857 G-vectors     FFT dimensions: (  72,  64, 270)

     Smooth grid:   143421 G-vectors     FFT dimensions: (  45,  40, 180)

     Estimated max dynamical RAM per process >     229.54 MB

     Estimated total dynamical RAM >       3.59 GB
     Cannot read rho : file not found

     Initial potential from superposition of free atoms

     starting charge  376.99914, renormalised to  393.00000

     negative rho (up, down):  1.330E-02 0.000E+00


     %%%%%%%%%%%%%%%%%%%%%%%%%%%%%%%%%%%%%%%%%%%%%%%%%%%%%%%%%%%%%%%%%%%%%%%%
     %                                                                      %
     % You are using vdW-DF, which was implemented by the Thonhauser group. %
     % Please cite the following two papers that made this development      %
     % possible and the two reviews that describe the various versions:     %
     %                                                                      %
     %   T. Thonhauser et al., PRL 115, 136402 (2015).                      %
     %   T. Thonhauser et al., PRB 76, 125112 (2007).                       %
     %   K. Berland et al., Rep. Prog. Phys. 78, 066501 (2015).             %
     %   D.C. Langreth et al., J. Phys.: Condens. Matter 21, 084203 (2009). %
     %                                                                      %
     %                                                                      %
     % If you are calculating the stress with vdW-DF, please also cite:     %
     %                                                                      %
     %   R. Sabatini et al., J. Phys.: Condens. Matter 24, 424209 (2012).   %
     %                                                                      %
     %%%%%%%%%%%%%%%%%%%%%%%%%%%%%%%%%%%%%%%%%%%%%%%%%%%%%%%%%%%%%%%%%%%%%%%%


 
     Adding external electric field

     Computed dipole along edir(3) : 
        Dipole               -9.4918 Ry au,        -24.1257 Debye
        Dipole field         -0.0179 Ry au, 
 
        Potential amp.        1.6604 Ry
        Total length         46.3494 bohr
 
     Starting wfcs are  298 atomic wfcs
  @ DRIVER MODE: Message from server: STATUS
  @ DRIVER MODE: Message from server: POSDATA
  @ DRIVER MODE: Reading and sharing cell 
  @ DRIVER MODE: Reading and sharing positions 
  @ DRIVER MODE: Received positions 

     total cpu time spent up to now is       22.7 secs

     Self-consistent Calculation

     iteration #  1     ecut=    29.40 Ry     beta= 0.05
     Davidson diagonalization with overlap
     c_bands:  2 eigenvalues not converged
     c_bands:  1 eigenvalues not converged
     c_bands:  2 eigenvalues not converged
     c_bands:  3 eigenvalues not converged
     c_bands:  3 eigenvalues not converged
     c_bands:  1 eigenvalues not converged
     ethr =  1.00E-05,  avg # of iterations = 18.9

     negative rho (up, down):  1.235E-02 0.000E+00
 
     Adding external electric field

     Computed dipole along edir(3) : 
        Dipole               36.9477 Ry au,         93.9118 Debye
        Dipole field          0.0697 Ry au, 
 
        Potential amp.       -6.4634 Ry
        Total length         46.3494 bohr
 

     total cpu time spent up to now is       63.1 secs

     total energy              =   -2620.44117760 Ry
     estimated scf accuracy    <    3390.29815026 Ry

     iteration #  2     ecut=    29.40 Ry     beta= 0.05
     Davidson diagonalization with overlap
     ethr =  1.00E-02,  avg # of iterations = 23.3

     negative rho (up, down):  4.524E-03 0.000E+00
 
     Adding external electric field

     Computed dipole along edir(3) : 
        Dipole               -4.0124 Ry au,        -10.1984 Debye
        Dipole field         -0.0076 Ry au, 
 
        Potential amp.        0.7019 Ry
        Total length         46.3494 bohr
 

     total cpu time spent up to now is      115.5 secs

     total energy              =   -2417.54580558 Ry
     estimated scf accuracy    <   65770.46016452 Ry

     iteration #  3     ecut=    29.40 Ry     beta= 0.05
     Davidson diagonalization with overlap
     ethr =  1.00E-02,  avg # of iterations = 15.0

     negative rho (up, down):  4.568E-03 0.000E+00
 
     Adding external electric field

     Computed dipole along edir(3) : 
        Dipole               -5.4660 Ry au,        -13.8932 Debye
        Dipole field         -0.0103 Ry au, 
 
        Potential amp.        0.9562 Ry
        Total length         46.3494 bohr
 

     total cpu time spent up to now is      148.7 secs

     total energy              =   -2902.46774593 Ry
     estimated scf accuracy    <    3398.66512315 Ry

     iteration #  4     ecut=    29.40 Ry     beta= 0.05
     Davidson diagonalization with overlap
     c_bands:  1 eigenvalues not converged
     c_bands:  4 eigenvalues not converged
     c_bands:  3 eigenvalues not converged
     c_bands:  1 eigenvalues not converged
     c_bands:  4 eigenvalues not converged
     c_bands:  5 eigenvalues not converged
     ethr =  1.00E-02,  avg # of iterations = 18.8

     negative rho (up, down):  4.577E-03 0.000E+00
 
     Adding external electric field

     Computed dipole along edir(3) : 
        Dipole               -6.0595 Ry au,        -15.4018 Debye
        Dipole field         -0.0114 Ry au, 
 
        Potential amp.        1.0600 Ry
        Total length         46.3494 bohr
 

     total cpu time spent up to now is      164.8 secs

     total energy              =   -2920.83264848 Ry
     estimated scf accuracy    <     265.89726979 Ry

     iteration #  5     ecut=    29.40 Ry     beta= 0.05
     Davidson diagonalization with overlap
     ethr =  1.00E-02,  avg # of iterations =  3.8

     negative rho (up, down):  4.589E-03 0.000E+00
 
     Adding external electric field

     Computed dipole along edir(3) : 
        Dipole               -6.5495 Ry au,        -16.6470 Debye
        Dipole field         -0.0124 Ry au, 
 
        Potential amp.        1.1457 Ry
        Total length         46.3494 bohr
 

     total cpu time spent up to now is      172.7 secs

     total energy              =   -2918.93783247 Ry
     estimated scf accuracy    <     163.71097586 Ry

     iteration #  6     ecut=    29.40 Ry     beta= 0.05
     Davidson diagonalization with overlap
     ethr =  1.00E-02,  avg # of iterations =  5.5

     negative rho (up, down):  4.618E-03 0.000E+00
 
     Adding external electric field

     Computed dipole along edir(3) : 
        Dipole               -6.5550 Ry au,        -16.6611 Debye
        Dipole field         -0.0124 Ry au, 
 
        Potential amp.        1.1467 Ry
        Total length         46.3494 bohr
 

     total cpu time spent up to now is      181.5 secs

     total energy              =   -2919.72686666 Ry
     estimated scf accuracy    <      82.85621585 Ry

     iteration #  7     ecut=    29.40 Ry     beta= 0.05
     Davidson diagonalization with overlap
     ethr =  1.00E-02,  avg # of iterations =  5.9

     negative rho (up, down):  4.573E-03 0.000E+00
 
     Adding external electric field

     Computed dipole along edir(3) : 
        Dipole               -5.7418 Ry au,        -14.5943 Debye
        Dipole field         -0.0108 Ry au, 
 
        Potential amp.        1.0044 Ry
        Total length         46.3494 bohr
 

     total cpu time spent up to now is      190.3 secs

     total energy              =   -2923.71992930 Ry
     estimated scf accuracy    <      14.86416285 Ry

     iteration #  8     ecut=    29.40 Ry     beta= 0.05
     Davidson diagonalization with overlap
     ethr =  3.78E-03,  avg # of iterations =  3.1

     negative rho (up, down):  4.738E-03 0.000E+00
 
     Adding external electric field

     Computed dipole along edir(3) : 
        Dipole               -9.9196 Ry au,        -25.2131 Debye
        Dipole field         -0.0187 Ry au, 
 
        Potential amp.        1.7353 Ry
        Total length         46.3494 bohr
 

     total cpu time spent up to now is      227.8 secs

     total energy              =   -2925.26474160 Ry
     estimated scf accuracy    <      11.90145715 Ry

     iteration #  9     ecut=    29.40 Ry     beta= 0.05
     Davidson diagonalization with overlap
     ethr =  3.03E-03,  avg # of iterations = 15.0

     negative rho (up, down):  1.637E-03 0.000E+00
 
     Adding external electric field

     Computed dipole along edir(3) : 
        Dipole               -9.2853 Ry au,        -23.6009 Debye
        Dipole field         -0.0175 Ry au, 
 
        Potential amp.        1.6243 Ry
        Total length         46.3494 bohr
 

     total cpu time spent up to now is      254.2 secs

     total energy              =   -2938.29310201 Ry
     estimated scf accuracy    <    2981.52417759 Ry

     iteration # 10     ecut=    29.40 Ry     beta= 0.05
     Davidson diagonalization with overlap
     ethr =  3.03E-03,  avg # of iterations =  3.1

     negative rho (up, down):  3.616E-03 0.000E+00
 
     Adding external electric field

     Computed dipole along edir(3) : 
        Dipole              -10.7324 Ry au,        -27.2791 Debye
        Dipole field         -0.0203 Ry au, 
 
        Potential amp.        1.8775 Ry
        Total length         46.3494 bohr
 

     total cpu time spent up to now is      262.1 secs

     total energy              =   -2956.53419816 Ry
     estimated scf accuracy    <    2197.64469137 Ry

     iteration # 11     ecut=    29.40 Ry     beta= 0.05
     Davidson diagonalization with overlap
     ethr =  3.03E-03,  avg # of iterations = 13.5

     negative rho (up, down):  1.582E-03 0.000E+00
 
     Adding external electric field

     Computed dipole along edir(3) : 
        Dipole              -11.1426 Ry au,        -28.3217 Debye
        Dipole field         -0.0210 Ry au, 
 
        Potential amp.        1.9492 Ry
        Total length         46.3494 bohr
 

     total cpu time spent up to now is      276.2 secs

     total energy              =   -2972.80035851 Ry
     estimated scf accuracy    <    6043.04122638 Ry

     iteration # 12     ecut=    29.40 Ry     beta= 0.05
     Davidson diagonalization with overlap
     ethr =  3.03E-03,  avg # of iterations =  8.5

     negative rho (up, down):  1.092E-03 0.000E+00
 
     Adding external electric field

     Computed dipole along edir(3) : 
        Dipole               -5.6494 Ry au,        -14.3594 Debye
        Dipole field         -0.0107 Ry au, 
 
        Potential amp.        0.9883 Ry
        Total length         46.3494 bohr
 

     total cpu time spent up to now is      286.0 secs

     total energy              =   -2877.86015229 Ry
     estimated scf accuracy    <    7052.09199149 Ry

     iteration # 13     ecut=    29.40 Ry     beta= 0.05
     Davidson diagonalization with overlap
     c_bands:  1 eigenvalues not converged
     ethr =  3.03E-03,  avg # of iterations = 15.4

     negative rho (up, down):  9.050E-04 0.000E+00
 
     Adding external electric field

     Computed dipole along edir(3) : 
        Dipole               -7.4222 Ry au,        -18.8653 Debye
        Dipole field         -0.0140 Ry au, 
 
        Potential amp.        1.2984 Ry
        Total length         46.3494 bohr
 

     total cpu time spent up to now is      305.5 secs

     total energy              =   -2930.38024703 Ry
     estimated scf accuracy    <      30.33033607 Ry

     iteration # 14     ecut=    29.40 Ry     beta= 0.05
     Davidson diagonalization with overlap
     ethr =  3.03E-03,  avg # of iterations =  7.3

     negative rho (up, down):  5.896E-04 0.000E+00
 
     Adding external electric field

     Computed dipole along edir(3) : 
        Dipole               -7.7447 Ry au,        -19.6852 Debye
        Dipole field         -0.0146 Ry au, 
 
        Potential amp.        1.3548 Ry
        Total length         46.3494 bohr
 

     total cpu time spent up to now is      315.4 secs

     total energy              =   -2935.24503426 Ry
     estimated scf accuracy    <     496.47892091 Ry

     iteration # 15     ecut=    29.40 Ry     beta= 0.05
     Davidson diagonalization with overlap
     ethr =  3.03E-03,  avg # of iterations =  1.6

     negative rho (up, down):  9.016E-03 0.000E+00
 
     Adding external electric field

     Computed dipole along edir(3) : 
        Dipole               -8.5359 Ry au,        -21.6960 Debye
        Dipole field         -0.0161 Ry au, 
 
        Potential amp.        1.4932 Ry
        Total length         46.3494 bohr
 

     total cpu time spent up to now is      322.8 secs

     total energy              =   -2936.46950941 Ry
     estimated scf accuracy    <     650.03577524 Ry

     iteration # 16     ecut=    29.40 Ry     beta= 0.05
     Davidson diagonalization with overlap
     ethr =  3.03E-03,  avg # of iterations = 12.1

     negative rho (up, down):  2.176E-01 0.000E+00
 
     Adding external electric field

     Computed dipole along edir(3) : 
        Dipole               -5.1187 Ry au,        -13.0105 Debye
        Dipole field         -0.0097 Ry au, 
 
        Potential amp.        0.8954 Ry
        Total length         46.3494 bohr
 

     total cpu time spent up to now is      336.8 secs

     total energy              =   -2903.92552386 Ry
     estimated scf accuracy    <    2021.07249382 Ry

     iteration # 17     ecut=    29.40 Ry     beta= 0.05
     Davidson diagonalization with overlap
     ethr =  3.03E-03,  avg # of iterations = 14.3

     negative rho (up, down):  1.572E-01 0.000E+00
 
     Adding external electric field

     Computed dipole along edir(3) : 
        Dipole               -5.0011 Ry au,        -12.7116 Debye
        Dipole field         -0.0094 Ry au, 
 
        Potential amp.        0.8749 Ry
        Total length         46.3494 bohr
 

     total cpu time spent up to now is      352.6 secs

     total energy              =   -2923.22941166 Ry
     estimated scf accuracy    <      17.73004200 Ry

     iteration # 18     ecut=    29.40 Ry     beta= 0.05
     Davidson diagonalization with overlap
     ethr =  3.03E-03,  avg # of iterations =  1.4

     negative rho (up, down):  1.504E-01 0.000E+00
 
     Adding external electric field

     Computed dipole along edir(3) : 
        Dipole               -4.2073 Ry au,        -10.6938 Debye
        Dipole field         -0.0079 Ry au, 
 
        Potential amp.        0.7360 Ry
        Total length         46.3494 bohr
 

     total cpu time spent up to now is      359.8 secs

     total energy              =   -2923.01704383 Ry
     estimated scf accuracy    <      15.00234526 Ry

     iteration # 19     ecut=    29.40 Ry     beta= 0.05
     Davidson diagonalization with overlap
     ethr =  3.03E-03,  avg # of iterations =  1.8

     negative rho (up, down):  1.250E-01 0.000E+00
 
     Adding external electric field

     Computed dipole along edir(3) : 
        Dipole               -3.3854 Ry au,         -8.6049 Debye
        Dipole field         -0.0064 Ry au, 
 
        Potential amp.        0.5922 Ry
        Total length         46.3494 bohr
 

     total cpu time spent up to now is      367.2 secs

     total energy              =   -2922.94313809 Ry
     estimated scf accuracy    <      12.55061213 Ry

     iteration # 20     ecut=    29.40 Ry     beta= 0.05
     Davidson diagonalization with overlap
     ethr =  3.03E-03,  avg # of iterations =  1.6

     negative rho (up, down):  1.237E-01 0.000E+00
 
     Adding external electric field

     Computed dipole along edir(3) : 
        Dipole               -2.2211 Ry au,         -5.6454 Debye
        Dipole field         -0.0042 Ry au, 
 
        Potential amp.        0.3885 Ry
        Total length         46.3494 bohr
 

     total cpu time spent up to now is      374.6 secs

     total energy              =   -2922.77509007 Ry
     estimated scf accuracy    <       9.59277409 Ry

     iteration # 21     ecut=    29.40 Ry     beta= 0.05
     Davidson diagonalization with overlap
     ethr =  2.44E-03,  avg # of iterations =  6.7

     negative rho (up, down):  1.353E-01 0.000E+00
 
     Adding external electric field

     Computed dipole along edir(3) : 
        Dipole               -2.2163 Ry au,         -5.6332 Debye
        Dipole field         -0.0042 Ry au, 
 
        Potential amp.        0.3877 Ry
        Total length         46.3494 bohr
 

     total cpu time spent up to now is      383.1 secs

     total energy              =   -2922.98614947 Ry
     estimated scf accuracy    <       4.54287085 Ry

     iteration # 22     ecut=    29.40 Ry     beta= 0.05
     Davidson diagonalization with overlap
     c_bands:  2 eigenvalues not converged
     ethr =  1.16E-03,  avg # of iterations =  4.7

     negative rho (up, down):  1.352E-01 0.000E+00
 
     Adding external electric field

     Computed dipole along edir(3) : 
        Dipole               -1.9887 Ry au,         -5.0547 Debye
        Dipole field         -0.0038 Ry au, 
 
        Potential amp.        0.3479 Ry
        Total length         46.3494 bohr
 

     total cpu time spent up to now is      391.4 secs

     total energy              =   -2923.15665377 Ry
     estimated scf accuracy    <       2.64222546 Ry

     iteration # 23     ecut=    29.40 Ry     beta= 0.05
     Davidson diagonalization with overlap
     c_bands:  5 eigenvalues not converged
     c_bands:  2 eigenvalues not converged
     ethr =  6.72E-04,  avg # of iterations = 14.5

     negative rho (up, down):  1.228E-01 0.000E+00
 
     Adding external electric field

     Computed dipole along edir(3) : 
        Dipole               -1.7652 Ry au,         -4.4868 Debye
        Dipole field         -0.0033 Ry au, 
 
        Potential amp.        0.3088 Ry
        Total length         46.3494 bohr
 

     total cpu time spent up to now is      403.8 secs

     total energy              =   -2923.37059818 Ry
     estimated scf accuracy    <       5.57556277 Ry

     iteration # 24     ecut=    29.40 Ry     beta= 0.05
     Davidson diagonalization with overlap
     ethr =  6.72E-04,  avg # of iterations =  5.5

     negative rho (up, down):  1.213E-01 0.000E+00
 
     Adding external electric field

     Computed dipole along edir(3) : 
        Dipole               -1.9965 Ry au,         -5.0746 Debye
        Dipole field         -0.0038 Ry au, 
 
        Potential amp.        0.3493 Ry
        Total length         46.3494 bohr
 

     total cpu time spent up to now is      412.2 secs

     total energy              =   -2923.39783017 Ry
     estimated scf accuracy    <       6.05815023 Ry

     iteration # 25     ecut=    29.40 Ry     beta= 0.05
     Davidson diagonalization with overlap
     ethr =  6.72E-04,  avg # of iterations =  3.1

     negative rho (up, down):  1.624E-01 0.000E+00
 
     Adding external electric field

     Computed dipole along edir(3) : 
        Dipole               -3.2620 Ry au,         -8.2913 Debye
        Dipole field         -0.0062 Ry au, 
 
        Potential amp.        0.5706 Ry
        Total length         46.3494 bohr
 

     total cpu time spent up to now is      420.0 secs

     total energy              =   -2922.94522290 Ry
     estimated scf accuracy    <       6.61341427 Ry

     iteration # 26     ecut=    29.40 Ry     beta= 0.05
     Davidson diagonalization with overlap
     ethr =  6.72E-04,  avg # of iterations =  6.1

     negative rho (up, down):  1.538E-01 0.000E+00
 
     Adding external electric field

     Computed dipole along edir(3) : 
        Dipole               -1.5445 Ry au,         -3.9258 Debye
        Dipole field         -0.0029 Ry au, 
 
        Potential amp.        0.2702 Ry
        Total length         46.3494 bohr
 

     total cpu time spent up to now is      428.6 secs

     total energy              =   -2922.92071172 Ry
     estimated scf accuracy    <       4.94213512 Ry

     iteration # 27     ecut=    29.40 Ry     beta= 0.05
     Davidson diagonalization with overlap
     c_bands:  3 eigenvalues not converged
     c_bands:  5 eigenvalues not converged
     c_bands:  1 eigenvalues not converged
     c_bands:  1 eigenvalues not converged
     c_bands:  4 eigenvalues not converged
     ethr =  6.72E-04,  avg # of iterations = 15.2

     negative rho (up, down):  1.152E-01 0.000E+00
 
     Adding external electric field

     Computed dipole along edir(3) : 
        Dipole               -1.6025 Ry au,         -4.0732 Debye
        Dipole field         -0.0030 Ry au, 
 
        Potential amp.        0.2803 Ry
        Total length         46.3494 bohr
 

     total cpu time spent up to now is      441.5 secs

     total energy              =   -2922.56739754 Ry
     estimated scf accuracy    <      90.52874081 Ry

     iteration # 28     ecut=    29.40 Ry     beta= 0.05
     Davidson diagonalization with overlap
     c_bands:  1 eigenvalues not converged
     ethr =  6.72E-04,  avg # of iterations =  9.1

     negative rho (up, down):  1.687E-01 0.000E+00
 
     Adding external electric field

     Computed dipole along edir(3) : 
        Dipole               -1.5128 Ry au,         -3.8453 Debye
        Dipole field         -0.0029 Ry au, 
 
        Potential amp.        0.2646 Ry
        Total length         46.3494 bohr
 

     total cpu time spent up to now is      451.2 secs

     total energy              =   -2923.23200860 Ry
     estimated scf accuracy    <       6.53867714 Ry

     iteration # 29     ecut=    29.40 Ry     beta= 0.05
     Davidson diagonalization with overlap
     ethr =  6.72E-04,  avg # of iterations =  2.1

     negative rho (up, down):  1.367E-01 0.000E+00
 
     Adding external electric field

     Computed dipole along edir(3) : 
        Dipole               -1.8912 Ry au,         -4.8069 Debye
        Dipole field         -0.0036 Ry au, 
 
        Potential amp.        0.3308 Ry
        Total length         46.3494 bohr
 

     total cpu time spent up to now is      461.6 secs

     total energy              =   -2923.20975227 Ry
     estimated scf accuracy    <       7.40927327 Ry

     iteration # 30     ecut=    29.40 Ry     beta= 0.05
     Davidson diagonalization with overlap
     ethr =  6.72E-04,  avg # of iterations =  2.0

     negative rho (up, down):  9.521E-02 0.000E+00
 
     Adding external electric field

     Computed dipole along edir(3) : 
        Dipole               -1.5140 Ry au,         -3.8483 Debye
        Dipole field         -0.0029 Ry au, 
 
        Potential amp.        0.2649 Ry
        Total length         46.3494 bohr
 

     total cpu time spent up to now is      469.3 secs

     total energy              =   -2923.09762135 Ry
     estimated scf accuracy    <       5.95080200 Ry

     iteration # 31     ecut=    29.40 Ry     beta= 0.05
     Davidson diagonalization with overlap
     ethr =  6.72E-04,  avg # of iterations =  1.4

     negative rho (up, down):  6.256E-02 0.000E+00
 
     Adding external electric field

     Computed dipole along edir(3) : 
        Dipole                1.4983 Ry au,          3.8083 Debye
        Dipole field          0.0028 Ry au, 
 
        Potential amp.       -0.2621 Ry
        Total length         46.3494 bohr
 

     total cpu time spent up to now is      476.4 secs

     total energy              =   -2922.63688413 Ry
     estimated scf accuracy    <       4.88212896 Ry

     iteration # 32     ecut=    29.40 Ry     beta= 0.05
     Davidson diagonalization with overlap
     c_bands:  1 eigenvalues not converged
     c_bands:  2 eigenvalues not converged
     ethr =  6.72E-04,  avg # of iterations = 16.6

     negative rho (up, down):  6.237E-02 0.000E+00
 
     Adding external electric field

     Computed dipole along edir(3) : 
        Dipole                1.3358 Ry au,          3.3953 Debye
        Dipole field          0.0025 Ry au, 
 
        Potential amp.       -0.2337 Ry
        Total length         46.3494 bohr
 

     total cpu time spent up to now is      491.7 secs

     total energy              =   -2924.41767404 Ry
     estimated scf accuracy    <     234.72930136 Ry

     iteration # 33     ecut=    29.40 Ry     beta= 0.05
     Davidson diagonalization with overlap
     ethr =  6.72E-04,  avg # of iterations =  3.2

     negative rho (up, down):  5.893E-02 0.000E+00
 
     Adding external electric field

     Computed dipole along edir(3) : 
        Dipole               -1.0997 Ry au,         -2.7951 Debye
        Dipole field         -0.0021 Ry au, 
 
        Potential amp.        0.1924 Ry
        Total length         46.3494 bohr
 

     total cpu time spent up to now is      499.3 secs

     total energy              =   -2921.68358270 Ry
     estimated scf accuracy    <     242.31073107 Ry

     iteration # 34     ecut=    29.40 Ry     beta= 0.05
     Davidson diagonalization with overlap
     c_bands:  1 eigenvalues not converged
     c_bands:  2 eigenvalues not converged
     c_bands:  1 eigenvalues not converged
     ethr =  6.72E-04,  avg # of iterations = 14.8

     negative rho (up, down):  7.970E-02 0.000E+00
 
     Adding external electric field

     Computed dipole along edir(3) : 
        Dipole               -1.9081 Ry au,         -4.8500 Debye
        Dipole field         -0.0036 Ry au, 
 
        Potential amp.        0.3338 Ry
        Total length         46.3494 bohr
 

     total cpu time spent up to now is      512.3 secs

     total energy              =   -2922.24126373 Ry
     estimated scf accuracy    <      31.99331351 Ry

     iteration # 35     ecut=    29.40 Ry     beta= 0.05
     Davidson diagonalization with overlap
     ethr =  6.72E-04,  avg # of iterations =  4.6

     negative rho (up, down):  1.002E-01 0.000E+00
 
     Adding external electric field

     Computed dipole along edir(3) : 
        Dipole               -2.7175 Ry au,         -6.9072 Debye
        Dipole field         -0.0051 Ry au, 
 
        Potential amp.        0.4754 Ry
        Total length         46.3494 bohr
 

     total cpu time spent up to now is      520.5 secs

     total energy              =   -2921.80115618 Ry
     estimated scf accuracy    <      23.86809673 Ry

     iteration # 36     ecut=    29.40 Ry     beta= 0.05
     Davidson diagonalization with overlap
     c_bands:  2 eigenvalues not converged
     c_bands:  4 eigenvalues not converged
     c_bands:  5 eigenvalues not converged
     c_bands:  2 eigenvalues not converged
     ethr =  6.72E-04,  avg # of iterations = 20.4

     negative rho (up, down):  5.610E-02 0.000E+00
 
     Adding external electric field

     Computed dipole along edir(3) : 
        Dipole               -2.1620 Ry au,         -5.4952 Debye
        Dipole field         -0.0041 Ry au, 
 
        Potential amp.        0.3782 Ry
        Total length         46.3494 bohr
 

     total cpu time spent up to now is      535.7 secs

     total energy              =   -2922.85786442 Ry
     estimated scf accuracy    <       5.73273730 Ry

     iteration # 37     ecut=    29.40 Ry     beta= 0.05
     Davidson diagonalization with overlap
     ethr =  6.72E-04,  avg # of iterations =  3.4

     negative rho (up, down):  5.197E-02 0.000E+00
 
     Adding external electric field

     Computed dipole along edir(3) : 
        Dipole               -1.8164 Ry au,         -4.6169 Debye
        Dipole field         -0.0034 Ry au, 
 
        Potential amp.        0.3178 Ry
        Total length         46.3494 bohr
 

     total cpu time spent up to now is      543.6 secs

     total energy              =   -2922.87803484 Ry
     estimated scf accuracy    <       1.65758435 Ry

     iteration # 38     ecut=    29.40 Ry     beta= 0.05
     Davidson diagonalization with overlap
     c_bands:  2 eigenvalues not converged
     ethr =  4.22E-04,  avg # of iterations =  8.9

     negative rho (up, down):  4.406E-02 0.000E+00
 
     Adding external electric field

     Computed dipole along edir(3) : 
        Dipole               -1.2821 Ry au,         -3.2589 Debye
        Dipole field         -0.0024 Ry au, 
 
        Potential amp.        0.2243 Ry
        Total length         46.3494 bohr
 

     total cpu time spent up to now is      553.0 secs

     total energy              =   -2922.84228005 Ry
     estimated scf accuracy    <       1.79483013 Ry

     iteration # 39     ecut=    29.40 Ry     beta= 0.05
     Davidson diagonalization with overlap
     ethr =  4.22E-04,  avg # of iterations =  1.2

     negative rho (up, down):  1.509E-02 0.000E+00
 
     Adding external electric field

     Computed dipole along edir(3) : 
        Dipole                0.2870 Ry au,          0.7294 Debye
        Dipole field          0.0005 Ry au, 
 
        Potential amp.       -0.0502 Ry
        Total length         46.3494 bohr
 

     total cpu time spent up to now is      560.0 secs

     total energy              =   -2922.76433614 Ry
     estimated scf accuracy    <       0.86333732 Ry

     iteration # 40     ecut=    29.40 Ry     beta= 0.05
     Davidson diagonalization with overlap
     c_bands:  2 eigenvalues not converged
     ethr =  2.20E-04,  avg # of iterations = 10.6

     negative rho (up, down):  2.240E-02 0.000E+00
 
     Adding external electric field

     Computed dipole along edir(3) : 
        Dipole                0.1600 Ry au,          0.4068 Debye
        Dipole field          0.0003 Ry au, 
 
        Potential amp.       -0.0280 Ry
        Total length         46.3494 bohr
 

     total cpu time spent up to now is      570.1 secs

     total energy              =   -2922.77892607 Ry
     estimated scf accuracy    <       0.31231369 Ry

     iteration # 41     ecut=    29.40 Ry     beta= 0.05
     Davidson diagonalization with overlap
     c_bands:  1 eigenvalues not converged
     c_bands:  3 eigenvalues not converged
     c_bands:  1 eigenvalues not converged
     ethr =  7.95E-05,  avg # of iterations = 15.4

     negative rho (up, down):  2.358E-02 0.000E+00
 
     Adding external electric field

     Computed dipole along edir(3) : 
        Dipole                0.1920 Ry au,          0.4879 Debye
        Dipole field          0.0004 Ry au, 
 
        Potential amp.       -0.0336 Ry
        Total length         46.3494 bohr
 

     total cpu time spent up to now is      581.9 secs

     total energy              =   -2922.78693156 Ry
     estimated scf accuracy    <       0.49292888 Ry

     iteration # 42     ecut=    29.40 Ry     beta= 0.05
     Davidson diagonalization with overlap
     c_bands:  2 eigenvalues not converged
     ethr =  7.95E-05,  avg # of iterations =  4.7

     negative rho (up, down):  2.293E-02 0.000E+00
 
     Adding external electric field

     Computed dipole along edir(3) : 
        Dipole                0.5904 Ry au,          1.5007 Debye
        Dipole field          0.0011 Ry au, 
 
        Potential amp.       -0.1033 Ry
        Total length         46.3494 bohr
 

     total cpu time spent up to now is      590.2 secs

     total energy              =   -2922.74111816 Ry
     estimated scf accuracy    <       0.29279178 Ry

     iteration # 43     ecut=    29.40 Ry     beta= 0.05
     Davidson diagonalization with overlap
     c_bands:  2 eigenvalues not converged
     c_bands:  1 eigenvalues not converged
     c_bands:  1 eigenvalues not converged
     c_bands:  1 eigenvalues not converged
     c_bands:  1 eigenvalues not converged
     c_bands:  1 eigenvalues not converged
     c_bands:  2 eigenvalues not converged
     ethr =  7.45E-05,  avg # of iterations = 17.4

     negative rho (up, down):  1.936E-02 0.000E+00
 
     Adding external electric field

     Computed dipole along edir(3) : 
        Dipole                1.0791 Ry au,          2.7428 Debye
        Dipole field          0.0020 Ry au, 
 
        Potential amp.       -0.1888 Ry
        Total length         46.3494 bohr
 

     total cpu time spent up to now is      644.5 secs

     total energy              =   -2922.77284741 Ry
     estimated scf accuracy    <       0.18108593 Ry

     iteration # 44     ecut=    29.40 Ry     beta= 0.05
     Davidson diagonalization with overlap
     ethr =  4.61E-05,  avg # of iterations =  3.8

     negative rho (up, down):  2.062E-02 0.000E+00
 
     Adding external electric field

     Computed dipole along edir(3) : 
        Dipole                1.0128 Ry au,          2.5743 Debye
        Dipole field          0.0019 Ry au, 
 
        Potential amp.       -0.1772 Ry
        Total length         46.3494 bohr
 

     total cpu time spent up to now is      652.6 secs

     total energy              =   -2922.77553041 Ry
     estimated scf accuracy    <       0.39089990 Ry

     iteration # 45     ecut=    29.40 Ry     beta= 0.05
     Davidson diagonalization with overlap
     ethr =  4.61E-05,  avg # of iterations =  6.8

     negative rho (up, down):  1.578E-02 0.000E+00
 
     Adding external electric field

     Computed dipole along edir(3) : 
        Dipole                0.8800 Ry au,          2.2367 Debye
        Dipole field          0.0017 Ry au, 
 
        Potential amp.       -0.1539 Ry
        Total length         46.3494 bohr
 

     total cpu time spent up to now is      661.3 secs

     total energy              =   -2922.77167912 Ry
     estimated scf accuracy    <       0.34819079 Ry

     iteration # 46     ecut=    29.40 Ry     beta= 0.05
     Davidson diagonalization with overlap
     ethr =  4.61E-05,  avg # of iterations =  2.6

     negative rho (up, down):  1.080E-02 0.000E+00
 
     Adding external electric field

     Computed dipole along edir(3) : 
        Dipole                1.0727 Ry au,          2.7266 Debye
        Dipole field          0.0020 Ry au, 
 
        Potential amp.       -0.1877 Ry
        Total length         46.3494 bohr
 

     total cpu time spent up to now is      668.9 secs

     total energy              =   -2922.77173883 Ry
     estimated scf accuracy    <       0.04722993 Ry

     iteration # 47     ecut=    29.40 Ry     beta= 0.05
     Davidson diagonalization with overlap
     c_bands:  2 eigenvalues not converged
     c_bands:  1 eigenvalues not converged
     c_bands:  2 eigenvalues not converged
     ethr =  1.20E-05,  avg # of iterations = 13.9

     negative rho (up, down):  1.163E-02 0.000E+00
 
     Adding external electric field

     Computed dipole along edir(3) : 
        Dipole                0.9939 Ry au,          2.5262 Debye
        Dipole field          0.0019 Ry au, 
 
        Potential amp.       -0.1739 Ry
        Total length         46.3494 bohr
 

     total cpu time spent up to now is      680.6 secs

     total energy              =   -2922.77162815 Ry
     estimated scf accuracy    <       0.08492660 Ry

     iteration # 48     ecut=    29.40 Ry     beta= 0.05
     Davidson diagonalization with overlap
     c_bands:  2 eigenvalues not converged
     c_bands:  2 eigenvalues not converged
     c_bands:  1 eigenvalues not converged
     ethr =  1.20E-05,  avg # of iterations = 10.4

     negative rho (up, down):  9.733E-03 0.000E+00
 
     Adding external electric field

     Computed dipole along edir(3) : 
        Dipole                1.2506 Ry au,          3.1786 Debye
        Dipole field          0.0024 Ry au, 
 
        Potential amp.       -0.2188 Ry
        Total length         46.3494 bohr
 

     total cpu time spent up to now is      693.5 secs

     total energy              =   -2922.77278000 Ry
     estimated scf accuracy    <       0.03881100 Ry

     iteration # 49     ecut=    29.40 Ry     beta= 0.05
     Davidson diagonalization with overlap
     c_bands:  1 eigenvalues not converged
     c_bands:  1 eigenvalues not converged
     ethr =  9.88E-06,  avg # of iterations =  9.1

     negative rho (up, down):  9.277E-03 0.000E+00
 
     Adding external electric field

     Computed dipole along edir(3) : 
        Dipole                1.3532 Ry au,          3.4395 Debye
        Dipole field          0.0026 Ry au, 
 
        Potential amp.       -0.2367 Ry
        Total length         46.3494 bohr
 

     total cpu time spent up to now is      702.8 secs

     total energy              =   -2922.77264115 Ry
     estimated scf accuracy    <       0.03229011 Ry

     iteration # 50     ecut=    29.40 Ry     beta= 0.05
     Davidson diagonalization with overlap
     c_bands:  1 eigenvalues not converged
     ethr =  8.22E-06,  avg # of iterations =  8.8

     negative rho (up, down):  8.751E-03 0.000E+00
 
     Adding external electric field

     Computed dipole along edir(3) : 
        Dipole                1.2733 Ry au,          3.2363 Debye
        Dipole field          0.0024 Ry au, 
 
        Potential amp.       -0.2227 Ry
        Total length         46.3494 bohr
 

     total cpu time spent up to now is      712.5 secs

     total energy              =   -2922.77226347 Ry
     estimated scf accuracy    <       0.03148037 Ry

     iteration # 51     ecut=    29.40 Ry     beta= 0.05
     Davidson diagonalization with overlap
     c_bands:  1 eigenvalues not converged
     ethr =  8.01E-06,  avg # of iterations =  7.5

     negative rho (up, down):  8.510E-03 0.000E+00
 
     Adding external electric field

     Computed dipole along edir(3) : 
        Dipole                1.2851 Ry au,          3.2663 Debye
        Dipole field          0.0024 Ry au, 
 
        Potential amp.       -0.2248 Ry
        Total length         46.3494 bohr
 

     total cpu time spent up to now is      724.0 secs

     total energy              =   -2922.77205715 Ry
     estimated scf accuracy    <       0.01322396 Ry

     iteration # 52     ecut=    29.40 Ry     beta= 0.05
     Davidson diagonalization with overlap
     c_bands:  1 eigenvalues not converged
     c_bands:  1 eigenvalues not converged
     c_bands:  1 eigenvalues not converged
     c_bands:  1 eigenvalues not converged
     c_bands:  2 eigenvalues not converged
     ethr =  3.36E-06,  avg # of iterations = 19.2

     negative rho (up, down):  1.004E-02 0.000E+00
 
     Adding external electric field

     Computed dipole along edir(3) : 
        Dipole                1.5161 Ry au,          3.8535 Debye
        Dipole field          0.0029 Ry au, 
 
        Potential amp.       -0.2652 Ry
        Total length         46.3494 bohr
 

     total cpu time spent up to now is      791.6 secs

     total energy              =   -2922.77286705 Ry
     estimated scf accuracy    <       0.00651355 Ry

     iteration # 53     ecut=    29.40 Ry     beta= 0.05
     Davidson diagonalization with overlap
     c_bands:  1 eigenvalues not converged
     c_bands:  1 eigenvalues not converged
     c_bands:  1 eigenvalues not converged
     c_bands:  2 eigenvalues not converged
     c_bands:  1 eigenvalues not converged
     c_bands:  2 eigenvalues not converged
     c_bands:  1 eigenvalues not converged
     c_bands:  1 eigenvalues not converged
     ethr =  1.66E-06,  avg # of iterations = 18.9

     negative rho (up, down):  1.031E-02 0.000E+00
 
     Adding external electric field

     Computed dipole along edir(3) : 
        Dipole                1.4079 Ry au,          3.5785 Debye
        Dipole field          0.0027 Ry au, 
 
        Potential amp.       -0.2463 Ry
        Total length         46.3494 bohr
 

     total cpu time spent up to now is      825.3 secs

     total energy              =   -2922.77193441 Ry
     estimated scf accuracy    <       0.02098141 Ry

     iteration # 54     ecut=    29.40 Ry     beta= 0.05
     Davidson diagonalization with overlap
     c_bands:  2 eigenvalues not converged
     c_bands:  2 eigenvalues not converged
     ethr =  1.66E-06,  avg # of iterations = 13.6

     negative rho (up, down):  1.088E-02 0.000E+00
 
     Adding external electric field

     Computed dipole along edir(3) : 
        Dipole                1.4271 Ry au,          3.6274 Debye
        Dipole field          0.0027 Ry au, 
 
        Potential amp.       -0.2497 Ry
        Total length         46.3494 bohr
 

     total cpu time spent up to now is      848.3 secs

     total energy              =   -2922.77345917 Ry
     estimated scf accuracy    <       0.00839249 Ry

     iteration # 55     ecut=    29.40 Ry     beta= 0.05
     Davidson diagonalization with overlap
     c_bands:  1 eigenvalues not converged
     c_bands:  1 eigenvalues not converged
     ethr =  1.66E-06,  avg # of iterations =  8.0

     negative rho (up, down):  1.189E-02 0.000E+00
 
     Adding external electric field

     Computed dipole along edir(3) : 
        Dipole                1.4067 Ry au,          3.5755 Debye
        Dipole field          0.0027 Ry au, 
 
        Potential amp.       -0.2461 Ry
        Total length         46.3494 bohr
 

     total cpu time spent up to now is      857.5 secs

     total energy              =   -2922.77292410 Ry
     estimated scf accuracy    <       0.00316107 Ry

     iteration # 56     ecut=    29.40 Ry     beta= 0.05
     Davidson diagonalization with overlap
     ethr =  8.04E-07,  avg # of iterations = 15.4

     negative rho (up, down):  1.204E-02 0.000E+00
 
     Adding external electric field

     Computed dipole along edir(3) : 
        Dipole                1.4109 Ry au,          3.5862 Debye
        Dipole field          0.0027 Ry au, 
 
        Potential amp.       -0.2468 Ry
        Total length         46.3494 bohr
 

     total cpu time spent up to now is      872.7 secs

     total energy              =   -2922.77351818 Ry
     estimated scf accuracy    <       0.00109918 Ry

     iteration # 57     ecut=    29.40 Ry     beta= 0.05
     Davidson diagonalization with overlap
     ethr =  2.80E-07,  avg # of iterations = 10.2

     negative rho (up, down):  1.215E-02 0.000E+00
 
     Adding external electric field

     Computed dipole along edir(3) : 
        Dipole                1.4022 Ry au,          3.5640 Debye
        Dipole field          0.0026 Ry au, 
 
        Potential amp.       -0.2453 Ry
        Total length         46.3494 bohr
 

     total cpu time spent up to now is      883.2 secs

     total energy              =   -2922.77362303 Ry
     estimated scf accuracy    <       0.00039018 Ry

     iteration # 58     ecut=    29.40 Ry     beta= 0.05
     Davidson diagonalization with overlap
     ethr =  9.93E-08,  avg # of iterations = 10.8

     negative rho (up, down):  1.249E-02 0.000E+00
 
     Adding external electric field

     Computed dipole along edir(3) : 
        Dipole                1.3907 Ry au,          3.5349 Debye
        Dipole field          0.0026 Ry au, 
 
        Potential amp.       -0.2433 Ry
        Total length         46.3494 bohr
 

     total cpu time spent up to now is      893.6 secs

     total energy              =   -2922.77365489 Ry
     estimated scf accuracy    <       0.00023390 Ry

     iteration # 59     ecut=    29.40 Ry     beta= 0.05
     Davidson diagonalization with overlap
     c_bands:  3 eigenvalues not converged
     c_bands:  1 eigenvalues not converged
     ethr =  5.95E-08,  avg # of iterations = 14.3

     negative rho (up, down):  1.260E-02 0.000E+00
 
     Adding external electric field

     Computed dipole along edir(3) : 
        Dipole                1.3936 Ry au,          3.5421 Debye
        Dipole field          0.0026 Ry au, 
 
        Potential amp.       -0.2438 Ry
        Total length         46.3494 bohr
 

     total cpu time spent up to now is      907.5 secs

     total energy              =   -2922.77369306 Ry
     estimated scf accuracy    <       0.00017320 Ry

     iteration # 60     ecut=    29.40 Ry     beta= 0.05
     Davidson diagonalization with overlap
     c_bands:  2 eigenvalues not converged
     ethr =  4.41E-08,  avg # of iterations =  3.2

     negative rho (up, down):  1.285E-02 0.000E+00
 
     Adding external electric field

     Computed dipole along edir(3) : 
        Dipole                1.4012 Ry au,          3.5615 Debye
        Dipole field          0.0026 Ry au, 
 
        Potential amp.       -0.2451 Ry
        Total length         46.3494 bohr
 

     total cpu time spent up to now is      915.2 secs

     total energy              =   -2922.77368562 Ry
     estimated scf accuracy    <       0.00015417 Ry

     iteration # 61     ecut=    29.40 Ry     beta= 0.05
     Davidson diagonalization with overlap
     c_bands:  1 eigenvalues not converged
     c_bands:  1 eigenvalues not converged
     c_bands:  1 eigenvalues not converged
     ethr =  3.92E-08,  avg # of iterations = 16.6

     negative rho (up, down):  1.307E-02 0.000E+00
 
     Adding external electric field

     Computed dipole along edir(3) : 
        Dipole                1.3920 Ry au,          3.5381 Debye
        Dipole field          0.0026 Ry au, 
 
        Potential amp.       -0.2435 Ry
        Total length         46.3494 bohr
 

     total cpu time spent up to now is      931.4 secs

     total energy              =   -2922.77371439 Ry
     estimated scf accuracy    <       0.00024643 Ry

     iteration # 62     ecut=    29.40 Ry     beta= 0.05
     Davidson diagonalization with overlap
     ethr =  3.92E-08,  avg # of iterations =  7.4

     negative rho (up, down):  1.340E-02 0.000E+00
 
     Adding external electric field

     Computed dipole along edir(3) : 
        Dipole                1.3865 Ry au,          3.5240 Debye
        Dipole field          0.0026 Ry au, 
 
        Potential amp.       -0.2425 Ry
        Total length         46.3494 bohr
 

     total cpu time spent up to now is      940.5 secs

     total energy              =   -2922.77370573 Ry
     estimated scf accuracy    <       0.00009851 Ry

     iteration # 63     ecut=    29.40 Ry     beta= 0.05
     Davidson diagonalization with overlap
     c_bands:  2 eigenvalues not converged
     c_bands:  1 eigenvalues not converged
     c_bands:  1 eigenvalues not converged
     ethr =  2.51E-08,  avg # of iterations = 15.4

     negative rho (up, down):  1.360E-02 0.000E+00
 
     Adding external electric field

     Computed dipole along edir(3) : 
        Dipole                1.3969 Ry au,          3.5505 Debye
        Dipole field          0.0026 Ry au, 
 
        Potential amp.       -0.2444 Ry
        Total length         46.3494 bohr
 

     total cpu time spent up to now is      957.7 secs

     total energy              =   -2922.77371478 Ry
     estimated scf accuracy    <       0.00023273 Ry

     iteration # 64     ecut=    29.40 Ry     beta= 0.05
     Davidson diagonalization with overlap
     ethr =  2.51E-08,  avg # of iterations =  8.9

     negative rho (up, down):  1.392E-02 0.000E+00
 
     Adding external electric field

     Computed dipole along edir(3) : 
        Dipole                1.4001 Ry au,          3.5587 Debye
        Dipole field          0.0026 Ry au, 
 
        Potential amp.       -0.2449 Ry
        Total length         46.3494 bohr
 

     total cpu time spent up to now is     1018.3 secs

     total energy              =   -2922.77375115 Ry
     estimated scf accuracy    <       0.00001796 Ry

     iteration # 65     ecut=    29.40 Ry     beta= 0.05
     Davidson diagonalization with overlap
     c_bands:  1 eigenvalues not converged
     c_bands:  1 eigenvalues not converged
     ethr =  4.57E-09,  avg # of iterations = 13.7

     negative rho (up, down):  1.411E-02 0.000E+00
 
     Adding external electric field

     Computed dipole along edir(3) : 
        Dipole                1.4050 Ry au,          3.5713 Debye
        Dipole field          0.0027 Ry au, 
 
        Potential amp.       -0.2458 Ry
        Total length         46.3494 bohr
 

     total cpu time spent up to now is     1050.3 secs

     total energy              =   -2922.77376089 Ry
     estimated scf accuracy    <       0.00001182 Ry

     iteration # 66     ecut=    29.40 Ry     beta= 0.05
     Davidson diagonalization with overlap
     c_bands:  1 eigenvalues not converged
     ethr =  3.01E-09,  avg # of iterations = 11.3

     negative rho (up, down):  1.419E-02 0.000E+00
 
     Adding external electric field

     Computed dipole along edir(3) : 
        Dipole                1.4046 Ry au,          3.5701 Debye
        Dipole field          0.0027 Ry au, 
 
        Potential amp.       -0.2457 Ry
        Total length         46.3494 bohr
 

     total cpu time spent up to now is     1062.0 secs

     total energy              =   -2922.77376174 Ry
     estimated scf accuracy    <       0.00001348 Ry

     iteration # 67     ecut=    29.40 Ry     beta= 0.05
     Davidson diagonalization with overlap
     ethr =  3.01E-09,  avg # of iterations =  9.9

     negative rho (up, down):  1.422E-02 0.000E+00
 
     Adding external electric field

     Computed dipole along edir(3) : 
        Dipole                1.4041 Ry au,          3.5688 Debye
        Dipole field          0.0026 Ry au, 
 
        Potential amp.       -0.2456 Ry
        Total length         46.3494 bohr
 

     total cpu time spent up to now is     1074.6 secs

     total energy              =   -2922.77376740 Ry
     estimated scf accuracy    <       0.00000341 Ry

     iteration # 68     ecut=    29.40 Ry     beta= 0.05
     Davidson diagonalization with overlap
     ethr =  8.68E-10,  avg # of iterations =  6.0

     negative rho (up, down):  1.431E-02 0.000E+00
 
     Adding external electric field

     Computed dipole along edir(3) : 
        Dipole                1.4050 Ry au,          3.5712 Debye
        Dipole field          0.0027 Ry au, 
 
        Potential amp.       -0.2458 Ry
        Total length         46.3494 bohr
 

     total cpu time spent up to now is     1089.3 secs

     total energy              =   -2922.77377046 Ry
     estimated scf accuracy    <       0.00000307 Ry

     iteration # 69     ecut=    29.40 Ry     beta= 0.05
     Davidson diagonalization with overlap
     ethr =  7.81E-10,  avg # of iterations =  8.8

     negative rho (up, down):  1.438E-02 0.000E+00
 
     Adding external electric field

     Computed dipole along edir(3) : 
        Dipole                1.4055 Ry au,          3.5724 Debye
        Dipole field          0.0027 Ry au, 
 
        Potential amp.       -0.2459 Ry
        Total length         46.3494 bohr
 

     total cpu time spent up to now is     1136.1 secs

     total energy              =   -2922.77377361 Ry
     estimated scf accuracy    <       0.00000184 Ry

     iteration # 70     ecut=    29.40 Ry     beta= 0.05
     Davidson diagonalization with overlap
     ethr =  4.67E-10,  avg # of iterations = 13.0

     negative rho (up, down):  1.437E-02 0.000E+00
 
     Adding external electric field

     Computed dipole along edir(3) : 
        Dipole                1.4062 Ry au,          3.5741 Debye
        Dipole field          0.0027 Ry au, 
 
        Potential amp.       -0.2460 Ry
        Total length         46.3494 bohr
 

     total cpu time spent up to now is     1149.9 secs

     total energy              =   -2922.77377608 Ry
     estimated scf accuracy    <       0.00000152 Ry

     iteration # 71     ecut=    29.40 Ry     beta= 0.05
     Davidson diagonalization with overlap
     ethr =  3.86E-10,  avg # of iterations =  7.6

     negative rho (up, down):  1.437E-02 0.000E+00
 
     Adding external electric field

     Computed dipole along edir(3) : 
        Dipole                1.4065 Ry au,          3.5749 Debye
        Dipole field          0.0027 Ry au, 
 
        Potential amp.       -0.2460 Ry
        Total length         46.3494 bohr
 

     total cpu time spent up to now is     1160.2 secs

     total energy              =   -2922.77377823 Ry
     estimated scf accuracy    <       0.00000155 Ry

     iteration # 72     ecut=    29.40 Ry     beta= 0.05
     Davidson diagonalization with overlap
     ethr =  3.86E-10,  avg # of iterations =  3.8

     negative rho (up, down):  1.438E-02 0.000E+00
 
     Adding external electric field

     Computed dipole along edir(3) : 
        Dipole                1.4057 Ry au,          3.5728 Debye
        Dipole field          0.0027 Ry au, 
 
        Potential amp.       -0.2459 Ry
        Total length         46.3494 bohr
 

     total cpu time spent up to now is     1168.2 secs

     total energy              =   -2922.77377983 Ry
     estimated scf accuracy    <       0.00000108 Ry

     iteration # 73     ecut=    29.40 Ry     beta= 0.05
     Davidson diagonalization with overlap
     c_bands:  1 eigenvalues not converged
     ethr =  2.76E-10,  avg # of iterations = 13.7

     negative rho (up, down):  1.441E-02 0.000E+00
 
     Adding external electric field

     Computed dipole along edir(3) : 
        Dipole                1.4054 Ry au,          3.5722 Debye
        Dipole field          0.0027 Ry au, 
 
        Potential amp.       -0.2459 Ry
        Total length         46.3494 bohr
 

     total cpu time spent up to now is     1185.3 secs

     total energy              =   -2922.77378180 Ry
     estimated scf accuracy    <       0.00000210 Ry

     iteration # 74     ecut=    29.40 Ry     beta= 0.05
     Davidson diagonalization with overlap
     ethr =  2.76E-10,  avg # of iterations =  6.8

     negative rho (up, down):  1.441E-02 0.000E+00
 
     Adding external electric field

     Computed dipole along edir(3) : 
        Dipole                1.4053 Ry au,          3.5718 Debye
        Dipole field          0.0027 Ry au, 
 
        Potential amp.       -0.2458 Ry
        Total length         46.3494 bohr
 

     total cpu time spent up to now is     1195.3 secs

     total energy              =   -2922.77378327 Ry
     estimated scf accuracy    <       0.00000066 Ry

     iteration # 75     ecut=    29.40 Ry     beta= 0.05
     Davidson diagonalization with overlap
     c_bands:  1 eigenvalues not converged
     ethr =  1.68E-10,  avg # of iterations = 12.1

     negative rho (up, down):  1.443E-02 0.000E+00
 
     Adding external electric field

     Computed dipole along edir(3) : 
        Dipole                1.4050 Ry au,          3.5711 Debye
        Dipole field          0.0027 Ry au, 
 
        Potential amp.       -0.2458 Ry
        Total length         46.3494 bohr
 

     total cpu time spent up to now is     1247.6 secs

     total energy              =   -2922.77378494 Ry
     estimated scf accuracy    <       0.00000038 Ry

     iteration # 76     ecut=    29.40 Ry     beta= 0.05
     Davidson diagonalization with overlap
     ethr =  9.70E-11,  avg # of iterations =  2.5

     negative rho (up, down):  1.442E-02 0.000E+00
 
     Adding external electric field

     Computed dipole along edir(3) : 
        Dipole                1.4045 Ry au,          3.5699 Debye
        Dipole field          0.0027 Ry au, 
 
        Potential amp.       -0.2457 Ry
        Total length         46.3494 bohr
 

     total cpu time spent up to now is     1255.4 secs

     total energy              =   -2922.77378613 Ry
     estimated scf accuracy    <       0.00000028 Ry

     iteration # 77     ecut=    29.40 Ry     beta= 0.05
     Davidson diagonalization with overlap
     ethr =  7.24E-11,  avg # of iterations = 11.0

     negative rho (up, down):  1.442E-02 0.000E+00
 
     Adding external electric field

     Computed dipole along edir(3) : 
        Dipole                1.4048 Ry au,          3.5706 Debye
        Dipole field          0.0027 Ry au, 
 
        Potential amp.       -0.2457 Ry
        Total length         46.3494 bohr
 

     total cpu time spent up to now is     1269.4 secs

     total energy              =   -2922.77378735 Ry
     estimated scf accuracy    <       0.00000019 Ry

     iteration # 78     ecut=    29.40 Ry     beta= 0.05
     Davidson diagonalization with overlap
     ethr =  4.91E-11,  avg # of iterations =  2.0

     negative rho (up, down):  1.443E-02 0.000E+00
 
     Adding external electric field

     Computed dipole along edir(3) : 
        Dipole                1.4048 Ry au,          3.5706 Debye
        Dipole field          0.0027 Ry au, 
 
        Potential amp.       -0.2457 Ry
        Total length         46.3494 bohr
 

     total cpu time spent up to now is     1276.9 secs

     total energy              =   -2922.77378837 Ry
     estimated scf accuracy    <       0.00000017 Ry

     iteration # 79     ecut=    29.40 Ry     beta= 0.05
     Davidson diagonalization with overlap
     ethr =  4.41E-11,  avg # of iterations =  1.0

     negative rho (up, down):  1.443E-02 0.000E+00
 
     Adding external electric field

     Computed dipole along edir(3) : 
        Dipole                1.4048 Ry au,          3.5706 Debye
        Dipole field          0.0027 Ry au, 
 
        Potential amp.       -0.2457 Ry
        Total length         46.3494 bohr
 

     total cpu time spent up to now is     1283.8 secs

     total energy              =   -2922.77378927 Ry
     estimated scf accuracy    <       0.00000017 Ry

     iteration # 80     ecut=    29.40 Ry     beta= 0.05
     Davidson diagonalization with overlap
     ethr =  4.41E-11,  avg # of iterations =  4.7

     negative rho (up, down):  1.443E-02 0.000E+00
 
     Adding external electric field

     Computed dipole along edir(3) : 
        Dipole                1.4045 Ry au,          3.5700 Debye
        Dipole field          0.0027 Ry au, 
 
        Potential amp.       -0.2457 Ry
        Total length         46.3494 bohr
 

     total cpu time spent up to now is     1292.0 secs

     total energy              =   -2922.77379011 Ry
     estimated scf accuracy    <       0.00000012 Ry

     iteration # 81     ecut=    29.40 Ry     beta= 0.05
     Davidson diagonalization with overlap
     ethr =  3.14E-11,  avg # of iterations =  4.2

     negative rho (up, down):  1.442E-02 0.000E+00
 
     Adding external electric field

     Computed dipole along edir(3) : 
        Dipole                1.4043 Ry au,          3.5695 Debye
        Dipole field          0.0027 Ry au, 
 
        Potential amp.       -0.2457 Ry
        Total length         46.3494 bohr
 

     total cpu time spent up to now is     1300.0 secs

     total energy              =   -2922.77379083 Ry
     estimated scf accuracy    <       0.00000011 Ry

     iteration # 82     ecut=    29.40 Ry     beta= 0.05
     Davidson diagonalization with overlap
     c_bands:  1 eigenvalues not converged
     c_bands:  1 eigenvalues not converged
     c_bands:  1 eigenvalues not converged
     ethr =  2.81E-11,  avg # of iterations = 18.6

     negative rho (up, down):  1.443E-02 0.000E+00
 
     Adding external electric field

     Computed dipole along edir(3) : 
        Dipole                1.4044 Ry au,          3.5695 Debye
        Dipole field          0.0027 Ry au, 
 
        Potential amp.       -0.2457 Ry
        Total length         46.3494 bohr
 

     total cpu time spent up to now is     1317.9 secs

     total energy              =   -2922.77379187 Ry
     estimated scf accuracy    <       0.00000024 Ry

     iteration # 83     ecut=    29.40 Ry     beta= 0.05
     Davidson diagonalization with overlap
     c_bands:  1 eigenvalues not converged
     ethr =  2.81E-11,  avg # of iterations =  4.1

     negative rho (up, down):  1.443E-02 0.000E+00
 
     Adding external electric field

     Computed dipole along edir(3) : 
        Dipole                1.4044 Ry au,          3.5695 Debye
        Dipole field          0.0027 Ry au, 
 
        Potential amp.       -0.2457 Ry
        Total length         46.3494 bohr
 

     total cpu time spent up to now is     1325.6 secs

     total energy              =   -2922.77379284 Ry
     estimated scf accuracy    <       0.00000030 Ry

     iteration # 84     ecut=    29.40 Ry     beta= 0.05
     Davidson diagonalization with overlap
     ethr =  2.81E-11,  avg # of iterations =  1.0

     negative rho (up, down):  1.443E-02 0.000E+00
 
     Adding external electric field

     Computed dipole along edir(3) : 
        Dipole                1.4044 Ry au,          3.5695 Debye
        Dipole field          0.0027 Ry au, 
 
        Potential amp.       -0.2457 Ry
        Total length         46.3494 bohr
 

     total cpu time spent up to now is     1332.5 secs

     total energy              =   -2922.77379339 Ry
     estimated scf accuracy    <       0.00000029 Ry

     iteration # 85     ecut=    29.40 Ry     beta= 0.05
     Davidson diagonalization with overlap
     ethr =  2.81E-11,  avg # of iterations =  1.0

     negative rho (up, down):  1.444E-02 0.000E+00
 
     Adding external electric field

     Computed dipole along edir(3) : 
        Dipole                1.4044 Ry au,          3.5696 Debye
        Dipole field          0.0027 Ry au, 
 
        Potential amp.       -0.2457 Ry
        Total length         46.3494 bohr
 

     total cpu time spent up to now is     1339.4 secs

     total energy              =   -2922.77379388 Ry
     estimated scf accuracy    <       0.00000027 Ry

     iteration # 86     ecut=    29.40 Ry     beta= 0.05
     Davidson diagonalization with overlap
     ethr =  2.81E-11,  avg # of iterations =  1.4

     negative rho (up, down):  1.443E-02 0.000E+00
 
     Adding external electric field

     Computed dipole along edir(3) : 
        Dipole                1.4043 Ry au,          3.5695 Debye
        Dipole field          0.0027 Ry au, 
 
        Potential amp.       -0.2457 Ry
        Total length         46.3494 bohr
 

     total cpu time spent up to now is     1346.5 secs

     total energy              =   -2922.77379433 Ry
     estimated scf accuracy    <       0.00000024 Ry

     iteration # 87     ecut=    29.40 Ry     beta= 0.05
     Davidson diagonalization with overlap
     ethr =  2.81E-11,  avg # of iterations =  5.8

     negative rho (up, down):  1.443E-02 0.000E+00
 
     Adding external electric field

     Computed dipole along edir(3) : 
        Dipole                1.4043 Ry au,          3.5694 Debye
        Dipole field          0.0027 Ry au, 
 
        Potential amp.       -0.2457 Ry
        Total length         46.3494 bohr
 

     total cpu time spent up to now is     1355.0 secs

     total energy              =   -2922.77379475 Ry
     estimated scf accuracy    <       0.00000020 Ry

     iteration # 88     ecut=    29.40 Ry     beta= 0.05
     Davidson diagonalization with overlap
     ethr =  2.81E-11,  avg # of iterations =  1.0

     negative rho (up, down):  1.442E-02 0.000E+00
 
     Adding external electric field

     Computed dipole along edir(3) : 
        Dipole                1.4044 Ry au,          3.5697 Debye
        Dipole field          0.0027 Ry au, 
 
        Potential amp.       -0.2457 Ry
        Total length         46.3494 bohr
 

     total cpu time spent up to now is     1361.9 secs

     total energy              =   -2922.77379511 Ry
     estimated scf accuracy    <       0.00000019 Ry

     iteration # 89     ecut=    29.40 Ry     beta= 0.05
     Davidson diagonalization with overlap
     ethr =  2.81E-11,  avg # of iterations = 10.1

     negative rho (up, down):  1.443E-02 0.000E+00
 
     Adding external electric field

     Computed dipole along edir(3) : 
        Dipole                1.4043 Ry au,          3.5694 Debye
        Dipole field          0.0027 Ry au, 
 
        Potential amp.       -0.2457 Ry
        Total length         46.3494 bohr
 

     total cpu time spent up to now is     1372.2 secs

     total energy              =   -2922.77379546 Ry
     estimated scf accuracy    <       0.00000010 Ry

     iteration # 90     ecut=    29.40 Ry     beta= 0.05
     Davidson diagonalization with overlap
     ethr =  2.64E-11,  avg # of iterations =  4.5

     negative rho (up, down):  1.442E-02 0.000E+00
 
     Adding external electric field

     Computed dipole along edir(3) : 
        Dipole                1.4047 Ry au,          3.5704 Debye
        Dipole field          0.0027 Ry au, 
 
        Potential amp.       -0.2457 Ry
        Total length         46.3494 bohr
 

     total cpu time spent up to now is     1380.4 secs

     total energy              =   -2922.77379575 Ry
     estimated scf accuracy    <       0.00000014 Ry

     iteration # 91     ecut=    29.40 Ry     beta= 0.05
     Davidson diagonalization with overlap
     ethr =  2.64E-11,  avg # of iterations = 13.7

     negative rho (up, down):  1.445E-02 0.000E+00
 
     Adding external electric field

     Computed dipole along edir(3) : 
        Dipole                1.4025 Ry au,          3.5647 Debye
        Dipole field          0.0026 Ry au, 
 
        Potential amp.       -0.2453 Ry
        Total length         46.3494 bohr
 

     total cpu time spent up to now is     1392.4 secs

     End of self-consistent calculation

          k = 0.0000 0.0000 0.0000 ( 18029 PWs)   bands (ev):

   -55.3090 -55.2731 -55.2575 -55.2233 -55.1731 -55.1488 -55.1479 -55.1387
   -55.1144 -55.0845 -55.0736 -55.0506 -55.0317 -54.9735 -54.3011 -54.2670
   -31.8759 -31.7518 -31.6892 -31.6614 -31.6367 -31.6160 -31.5915 -31.5509
   -31.5466 -31.5455 -31.5162 -31.5051 -31.5014 -31.4766 -31.4659 -31.4611
   -31.4476 -31.4376 -31.4104 -31.4018 -31.3975 -31.3812 -31.3730 -31.3556
   -31.3530 -31.3154 -31.3147 -31.3054 -31.3030 -31.2900 -31.2851 -31.2831
   -31.2765 -31.2756 -31.2606 -31.2575 -31.2253 -31.2119 -31.2007 -31.1952
   -31.1823 -31.1073 -30.7114 -30.6149 -30.5930 -30.5273 -30.4405 -30.3300
   -16.8254 -16.1477 -15.8915 -15.7706 -15.6617 -15.6039 -15.5209 -15.4418
   -15.3578 -15.2574 -15.1960 -15.0909 -15.0563 -15.0166 -15.0020 -14.9829
   -14.9560 -14.8760 -14.8650 -14.8544 -14.8288 -14.8105 -14.7822 -14.7734
   -14.7666 -14.7273 -14.6900 -14.5776 -14.4872 -14.4018 -12.8042 -12.6865
   -10.0131  -5.8624  -4.7435  -4.4233  -3.5163  -3.4746  -3.3436  -3.2387
    -3.2052  -3.1971  -3.0761  -2.8929  -2.7979  -2.7708  -2.6896  -2.6298
    -2.5340  -2.5302  -2.4899  -2.3896  -2.3518  -2.3251  -2.2419  -2.2151
    -2.1688  -2.1180  -2.1077  -2.1045  -2.0840  -2.0435  -2.0047  -1.8860
    -1.8012  -1.7793  -1.7057  -1.6894  -1.6833  -1.6552  -1.6122  -1.5930
    -1.5437  -1.5266  -1.4860  -1.4172  -1.3559  -1.2737  -1.2367  -1.1998
    -0.9938  -0.9650  -0.9144  -0.9119  -0.8835  -0.8151  -0.7856  -0.7559
    -0.6900  -0.6874  -0.6590  -0.5527  -0.5099  -0.3891  -0.3185  -0.2389
    -0.1172  -0.1040  -0.0801  -0.0305  -0.0070   0.0527   0.1126   0.1494
     0.1888   0.2015   0.2888   0.3179   0.3946   0.4085   0.4450   0.5110
     0.5267   0.5531   0.5680   0.5833   0.6175   0.6333   0.6675   0.7342
     0.7664   0.8678   0.9165   1.2003   1.2856   1.5946   1.6178   1.7212
     1.9025   2.2997   2.3488   3.7853   3.8466   3.8871   3.9297   3.9333
     4.0150   4.1457   4.2886   4.2980   4.3093   4.3161

          k = 0.0000 0.0419 0.0000 ( 17933 PWs)   bands (ev):

   -55.3037 -55.2782 -55.2524 -55.2283 -55.1680 -55.1459 -55.1438 -55.1437
   -55.1193 -55.0795 -55.0754 -55.0554 -55.0284 -54.9767 -54.2961 -54.2720
   -31.8192 -31.6977 -31.6426 -31.6068 -31.6049 -31.5832 -31.5564 -31.5494
   -31.5406 -31.5334 -31.5055 -31.5047 -31.4968 -31.4962 -31.4740 -31.4567
   -31.4555 -31.4297 -31.4226 -31.4045 -31.3965 -31.3865 -31.3769 -31.3564
   -31.3489 -31.3409 -31.3343 -31.3287 -31.3166 -31.3154 -31.3133 -31.2826
   -31.2798 -31.2787 -31.2730 -31.2557 -31.2494 -31.2366 -31.2316 -31.2216
   -31.2088 -31.1429 -30.6572 -30.6115 -30.5959 -30.5147 -30.4531 -30.3872
[...]
    -0.2189  -0.1986  -0.1691  -0.0681  -0.0603   0.0496   0.0579   0.1136
     0.1398   0.1805   0.2072   0.2347   0.2608   0.3281   0.3689   0.3988
     0.4226   0.4483   0.4907   0.5016   0.5227   0.5890   0.6145   0.6397
     0.6562   0.7473   0.8516   1.0247   1.3410   1.4549   1.6230   1.7331
     1.8711   2.1866   2.2658   3.8001   3.8842   3.9417   4.0920   4.1094
     4.1621   4.1757   4.2302   4.2450   4.2788   4.3127

          k = 0.0380 0.0419 0.0000 ( 17878 PWs)   bands (ev):

   -55.3036 -55.2782 -55.2524 -55.2283 -55.1679 -55.1458 -55.1437 -55.1436
   -55.1193 -55.0795 -55.0753 -55.0554 -55.0283 -54.9767 -54.2960 -54.2719
   -31.8193 -31.6986 -31.6428 -31.6137 -31.6048 -31.5873 -31.5563 -31.5497
   -31.5404 -31.5336 -31.5082 -31.4972 -31.4966 -31.4923 -31.4749 -31.4552
   -31.4467 -31.4298 -31.4061 -31.4047 -31.3937 -31.3767 -31.3700 -31.3642
   -31.3565 -31.3320 -31.3298 -31.3281 -31.3229 -31.3154 -31.3106 -31.2924
   -31.2891 -31.2862 -31.2741 -31.2577 -31.2493 -31.2346 -31.2328 -31.2217
   -31.2111 -31.1429 -30.6568 -30.6143 -30.5949 -30.5145 -30.4531 -30.3870
   -16.7927 -15.9710 -15.7672 -15.6780 -15.6063 -15.5007 -15.3971 -15.3339
   -15.3061 -15.2602 -15.2146 -15.1707 -15.1444 -15.0833 -15.0667 -14.9997
   -14.9965 -14.9627 -14.9501 -14.8920 -14.8732 -14.8579 -14.8000 -14.7775
   -14.7484 -14.7039 -14.6497 -14.6131 -14.6074 -14.5418 -12.8053 -12.7259
   -10.0178  -5.8630  -4.8101  -4.4154  -3.5160  -3.1643  -3.0831  -2.9439
    -2.8465  -2.8192  -2.7512  -2.7308  -2.7085  -2.6773  -2.6404  -2.5960
    -2.5324  -2.4557  -2.4136  -2.3641  -2.3519  -2.3285  -2.2741  -2.2204
    -2.1977  -2.1585  -2.1471  -2.1210  -2.0802  -2.0286  -2.0180  -1.9668
    -1.9456  -1.9088  -1.8339  -1.8112  -1.7753  -1.7404  -1.6653  -1.6145
    -1.5416  -1.4041  -1.3743  -1.3389  -1.2991  -1.1733  -1.1395  -1.1134
    -1.0687  -0.9630  -0.9193  -0.8517  -0.8000  -0.7609  -0.7384  -0.6869
    -0.6635  -0.6385  -0.5997  -0.5078  -0.4866  -0.4166  -0.3269  -0.2970
    -0.2852  -0.2639  -0.2359  -0.1532  -0.1026  -0.0754  -0.0385  -0.0156
    -0.0024   0.0573   0.0893   0.1297   0.1824   0.2293   0.2726   0.3168
     0.3774   0.4020   0.4339   0.4712   0.5551   0.5840   0.6164   0.6514
     0.7544   0.8160   0.9311   1.0121   1.1004   1.2664   1.4322   1.9146
     1.9784   2.1765   2.2406   3.8729   3.9345   4.0010   4.0250   4.1291
     4.1733   4.2114   4.2142   4.2506   4.3305   4.3552

          k = 0.0380-0.0839 0.0000 ( 17916 PWs)   bands (ev):

   -55.2924 -55.2894 -55.2408 -55.2399 -55.1562 -55.1554 -55.1439 -55.1337
   -55.1294 -55.0773 -55.0687 -55.0663 -55.0246 -54.9805 -54.2840 -54.2839
   -31.6833 -31.6782 -31.5885 -31.5825 -31.5663 -31.5657 -31.5571 -31.5311
   -31.5303 -31.5046 -31.5018 -31.4956 -31.4893 -31.4600 -31.4574 -31.4541
   -31.4486 -31.4434 -31.4289 -31.3984 -31.3805 -31.3790 -31.3689 -31.3669
   -31.3652 -31.3643 -31.3630 -31.3608 -31.3605 -31.3406 -31.3390 -31.3364
   -31.3258 -31.2903 -31.2876 -31.2839 -31.2750 -31.2484 -31.2465 -31.2303
   -31.2265 -31.1733 -30.6046 -30.6046 -30.5239 -30.5238 -30.4839 -30.4839
   -16.7656 -15.8440 -15.6231 -15.6003 -15.5189 -15.4377 -15.4001 -15.3533
   -15.2747 -15.2389 -15.1964 -15.1736 -15.1421 -15.1138 -15.0404 -15.0318
   -14.9549 -14.9509 -14.9455 -14.9374 -14.9299 -14.9155 -14.8195 -14.8134
   -14.7594 -14.7546 -14.7002 -14.6921 -14.6596 -14.6588 -12.7881 -12.7881
   -10.0217  -5.8636  -4.8707  -4.4058  -3.5294  -2.8389  -2.8086  -2.7481
    -2.7139  -2.6435  -2.6103  -2.5746  -2.5292  -2.5127  -2.4866  -2.4712
    -2.4481  -2.4441  -2.3945  -2.3904  -2.3797  -2.3608  -2.3144  -2.2994
    -2.2859  -2.2469  -2.2128  -2.1866  -2.1755  -2.0971  -2.0706  -2.0513
    -2.0105  -1.9799  -1.9161  -1.8981  -1.6947  -1.6526  -1.5835  -1.5106
    -1.4776  -1.4326  -1.3525  -1.3028  -1.2681  -1.2558  -1.2317  -1.1854
    -1.1106  -1.0623  -1.0159  -1.0032  -0.9877  -0.8869  -0.8424  -0.7596
    -0.7143  -0.6933  -0.6660  -0.6010  -0.5019  -0.4325  -0.4114  -0.3507
    -0.3024  -0.2332  -0.1624  -0.1489  -0.1300  -0.1119  -0.0532   0.0173
     0.0345   0.0405   0.0574   0.1347   0.1526   0.1620   0.1819   0.2022
     0.3796   0.3931   0.4675   0.5105   0.5601   0.6079   0.6395   0.7329
     0.7367   0.8631   0.8666   0.9452   0.9509   1.2162   1.2211   2.0577
     2.0584   2.1809   2.1816   3.7387   3.9803   4.0171   4.0819   4.1087
     4.2016   4.2250   4.2648   4.2796   4.3395   4.3945

          k = 0.0380-0.0419 0.0000 ( 17876 PWs)   bands (ev):

   -55.3036 -55.2782 -55.2524 -55.2282 -55.1679 -55.1458 -55.1437 -55.1436
   -55.1193 -55.0795 -55.0753 -55.0554 -55.0283 -54.9767 -54.2960 -54.2719
   -31.8193 -31.6986 -31.6428 -31.6137 -31.6048 -31.5873 -31.5563 -31.5497
   -31.5404 -31.5336 -31.5082 -31.4972 -31.4967 -31.4922 -31.4749 -31.4552
   -31.4467 -31.4298 -31.4061 -31.4046 -31.3938 -31.3766 -31.3707 -31.3643
   -31.3565 -31.3319 -31.3297 -31.3281 -31.3231 -31.3154 -31.3105 -31.2922
   -31.2868 -31.2862 -31.2743 -31.2586 -31.2494 -31.2363 -31.2329 -31.2217
   -31.2101 -31.1429 -30.6568 -30.6143 -30.5949 -30.5145 -30.4531 -30.3870
   -16.7928 -15.9706 -15.7673 -15.6774 -15.6047 -15.5051 -15.3973 -15.3332
   -15.3060 -15.2579 -15.2148 -15.1625 -15.1455 -15.0874 -15.0710 -15.0005
   -14.9956 -14.9633 -14.9528 -14.8917 -14.8705 -14.8575 -14.7998 -14.7774
   -14.7482 -14.7039 -14.6492 -14.6133 -14.6072 -14.5421 -12.8053 -12.7259
   -10.0179  -5.8624  -4.8093  -4.4143  -3.5167  -3.1642  -3.0839  -2.9436
    -2.8499  -2.8185  -2.7510  -2.7328  -2.7051  -2.6681  -2.6569  -2.5857
    -2.5363  -2.4582  -2.4128  -2.3619  -2.3552  -2.3280  -2.2710  -2.2225
    -2.1960  -2.1597  -2.1428  -2.1236  -2.0803  -2.0333  -2.0179  -1.9676
    -1.9558  -1.9119  -1.8354  -1.7936  -1.7807  -1.7414  -1.6648  -1.6140
    -1.5404  -1.4034  -1.3740  -1.3418  -1.3039  -1.1692  -1.1313  -1.1086
    -1.0742  -0.9579  -0.9252  -0.8484  -0.7987  -0.7570  -0.7383  -0.6882
    -0.6635  -0.6351  -0.5979  -0.5049  -0.4913  -0.4183  -0.3240  -0.2922
    -0.2838  -0.2636  -0.2373  -0.1399  -0.1061  -0.0826  -0.0439  -0.0154
    -0.0011   0.0563   0.0910   0.1299   0.1793   0.2229   0.2703   0.3105
     0.3694   0.4050   0.4362   0.4807   0.5548   0.5838   0.6187   0.6460
     0.7521   0.8175   0.9317   1.0120   1.1001   1.2667   1.4325   1.9147
     1.9783   2.1763   2.2412   3.8714   3.9390   4.0009   4.0282   4.1302
     4.1742   4.2094   4.2146   4.2482   4.3310   4.3554

          k =-0.0760-0.0000 0.0000 ( 17886 PWs)   bands (ev):

   -55.3087 -55.2730 -55.2573 -55.2233 -55.1730 -55.1485 -55.1476 -55.1386
   -55.1143 -55.0845 -55.0734 -55.0505 -55.0316 -54.9734 -54.3010 -54.2669
   -31.8762 -31.7536 -31.6896 -31.6727 -31.6443 -31.6156 -31.5922 -31.5587
   -31.5464 -31.5452 -31.5051 -31.5014 -31.4786 -31.4766 -31.4655 -31.4598
   -31.4349 -31.4044 -31.4017 -31.3952 -31.3896 -31.3810 -31.3727 -31.3529
   -31.3411 -31.3327 -31.3323 -31.3148 -31.3044 -31.2998 -31.2943 -31.2863
   -31.2841 -31.2762 -31.2609 -31.2587 -31.2298 -31.2117 -31.1987 -31.1958
   -31.1827 -31.1073 -30.7105 -30.6220 -30.5896 -30.5271 -30.4403 -30.3298
   -16.8143 -15.9152 -15.9113 -15.6989 -15.6105 -15.5285 -15.3947 -15.3809
   -15.3512 -15.2304 -15.2098 -15.2054 -15.1814 -15.1387 -15.1086 -15.0641
   -15.0410 -15.0183 -14.9542 -14.9052 -14.8454 -14.8253 -14.7608 -14.7402
   -14.7388 -14.6602 -14.6162 -14.5617 -14.4967 -14.4443 -12.7977 -12.6859
   -10.0150  -5.8611  -4.7471  -4.4253  -3.5025  -3.2917  -3.2229  -2.9627
    -2.9050  -2.8419  -2.8364  -2.8264  -2.7922  -2.7770  -2.7001  -2.6488
    -2.6411  -2.5602  -2.5431  -2.3794  -2.3100  -2.2436  -2.1732  -2.1092
    -2.0422  -2.0093  -1.9699  -1.9638  -1.9261  -1.8474  -1.8196  -1.8033
    -1.7920  -1.7758  -1.7377  -1.6703  -1.6601  -1.6285  -1.6178  -1.6046
    -1.5146  -1.4975  -1.3986  -1.3384  -1.2981  -1.1545  -1.1215  -1.0400
    -0.9973  -0.9764  -0.9466  -0.9437  -0.9070  -0.8783  -0.8721  -0.7746
    -0.7577  -0.7290  -0.6946  -0.6598  -0.6204  -0.6083  -0.5322  -0.3743
    -0.2701  -0.2418  -0.1988  -0.1348  -0.1251  -0.0542  -0.0265   0.0326
     0.0596   0.0912   0.0970   0.1739   0.2086   0.2115   0.2828   0.3047
     0.3106   0.3424   0.3639   0.4073   0.4754   0.5134   0.5264   0.6117
     0.7931   0.8309   0.8548   1.1426   1.1891   1.3706   1.6273   1.7546
     1.8459   2.0557   2.2107   3.8003   3.8446   3.9371   3.9773   4.0530
     4.1557   4.1725   4.2341   4.2780   4.3154   4.3891

          k =-0.0760 0.0419 0.0000 ( 17914 PWs)   bands (ev):

   -55.3035 -55.2782 -55.2524 -55.2283 -55.1680 -55.1458 -55.1437 -55.1436
   -55.1193 -55.0796 -55.0753 -55.0555 -55.0284 -54.9767 -54.2960 -54.2720
   -31.8196 -31.6996 -31.6430 -31.6203 -31.6049 -31.5915 -31.5563 -31.5503
   -31.5404 -31.5338 -31.5119 -31.4973 -31.4965 -31.4774 -31.4757 -31.4546
   -31.4374 -31.4301 -31.4047 -31.3917 -31.3821 -31.3778 -31.3767 -31.3566
   -31.3449 -31.3365 -31.3312 -31.3287 -31.3282 -31.3178 -31.3127 -31.2995
   -31.2973 -31.2957 -31.2745 -31.2584 -31.2496 -31.2380 -31.2318 -31.2217
   -31.2126 -31.1430 -30.6566 -30.6173 -30.5942 -30.5145 -30.4532 -30.3871
   -16.7892 -15.8682 -15.7979 -15.6074 -15.6037 -15.4444 -15.3333 -15.3203
   -15.2981 -15.2354 -15.2334 -15.1608 -15.1341 -15.1147 -15.1030 -15.0467
   -15.0211 -15.0142 -14.9486 -14.9422 -14.9215 -14.8798 -14.8005 -14.7907
   -14.7580 -14.7177 -14.7075 -14.6072 -14.5846 -14.5514 -12.8031 -12.7263
   -10.0188  -5.8620  -4.8104  -4.4152  -3.5141  -3.1276  -3.0742  -2.7737
    -2.7376  -2.7072  -2.6710  -2.6061  -2.5989  -2.5822  -2.5381  -2.5238
    -2.4733  -2.3970  -2.3435  -2.3182  -2.2876  -2.2832  -2.2686  -2.2200
    -2.1490  -2.1407  -2.0592  -2.0386  -2.0006  -1.9734  -1.9469  -1.9068
    -1.8873  -1.8832  -1.8567  -1.8476  -1.7756  -1.6896  -1.5969  -1.5618
    -1.4920  -1.4740  -1.4114  -1.3440  -1.2197  -1.1565  -1.0864  -1.0810
    -1.0753  -0.9906  -0.9681  -0.9225  -0.9014  -0.8421  -0.8392  -0.7524
    -0.7271  -0.7065  -0.6609  -0.6243  -0.6147  -0.5633  -0.5389  -0.5200
    -0.4190  -0.3947  -0.3469  -0.3281  -0.2806  -0.1429  -0.1188  -0.1071
    -0.0954  -0.0359  -0.0193   0.0768   0.0980   0.1617   0.1943   0.2788
     0.3224   0.3842   0.4308   0.4631   0.5015   0.5217   0.5765   0.7564
     0.8227   0.9389   0.9634   1.0818   1.1784   1.1793   1.3263   1.9302
     1.9806   2.0986   2.2297   3.8711   3.9499   3.9736   4.0115   4.0359
     4.1150   4.1864   4.1927   4.2502   4.2654   4.4038

          k =-0.0760-0.0839 0.0000 ( 17948 PWs)   bands (ev):

   -55.2924 -55.2894 -55.2408 -55.2399 -55.1563 -55.1554 -55.1438 -55.1336
   -55.1293 -55.0773 -55.0688 -55.0664 -55.0246 -54.9806 -54.2841 -54.2840
   -31.6836 -31.6785 -31.5885 -31.5829 -31.5671 -31.5665 -31.5573 -31.5312
   -31.5304 -31.5096 -31.5048 -31.5030 -31.4896 -31.4634 -31.4586 -31.4576
   -31.4316 -31.4310 -31.4246 -31.4036 -31.3811 -31.3791 -31.3688 -31.3649
   -31.3643 -31.3602 -31.3595 -31.3507 -31.3492 -31.3429 -31.3391 -31.3238
   -31.3210 -31.3083 -31.3053 -31.2940 -31.2654 -31.2484 -31.2466 -31.2439
   -31.2267 -31.1737 -30.6056 -30.6056 -30.5239 -30.5238 -30.4840 -30.4839
   -16.7640 -15.8205 -15.6050 -15.5404 -15.4995 -15.4049 -15.3311 -15.3001
   -15.2900 -15.2769 -15.1509 -15.1227 -15.1133 -15.0851 -15.0533 -15.0289
   -15.0250 -14.9900 -14.9329 -14.9268 -14.9189 -14.9107 -14.8470 -14.8388
   -14.8350 -14.8282 -14.7627 -14.7603 -14.6784 -14.6764 -12.7879 -12.7878
   -10.0227  -5.8627  -4.8705  -4.4055  -3.5282  -2.8241  -2.7965  -2.7444
    -2.7067  -2.6133  -2.5277  -2.5004  -2.4639  -2.4062  -2.3540  -2.3066
    -2.3045  -2.2688  -2.2492  -2.2304  -2.1867  -2.1651  -2.1427  -2.1244
    -2.1097  -2.0560  -2.0531  -2.0440  -2.0196  -1.9855  -1.9681  -1.9548
    -1.9386  -1.9203  -1.8948  -1.8755  -1.7325  -1.7116  -1.6710  -1.5539
    -1.5359  -1.5324  -1.4994  -1.4556  -1.4309  -1.4233  -1.3494  -1.3423
    -1.3098  -1.1526  -1.0803  -1.0785  -1.0553  -1.0313  -0.9362  -0.8847
    -0.8443  -0.7945  -0.7186  -0.6873  -0.6685  -0.5960  -0.5691  -0.4777
    -0.3882  -0.3614  -0.3532  -0.2758  -0.2744  -0.2409  -0.2278  -0.1588
    -0.0986  -0.0470  -0.0430  -0.0389   0.0898   0.1268   0.2069   0.3209
     0.4014   0.4096   0.4604   0.5212   0.5992   0.6493   0.6638   0.7879
     0.7899   0.9763   0.9796   1.0280   1.0431   1.1235   1.1286   2.0753
     2.0760   2.1684   2.1687   3.7607   3.9439   3.9981   4.0710   4.0964
     4.1944   4.2792   4.3130   4.3431   4.3650   4.3712

     the Fermi energy is     3.8539 ev

!    total energy              =   -2922.77379851 Ry
     estimated scf accuracy    <       0.00000007 Ry
     smearing contrib. (-TS)   =      -0.04551636 Ry
     internal energy E=F+TS    =   -2922.72828215 Ry

     The total energy is F=E-TS. E is the sum of the following terms:
     one-electron contribution =  -23201.67152033 Ry
     hartree contribution      =   11691.11018042 Ry
     xc contribution           =    -482.55067186 Ry
     ewald contribution        =    9070.38001776 Ry
     electric field correction =       0.00371185 Ry

     convergence has been achieved in  91 iterations

     Forces acting on atoms (cartesian axes, Ry/au):

     atom    1 type  1   force =     0.00016633   -0.00008156    0.09300937
     atom    2 type  1   force =    -0.00000120   -0.00014577   -0.17881769
     atom    3 type  2   force =     0.00002083   -0.00029899   -0.02022877
     atom    4 type  2   force =    -0.00000289   -0.00223960    0.06097854
     atom    5 type  2   force =    -0.01150925   -0.00127661    0.01053825
     atom    6 type  2   force =     0.01242064   -0.00058004    0.00810224
     atom    7 type  1   force =    -0.00124449    0.00345627   -0.01488693
     atom    8 type  1   force =     0.00123000   -0.00358895   -0.00845460
     atom    9 type  2   force =     0.00001381   -0.00004990   -0.00023386
     atom   10 type  2   force =    -0.00281479   -0.00048178    0.00154592
     atom   11 type  2   force =     0.00010525   -0.00024111   -0.00031072
     atom   12 type  2   force =     0.00001861    0.00007812   -0.00012102
     atom   13 type  1   force =    -0.00019528   -0.00031710   -0.00061833
     atom   14 type  1   force =    -0.00003570   -0.00004958    0.00020375
     atom   15 type  2   force =    -0.00011559   -0.00024349   -0.00014192
     atom   16 type  2   force =     0.00032475    0.00035081   -0.00013021
     atom   17 type  2   force =     0.00076876    0.00029102   -0.00026296
     atom   18 type  2   force =     0.00010060   -0.00026554   -0.00005462
     atom   19 type  1   force =     0.00026323    0.00043574   -0.00037309
     atom   20 type  1   force =     0.00010621    0.00007809    0.00050294
     atom   21 type  2   force =     0.00012524   -0.00003121    0.10428300
     atom   22 type  2   force =    -0.00055996    0.00010937    0.00025307
     atom   23 type  2   force =    -0.06993076   -0.00011306   -0.02678360
     atom   24 type  2   force =     0.06990145    0.00034611   -0.02678520
     atom   25 type  1   force =     0.00018867   -0.00021115    0.09229773
     atom   26 type  1   force =    -0.00006540   -0.00036422   -0.17902045
     atom   27 type  2   force =     0.00003974   -0.00025574   -0.01895372
     atom   28 type  2   force =     0.00006464   -0.00193187    0.06022686
     atom   29 type  2   force =    -0.01169586   -0.00161986    0.01033246
     atom   30 type  2   force =     0.01247956   -0.00120208    0.00786210
     atom   31 type  1   force =    -0.00101124    0.00607934   -0.01577076
     atom   32 type  1   force =     0.00116576    0.00334583   -0.00863963
     atom   33 type  2   force =     0.00002888    0.00019925   -0.00022512
     atom   34 type  2   force =    -0.00240710   -0.00053370    0.00059634
     atom   35 type  2   force =    -0.00001328    0.00000225    0.00003108
     atom   36 type  2   force =     0.00005232   -0.00007292    0.00034639
     atom   37 type  1   force =     0.00035155   -0.00003929   -0.00004231
     atom   38 type  1   force =    -0.00034181   -0.00030382    0.00045043
     atom   39 type  2   force =     0.00036540   -0.00014841    0.00063011
     atom   40 type  2   force =     0.00025008   -0.00017804    0.00003880
     atom   41 type  2   force =     0.00004122    0.00035418   -0.00041063
     atom   42 type  2   force =     0.00051222    0.00020768   -0.00018974
     atom   43 type  1   force =     0.00025618   -0.00017774   -0.00032221
     atom   44 type  1   force =     0.00014976   -0.00129742    0.00059982
     atom   45 type  2   force =     0.00011683   -0.00005854    0.10422958
     atom   46 type  2   force =    -0.06994913   -0.00005466   -0.02677466
     atom   47 type  2   force =     0.06993672    0.00035077   -0.02679530
     atom   48 type  3   force =     0.00309457   -0.00148890   -0.00353481
     atom   49 type  4   force =     0.00127127    0.00070014   -0.00146624
     atom   50 type  5   force =     0.00016724   -0.00007169    0.00002010
     atom   51 type  5   force =    -0.00068544   -0.00025082    0.00025229
     atom   52 type  5   force =    -0.00017859   -0.00030278    0.00024167
     atom   53 type  5   force =     0.00020928    0.00085645   -0.00108272
     atom   54 type  5   force =    -0.00013685    0.00004817   -0.00080941
     atom   55 type  5   force =    -0.00341301    0.00327834    0.00466838

     Total force =     0.367712     Total SCF correction =     0.000805
  @ DRIVER MODE: Message from server: STATUS
  @ DRIVER MODE: Message from server: GETFORCE
  @ DRIVER MODE: Returning v,forces,stress,ensemble 

     Writing output data file ./calc.save/
  @ DRIVER MODE: Message from server: EXIT
  @ DRIVE MODE: Exiting  
 
     init_run     :     18.72s CPU     18.85s WALL (       1 calls)
     electrons    :   1352.63s CPU   1369.67s WALL (       1 calls)
     forces       :      1.91s CPU      1.97s WALL (       1 calls)

     Called by init_run:
     wfcinit      :     10.99s CPU     11.05s WALL (       1 calls)
     potinit      :      5.92s CPU      5.97s WALL (       1 calls)
     hinit0       :      0.90s CPU      0.91s WALL (       1 calls)

     Called by electrons:
     c_bands      :   1159.69s CPU   1169.43s WALL (      91 calls)
     sum_band     :    135.00s CPU    137.86s WALL (      91 calls)
     v_of_rho     :     39.03s CPU     40.04s WALL (      92 calls)
     newd         :     14.19s CPU     17.26s WALL (      92 calls)
     mix_rho      :      9.22s CPU      9.48s WALL (      91 calls)
     vdW_kernel   :      4.35s CPU      4.37s WALL (       1 calls)

     Called by c_bands:
     init_us_2    :      5.51s CPU      5.55s WALL (    1840 calls)
     cegterg      :   1143.02s CPU   1152.34s WALL (     924 calls)

     Called by *egterg:
     cdiaghg      :    351.89s CPU    353.91s WALL (    8920 calls)
     h_psi        :    512.75s CPU    518.73s WALL (    8930 calls)
     s_psi        :     55.76s CPU     55.96s WALL (    8930 calls)
     g_psi        :      1.37s CPU      1.38s WALL (    7996 calls)

     Called by h_psi:
     h_psi:calbec :     60.12s CPU     60.46s WALL (    8930 calls)
     vloc_psi     :    393.37s CPU    398.79s WALL (    8930 calls)
     add_vuspsi   :     56.43s CPU     56.65s WALL (    8930 calls)

     General routines
     calbec       :     80.87s CPU     81.27s WALL (    9880 calls)
     fft          :     22.39s CPU     22.60s WALL (    5796 calls)
     ffts         :      0.23s CPU      0.23s WALL (     183 calls)
     fftw         :    468.58s CPU    474.55s WALL ( 1200786 calls)
     interpolate  :      0.52s CPU      0.53s WALL (      92 calls)
     davcio       :      0.00s CPU      0.12s WALL (      10 calls)
 
     Parallel routines
 
     PWSCF        :  22m57.42s CPU  23m15.08s WALL

 
   This run was terminated on:   2:12:31   3Aug2021            

=------------------------------------------------------------------------------=
   JOB DONE.
=------------------------------------------------------------------------------=
