
     Program PWSCF v.6.7GPU starts on 14Sep2021 at 20:30: 6 

     This program is part of the open-source Quantum ESPRESSO suite
     for quantum simulation of materials; please cite
         "P. Giannozzi et al., J. Phys.:Condens. Matter 21 395502 (2009);
         "P. Giannozzi et al., J. Phys.:Condens. Matter 29 465901 (2017);
         "P. Giannozzi et al., J. Chem. Phys. 152 154105 (2020);
          URL http://www.quantum-espresso.org", 
     in publications or presentations arising from this work. More details at
     http://www.quantum-espresso.org/quote

     Parallel version (MPI), running on    10 processors

     MPI processes distributed on     1 nodes
     R & G space division:  proc/nbgrp/npool/nimage =      10
     Reading input from /storage/home/hcoda1/3/ntian30/research/carbon/CxH_vib/CH2_calc/ads_slab/CH2OHN2_a/out_0020/pw.inp
Warning: card &CELL ignored
Warning: card   CELL_DYNAMICS='IPI', ignored
Warning: card / ignored

     Current dimensions of program PWSCF are:
     Max number of different atomic species (ntypx) = 10
     Max number of k-points (npk) =  40000
     Max angular momentum in pseudopotentials (lmaxx) =  3
     Presently no symmetry can be used with electric field

     Message from routine cell_base_init:
     DEPRECATED: use true lattice parameter, not A to a.u. conversion factor

     **************************************************************************
     Initializing libbeef V0.1.2 with the BEEF-vdW functional.
     Citation: Wellendorff et al., PRB 85, 235149 (2012).
     **************************************************************************


     IMPORTANT: XC functional enforced from input :
     Exchange-correlation= BEEF-VDW
                           (   1   4  43  14   2   0   0)
     Any further DFT definition will be discarded
     Please, verify this is what you really want


     Subspace diagonalization in iterative solution of the eigenvalue problem:
     one sub-group per band group will be used
     scalapack distributed-memory algorithm (size of sub-group:  3*  3 procs)

  @ DRIVER MODE: Connecting to 
 qe_1139763_2840440.sched-torque.pace.gatech.edub138imbw_scratch
  using UNIX socket
  @ DRIVER MODE: Message from server: STATUS
  @ DRIVER MODE: Message from server: INIT
  @ DRIVER MODE: Receiving replica           0          -1
  @ DRIVER MODE: Receiving encoded integer          25
  @ DRIVER MODE:  SCF:  T  FORCE:  T  STRESS:  F  VC:  F  ENSEMBLE:  F
  @ DRIVER MODE:  SCF:  T  FORCE:  T  STRESS:  F  VC:  F  ENSEMBLE:  F
 
     Parallelization info
     --------------------
     sticks:   dense  smooth     PW     G-vecs:    dense   smooth      PW
     Min         327     131     37                56683    14340    2191
     Max         328     133     38                56694    14346    2206
     Sum        3275    1317    379               566857   143421   21985
 
     Using Slab Decomposition
 


     bravais-lattice index     =            0
     lattice parameter (alat)  =       1.8897  a.u.
     unit-cell volume          =    6658.9804 (a.u.)^3
     number of atoms/cell      =           54
     number of atomic types    =            5
     number of electrons       =       401.00
     number of Kohn-Sham states=          210
     kinetic-energy cutoff     =      29.3995  Ry
     charge density cutoff     =     293.9946  Ry
     scf convergence threshold =      7.3E-08
     mixing beta               =       0.0500
     number of iterations used =            8  plain     mixing
     Exchange-correlation= BEEF-VDW
                           (   1   4  43  14   2   0   0)

     celldm(1)=   1.889726  celldm(2)=   0.000000  celldm(3)=   0.000000
     celldm(4)=   0.000000  celldm(5)=   0.000000  celldm(6)=   0.000000

     crystal axes: (cart. coord. in units of alat)
               a(1) = (   6.579727   0.000000   0.000000 )  
               a(2) = (  -0.000775   5.961596   0.000000 )  
               a(3) = (   0.000000   0.000000  25.155947 )  

     reciprocal axes: (cart. coord. in units 2 pi/alat)
               b(1) = (  0.151982  0.000020  0.000000 )  
               b(2) = (  0.000000  0.167740  0.000000 )  
               b(3) = (  0.000000  0.000000  0.039752 )  


     PseudoPot. # 1 for C  read from file:
     /storage/coda1/p-amedford6/0/shared/rich_project_chbe-medford/medford-share/data/pseudos_module/espresso/nninc/pbe/van/C.UPF
     MD5 check sum: 1a69bf6b8db32088f5b2163dbdb77a27
     Pseudo is Ultrasoft, Zval =  4.0
     Generated by new atomic code, or converted to UPF format
     Using radial grid of  721 points,  4 beta functions with: 
                l(1) =   0
                l(2) =   0
                l(3) =   1
                l(4) =   1
     Q(r) pseudized with  8 coefficients,  rinner =    0.800   0.800   0.800


     PseudoPot. # 2 for H  read from file:
     /storage/coda1/p-amedford6/0/shared/rich_project_chbe-medford/medford-share/data/pseudos_module/espresso/nninc/pbe/van/H.UPF
     MD5 check sum: b5ee9d7bfd3a09ee7748110bda690ff7
     Pseudo is Ultrasoft, Zval =  1.0
     Generated by new atomic code, or converted to UPF format
     Using radial grid of  615 points,  1 beta functions with: 
                l(1) =   0
     Q(r) pseudized with  8 coefficients,  rinner =    0.800

     PseudoPot. # 3 for O  read from file:
     /storage/coda1/p-amedford6/0/shared/rich_project_chbe-medford/medford-share/data/pseudos_module/espresso/nninc/pbe/van/O.UPF
     MD5 check sum: 78c19812648e8988a0fe644b0f25305e
     Pseudo is Ultrasoft, Zval =  6.0
     Generated by new atomic code, or converted to UPF format
     Using radial grid of  737 points,  4 beta functions with: 
                l(1) =   0
                l(2) =   0
                l(3) =   1
                l(4) =   1
     Q(r) pseudized with  8 coefficients,  rinner =    0.800   0.800   0.800


     PseudoPot. # 4 for Ti read from file:
     /storage/coda1/p-amedford6/0/shared/rich_project_chbe-medford/medford-share/data/pseudos_module/espresso/nninc/pbe/van/Ti.UPF
     MD5 check sum: 8e4df49b7f0d34bbd5052bf3f5ea0213
     Pseudo is Ultrasoft, Zval = 12.0
     Generated by new atomic code, or converted to UPF format
     Using radial grid of  851 points,  6 beta functions with: 
                l(1) =   0
                l(2) =   0
                l(3) =   1
                l(4) =   1
                l(5) =   2
                l(6) =   2
     Q(r) pseudized with  8 coefficients,  rinner =    1.000   1.000   1.000
                                                       1.000   1.000

     PseudoPot. # 5 for N  read from file:
     /storage/coda1/p-amedford6/0/shared/rich_project_chbe-medford/medford-share/data/pseudos_module/espresso/nninc/pbe/van/N.UPF
     MD5 check sum: 90d10febe142ad51ac9d5be1deb811c4
     Pseudo is Ultrasoft, Zval =  5.0
     Generated by new atomic code, or converted to UPF format
     Using radial grid of  729 points,  4 beta functions with: 
                l(1) =   0
                l(2) =   0
                l(3) =   1
                l(4) =   1
     Q(r) pseudized with  8 coefficients,  rinner =    0.800   0.800   0.800


     atomic species   valence    mass     pseudopotential
        C1             4.00    12.01100     C ( 1.00)
        H1             1.00     1.00800     H ( 1.00)
        O1             6.00    15.99900     O ( 1.00)
        Ti1           12.00    47.86700     Ti( 1.00)
        N1             5.00    14.00700     N ( 1.00)

     No symmetry found



   Cartesian axes

     site n.     atom                  positions (alat units)
         1           C1  tau(   1) = (   5.1764158   1.5385028  19.8564928  )
         2           H1  tau(   2) = (   4.2418317   1.4168958  19.3325039  )
         3           H1  tau(   3) = (   6.1328006   2.9100337  18.2018079  )
         4           H1  tau(   4) = (   6.0297582   0.9181690  19.6386741  )
         5           O1  tau(   5) = (   0.0006271   0.0005054   7.9858123  )
         6           O1  tau(   6) = (   3.2906025   0.0005020   7.3038282  )
         7           O1  tau(   7) = (   4.5942328   1.4918067   9.2879030  )
         8           O1  tau(   8) = (   1.9868534   1.4903216   9.2879459  )
         9           O1  tau(   9) = (   3.2696825   0.0177092  11.3460806  )
        10           O1  tau(  10) = (   6.5743896   0.0111799  10.6115589  )
        11           O1  tau(  11) = (   1.2770957   1.5070501  12.6511825  )
        12           O1  tau(  12) = (   5.2749141   1.5057152  12.6378801  )
        13           O1  tau(  13) = (   6.5263050   0.0247340  14.7317399  )
        14           O1  tau(  14) = (   3.2747511   0.0213673  13.9312909  )
        15           O1  tau(  15) = (   4.4933390   1.5239927  16.1070736  )
        16           O1  tau(  16) = (   2.0026543   1.5217075  16.0711130  )
        17           O1  tau(  17) = (   3.2904802   0.0005063   4.7018136  )
        18           O1  tau(  18) = (   6.5469758   0.0421337  17.2556835  )
        19           O1  tau(  19) = (   1.3043587   1.4918075   6.0039043  )
        20           O1  tau(  20) = (   5.2767064   1.4903225   6.0039473  )
        21           O1  tau(  21) = (   0.0002396   2.9813036   7.9858123  )
        22           O1  tau(  22) = (   3.2902150   2.9813002   7.3038282  )
        23           O1  tau(  23) = (   4.5938453   4.4726049   9.2879030  )
        24           O1  tau(  24) = (   1.9864658   4.4711199   9.2879459  )
        25           O1  tau(  25) = (   3.2722311   3.0011533  11.3472759  )
        26           O1  tau(  26) = (   6.5787409   2.9955660  10.5677177  )
        27           O1  tau(  27) = (   1.2755865   4.4883074  12.6550720  )
        28           O1  tau(  28) = (   5.2773609   4.4903743  12.6413705  )
        29           O1  tau(  29) = (   6.5451067   2.9841024  14.7029789  )
        30           O1  tau(  30) = (   3.2773495   3.0062142  13.9304278  )
        31           O1  tau(  31) = (   4.4941242   4.5002890  16.1165364  )
        32           O1  tau(  32) = (   2.0016379   4.5015838  16.0818063  )
        33           O1  tau(  33) = (   3.2900926   2.9813045   4.7018136  )
        34           O1  tau(  34) = (   1.3039711   4.4726057   6.0039043  )
        35           O1  tau(  35) = (   5.2763189   4.4711207   6.0039473  )
        36           O1  tau(  36) = (   6.5536212   3.0044252  17.3297899  )
        37           Ti1 tau(  37) = (   0.0004258   2.9801865   6.0000000  )
        38           Ti1 tau(  38) = (   3.2906075   1.4906267   6.0002472  )
        39           Ti1 tau(  39) = (   3.3348906   3.0327224   9.1579215  )
        40           Ti1 tau(  40) = (   0.0203972   1.6099837   9.3624797  )
        41           Ti1 tau(  41) = (   6.5380572   3.0081639  12.8251979  )
        42           Ti1 tau(  42) = (   3.2225065   1.5141752  12.4854623  )
        43           Ti1 tau(  43) = (   3.2525775   3.0161725  15.7233172  )
        44           Ti1 tau(  44) = (   6.5465844   1.4469101  15.9770741  )
        45           Ti1 tau(  45) = (   0.0000382   5.9609847   6.0000000  )
        46           Ti1 tau(  46) = (   3.2902200   4.4714249   6.0002472  )
        47           Ti1 tau(  47) = (   3.2831171   0.0558662   9.1532617  )
        48           Ti1 tau(  48) = (   0.0294011   4.5318189   9.2743274  )
        49           Ti1 tau(  49) = (   6.5160019   0.0223579  12.5245727  )
        50           Ti1 tau(  50) = (   3.2207252   4.4944464  12.4919313  )
        51           Ti1 tau(  51) = (   3.2645639   0.0336594  15.7221480  )
        52           Ti1 tau(  52) = (   6.5427997   4.6104004  16.1309301  )
        53           N1  tau(  53) = (   5.0796009   2.6163306  22.0446247  )
        54           N1  tau(  54) = (   5.1188049   2.0915644  21.0330699  )

     number of k points=    10  Fermi-Dirac smearing, width (Ry)=  0.0073
                       cart. coord. in units 2pi/alat
        k(    1) = (   0.0000000   0.0000000   0.0000000), wk =   0.1250000
        k(    2) = (   0.0000000   0.0419351   0.0000000), wk =   0.2500000
        k(    3) = (   0.0000000  -0.0838702   0.0000000), wk =   0.1250000
        k(    4) = (   0.0379955   0.0000049   0.0000000), wk =   0.2500000
        k(    5) = (   0.0379955   0.0419400   0.0000000), wk =   0.2500000
        k(    6) = (   0.0379955  -0.0838652   0.0000000), wk =   0.2500000
        k(    7) = (   0.0379955  -0.0419301   0.0000000), wk =   0.2500000
        k(    8) = (  -0.0759910  -0.0000099   0.0000000), wk =   0.1250000
        k(    9) = (  -0.0759910   0.0419252   0.0000000), wk =   0.2500000
        k(   10) = (  -0.0759910  -0.0838800   0.0000000), wk =   0.1250000

     Dense  grid:   566857 G-vectors     FFT dimensions: (  72,  64, 270)

     Smooth grid:   143421 G-vectors     FFT dimensions: (  45,  40, 180)

     Estimated max dynamical RAM per process >     367.12 MB

     Estimated total dynamical RAM >       3.59 GB
     Cannot read rho : file not found

     Initial potential from superposition of free atoms

     starting charge  384.99916, renormalised to  401.00000

     negative rho (up, down):  1.196E-02 0.000E+00


     %%%%%%%%%%%%%%%%%%%%%%%%%%%%%%%%%%%%%%%%%%%%%%%%%%%%%%%%%%%%%%%%%%%%%%%%
     %                                                                      %
     % You are using vdW-DF, which was implemented by the Thonhauser group. %
     % Please cite the following two papers that made this development      %
     % possible and the two reviews that describe the various versions:     %
     %                                                                      %
     %   T. Thonhauser et al., PRL 115, 136402 (2015).                      %
     %   T. Thonhauser et al., PRB 76, 125112 (2007).                       %
     %   K. Berland et al., Rep. Prog. Phys. 78, 066501 (2015).             %
     %   D.C. Langreth et al., J. Phys.: Condens. Matter 21, 084203 (2009). %
     %                                                                      %
     %                                                                      %
     % If you are calculating the stress with vdW-DF, please also cite:     %
     %                                                                      %
     %   R. Sabatini et al., J. Phys.: Condens. Matter 24, 424209 (2012).   %
     %                                                                      %
     %%%%%%%%%%%%%%%%%%%%%%%%%%%%%%%%%%%%%%%%%%%%%%%%%%%%%%%%%%%%%%%%%%%%%%%%


 
     Adding external electric field

     Computed dipole along edir(3) : 
        Dipole              -14.0962 Ry au,        -35.8290 Debye
        Dipole field         -0.0266 Ry au, 
 
        Potential amp.        2.4659 Ry
        Total length         46.3494 bohr
 
     Starting wfcs are  303 atomic wfcs
  @ DRIVER MODE: Message from server: STATUS
  @ DRIVER MODE: Message from server: POSDATA
  @ DRIVER MODE: Reading and sharing cell 
  @ DRIVER MODE: Reading and sharing positions 
  @ DRIVER MODE: Received positions 

     total cpu time spent up to now is       11.7 secs

     Self-consistent Calculation

     iteration #  1     ecut=    29.40 Ry     beta= 0.05
     Davidson diagonalization with overlap
     c_bands:  5 eigenvalues not converged
     c_bands:  4 eigenvalues not converged
     c_bands:  5 eigenvalues not converged
     c_bands:  2 eigenvalues not converged
     c_bands:  4 eigenvalues not converged
     c_bands:  1 eigenvalues not converged
     c_bands:  4 eigenvalues not converged
     c_bands:  4 eigenvalues not converged
     c_bands:  4 eigenvalues not converged
     c_bands:  5 eigenvalues not converged
     ethr =  1.00E-05,  avg # of iterations = 22.0

     negative rho (up, down):  9.146E-03 0.000E+00
 
     Adding external electric field

     Computed dipole along edir(3) : 
        Dipole               51.5460 Ry au,        131.0168 Debye
        Dipole field          0.0973 Ry au, 
 
        Potential amp.       -9.0172 Ry
        Total length         46.3494 bohr
 

     total cpu time spent up to now is       55.1 secs

     total energy              =   -2410.44084130 Ry
     estimated scf accuracy    <    6378.85342903 Ry

     iteration #  2     ecut=    29.40 Ry     beta= 0.05
     Davidson diagonalization with overlap
     ethr =  1.00E-02,  avg # of iterations = 23.5

     negative rho (up, down):  9.296E-04 0.000E+00
 
     Adding external electric field

     Computed dipole along edir(3) : 
        Dipole               -2.9173 Ry au,         -7.4151 Debye
        Dipole field         -0.0055 Ry au, 
 
        Potential amp.        0.5103 Ry
        Total length         46.3494 bohr
 

     total cpu time spent up to now is      137.5 secs

     total energy              =   -2422.87961083 Ry
     estimated scf accuracy    <   76660.58778985 Ry

     iteration #  3     ecut=    29.40 Ry     beta= 0.05
     Davidson diagonalization with overlap
     c_bands:  1 eigenvalues not converged
     ethr =  1.00E-02,  avg # of iterations = 18.2

     negative rho (up, down):  9.886E-04 0.000E+00
 
     Adding external electric field

     Computed dipole along edir(3) : 
        Dipole               -4.9843 Ry au,        -12.6688 Debye
        Dipole field         -0.0094 Ry au, 
 
        Potential amp.        0.8719 Ry
        Total length         46.3494 bohr
 

     total cpu time spent up to now is      187.8 secs

     total energy              =   -2965.64939456 Ry
     estimated scf accuracy    <    5475.14301469 Ry

     iteration #  4     ecut=    29.40 Ry     beta= 0.05
     Davidson diagonalization with overlap
     ethr =  1.00E-02,  avg # of iterations = 12.3

     negative rho (up, down):  1.006E-03 0.000E+00
 
     Adding external electric field

     Computed dipole along edir(3) : 
        Dipole               -6.0466 Ry au,        -15.3689 Debye
        Dipole field         -0.0114 Ry au, 
 
        Potential amp.        1.0578 Ry
        Total length         46.3494 bohr
 

     total cpu time spent up to now is      207.7 secs

     total energy              =   -2963.91890037 Ry
     estimated scf accuracy    <    1964.58524624 Ry

     iteration #  5     ecut=    29.40 Ry     beta= 0.05
     Davidson diagonalization with overlap
     ethr =  1.00E-02,  avg # of iterations =  3.5

     negative rho (up, down):  1.156E-03 0.000E+00
 
     Adding external electric field

     Computed dipole along edir(3) : 
        Dipole              -10.1262 Ry au,        -25.7381 Debye
        Dipole field         -0.0191 Ry au, 
 
        Potential amp.        1.7714 Ry
        Total length         46.3494 bohr
 

     total cpu time spent up to now is      218.6 secs

     total energy              =   -2885.71103883 Ry
     estimated scf accuracy    <    1833.78254657 Ry

     iteration #  6     ecut=    29.40 Ry     beta= 0.05
     Davidson diagonalization with overlap
     ethr =  1.00E-02,  avg # of iterations = 13.6

     negative rho (up, down):  7.214E-05 0.000E+00
 
     Adding external electric field

     Computed dipole along edir(3) : 
        Dipole               -6.1210 Ry au,        -15.5579 Debye
        Dipole field         -0.0116 Ry au, 
 
        Potential amp.        1.0708 Ry
        Total length         46.3494 bohr
 

     total cpu time spent up to now is      251.6 secs

     total energy              =   -2937.25831364 Ry
     estimated scf accuracy    <    5433.63135771 Ry

     iteration #  7     ecut=    29.40 Ry     beta= 0.05
     Davidson diagonalization with overlap
     ethr =  1.00E-02,  avg # of iterations = 15.0

     negative rho (up, down):  1.457E-04 0.000E+00
 
     Adding external electric field

     Computed dipole along edir(3) : 
        Dipole               -5.0319 Ry au,        -12.7898 Debye
        Dipole field         -0.0095 Ry au, 
 
        Potential amp.        0.8803 Ry
        Total length         46.3494 bohr
 

     total cpu time spent up to now is      273.0 secs

     total energy              =   -2974.79082380 Ry
     estimated scf accuracy    <      48.48806690 Ry

     iteration #  8     ecut=    29.40 Ry     beta= 0.05
     Davidson diagonalization with overlap
     ethr =  1.00E-02,  avg # of iterations =  1.4

     negative rho (up, down):  2.865E-04 0.000E+00
 
     Adding external electric field

     Computed dipole along edir(3) : 
        Dipole               -3.4657 Ry au,         -8.8090 Debye
        Dipole field         -0.0065 Ry au, 
 
        Potential amp.        0.6063 Ry
        Total length         46.3494 bohr
 

     total cpu time spent up to now is      283.0 secs

     total energy              =   -2972.83983941 Ry
     estimated scf accuracy    <      38.69664892 Ry

     iteration #  9     ecut=    29.40 Ry     beta= 0.05
     Davidson diagonalization with overlap
     ethr =  9.65E-03,  avg # of iterations = 11.6

     negative rho (up, down):  2.672E-04 0.000E+00
 
     Adding external electric field

     Computed dipole along edir(3) : 
        Dipole               -3.1522 Ry au,         -8.0121 Debye
        Dipole field         -0.0059 Ry au, 
 
        Potential amp.        0.5514 Ry
        Total length         46.3494 bohr
 

     total cpu time spent up to now is      298.8 secs

     total energy              =   -2978.74053094 Ry
     estimated scf accuracy    <     161.41796124 Ry

     iteration # 10     ecut=    29.40 Ry     beta= 0.05
     Davidson diagonalization with overlap
     ethr =  9.65E-03,  avg # of iterations =  3.3

     negative rho (up, down):  1.126E-04 0.000E+00
 
     Adding external electric field

     Computed dipole along edir(3) : 
        Dipole               -0.9943 Ry au,         -2.5272 Debye
        Dipole field         -0.0019 Ry au, 
 
        Potential amp.        0.1739 Ry
        Total length         46.3494 bohr
 

     total cpu time spent up to now is      309.7 secs

     total energy              =   -2989.36396560 Ry
     estimated scf accuracy    <     248.62150177 Ry

     iteration # 11     ecut=    29.40 Ry     beta= 0.05
     Davidson diagonalization with overlap
     ethr =  9.65E-03,  avg # of iterations = 12.9

     negative rho (up, down):  3.330E-05 0.000E+00
 
     Adding external electric field

     Computed dipole along edir(3) : 
        Dipole               -1.5544 Ry au,         -3.9509 Debye
        Dipole field         -0.0029 Ry au, 
 
        Potential amp.        0.2719 Ry
        Total length         46.3494 bohr
 

     total cpu time spent up to now is      328.5 secs

     total energy              =   -2948.47748675 Ry
     estimated scf accuracy    <    2221.12943494 Ry

     iteration # 12     ecut=    29.40 Ry     beta= 0.05
     Davidson diagonalization with overlap
     ethr =  9.65E-03,  avg # of iterations = 15.3

     negative rho (up, down):  1.342E-05 0.000E+00
 
     Adding external electric field

     Computed dipole along edir(3) : 
        Dipole                0.5658 Ry au,          1.4381 Debye
        Dipole field          0.0011 Ry au, 
 
        Potential amp.       -0.0990 Ry
        Total length         46.3494 bohr
 

     total cpu time spent up to now is      349.4 secs

     total energy              =   -2973.14151340 Ry
     estimated scf accuracy    <      15.54348733 Ry

     iteration # 13     ecut=    29.40 Ry     beta= 0.05
     Davidson diagonalization with overlap
     c_bands:  4 eigenvalues not converged
     ethr =  3.88E-03,  avg # of iterations =  5.1

     negative rho (up, down):  1.020E-05 0.000E+00
 
     Adding external electric field

     Computed dipole along edir(3) : 
        Dipole                0.8537 Ry au,          2.1698 Debye
        Dipole field          0.0016 Ry au, 
 
        Potential amp.       -0.1493 Ry
        Total length         46.3494 bohr
 

     total cpu time spent up to now is      361.4 secs

     total energy              =   -2981.77191191 Ry
     estimated scf accuracy    <     692.46819593 Ry

     iteration # 14     ecut=    29.40 Ry     beta= 0.05
     Davidson diagonalization with overlap
     c_bands:  2 eigenvalues not converged
     c_bands:  3 eigenvalues not converged
     ethr =  3.88E-03,  avg # of iterations =  7.1

     negative rho (up, down):  1.806E-05 0.000E+00
 
     Adding external electric field

     Computed dipole along edir(3) : 
        Dipole               -1.6313 Ry au,         -4.1464 Debye
        Dipole field         -0.0031 Ry au, 
 
        Potential amp.        0.2854 Ry
        Total length         46.3494 bohr
 

     total cpu time spent up to now is      374.6 secs

     total energy              =   -2966.00199027 Ry
     estimated scf accuracy    <    1083.49330971 Ry

     iteration # 15     ecut=    29.40 Ry     beta= 0.05
     Davidson diagonalization with overlap
     c_bands:  1 eigenvalues not converged
     ethr =  3.88E-03,  avg # of iterations =  7.2

     negative rho (up, down):  3.325E-05 0.000E+00
 
     Adding external electric field

     Computed dipole along edir(3) : 
        Dipole               -1.4387 Ry au,         -3.6567 Debye
        Dipole field         -0.0027 Ry au, 
 
        Potential amp.        0.2517 Ry
        Total length         46.3494 bohr
 

     total cpu time spent up to now is      388.5 secs

     total energy              =   -2972.57719126 Ry
     estimated scf accuracy    <       9.35540484 Ry

     iteration # 16     ecut=    29.40 Ry     beta= 0.05
     Davidson diagonalization with overlap
     ethr =  2.33E-03,  avg # of iterations =  1.1

     negative rho (up, down):  1.374E-04 0.000E+00
 
     Adding external electric field

     Computed dipole along edir(3) : 
        Dipole               -2.2202 Ry au,         -5.6432 Debye
        Dipole field         -0.0042 Ry au, 
 
        Potential amp.        0.3884 Ry
        Total length         46.3494 bohr
 

     total cpu time spent up to now is      398.4 secs

     total energy              =   -2971.43561823 Ry
     estimated scf accuracy    <      23.87616758 Ry

     iteration # 17     ecut=    29.40 Ry     beta= 0.05
     Davidson diagonalization with overlap
     ethr =  2.33E-03,  avg # of iterations =  2.1

     negative rho (up, down):  2.343E-04 0.000E+00
 
     Adding external electric field

     Computed dipole along edir(3) : 
        Dipole               -1.5424 Ry au,         -3.9204 Debye
        Dipole field         -0.0029 Ry au, 
 
        Potential amp.        0.2698 Ry
        Total length         46.3494 bohr
 

     total cpu time spent up to now is      409.1 secs

     total energy              =   -2971.61494513 Ry
     estimated scf accuracy    <       7.89524758 Ry

     iteration # 18     ecut=    29.40 Ry     beta= 0.05
     Davidson diagonalization with overlap
     ethr =  1.97E-03,  avg # of iterations =  5.6

     negative rho (up, down):  3.641E-04 0.000E+00
 
     Adding external electric field

     Computed dipole along edir(3) : 
        Dipole               -2.2842 Ry au,         -5.8059 Debye
        Dipole field         -0.0043 Ry au, 
 
        Potential amp.        0.3996 Ry
        Total length         46.3494 bohr
 

     total cpu time spent up to now is      421.5 secs

     total energy              =   -2971.71375386 Ry
     estimated scf accuracy    <     188.63356718 Ry

     iteration # 19     ecut=    29.40 Ry     beta= 0.05
     Davidson diagonalization with overlap
     ethr =  1.97E-03,  avg # of iterations =  2.5

     negative rho (up, down):  1.454E-04 0.000E+00
 
     Adding external electric field

     Computed dipole along edir(3) : 
        Dipole               -1.6734 Ry au,         -4.2533 Debye
        Dipole field         -0.0032 Ry au, 
 
        Potential amp.        0.2927 Ry
        Total length         46.3494 bohr
 

     total cpu time spent up to now is      432.2 secs

     total energy              =   -2971.63219593 Ry
     estimated scf accuracy    <      31.22077198 Ry

     iteration # 20     ecut=    29.40 Ry     beta= 0.05
     Davidson diagonalization with overlap
     ethr =  1.97E-03,  avg # of iterations =  2.3

     negative rho (up, down):  7.065E-05 0.000E+00
 
     Adding external electric field

     Computed dipole along edir(3) : 
        Dipole                0.1945 Ry au,          0.4943 Debye
        Dipole field          0.0004 Ry au, 
 
        Potential amp.       -0.0340 Ry
        Total length         46.3494 bohr
 

     total cpu time spent up to now is      442.7 secs

     total energy              =   -2971.21644041 Ry
     estimated scf accuracy    <       7.22092863 Ry

     iteration # 21     ecut=    29.40 Ry     beta= 0.05
     Davidson diagonalization with overlap
     c_bands:  1 eigenvalues not converged
     ethr =  1.80E-03,  avg # of iterations =  4.2

     negative rho (up, down):  6.756E-05 0.000E+00
 
     Adding external electric field

     Computed dipole along edir(3) : 
        Dipole                0.9197 Ry au,          2.3376 Debye
        Dipole field          0.0017 Ry au, 
 
        Potential amp.       -0.1609 Ry
        Total length         46.3494 bohr
 

     total cpu time spent up to now is      454.3 secs

     total energy              =   -2971.63062888 Ry
     estimated scf accuracy    <       3.20091623 Ry

     iteration # 22     ecut=    29.40 Ry     beta= 0.05
     Davidson diagonalization with overlap
     ethr =  7.98E-04,  avg # of iterations =  2.7

     negative rho (up, down):  1.159E-04 0.000E+00
 
     Adding external electric field

     Computed dipole along edir(3) : 
        Dipole                1.3221 Ry au,          3.3603 Debye
        Dipole field          0.0025 Ry au, 
 
        Potential amp.       -0.2313 Ry
        Total length         46.3494 bohr
 

     total cpu time spent up to now is      465.3 secs

     total energy              =   -2971.64031815 Ry
     estimated scf accuracy    <       2.58391467 Ry

     iteration # 23     ecut=    29.40 Ry     beta= 0.05
     Davidson diagonalization with overlap
     ethr =  6.44E-04,  avg # of iterations =  2.5

     negative rho (up, down):  2.571E-04 0.000E+00
 
     Adding external electric field

     Computed dipole along edir(3) : 
        Dipole                1.1343 Ry au,          2.8831 Debye
        Dipole field          0.0021 Ry au, 
 
        Potential amp.       -0.1984 Ry
        Total length         46.3494 bohr
 

     total cpu time spent up to now is      476.1 secs

     total energy              =   -2971.47001203 Ry
     estimated scf accuracy    <       3.64334843 Ry

     iteration # 24     ecut=    29.40 Ry     beta= 0.05
     Davidson diagonalization with overlap
     ethr =  6.44E-04,  avg # of iterations =  1.9

     negative rho (up, down):  4.731E-04 0.000E+00
 
     Adding external electric field

     Computed dipole along edir(3) : 
        Dipole                1.0255 Ry au,          2.6067 Debye
        Dipole field          0.0019 Ry au, 
 
        Potential amp.       -0.1794 Ry
        Total length         46.3494 bohr
 

     total cpu time spent up to now is      486.7 secs

     total energy              =   -2971.51736506 Ry
     estimated scf accuracy    <       0.92838857 Ry

     iteration # 25     ecut=    29.40 Ry     beta= 0.05
     Davidson diagonalization with overlap
     c_bands:  2 eigenvalues not converged
     c_bands:  3 eigenvalues not converged
     c_bands:  1 eigenvalues not converged
     ethr =  2.32E-04,  avg # of iterations = 11.5

     negative rho (up, down):  4.288E-04 0.000E+00
 
     Adding external electric field

     Computed dipole along edir(3) : 
        Dipole                0.7753 Ry au,          1.9707 Debye
        Dipole field          0.0015 Ry au, 
 
        Potential amp.       -0.1356 Ry
        Total length         46.3494 bohr
 

     total cpu time spent up to now is      501.4 secs

     total energy              =   -2971.61311931 Ry
     estimated scf accuracy    <       1.49794659 Ry

     iteration # 26     ecut=    29.40 Ry     beta= 0.05
     Davidson diagonalization with overlap
     ethr =  2.32E-04,  avg # of iterations =  2.5

     negative rho (up, down):  5.309E-04 0.000E+00
 
     Adding external electric field

     Computed dipole along edir(3) : 
        Dipole                1.3887 Ry au,          3.5298 Debye
        Dipole field          0.0026 Ry au, 
 
        Potential amp.       -0.2429 Ry
        Total length         46.3494 bohr
 

     total cpu time spent up to now is      511.8 secs

     total energy              =   -2971.70754663 Ry
     estimated scf accuracy    <       1.60156525 Ry

     iteration # 27     ecut=    29.40 Ry     beta= 0.05
     Davidson diagonalization with overlap
     c_bands:  4 eigenvalues not converged
     ethr =  2.32E-04,  avg # of iterations =  7.2

     negative rho (up, down):  6.558E-04 0.000E+00
 
     Adding external electric field

     Computed dipole along edir(3) : 
        Dipole                1.0963 Ry au,          2.7865 Debye
        Dipole field          0.0021 Ry au, 
 
        Potential amp.       -0.1918 Ry
        Total length         46.3494 bohr
 

     total cpu time spent up to now is      523.9 secs

     total energy              =   -2971.70326896 Ry
     estimated scf accuracy    <       2.46065564 Ry

     iteration # 28     ecut=    29.40 Ry     beta= 0.05
     Davidson diagonalization with overlap
     c_bands:  2 eigenvalues not converged
     ethr =  2.32E-04,  avg # of iterations =  3.1

     negative rho (up, down):  1.554E-03 0.000E+00
 
     Adding external electric field

     Computed dipole along edir(3) : 
        Dipole                0.6141 Ry au,          1.5610 Debye
        Dipole field          0.0012 Ry au, 
 
        Potential amp.       -0.1074 Ry
        Total length         46.3494 bohr
 

     total cpu time spent up to now is      534.4 secs

     total energy              =   -2971.60639086 Ry
     estimated scf accuracy    <       2.34485479 Ry

     iteration # 29     ecut=    29.40 Ry     beta= 0.05
     Davidson diagonalization with overlap
     ethr =  2.32E-04,  avg # of iterations =  5.3

     negative rho (up, down):  1.105E-03 0.000E+00
 
     Adding external electric field

     Computed dipole along edir(3) : 
        Dipole                0.5996 Ry au,          1.5241 Debye
        Dipole field          0.0011 Ry au, 
 
        Potential amp.       -0.1049 Ry
        Total length         46.3494 bohr
 

     total cpu time spent up to now is      545.8 secs

     total energy              =   -2971.60404515 Ry
     estimated scf accuracy    <       1.20763691 Ry

     iteration # 30     ecut=    29.40 Ry     beta= 0.05
     Davidson diagonalization with overlap
     ethr =  2.32E-04,  avg # of iterations =  1.5

     negative rho (up, down):  9.208E-04 0.000E+00
 
     Adding external electric field

     Computed dipole along edir(3) : 
        Dipole                1.2694 Ry au,          3.2265 Debye
        Dipole field          0.0024 Ry au, 
 
        Potential amp.       -0.2221 Ry
        Total length         46.3494 bohr
 

     total cpu time spent up to now is      555.8 secs

     total energy              =   -2971.57812244 Ry
     estimated scf accuracy    <       0.74413311 Ry

     iteration # 31     ecut=    29.40 Ry     beta= 0.05
     Davidson diagonalization with overlap
     c_bands:  1 eigenvalues not converged
     c_bands:  1 eigenvalues not converged
     ethr =  1.86E-04,  avg # of iterations =  8.9

     negative rho (up, down):  8.248E-04 0.000E+00
 
     Adding external electric field

     Computed dipole along edir(3) : 
        Dipole                0.7392 Ry au,          1.8789 Debye
        Dipole field          0.0014 Ry au, 
 
        Potential amp.       -0.1293 Ry
        Total length         46.3494 bohr
 

     total cpu time spent up to now is      568.5 secs

     total energy              =   -2971.50536561 Ry
     estimated scf accuracy    <       7.86472445 Ry

     iteration # 32     ecut=    29.40 Ry     beta= 0.05
     Davidson diagonalization with overlap
     ethr =  1.86E-04,  avg # of iterations =  4.2

     negative rho (up, down):  8.380E-04 0.000E+00
 
     Adding external electric field

     Computed dipole along edir(3) : 
        Dipole                1.0534 Ry au,          2.6776 Debye
        Dipole field          0.0020 Ry au, 
 
        Potential amp.       -0.1843 Ry
        Total length         46.3494 bohr
 

     total cpu time spent up to now is      579.7 secs

     total energy              =   -2971.58613787 Ry
     estimated scf accuracy    <       1.71062011 Ry

     iteration # 33     ecut=    29.40 Ry     beta= 0.05
     Davidson diagonalization with overlap
     ethr =  1.86E-04,  avg # of iterations =  5.2

     negative rho (up, down):  1.903E-03 0.000E+00
 
     Adding external electric field

     Computed dipole along edir(3) : 
        Dipole                0.4355 Ry au,          1.1069 Debye
        Dipole field          0.0008 Ry au, 
 
        Potential amp.       -0.0762 Ry
        Total length         46.3494 bohr
 

     total cpu time spent up to now is      591.2 secs

     total energy              =   -2971.42823492 Ry
     estimated scf accuracy    <       2.97853284 Ry

     iteration # 34     ecut=    29.40 Ry     beta= 0.05
     Davidson diagonalization with overlap
     c_bands:  1 eigenvalues not converged
     c_bands:  1 eigenvalues not converged
     c_bands:  2 eigenvalues not converged
     ethr =  1.86E-04,  avg # of iterations = 12.7

     negative rho (up, down):  2.264E-03 0.000E+00
 
     Adding external electric field

     Computed dipole along edir(3) : 
        Dipole                0.3303 Ry au,          0.8396 Debye
        Dipole field          0.0006 Ry au, 
 
        Potential amp.       -0.0578 Ry
        Total length         46.3494 bohr
 

     total cpu time spent up to now is      605.0 secs

     total energy              =   -2971.56389495 Ry
     estimated scf accuracy    <       0.66111907 Ry

     iteration # 35     ecut=    29.40 Ry     beta= 0.05
     Davidson diagonalization with overlap
     c_bands:  1 eigenvalues not converged
     ethr =  1.65E-04,  avg # of iterations =  4.7

     negative rho (up, down):  2.878E-03 0.000E+00
 
     Adding external electric field

     Computed dipole along edir(3) : 
        Dipole                0.3660 Ry au,          0.9302 Debye
        Dipole field          0.0007 Ry au, 
 
        Potential amp.       -0.0640 Ry
        Total length         46.3494 bohr
 

     total cpu time spent up to now is      616.0 secs

     total energy              =   -2971.48684659 Ry
     estimated scf accuracy    <       0.54886018 Ry

     iteration # 36     ecut=    29.40 Ry     beta= 0.05
     Davidson diagonalization with overlap
     c_bands:  2 eigenvalues not converged
     c_bands:  2 eigenvalues not converged
     c_bands:  1 eigenvalues not converged
     c_bands:  2 eigenvalues not converged
     c_bands:  5 eigenvalues not converged
     c_bands:  4 eigenvalues not converged
     ethr =  1.37E-04,  avg # of iterations = 21.3

     negative rho (up, down):  3.904E-03 0.000E+00
 
     Adding external electric field

     Computed dipole along edir(3) : 
        Dipole                0.1667 Ry au,          0.4237 Debye
        Dipole field          0.0003 Ry au, 
 
        Potential amp.       -0.0292 Ry
        Total length         46.3494 bohr
 

     total cpu time spent up to now is      635.1 secs

     total energy              =   -2971.54448717 Ry
     estimated scf accuracy    <       0.46931828 Ry

     iteration # 37     ecut=    29.40 Ry     beta= 0.05
     Davidson diagonalization with overlap
     c_bands:  3 eigenvalues not converged
     ethr =  1.17E-04,  avg # of iterations =  7.3

     negative rho (up, down):  5.481E-03 0.000E+00
 
     Adding external electric field

     Computed dipole along edir(3) : 
        Dipole                0.0236 Ry au,          0.0601 Debye
        Dipole field          0.0000 Ry au, 
 
        Potential amp.       -0.0041 Ry
        Total length         46.3494 bohr
 

     total cpu time spent up to now is      646.9 secs

     total energy              =   -2971.48908165 Ry
     estimated scf accuracy    <       0.48337760 Ry

     iteration # 38     ecut=    29.40 Ry     beta= 0.05
     Davidson diagonalization with overlap
     c_bands:  2 eigenvalues not converged
     c_bands:  1 eigenvalues not converged
     ethr =  1.17E-04,  avg # of iterations = 10.5

     negative rho (up, down):  3.786E-03 0.000E+00
 
     Adding external electric field

     Computed dipole along edir(3) : 
        Dipole                0.2269 Ry au,          0.5768 Debye
        Dipole field          0.0004 Ry au, 
 
        Potential amp.       -0.0397 Ry
        Total length         46.3494 bohr
 

     total cpu time spent up to now is      660.0 secs

     total energy              =   -2971.54476806 Ry
     estimated scf accuracy    <       0.31151582 Ry

     iteration # 39     ecut=    29.40 Ry     beta= 0.05
     Davidson diagonalization with overlap
     c_bands:  3 eigenvalues not converged
     c_bands:  1 eigenvalues not converged
     c_bands:  3 eigenvalues not converged
     ethr =  7.77E-05,  avg # of iterations =  8.9

     negative rho (up, down):  3.967E-03 0.000E+00
 
     Adding external electric field

     Computed dipole along edir(3) : 
        Dipole                0.2578 Ry au,          0.6552 Debye
        Dipole field          0.0005 Ry au, 
 
        Potential amp.       -0.0451 Ry
        Total length         46.3494 bohr
 

     total cpu time spent up to now is      672.7 secs

     total energy              =   -2971.54021857 Ry
     estimated scf accuracy    <       0.28517430 Ry

     iteration # 40     ecut=    29.40 Ry     beta= 0.05
     Davidson diagonalization with overlap
     c_bands:  1 eigenvalues not converged
     ethr =  7.11E-05,  avg # of iterations =  6.4

     negative rho (up, down):  3.839E-03 0.000E+00
 
     Adding external electric field

     Computed dipole along edir(3) : 
        Dipole                0.2589 Ry au,          0.6580 Debye
        Dipole field          0.0005 Ry au, 
 
        Potential amp.       -0.0453 Ry
        Total length         46.3494 bohr
 

     total cpu time spent up to now is      684.1 secs

     total energy              =   -2971.54484430 Ry
     estimated scf accuracy    <       0.23532222 Ry

     iteration # 41     ecut=    29.40 Ry     beta= 0.05
     Davidson diagonalization with overlap
     ethr =  5.87E-05,  avg # of iterations =  1.1

     negative rho (up, down):  2.829E-03 0.000E+00
 
     Adding external electric field

     Computed dipole along edir(3) : 
        Dipole                0.4191 Ry au,          1.0652 Debye
        Dipole field          0.0008 Ry au, 
 
        Potential amp.       -0.0733 Ry
        Total length         46.3494 bohr
 

     total cpu time spent up to now is      694.0 secs

     total energy              =   -2971.53155289 Ry
     estimated scf accuracy    <       0.24884338 Ry

     iteration # 42     ecut=    29.40 Ry     beta= 0.05
     Davidson diagonalization with overlap
     ethr =  5.87E-05,  avg # of iterations =  8.2

     negative rho (up, down):  3.206E-03 0.000E+00
 
     Adding external electric field

     Computed dipole along edir(3) : 
        Dipole                0.2909 Ry au,          0.7394 Debye
        Dipole field          0.0005 Ry au, 
 
        Potential amp.       -0.0509 Ry
        Total length         46.3494 bohr
 

     total cpu time spent up to now is      706.6 secs

     total energy              =   -2971.53869998 Ry
     estimated scf accuracy    <       0.06062532 Ry

     iteration # 43     ecut=    29.40 Ry     beta= 0.05
     Davidson diagonalization with overlap
     c_bands:  1 eigenvalues not converged
     c_bands:  3 eigenvalues not converged
     c_bands:  2 eigenvalues not converged
     c_bands:  1 eigenvalues not converged
     c_bands:  3 eigenvalues not converged
     c_bands:  1 eigenvalues not converged
     ethr =  1.51E-05,  avg # of iterations = 17.3

     negative rho (up, down):  3.518E-03 0.000E+00
 
     Adding external electric field

     Computed dipole along edir(3) : 
        Dipole                0.4654 Ry au,          1.1830 Debye
        Dipole field          0.0009 Ry au, 
 
        Potential amp.       -0.0814 Ry
        Total length         46.3494 bohr
 

     total cpu time spent up to now is      722.7 secs

     total energy              =   -2971.54318616 Ry
     estimated scf accuracy    <       0.14096312 Ry

     iteration # 44     ecut=    29.40 Ry     beta= 0.05
     Davidson diagonalization with overlap
     ethr =  1.51E-05,  avg # of iterations =  7.8

     negative rho (up, down):  5.902E-03 0.000E+00
 
     Adding external electric field

     Computed dipole along edir(3) : 
        Dipole                0.7837 Ry au,          1.9919 Debye
        Dipole field          0.0015 Ry au, 
 
        Potential amp.       -0.1371 Ry
        Total length         46.3494 bohr
 

     total cpu time spent up to now is      734.7 secs

     total energy              =   -2971.55156080 Ry
     estimated scf accuracy    <       0.13991791 Ry

     iteration # 45     ecut=    29.40 Ry     beta= 0.05
     Davidson diagonalization with overlap
     c_bands:  3 eigenvalues not converged
     c_bands:  5 eigenvalues not converged
     c_bands:  1 eigenvalues not converged
     c_bands:  2 eigenvalues not converged
     c_bands:  4 eigenvalues not converged
     c_bands:  4 eigenvalues not converged
     c_bands:  3 eigenvalues not converged
     c_bands:  2 eigenvalues not converged
     ethr =  1.51E-05,  avg # of iterations = 20.5

     negative rho (up, down):  4.690E-03 0.000E+00
 
     Adding external electric field

     Computed dipole along edir(3) : 
        Dipole                1.0586 Ry au,          2.6908 Debye
        Dipole field          0.0020 Ry au, 
 
        Potential amp.       -0.1852 Ry
        Total length         46.3494 bohr
 

     total cpu time spent up to now is      753.3 secs

     total energy              =   -2971.56468486 Ry
     estimated scf accuracy    <       0.30133032 Ry

     iteration # 46     ecut=    29.40 Ry     beta= 0.05
     Davidson diagonalization with overlap
     c_bands:  1 eigenvalues not converged
     c_bands:  1 eigenvalues not converged
     c_bands:  1 eigenvalues not converged
     c_bands:  1 eigenvalues not converged
     ethr =  1.51E-05,  avg # of iterations = 18.8

     negative rho (up, down):  5.756E-03 0.000E+00
 
     Adding external electric field

     Computed dipole along edir(3) : 
        Dipole                1.3216 Ry au,          3.3591 Debye
        Dipole field          0.0025 Ry au, 
 
        Potential amp.       -0.2312 Ry
        Total length         46.3494 bohr
 

     total cpu time spent up to now is      771.4 secs

     total energy              =   -2971.64080913 Ry
     estimated scf accuracy    <       1.83466901 Ry

     iteration # 47     ecut=    29.40 Ry     beta= 0.05
     Davidson diagonalization with overlap
     c_bands:  1 eigenvalues not converged
     ethr =  1.51E-05,  avg # of iterations = 11.5

     negative rho (up, down):  5.602E-03 0.000E+00
 
     Adding external electric field

     Computed dipole along edir(3) : 
        Dipole                1.1976 Ry au,          3.0441 Debye
        Dipole field          0.0023 Ry au, 
 
        Potential amp.       -0.2095 Ry
        Total length         46.3494 bohr
 

     total cpu time spent up to now is      785.2 secs

     total energy              =   -2971.61458247 Ry
     estimated scf accuracy    <       2.32018190 Ry

     iteration # 48     ecut=    29.40 Ry     beta= 0.05
     Davidson diagonalization with overlap
     ethr =  1.51E-05,  avg # of iterations =  4.5

     negative rho (up, down):  6.737E-03 0.000E+00
 
     Adding external electric field

     Computed dipole along edir(3) : 
        Dipole                1.2460 Ry au,          3.1670 Debye
        Dipole field          0.0024 Ry au, 
 
        Potential amp.       -0.2180 Ry
        Total length         46.3494 bohr
 

     total cpu time spent up to now is      796.5 secs

     total energy              =   -2971.63418348 Ry
     estimated scf accuracy    <       2.23042555 Ry

     iteration # 49     ecut=    29.40 Ry     beta= 0.05
     Davidson diagonalization with overlap
     c_bands:  1 eigenvalues not converged
     c_bands:  1 eigenvalues not converged
     c_bands:  2 eigenvalues not converged
     c_bands:  1 eigenvalues not converged
     c_bands:  1 eigenvalues not converged
     c_bands:  1 eigenvalues not converged
     c_bands:  4 eigenvalues not converged
     ethr =  1.51E-05,  avg # of iterations = 16.1

     negative rho (up, down):  6.221E-03 0.000E+00
 
     Adding external electric field

     Computed dipole along edir(3) : 
        Dipole                1.1279 Ry au,          2.8669 Debye
        Dipole field          0.0021 Ry au, 
 
        Potential amp.       -0.1973 Ry
        Total length         46.3494 bohr
 

     total cpu time spent up to now is      812.5 secs

     total energy              =   -2971.61023696 Ry
     estimated scf accuracy    <       2.27057064 Ry

     iteration # 50     ecut=    29.40 Ry     beta= 0.05
     Davidson diagonalization with overlap
     c_bands:  1 eigenvalues not converged
     c_bands:  1 eigenvalues not converged
     ethr =  1.51E-05,  avg # of iterations =  7.3

     negative rho (up, down):  4.231E-03 0.000E+00
 
     Adding external electric field

     Computed dipole along edir(3) : 
        Dipole                0.6557 Ry au,          1.6667 Debye
        Dipole field          0.0012 Ry au, 
 
        Potential amp.       -0.1147 Ry
        Total length         46.3494 bohr
 

     total cpu time spent up to now is      824.7 secs

     total energy              =   -2971.50206541 Ry
     estimated scf accuracy    <       2.19300836 Ry

     iteration # 51     ecut=    29.40 Ry     beta= 0.05
     Davidson diagonalization with overlap
     ethr =  1.51E-05,  avg # of iterations = 11.9

     negative rho (up, down):  4.269E-03 0.000E+00
 
     Adding external electric field

     Computed dipole along edir(3) : 
        Dipole                0.3291 Ry au,          0.8365 Debye
        Dipole field          0.0006 Ry au, 
 
        Potential amp.       -0.0576 Ry
        Total length         46.3494 bohr
 

     total cpu time spent up to now is      838.9 secs

     total energy              =   -2971.52926355 Ry
     estimated scf accuracy    <       0.04242922 Ry

     iteration # 52     ecut=    29.40 Ry     beta= 0.05
     Davidson diagonalization with overlap
     c_bands:  3 eigenvalues not converged
     c_bands:  1 eigenvalues not converged
     c_bands:  2 eigenvalues not converged
     c_bands:  2 eigenvalues not converged
     c_bands:  2 eigenvalues not converged
     c_bands:  4 eigenvalues not converged
     c_bands:  2 eigenvalues not converged
     c_bands:  3 eigenvalues not converged
     c_bands:  2 eigenvalues not converged
     c_bands:  1 eigenvalues not converged
     ethr =  1.06E-05,  avg # of iterations = 20.0

     negative rho (up, down):  6.846E-03 0.000E+00
 
     Adding external electric field

     Computed dipole along edir(3) : 
        Dipole                0.4467 Ry au,          1.1354 Debye
        Dipole field          0.0008 Ry au, 
 
        Potential amp.       -0.0781 Ry
        Total length         46.3494 bohr
 

     total cpu time spent up to now is      858.0 secs

     total energy              =   -2971.53909107 Ry
     estimated scf accuracy    <       0.03088946 Ry

     iteration # 53     ecut=    29.40 Ry     beta= 0.05
     Davidson diagonalization with overlap
     c_bands:  1 eigenvalues not converged
     c_bands:  4 eigenvalues not converged
     c_bands:  1 eigenvalues not converged
     c_bands:  2 eigenvalues not converged
     c_bands:  2 eigenvalues not converged
     c_bands:  3 eigenvalues not converged
     c_bands:  1 eigenvalues not converged
     c_bands:  1 eigenvalues not converged
     c_bands:  2 eigenvalues not converged
     ethr =  7.70E-06,  avg # of iterations = 20.0

     negative rho (up, down):  4.862E-03 0.000E+00
 
     Adding external electric field

     Computed dipole along edir(3) : 
        Dipole                0.2710 Ry au,          0.6887 Debye
        Dipole field          0.0005 Ry au, 
 
        Potential amp.       -0.0474 Ry
        Total length         46.3494 bohr
 

     total cpu time spent up to now is      876.1 secs

     total energy              =   -2971.52934475 Ry
     estimated scf accuracy    <       0.19354582 Ry

     iteration # 54     ecut=    29.40 Ry     beta= 0.05
     Davidson diagonalization with overlap
     c_bands:  1 eigenvalues not converged
     c_bands:  1 eigenvalues not converged
     c_bands:  2 eigenvalues not converged
     c_bands:  1 eigenvalues not converged
     c_bands:  1 eigenvalues not converged
     c_bands:  1 eigenvalues not converged
     c_bands:  1 eigenvalues not converged
     ethr =  7.70E-06,  avg # of iterations = 19.3

     negative rho (up, down):  5.736E-03 0.000E+00
 
     Adding external electric field

     Computed dipole along edir(3) : 
        Dipole                0.2396 Ry au,          0.6089 Debye
        Dipole field          0.0005 Ry au, 
 
        Potential amp.       -0.0419 Ry
        Total length         46.3494 bohr
 

     total cpu time spent up to now is      893.0 secs

     total energy              =   -2971.53581930 Ry
     estimated scf accuracy    <       0.01420425 Ry

     iteration # 55     ecut=    29.40 Ry     beta= 0.05
     Davidson diagonalization with overlap
     c_bands:  3 eigenvalues not converged
     c_bands:  2 eigenvalues not converged
     c_bands:  2 eigenvalues not converged
     c_bands:  1 eigenvalues not converged
     c_bands:  1 eigenvalues not converged
     c_bands:  1 eigenvalues not converged
     c_bands:  1 eigenvalues not converged
     ethr =  3.54E-06,  avg # of iterations = 17.6

     negative rho (up, down):  9.720E-03 0.000E+00
 
     Adding external electric field

     Computed dipole along edir(3) : 
        Dipole                0.3668 Ry au,          0.9323 Debye
        Dipole field          0.0007 Ry au, 
 
        Potential amp.       -0.0642 Ry
        Total length         46.3494 bohr
 

     total cpu time spent up to now is      910.0 secs

     total energy              =   -2971.53156148 Ry
     estimated scf accuracy    <       0.05886203 Ry

     iteration # 56     ecut=    29.40 Ry     beta= 0.05
     Davidson diagonalization with overlap
     c_bands:  3 eigenvalues not converged
     c_bands:  2 eigenvalues not converged
     c_bands:  2 eigenvalues not converged
     c_bands:  5 eigenvalues not converged
     c_bands:  2 eigenvalues not converged
     c_bands:  4 eigenvalues not converged
     c_bands:  1 eigenvalues not converged
     ethr =  3.54E-06,  avg # of iterations = 19.9

     negative rho (up, down):  8.524E-03 0.000E+00
 
     Adding external electric field

     Computed dipole along edir(3) : 
        Dipole                0.2795 Ry au,          0.7103 Debye
        Dipole field          0.0005 Ry au, 
 
        Potential amp.       -0.0489 Ry
        Total length         46.3494 bohr
 

     total cpu time spent up to now is      932.7 secs

     total energy              =   -2971.53383094 Ry
     estimated scf accuracy    <       0.35033384 Ry

     iteration # 57     ecut=    29.40 Ry     beta= 0.05
     Davidson diagonalization with overlap
     c_bands:  2 eigenvalues not converged
     c_bands:  2 eigenvalues not converged
     c_bands:  1 eigenvalues not converged
     c_bands:  1 eigenvalues not converged
     c_bands:  1 eigenvalues not converged
     c_bands:  1 eigenvalues not converged
     ethr =  3.54E-06,  avg # of iterations = 18.6

     negative rho (up, down):  1.010E-02 0.000E+00
 
     Adding external electric field

     Computed dipole along edir(3) : 
        Dipole                0.2451 Ry au,          0.6229 Debye
        Dipole field          0.0005 Ry au, 
 
        Potential amp.       -0.0429 Ry
        Total length         46.3494 bohr
 

     total cpu time spent up to now is      950.5 secs

     total energy              =   -2971.53670673 Ry
     estimated scf accuracy    <       0.03531993 Ry

     iteration # 58     ecut=    29.40 Ry     beta= 0.05
     Davidson diagonalization with overlap
     c_bands:  3 eigenvalues not converged
     c_bands:  2 eigenvalues not converged
     c_bands:  3 eigenvalues not converged
     c_bands:  1 eigenvalues not converged
     c_bands:  1 eigenvalues not converged
     c_bands:  3 eigenvalues not converged
     ethr =  3.54E-06,  avg # of iterations = 17.2

     negative rho (up, down):  1.165E-02 0.000E+00
 
     Adding external electric field

     Computed dipole along edir(3) : 
        Dipole                0.1871 Ry au,          0.4755 Debye
        Dipole field          0.0004 Ry au, 
 
        Potential amp.       -0.0327 Ry
        Total length         46.3494 bohr
 

     total cpu time spent up to now is      966.7 secs

     total energy              =   -2971.53798828 Ry
     estimated scf accuracy    <       0.00907184 Ry

     iteration # 59     ecut=    29.40 Ry     beta= 0.05
     Davidson diagonalization with overlap
     c_bands:  1 eigenvalues not converged
     c_bands:  1 eigenvalues not converged
     c_bands:  1 eigenvalues not converged
     c_bands:  1 eigenvalues not converged
     ethr =  2.26E-06,  avg # of iterations = 16.2

     negative rho (up, down):  1.093E-02 0.000E+00
 
     Adding external electric field

     Computed dipole along edir(3) : 
        Dipole                0.3102 Ry au,          0.7884 Debye
        Dipole field          0.0006 Ry au, 
 
        Potential amp.       -0.0543 Ry
        Total length         46.3494 bohr
 

     total cpu time spent up to now is      982.7 secs

     total energy              =   -2971.53761121 Ry
     estimated scf accuracy    <       0.01051111 Ry

     iteration # 60     ecut=    29.40 Ry     beta= 0.05
     Davidson diagonalization with overlap
     ethr =  2.26E-06,  avg # of iterations =  7.6

     negative rho (up, down):  1.127E-02 0.000E+00
 
     Adding external electric field

     Computed dipole along edir(3) : 
        Dipole                0.4695 Ry au,          1.1933 Debye
        Dipole field          0.0009 Ry au, 
 
        Potential amp.       -0.0821 Ry
        Total length         46.3494 bohr
 

     total cpu time spent up to now is      995.0 secs

     total energy              =   -2971.53755388 Ry
     estimated scf accuracy    <       0.00160662 Ry

     iteration # 61     ecut=    29.40 Ry     beta= 0.05
     Davidson diagonalization with overlap
     c_bands:  2 eigenvalues not converged
     c_bands:  1 eigenvalues not converged
     c_bands:  2 eigenvalues not converged
     c_bands:  1 eigenvalues not converged
     c_bands:  1 eigenvalues not converged
     ethr =  4.01E-07,  avg # of iterations = 19.3

     negative rho (up, down):  1.107E-02 0.000E+00
 
     Adding external electric field

     Computed dipole along edir(3) : 
        Dipole                0.4498 Ry au,          1.1432 Debye
        Dipole field          0.0008 Ry au, 
 
        Potential amp.       -0.0787 Ry
        Total length         46.3494 bohr
 

     total cpu time spent up to now is     1016.8 secs

     total energy              =   -2971.53803018 Ry
     estimated scf accuracy    <       0.00999818 Ry

     iteration # 62     ecut=    29.40 Ry     beta= 0.05
     Davidson diagonalization with overlap
     ethr =  4.01E-07,  avg # of iterations =  2.5

     negative rho (up, down):  1.093E-02 0.000E+00
 
     Adding external electric field

     Computed dipole along edir(3) : 
        Dipole                0.4258 Ry au,          1.0823 Debye
        Dipole field          0.0008 Ry au, 
 
        Potential amp.       -0.0745 Ry
        Total length         46.3494 bohr
 

     total cpu time spent up to now is     1027.2 secs

     total energy              =   -2971.53792555 Ry
     estimated scf accuracy    <       0.00490995 Ry

     iteration # 63     ecut=    29.40 Ry     beta= 0.05
     Davidson diagonalization with overlap
     ethr =  4.01E-07,  avg # of iterations =  9.5

     negative rho (up, down):  1.189E-02 0.000E+00
 
     Adding external electric field

     Computed dipole along edir(3) : 
        Dipole                0.4297 Ry au,          1.0922 Debye
        Dipole field          0.0008 Ry au, 
 
        Potential amp.       -0.0752 Ry
        Total length         46.3494 bohr
 

     total cpu time spent up to now is     1040.1 secs

     total energy              =   -2971.53793868 Ry
     estimated scf accuracy    <       0.00159259 Ry

     iteration # 64     ecut=    29.40 Ry     beta= 0.05
     Davidson diagonalization with overlap
     ethr =  3.97E-07,  avg # of iterations = 10.1

     negative rho (up, down):  1.279E-02 0.000E+00
 
     Adding external electric field

     Computed dipole along edir(3) : 
        Dipole                0.4213 Ry au,          1.0710 Debye
        Dipole field          0.0008 Ry au, 
 
        Potential amp.       -0.0737 Ry
        Total length         46.3494 bohr
 

     total cpu time spent up to now is     1052.7 secs

     total energy              =   -2971.53799204 Ry
     estimated scf accuracy    <       0.00023499 Ry

     iteration # 65     ecut=    29.40 Ry     beta= 0.05
     Davidson diagonalization with overlap
     ethr =  5.86E-08,  avg # of iterations = 15.9

     negative rho (up, down):  1.276E-02 0.000E+00
 
     Adding external electric field

     Computed dipole along edir(3) : 
        Dipole                0.4176 Ry au,          1.0616 Debye
        Dipole field          0.0008 Ry au, 
 
        Potential amp.       -0.0731 Ry
        Total length         46.3494 bohr
 

     total cpu time spent up to now is     1072.4 secs

     total energy              =   -2971.53803224 Ry
     estimated scf accuracy    <       0.00011319 Ry

     iteration # 66     ecut=    29.40 Ry     beta= 0.05
     Davidson diagonalization with overlap
     ethr =  2.82E-08,  avg # of iterations =  2.0

     negative rho (up, down):  1.246E-02 0.000E+00
 
     Adding external electric field

     Computed dipole along edir(3) : 
        Dipole                0.4168 Ry au,          1.0595 Debye
        Dipole field          0.0008 Ry au, 
 
        Potential amp.       -0.0729 Ry
        Total length         46.3494 bohr
 

     total cpu time spent up to now is     1083.1 secs

     total energy              =   -2971.53802274 Ry
     estimated scf accuracy    <       0.00009444 Ry

     iteration # 67     ecut=    29.40 Ry     beta= 0.05
     Davidson diagonalization with overlap
     ethr =  2.36E-08,  avg # of iterations =  3.2

     negative rho (up, down):  1.224E-02 0.000E+00
 
     Adding external electric field

     Computed dipole along edir(3) : 
        Dipole                0.4201 Ry au,          1.0677 Debye
        Dipole field          0.0008 Ry au, 
 
        Potential amp.       -0.0735 Ry
        Total length         46.3494 bohr
 

     total cpu time spent up to now is     1093.9 secs

     total energy              =   -2971.53801309 Ry
     estimated scf accuracy    <       0.00008450 Ry

     iteration # 68     ecut=    29.40 Ry     beta= 0.05
     Davidson diagonalization with overlap
     ethr =  2.11E-08,  avg # of iterations = 10.3

     negative rho (up, down):  1.276E-02 0.000E+00
 
     Adding external electric field

     Computed dipole along edir(3) : 
        Dipole                0.4356 Ry au,          1.1071 Debye
        Dipole field          0.0008 Ry au, 
 
        Potential amp.       -0.0762 Ry
        Total length         46.3494 bohr
 

     total cpu time spent up to now is     1107.1 secs

     total energy              =   -2971.53803008 Ry
     estimated scf accuracy    <       0.00006977 Ry

     iteration # 69     ecut=    29.40 Ry     beta= 0.05
     Davidson diagonalization with overlap
     ethr =  1.74E-08,  avg # of iterations =  6.0

     negative rho (up, down):  1.272E-02 0.000E+00
 
     Adding external electric field

     Computed dipole along edir(3) : 
        Dipole                0.4335 Ry au,          1.1020 Debye
        Dipole field          0.0008 Ry au, 
 
        Potential amp.       -0.0758 Ry
        Total length         46.3494 bohr
 

     total cpu time spent up to now is     1119.2 secs

     total energy              =   -2971.53803328 Ry
     estimated scf accuracy    <       0.00005829 Ry

     iteration # 70     ecut=    29.40 Ry     beta= 0.05
     Davidson diagonalization with overlap
     ethr =  1.45E-08,  avg # of iterations =  3.4

     negative rho (up, down):  1.276E-02 0.000E+00
 
     Adding external electric field

     Computed dipole along edir(3) : 
        Dipole                0.4288 Ry au,          1.0899 Debye
        Dipole field          0.0008 Ry au, 
 
        Potential amp.       -0.0750 Ry
        Total length         46.3494 bohr
 

     total cpu time spent up to now is     1130.3 secs

     total energy              =   -2971.53803221 Ry
     estimated scf accuracy    <       0.00004420 Ry

     iteration # 71     ecut=    29.40 Ry     beta= 0.05
     Davidson diagonalization with overlap
     ethr =  1.10E-08,  avg # of iterations =  7.4

     negative rho (up, down):  1.307E-02 0.000E+00
 
     Adding external electric field

     Computed dipole along edir(3) : 
        Dipole                0.4403 Ry au,          1.1192 Debye
        Dipole field          0.0008 Ry au, 
 
        Potential amp.       -0.0770 Ry
        Total length         46.3494 bohr
 

     total cpu time spent up to now is     1142.4 secs

     total energy              =   -2971.53803846 Ry
     estimated scf accuracy    <       0.00002480 Ry

     iteration # 72     ecut=    29.40 Ry     beta= 0.05
     Davidson diagonalization with overlap
     ethr =  6.18E-09,  avg # of iterations =  6.3

     negative rho (up, down):  1.328E-02 0.000E+00
 
     Adding external electric field

     Computed dipole along edir(3) : 
        Dipole                0.4420 Ry au,          1.1234 Debye
        Dipole field          0.0008 Ry au, 
 
        Potential amp.       -0.0773 Ry
        Total length         46.3494 bohr
 

     total cpu time spent up to now is     1154.5 secs

     total energy              =   -2971.53803978 Ry
     estimated scf accuracy    <       0.00001371 Ry

     iteration # 73     ecut=    29.40 Ry     beta= 0.05
     Davidson diagonalization with overlap
     ethr =  3.42E-09,  avg # of iterations = 11.7

     negative rho (up, down):  1.327E-02 0.000E+00
 
     Adding external electric field

     Computed dipole along edir(3) : 
        Dipole                0.4421 Ry au,          1.1238 Debye
        Dipole field          0.0008 Ry au, 
 
        Potential amp.       -0.0773 Ry
        Total length         46.3494 bohr
 

     total cpu time spent up to now is     1172.8 secs

     total energy              =   -2971.53804573 Ry
     estimated scf accuracy    <       0.00001139 Ry

     iteration # 74     ecut=    29.40 Ry     beta= 0.05
     Davidson diagonalization with overlap
     ethr =  2.84E-09,  avg # of iterations =  1.0

     negative rho (up, down):  1.315E-02 0.000E+00
 
     Adding external electric field

     Computed dipole along edir(3) : 
        Dipole                0.4426 Ry au,          1.1250 Debye
        Dipole field          0.0008 Ry au, 
 
        Potential amp.       -0.0774 Ry
        Total length         46.3494 bohr
 

     total cpu time spent up to now is     1182.5 secs

     total energy              =   -2971.53804466 Ry
     estimated scf accuracy    <       0.00001197 Ry

     iteration # 75     ecut=    29.40 Ry     beta= 0.05
     Davidson diagonalization with overlap
     ethr =  2.84E-09,  avg # of iterations =  5.0

     negative rho (up, down):  1.320E-02 0.000E+00
 
     Adding external electric field

     Computed dipole along edir(3) : 
        Dipole                0.4431 Ry au,          1.1262 Debye
        Dipole field          0.0008 Ry au, 
 
        Potential amp.       -0.0775 Ry
        Total length         46.3494 bohr
 

     total cpu time spent up to now is     1194.0 secs

     total energy              =   -2971.53804654 Ry
     estimated scf accuracy    <       0.00000845 Ry

     iteration # 76     ecut=    29.40 Ry     beta= 0.05
     Davidson diagonalization with overlap
     ethr =  2.11E-09,  avg # of iterations =  1.3

     negative rho (up, down):  1.316E-02 0.000E+00
 
     Adding external electric field

     Computed dipole along edir(3) : 
        Dipole                0.4409 Ry au,          1.1208 Debye
        Dipole field          0.0008 Ry au, 
 
        Potential amp.       -0.0771 Ry
        Total length         46.3494 bohr
 

     total cpu time spent up to now is     1204.0 secs

     total energy              =   -2971.53804731 Ry
     estimated scf accuracy    <       0.00000877 Ry

     iteration # 77     ecut=    29.40 Ry     beta= 0.05
     Davidson diagonalization with overlap
     ethr =  2.11E-09,  avg # of iterations =  8.6

     negative rho (up, down):  1.319E-02 0.000E+00
 
     Adding external electric field

     Computed dipole along edir(3) : 
        Dipole                0.4399 Ry au,          1.1180 Debye
        Dipole field          0.0008 Ry au, 
 
        Potential amp.       -0.0769 Ry
        Total length         46.3494 bohr
 

     total cpu time spent up to now is     1216.5 secs

     total energy              =   -2971.53804846 Ry
     estimated scf accuracy    <       0.00000502 Ry

     iteration # 78     ecut=    29.40 Ry     beta= 0.05
     Davidson diagonalization with overlap
     c_bands:  1 eigenvalues not converged
     ethr =  1.25E-09,  avg # of iterations = 12.3

     negative rho (up, down):  1.319E-02 0.000E+00
 
     Adding external electric field

     Computed dipole along edir(3) : 
        Dipole                0.4397 Ry au,          1.1177 Debye
        Dipole field          0.0008 Ry au, 
 
        Potential amp.       -0.0769 Ry
        Total length         46.3494 bohr
 

     total cpu time spent up to now is     1231.8 secs

     total energy              =   -2971.53804965 Ry
     estimated scf accuracy    <       0.00000284 Ry

     iteration # 79     ecut=    29.40 Ry     beta= 0.05
     Davidson diagonalization with overlap
     ethr =  7.07E-10,  avg # of iterations =  6.6

     negative rho (up, down):  1.321E-02 0.000E+00
 
     Adding external electric field

     Computed dipole along edir(3) : 
        Dipole                0.4422 Ry au,          1.1239 Debye
        Dipole field          0.0008 Ry au, 
 
        Potential amp.       -0.0774 Ry
        Total length         46.3494 bohr
 

     total cpu time spent up to now is     1243.6 secs

     total energy              =   -2971.53805013 Ry
     estimated scf accuracy    <       0.00000226 Ry

     iteration # 80     ecut=    29.40 Ry     beta= 0.05
     Davidson diagonalization with overlap
     ethr =  5.64E-10,  avg # of iterations = 11.0

     negative rho (up, down):  1.323E-02 0.000E+00
 
     Adding external electric field

     Computed dipole along edir(3) : 
        Dipole                0.4425 Ry au,          1.1246 Debye
        Dipole field          0.0008 Ry au, 
 
        Potential amp.       -0.0774 Ry
        Total length         46.3494 bohr
 

     total cpu time spent up to now is     1260.8 secs

     total energy              =   -2971.53805135 Ry
     estimated scf accuracy    <       0.00000134 Ry

     iteration # 81     ecut=    29.40 Ry     beta= 0.05
     Davidson diagonalization with overlap
     ethr =  3.34E-10,  avg # of iterations =  1.5

     negative rho (up, down):  1.325E-02 0.000E+00
 
     Adding external electric field

     Computed dipole along edir(3) : 
        Dipole                0.4423 Ry au,          1.1241 Debye
        Dipole field          0.0008 Ry au, 
 
        Potential amp.       -0.0774 Ry
        Total length         46.3494 bohr
 

     total cpu time spent up to now is     1271.0 secs

     total energy              =   -2971.53805187 Ry
     estimated scf accuracy    <       0.00000108 Ry

     iteration # 82     ecut=    29.40 Ry     beta= 0.05
     Davidson diagonalization with overlap
     ethr =  2.68E-10,  avg # of iterations = 14.6

     negative rho (up, down):  1.325E-02 0.000E+00
 
     Adding external electric field

     Computed dipole along edir(3) : 
        Dipole                0.4422 Ry au,          1.1241 Debye
        Dipole field          0.0008 Ry au, 
 
        Potential amp.       -0.0774 Ry
        Total length         46.3494 bohr
 

     total cpu time spent up to now is     1287.9 secs

     total energy              =   -2971.53805250 Ry
     estimated scf accuracy    <       0.00000036 Ry

     iteration # 83     ecut=    29.40 Ry     beta= 0.05
     Davidson diagonalization with overlap
     ethr =  8.95E-11,  avg # of iterations =  7.4

     negative rho (up, down):  1.326E-02 0.000E+00
 
     Adding external electric field

     Computed dipole along edir(3) : 
        Dipole                0.4422 Ry au,          1.1239 Debye
        Dipole field          0.0008 Ry au, 
 
        Potential amp.       -0.0773 Ry
        Total length         46.3494 bohr
 

     total cpu time spent up to now is     1300.8 secs

     total energy              =   -2971.53805307 Ry
     estimated scf accuracy    <       0.00000022 Ry

     iteration # 84     ecut=    29.40 Ry     beta= 0.05
     Davidson diagonalization with overlap
     ethr =  5.60E-11,  avg # of iterations =  4.9

     negative rho (up, down):  1.326E-02 0.000E+00
 
     Adding external electric field

     Computed dipole along edir(3) : 
        Dipole                0.4420 Ry au,          1.1234 Debye
        Dipole field          0.0008 Ry au, 
 
        Potential amp.       -0.0773 Ry
        Total length         46.3494 bohr
 

     total cpu time spent up to now is     1312.3 secs

     total energy              =   -2971.53805354 Ry
     estimated scf accuracy    <       0.00000018 Ry

     iteration # 85     ecut=    29.40 Ry     beta= 0.05
     Davidson diagonalization with overlap
     ethr =  4.47E-11,  avg # of iterations = 10.6

     negative rho (up, down):  1.326E-02 0.000E+00
 
     Adding external electric field

     Computed dipole along edir(3) : 
        Dipole                0.4418 Ry au,          1.1231 Debye
        Dipole field          0.0008 Ry au, 
 
        Potential amp.       -0.0773 Ry
        Total length         46.3494 bohr
 

     total cpu time spent up to now is     1327.5 secs

     total energy              =   -2971.53805396 Ry
     estimated scf accuracy    <       0.00000016 Ry

     iteration # 86     ecut=    29.40 Ry     beta= 0.05
     Davidson diagonalization with overlap
     ethr =  3.95E-11,  avg # of iterations =  3.5

     negative rho (up, down):  1.325E-02 0.000E+00
 
     Adding external electric field

     Computed dipole along edir(3) : 
        Dipole                0.4415 Ry au,          1.1221 Debye
        Dipole field          0.0008 Ry au, 
 
        Potential amp.       -0.0772 Ry
        Total length         46.3494 bohr
 

     total cpu time spent up to now is     1338.5 secs

     total energy              =   -2971.53805432 Ry
     estimated scf accuracy    <       0.00000011 Ry

     iteration # 87     ecut=    29.40 Ry     beta= 0.05
     Davidson diagonalization with overlap
     ethr =  2.62E-11,  avg # of iterations = 12.8

     negative rho (up, down):  1.325E-02 0.000E+00
 
     Adding external electric field

     Computed dipole along edir(3) : 
        Dipole                0.4416 Ry au,          1.1224 Debye
        Dipole field          0.0008 Ry au, 
 
        Potential amp.       -0.0772 Ry
        Total length         46.3494 bohr
 

     total cpu time spent up to now is     1357.1 secs

     total energy              =   -2971.53805467 Ry
     estimated scf accuracy    <       0.00000010 Ry

     iteration # 88     ecut=    29.40 Ry     beta= 0.05
     Davidson diagonalization with overlap
     ethr =  2.47E-11,  avg # of iterations =  1.0

     negative rho (up, down):  1.324E-02 0.000E+00
 
     Adding external electric field

     Computed dipole along edir(3) : 
        Dipole                0.4412 Ry au,          1.1215 Debye
        Dipole field          0.0008 Ry au, 
 
        Potential amp.       -0.0772 Ry
        Total length         46.3494 bohr
 

     total cpu time spent up to now is     1366.8 secs

     total energy              =   -2971.53805497 Ry
     estimated scf accuracy    <       0.00000010 Ry

     iteration # 89     ecut=    29.40 Ry     beta= 0.05
     Davidson diagonalization with overlap
     ethr =  2.47E-11,  avg # of iterations =  2.0

     negative rho (up, down):  1.324E-02 0.000E+00
 
     Adding external electric field

     Computed dipole along edir(3) : 
        Dipole                0.4412 Ry au,          1.1214 Debye
        Dipole field          0.0008 Ry au, 
 
        Potential amp.       -0.0772 Ry
        Total length         46.3494 bohr
 

     total cpu time spent up to now is     1377.5 secs

     total energy              =   -2971.53805523 Ry
     estimated scf accuracy    <       0.00000010 Ry

     iteration # 90     ecut=    29.40 Ry     beta= 0.05
     Davidson diagonalization with overlap
     ethr =  2.41E-11,  avg # of iterations =  1.0

     negative rho (up, down):  1.324E-02 0.000E+00
 
     Adding external electric field

     Computed dipole along edir(3) : 
        Dipole                0.4411 Ry au,          1.1213 Debye
        Dipole field          0.0008 Ry au, 
 
        Potential amp.       -0.0772 Ry
        Total length         46.3494 bohr
 

     total cpu time spent up to now is     1387.3 secs

     total energy              =   -2971.53805545 Ry
     estimated scf accuracy    <       0.00000008 Ry

     iteration # 91     ecut=    29.40 Ry     beta= 0.05
     Davidson diagonalization with overlap
     ethr =  2.11E-11,  avg # of iterations =  7.5

     negative rho (up, down):  1.326E-02 0.000E+00
 
     Adding external electric field

     Computed dipole along edir(3) : 
        Dipole                0.4408 Ry au,          1.1205 Debye
        Dipole field          0.0008 Ry au, 
 
        Potential amp.       -0.0771 Ry
        Total length         46.3494 bohr
 

     total cpu time spent up to now is     1399.9 secs

     End of self-consistent calculation

          k = 0.0000 0.0000 0.0000 ( 18029 PWs)   bands (ev):

   -55.7645 -55.7515 -55.7274 -55.7153 -55.6725 -55.6512 -55.6258 -55.5923
   -55.5894 -55.5796 -55.5376 -55.5144 -55.4808 -55.4145 -54.7750 -54.7409
   -32.3158 -32.2315 -32.1988 -32.1131 -32.0841 -32.0661 -32.0563 -32.0329
   -31.9942 -31.9898 -31.9753 -31.9672 -31.9619 -31.9326 -31.9249 -31.9217
   -31.9177 -31.8958 -31.8879 -31.8606 -31.8537 -31.8306 -31.8296 -31.8240
   -31.8070 -31.8004 -31.7825 -31.7782 -31.7711 -31.7685 -31.7615 -31.7536
   -31.7421 -31.7386 -31.7340 -31.6953 -31.6939 -31.6594 -31.6365 -31.6206
   -31.6033 -31.6004 -31.1847 -31.0878 -31.0655 -31.0014 -30.9153 -30.8041
   -20.7437 -17.0001 -16.5002 -16.2059 -16.0396 -15.9119 -15.8833 -15.7826
   -15.5915 -15.4572 -15.4403 -15.3658 -15.3315 -15.3263 -15.3003 -15.2836
   -15.2699 -15.2667 -15.2206 -15.1954 -15.1802 -15.1651 -15.1391 -15.0875
   -15.0401 -14.9685 -14.9209 -14.8804 -14.8609 -14.7618 -14.7431 -13.9466
   -13.2755 -13.1573  -6.5501  -5.5908  -4.9821  -4.5209  -3.8637  -3.6875
[...]
     0.0151   0.0350   0.0757   0.1127   0.1422   0.1654   0.2203   0.2692
     0.3179   0.3885   0.4288   0.4753   0.5075   0.5188   0.6079   0.8675
     0.9295   1.1556   1.1903   1.2615   1.3884   1.7195   1.7219   1.8097
     3.4753   3.5396   3.6849   3.6906   3.7392   3.7618   3.7964   3.8367
     3.8601   3.8859

          k = 0.0380 0.0419 0.0000 ( 17878 PWs)   bands (ev):

   -55.7600 -55.7460 -55.7317 -55.7204 -55.6707 -55.6488 -55.6211 -55.5945
   -55.5940 -55.5811 -55.5361 -55.5095 -55.4856 -55.4156 -54.7699 -54.7458
   -32.2581 -32.1786 -32.1560 -32.0684 -32.0526 -32.0513 -32.0346 -32.0221
   -31.9908 -31.9781 -31.9571 -31.9477 -31.9426 -31.9382 -31.9268 -31.9123
   -31.9108 -31.9081 -31.8920 -31.8892 -31.8592 -31.8437 -31.8430 -31.8315
   -31.8233 -31.7916 -31.7874 -31.7852 -31.7803 -31.7753 -31.7710 -31.7631
   -31.7624 -31.7490 -31.7481 -31.7419 -31.7072 -31.6789 -31.6683 -31.6601
   -31.6344 -31.6030 -31.1303 -31.0870 -31.0674 -30.9887 -30.9279 -30.8611
   -20.7435 -16.9649 -16.3073 -16.0034 -15.8682 -15.8163 -15.7489 -15.6948
   -15.6315 -15.5769 -15.4528 -15.4432 -15.4062 -15.3718 -15.3609 -15.3516
   -15.3247 -15.2509 -15.2194 -15.2130 -15.1827 -15.1281 -15.1057 -15.0668
   -15.0599 -15.0488 -15.0080 -14.9552 -14.9312 -14.8897 -14.8084 -13.9464
   -13.2763 -13.1966  -6.5471  -5.5918  -4.9495  -4.5203  -3.6194  -3.5144
    -3.3218  -3.2708  -3.2346  -3.2007  -3.1011  -3.0754  -3.0545  -2.9417
    -2.8267  -2.8171  -2.7695  -2.7489  -2.7138  -2.6873  -2.6319  -2.6206
    -2.5844  -2.5672  -2.5453  -2.5245  -2.5194  -2.4814  -2.4615  -2.3942
    -2.3651  -2.3450  -2.2563  -2.2447  -2.2338  -2.1096  -2.0874  -2.0136
    -1.9935  -1.9685  -1.8906  -1.7905  -1.7487  -1.6963  -1.6615  -1.5372
    -1.5008  -1.3587  -1.3056  -1.2541  -1.2147  -1.1754  -1.1187  -1.0730
    -1.0377  -1.0175  -0.9698  -0.9261  -0.8603  -0.8141  -0.7831  -0.7655
    -0.6876  -0.6523  -0.6095  -0.5533  -0.5298  -0.5058  -0.4705  -0.4234
    -0.3923  -0.3733  -0.3351  -0.2877  -0.2614  -0.2413  -0.2060  -0.1288
    -0.0786  -0.0684  -0.0069   0.0341   0.0719   0.0955   0.1843   0.2853
     0.3525   0.3930   0.4325   0.5025   0.5350   0.5641   0.6250   0.7122
     0.8023   0.8580   1.1432   1.4509   1.5146   1.7075   1.7216   1.7859
     3.5820   3.6653   3.7078   3.7298   3.7834   3.8113   3.8594   3.9109
     3.9324   3.9505

          k = 0.0380-0.0839 0.0000 ( 17916 PWs)   bands (ev):

   -55.7534 -55.7384 -55.7344 -55.7321 -55.6691 -55.6463 -55.6137 -55.6015
   -55.5971 -55.5827 -55.5349 -55.4985 -55.4968 -55.4168 -54.7584 -54.7573
   -32.1191 -32.1151 -32.0985 -32.0549 -32.0453 -32.0391 -32.0226 -32.0216
   -32.0149 -31.9711 -31.9531 -31.9449 -31.9400 -31.9092 -31.9060 -31.9021
   -31.8929 -31.8890 -31.8809 -31.8773 -31.8712 -31.8647 -31.8588 -31.8539
   -31.8312 -31.8261 -31.8162 -31.8137 -31.8085 -31.7954 -31.7917 -31.7825
   -31.7626 -31.7579 -31.7546 -31.7490 -31.7461 -31.7317 -31.7134 -31.6765
   -31.6450 -31.6017 -31.0778 -31.0765 -30.9981 -30.9972 -30.9588 -30.9579
   -20.7435 -16.9361 -15.9947 -15.9854 -15.7619 -15.7602 -15.6585 -15.6244
   -15.6015 -15.5499 -15.5404 -15.5178 -15.4376 -15.4263 -15.3142 -15.3029
   -15.2847 -15.2511 -15.2226 -15.1830 -15.1679 -15.1500 -15.1466 -15.1262
   -15.1245 -15.1194 -15.0533 -15.0299 -15.0156 -14.9835 -14.9231 -13.9465
   -13.2599 -13.2576  -6.5451  -5.5912  -4.9210  -4.5196  -3.5144  -3.2341
    -3.2232  -2.9915  -2.9576  -2.9363  -2.9275  -2.9194  -2.8748  -2.8523
    -2.8232  -2.8179  -2.8055  -2.7809  -2.7591  -2.7201  -2.6814  -2.6425
    -2.6083  -2.5827  -2.5682  -2.5644  -2.5401  -2.5327  -2.5215  -2.5082
    -2.4502  -2.4212  -2.3866  -2.3599  -2.2935  -2.2648  -1.9289  -1.9002
    -1.8860  -1.8173  -1.7752  -1.6746  -1.6685  -1.6137  -1.6027  -1.5357
    -1.5270  -1.5011  -1.4895  -1.3951  -1.3789  -1.3516  -1.3115  -1.2533
    -1.2402  -1.1133  -1.0495  -0.9654  -0.9382  -0.8566  -0.7886  -0.7409
    -0.7062  -0.6213  -0.5664  -0.5298  -0.5016  -0.4955  -0.4654  -0.4278
    -0.4169  -0.4081  -0.3383  -0.3165  -0.3005  -0.2872  -0.2494  -0.2233
    -0.1359  -0.0508  -0.0131   0.0456   0.0603   0.1239   0.1511   0.2535
     0.3044   0.3369   0.3466   0.3867   0.4427   0.5377   0.5829   0.7451
     0.7614   0.9207   0.9595   1.5896   1.5914   1.7177   1.7223   1.7230
     3.6230   3.6377   3.7247   3.7468   3.8043   3.8153   3.9906   4.0016
     4.0255   4.0404

          k = 0.0380-0.0419 0.0000 ( 17876 PWs)   bands (ev):

   -55.7600 -55.7460 -55.7317 -55.7204 -55.6707 -55.6488 -55.6211 -55.5945
   -55.5940 -55.5811 -55.5361 -55.5095 -55.4856 -55.4156 -54.7699 -54.7458
   -32.2581 -32.1786 -32.1560 -32.0684 -32.0526 -32.0513 -32.0346 -32.0221
   -31.9908 -31.9781 -31.9569 -31.9477 -31.9425 -31.9383 -31.9268 -31.9122
   -31.9104 -31.9085 -31.8925 -31.8890 -31.8592 -31.8440 -31.8430 -31.8283
   -31.8252 -31.7925 -31.7884 -31.7854 -31.7802 -31.7729 -31.7726 -31.7648
   -31.7629 -31.7485 -31.7476 -31.7419 -31.7055 -31.6740 -31.6717 -31.6618
   -31.6344 -31.6029 -31.1303 -31.0870 -31.0674 -30.9887 -30.9279 -30.8611
   -20.7435 -16.9650 -16.3073 -16.0034 -15.8682 -15.8163 -15.7489 -15.6947
   -15.6315 -15.5767 -15.4522 -15.4431 -15.4070 -15.3717 -15.3613 -15.3538
   -15.3219 -15.2524 -15.2192 -15.2129 -15.1802 -15.1299 -15.1052 -15.0670
   -15.0594 -15.0494 -15.0082 -14.9549 -14.9299 -14.8921 -14.8075 -13.9464
   -13.2763 -13.1966  -6.5471  -5.5918  -4.9489  -4.5202  -3.6192  -3.5145
    -3.3231  -3.2728  -3.2354  -3.1992  -3.0989  -3.0772  -3.0541  -2.9405
    -2.8278  -2.8154  -2.7672  -2.7518  -2.7164  -2.6870  -2.6289  -2.6196
    -2.5850  -2.5631  -2.5488  -2.5277  -2.5052  -2.4795  -2.4567  -2.4046
    -2.3669  -2.3451  -2.2663  -2.2397  -2.2254  -2.1159  -2.0846  -2.0129
    -1.9974  -1.9711  -1.8914  -1.7915  -1.7418  -1.6963  -1.6628  -1.5352
    -1.5083  -1.3606  -1.3036  -1.2468  -1.2221  -1.1784  -1.1107  -1.0703
    -1.0396  -1.0260  -0.9750  -0.9240  -0.8637  -0.8085  -0.7874  -0.7573
    -0.6869  -0.6492  -0.6139  -0.5551  -0.5256  -0.4928  -0.4745  -0.4306
    -0.4086  -0.3796  -0.3350  -0.2909  -0.2566  -0.2478  -0.2109  -0.1282
    -0.0852  -0.0627   0.0149   0.0421   0.0648   0.0807   0.1839   0.2889
     0.3525   0.4007   0.4315   0.5094   0.5336   0.5724   0.6267   0.7133
     0.8044   0.8584   1.1430   1.4506   1.5148   1.7071   1.7213   1.7867
     3.5867   3.6653   3.7151   3.7311   3.7702   3.8144   3.8635   3.8991
     3.9166   3.9471

          k =-0.0760-0.0000 0.0000 ( 17886 PWs)   bands (ev):

   -55.7643 -55.7513 -55.7273 -55.7151 -55.6722 -55.6512 -55.6257 -55.5922
   -55.5893 -55.5796 -55.5372 -55.5145 -55.4807 -55.4144 -54.7748 -54.7408
   -32.3161 -32.2334 -32.1991 -32.1232 -32.0916 -32.0659 -32.0561 -32.0329
   -32.0010 -31.9906 -31.9750 -31.9627 -31.9326 -31.9217 -31.9190 -31.9188
   -31.8953 -31.8775 -31.8763 -31.8680 -31.8604 -31.8534 -31.8506 -31.8298
   -31.8065 -31.7848 -31.7795 -31.7790 -31.7678 -31.7637 -31.7546 -31.7465
   -31.7419 -31.7383 -31.7332 -31.7291 -31.6959 -31.6583 -31.6359 -31.6175
   -31.6106 -31.6056 -31.1838 -31.0945 -31.0621 -31.0011 -30.9151 -30.8040
   -20.7435 -16.9874 -16.3486 -16.0342 -15.8913 -15.8409 -15.7810 -15.7585
   -15.6400 -15.5573 -15.5337 -15.5241 -15.4915 -15.4594 -15.4381 -15.3896
   -15.3313 -15.3001 -15.2133 -15.2073 -15.0939 -15.0918 -15.0880 -15.0513
   -15.0267 -14.9600 -14.9239 -14.9040 -14.8552 -14.7931 -14.7416 -13.9464
   -13.2689 -13.1567  -6.5485  -5.5943  -4.9741  -4.5195  -3.7742  -3.5140
    -3.3867  -3.3419  -3.2880  -3.1560  -3.1476  -3.1390  -3.1106  -3.0274
    -3.0048  -2.9767  -2.9309  -2.8208  -2.6549  -2.6403  -2.6109  -2.5944
    -2.5192  -2.5176  -2.3382  -2.3231  -2.3007  -2.2593  -2.2479  -2.2178
    -2.1836  -2.1483  -2.0999  -2.0965  -2.0617  -2.0249  -2.0053  -1.9879
    -1.9841  -1.9150  -1.9113  -1.8734  -1.7811  -1.5971  -1.5305  -1.5123
    -1.4897  -1.4447  -1.4066  -1.3761  -1.3410  -1.3146  -1.2893  -1.2212
    -1.2051  -1.1119  -1.0903  -1.0634  -1.0381  -1.0126  -0.9381  -0.8964
    -0.8492  -0.6421  -0.5713  -0.5403  -0.5303  -0.4968  -0.4798  -0.4275
    -0.3473  -0.2942  -0.2601  -0.2240  -0.1937  -0.1414  -0.0962  -0.0795
    -0.0406  -0.0202   0.0436   0.0481   0.0929   0.1266   0.1539   0.2347
     0.2789   0.3143   0.3708   0.3855   0.5750   0.6586   0.6961   0.7959
     0.9141   0.9635   1.1715   1.2840   1.3628   1.5822   1.7196   1.7440
     3.4801   3.4871   3.5685   3.6685   3.6841   3.7314   3.8330   3.8468
     3.8801   3.9168

          k =-0.0760 0.0419 0.0000 ( 17914 PWs)   bands (ev):

   -55.7600 -55.7460 -55.7317 -55.7205 -55.6707 -55.6489 -55.6211 -55.5945
   -55.5940 -55.5812 -55.5360 -55.5096 -55.4857 -55.4156 -54.7699 -54.7458
   -32.2584 -32.1796 -32.1563 -32.0742 -32.0528 -32.0513 -32.0390 -32.0222
   -31.9908 -31.9782 -31.9572 -31.9505 -31.9421 -31.9276 -31.9182 -31.9122
   -31.9105 -31.9065 -31.8797 -31.8688 -31.8660 -31.8591 -31.8429 -31.8402
   -31.8252 -31.7923 -31.7902 -31.7862 -31.7806 -31.7774 -31.7693 -31.7637
   -31.7485 -31.7477 -31.7423 -31.7357 -31.7316 -31.6744 -31.6695 -31.6634
   -31.6344 -31.6090 -31.1300 -31.0899 -31.0667 -30.9887 -30.9279 -30.8612
   -20.7435 -16.9612 -16.2289 -15.9208 -15.8034 -15.7460 -15.7391 -15.6707
   -15.6298 -15.5555 -15.4950 -15.4914 -15.4555 -15.4347 -15.4049 -15.3965
   -15.3174 -15.2906 -15.2188 -15.2125 -15.1930 -15.1463 -15.1363 -15.0908
   -15.0716 -15.0557 -15.0082 -14.9606 -14.9267 -14.8913 -14.8094 -13.9464
   -13.2741 -13.1969  -6.5463  -5.5937  -4.9472  -4.5199  -3.6056  -3.5140
    -3.2175  -3.0875  -3.0792  -2.9929  -2.9693  -2.9359  -2.8539  -2.8234
    -2.8184  -2.8050  -2.7765  -2.7183  -2.7165  -2.7090  -2.6744  -2.5864
    -2.5593  -2.5294  -2.5020  -2.4877  -2.4302  -2.4121  -2.3478  -2.3306
    -2.3238  -2.2616  -2.2292  -2.1987  -2.1573  -2.1207  -2.1112  -1.9875
    -1.9240  -1.9006  -1.8535  -1.8161  -1.7970  -1.7196  -1.6242  -1.5401
    -1.4329  -1.4032  -1.3133  -1.3008  -1.2540  -1.2400  -1.2270  -1.1770
    -1.1070  -1.0819  -1.0538  -1.0018  -0.9879  -0.9804  -0.9579  -0.8906
    -0.8746  -0.8503  -0.7919  -0.7034  -0.6721  -0.6331  -0.5904  -0.5300
    -0.4788  -0.4679  -0.4389  -0.4106  -0.3650  -0.3189  -0.2792  -0.1546
    -0.1160  -0.1111  -0.0422   0.0719   0.1092   0.1514   0.1592   0.3211
     0.3412   0.4168   0.4394   0.5433   0.6271   0.6427   0.7155   0.7442
     0.8085   0.8140   0.9883   1.4664   1.5180   1.6322   1.7214   1.7702
     3.5312   3.5842   3.6293   3.7221   3.7267   3.7440   3.8704   3.8848
     3.9795   4.0144

          k =-0.0760-0.0839 0.0000 ( 17948 PWs)   bands (ev):

   -55.7534 -55.7384 -55.7344 -55.7321 -55.6690 -55.6464 -55.6137 -55.6015
   -55.5971 -55.5828 -55.5349 -55.4985 -55.4968 -55.4169 -54.7585 -54.7573
   -32.1194 -32.1154 -32.0987 -32.0556 -32.0455 -32.0399 -32.0229 -32.0217
   -32.0152 -31.9785 -31.9541 -31.9465 -31.9440 -31.9099 -31.9050 -31.8967
   -31.8849 -31.8812 -31.8797 -31.8700 -31.8692 -31.8596 -31.8545 -31.8475
   -31.8443 -31.8221 -31.8173 -31.8134 -31.8061 -31.8055 -31.8019 -31.7830
   -31.7764 -31.7580 -31.7550 -31.7490 -31.7333 -31.7167 -31.7036 -31.6966
   -31.6449 -31.6097 -31.0788 -31.0775 -30.9981 -30.9972 -30.9589 -30.9579
   -20.7435 -16.9346 -15.9425 -15.9335 -15.6919 -15.6844 -15.6804 -15.6099
   -15.5262 -15.5047 -15.4830 -15.4790 -15.4301 -15.4191 -15.4002 -15.3390
   -15.3049 -15.2876 -15.2698 -15.2654 -15.2113 -15.2065 -15.1627 -15.1388
   -15.1204 -15.1150 -15.0903 -15.0860 -15.0470 -14.9856 -14.9172 -13.9465
   -13.2597 -13.2574  -6.5443  -5.5931  -4.9205  -4.5196  -3.5140  -3.2342
    -3.2235  -2.9576  -2.9089  -2.8957  -2.8138  -2.7519  -2.6860  -2.6453
    -2.6213  -2.6115  -2.5966  -2.5877  -2.5836  -2.5697  -2.5668  -2.5459
    -2.5262  -2.5148  -2.4577  -2.4358  -2.4137  -2.3936  -2.3862  -2.3745
    -2.3373  -2.3190  -2.3076  -2.2916  -2.2878  -2.2073  -2.0611  -2.0153
    -1.9210  -1.8995  -1.8889  -1.8479  -1.8260  -1.8093  -1.7944  -1.7454
    -1.7286  -1.5608  -1.4914  -1.4744  -1.4569  -1.4250  -1.3658  -1.2810
    -1.2485  -1.1736  -1.1672  -1.1275  -1.0652  -0.9873  -0.9687  -0.9273
    -0.8700  -0.8322  -0.7752  -0.7434  -0.7218  -0.7129  -0.6622  -0.6057
    -0.5669  -0.5068  -0.4805  -0.4174  -0.3775  -0.3418  -0.2848  -0.2585
    -0.2231  -0.1129  -0.0064   0.1303   0.1930   0.2697   0.2810   0.3059
     0.3305   0.4446   0.4735   0.5097   0.5483   0.6353   0.6894   0.7588
     0.7785   0.8069   0.8635   1.6100   1.6112   1.7005   1.7113   1.7226
     3.6220   3.6598   3.6751   3.7262   3.8837   3.8884   3.9070   3.9150
     3.9671   4.0467

     the Fermi energy is     3.3911 ev

!    total energy              =   -2971.53805762 Ry
     estimated scf accuracy    <       0.00000003 Ry
     smearing contrib. (-TS)   =      -0.02329618 Ry
     internal energy E=F+TS    =   -2971.51476144 Ry

     The total energy is F=E-TS. E is the sum of the following terms:
     one-electron contribution =  -22751.47090626 Ry
     hartree contribution      =   11466.81620847 Ry
     xc contribution           =    -492.33127259 Ry
     ewald contribution        =    8805.47084219 Ry
     electric field correction =       0.00036674 Ry

     convergence has been achieved in  91 iterations

     Forces acting on atoms (cartesian axes, Ry/au):

     atom    1 type  1   force =    -0.00063068    0.00096109    0.00072384
     atom    2 type  2   force =    -0.00047571    0.00082652   -0.00059475
     atom    3 type  2   force =    -0.00141330   -0.00071455   -0.00048969
     atom    4 type  2   force =     0.00082877   -0.00050373   -0.00026278
     atom    5 type  3   force =     0.00034460   -0.00680428   -0.03338924
     atom    6 type  3   force =    -0.00001936    0.00054853    0.04533419
     atom    7 type  3   force =    -0.02046311    0.00053080    0.00450541
     atom    8 type  3   force =     0.01815222   -0.00160046    0.00413942
     atom    9 type  3   force =     0.00014298    0.00000604   -0.00009469
     atom   10 type  3   force =    -0.00004512   -0.00004805    0.00019279
     atom   11 type  3   force =     0.00023278   -0.00009630   -0.00033140
     atom   12 type  3   force =     0.00046304    0.00012070   -0.00013978
     atom   13 type  3   force =    -0.00016626   -0.00021347   -0.00018617
     atom   14 type  3   force =     0.00091210    0.00021050   -0.00011161
     atom   15 type  3   force =     0.00072809    0.00003387    0.00067744
     atom   16 type  3   force =     0.00120294   -0.00022594   -0.00018619
     atom   17 type  3   force =     0.00004108    0.00005603    0.10416200
     atom   18 type  3   force =    -0.00051190    0.00011556    0.00063377
     atom   19 type  3   force =    -0.06902195    0.00070125   -0.02968395
     atom   20 type  3   force =     0.06880262    0.00126500   -0.02967910
     atom   21 type  3   force =     0.00038436    0.00378358   -0.02831976
     atom   22 type  3   force =     0.00086126    0.00084429    0.04702679
     atom   23 type  3   force =    -0.01798109    0.00141080    0.00375025
     atom   24 type  3   force =     0.01768822    0.00226996    0.00328023
     atom   25 type  3   force =    -0.00014783   -0.00019663    0.00004358
     atom   26 type  3   force =     0.00017005   -0.00003058    0.00041466
     atom   27 type  3   force =    -0.00024966   -0.00014984    0.00023463
     atom   28 type  3   force =    -0.00003695   -0.00020875    0.00060305
     atom   29 type  3   force =    -0.00023284   -0.00055579    0.00009317
     atom   30 type  3   force =    -0.00003027   -0.00034373    0.00038327
     atom   31 type  3   force =     0.00057139   -0.00023008    0.00032201
     atom   32 type  3   force =     0.00083513   -0.00012726   -0.00060758
     atom   33 type  3   force =     0.00004446    0.00003341    0.10424225
     atom   34 type  3   force =    -0.06860242   -0.00136154   -0.02972708
     atom   35 type  3   force =     0.06848986   -0.00098625   -0.02970423
     atom   36 type  3   force =     0.00081013    0.00050147    0.00014353
     atom   37 type  4   force =    -0.00000647   -0.00157364    0.10638464
     atom   38 type  4   force =    -0.00015816    0.00074210   -0.17962059
     atom   39 type  4   force =    -0.00038565    0.00007664   -0.00012985
     atom   40 type  4   force =     0.00000445    0.00006568   -0.00009771
     atom   41 type  4   force =     0.00000680    0.00055931   -0.00057665
     atom   42 type  4   force =    -0.00021857    0.00002296    0.00021681
     atom   43 type  4   force =    -0.00342434   -0.00021969   -0.00049638
     atom   44 type  4   force =     0.00295030    0.00048393   -0.00041372
     atom   45 type  4   force =    -0.00002114    0.00121566    0.11834885
     atom   46 type  4   force =     0.00000999   -0.00035303   -0.17988194
     atom   47 type  4   force =     0.00039286    0.00005705   -0.00026934
     atom   48 type  4   force =    -0.00002938    0.00024981   -0.00035029
     atom   49 type  4   force =     0.00064209    0.00058004   -0.00006263
     atom   50 type  4   force =     0.00005556    0.00011802   -0.00081309
     atom   51 type  4   force =    -0.00413289   -0.00083116   -0.00009409
     atom   52 type  4   force =     0.00323312   -0.00099886    0.00049751
     atom   53 type  5   force =     0.00067963    0.00128673    0.00001950
     atom   54 type  5   force =    -0.00127582   -0.00130369   -0.00005933

     Total force =     0.376658     Total SCF correction =     0.000424
  @ DRIVER MODE: Message from server: STATUS
  @ DRIVER MODE: Message from server: GETFORCE
  @ DRIVER MODE: Returning v,forces,stress,ensemble 

     Writing output data file ./calc.save/
  @ DRIVER MODE: Message from server: EXIT
  @ DRIVE MODE: Exiting  
 
     init_run     :     10.74s CPU     10.97s WALL (       1 calls)
     electrons    :   1367.52s CPU   1388.20s WALL (       1 calls)
     forces       :      2.36s CPU      2.45s WALL (       1 calls)

     Called by init_run:
     wfcinit      :      4.78s CPU      4.86s WALL (       1 calls)
     potinit      :      5.31s CPU      5.38s WALL (       1 calls)
     hinit0       :      0.29s CPU      0.31s WALL (       1 calls)

     Called by electrons:
     c_bands      :   1153.70s CPU   1162.28s WALL (      91 calls)
     sum_band     :    146.00s CPU    150.89s WALL (      91 calls)
     v_of_rho     :     49.63s CPU     52.16s WALL (      92 calls)
     newd         :     20.69s CPU     25.32s WALL (      92 calls)
     mix_rho      :      1.87s CPU      1.92s WALL (      91 calls)
     vdW_kernel   :      4.54s CPU      4.56s WALL (       1 calls)

     Called by c_bands:
     init_us_2    :      8.36s CPU      8.40s WALL (    1840 calls)
     cegterg      :   1129.23s CPU   1137.45s WALL (     926 calls)

     Called by *egterg:
     cdiaghg      :    180.24s CPU    181.07s WALL (    9122 calls)
     h_psi        :    609.64s CPU    615.49s WALL (    9133 calls)
     s_psi        :     82.20s CPU     82.45s WALL (    9133 calls)
     g_psi        :      2.13s CPU      2.15s WALL (    8197 calls)

     Called by h_psi:
     h_psi:calbec :     77.42s CPU     77.84s WALL (    9133 calls)
     vloc_psi     :    445.67s CPU    450.35s WALL (    9133 calls)
     add_vuspsi   :     82.61s CPU     83.04s WALL (    9133 calls)

     General routines
     calbec       :    103.07s CPU    103.56s WALL (   10083 calls)
     fft          :     25.63s CPU     25.82s WALL (    5796 calls)
     ffts         :      0.17s CPU      0.17s WALL (     183 calls)
     fftw         :    502.45s CPU    507.71s WALL ( 1202788 calls)
     interpolate  :      0.53s CPU      0.53s WALL (      92 calls)
     davcio       :      0.00s CPU      1.06s WALL (      10 calls)
 
     Parallel routines
 
     PWSCF        :  23m 1.02s CPU  23m25.54s WALL

 
   This run was terminated on:  20:53:32  14Sep2021            

=------------------------------------------------------------------------------=
   JOB DONE.
=------------------------------------------------------------------------------=
