
     Program PWSCF v.6.7GPU starts on 23Sep2021 at 21:50:11 

     This program is part of the open-source Quantum ESPRESSO suite
     for quantum simulation of materials; please cite
         "P. Giannozzi et al., J. Phys.:Condens. Matter 21 395502 (2009);
         "P. Giannozzi et al., J. Phys.:Condens. Matter 29 465901 (2017);
         "P. Giannozzi et al., J. Chem. Phys. 152 154105 (2020);
          URL http://www.quantum-espresso.org", 
     in publications or presentations arising from this work. More details at
     http://www.quantum-espresso.org/quote

     Parallel version (MPI), running on     8 processors

     MPI processes distributed on     1 nodes
     R & G space division:  proc/nbgrp/npool/nimage =       8
     Reading input from /storage/home/hcoda1/3/ntian30/research/carbon/CxH_vib/H2O_calc/ads_slab/CH3NHNH2HO_a/out_0024/pw.inp
Warning: card &CELL ignored
Warning: card   CELL_DYNAMICS='IPI', ignored
Warning: card / ignored

     Current dimensions of program PWSCF are:
     Max number of different atomic species (ntypx) = 10
     Max number of k-points (npk) =  40000
     Max angular momentum in pseudopotentials (lmaxx) =  3
     Presently no symmetry can be used with electric field

     Message from routine cell_base_init:
     DEPRECATED: use true lattice parameter, not A to a.u. conversion factor

     **************************************************************************
     Initializing libbeef V0.1.2 with the BEEF-vdW functional.
     Citation: Wellendorff et al., PRB 85, 235149 (2012).
     **************************************************************************


     IMPORTANT: XC functional enforced from input :
     Exchange-correlation= BEEF-VDW
                           (   1   4  43  14   2   0   0)
     Any further DFT definition will be discarded
     Please, verify this is what you really want


     Subspace diagonalization in iterative solution of the eigenvalue problem:
     one sub-group per band group will be used
     scalapack distributed-memory algorithm (size of sub-group:  2*  2 procs)

  @ DRIVER MODE: Connecting to 
 qe_1139763_2947307.sched-torque.pace.gatech.edulcubm3ef_scratch
  using UNIX socket
  @ DRIVER MODE: Message from server: STATUS
  @ DRIVER MODE: Message from server: INIT
  @ DRIVER MODE: Receiving replica           0          -1
  @ DRIVER MODE: Receiving encoded integer          25
  @ DRIVER MODE:  SCF:  T  FORCE:  T  STRESS:  F  VC:  F  ENSEMBLE:  F
  @ DRIVER MODE:  SCF:  T  FORCE:  T  STRESS:  F  VC:  F  ENSEMBLE:  F
 
     Parallelization info
     --------------------
     sticks:   dense  smooth     PW     G-vecs:    dense   smooth      PW
     Min         409     164     47                70857    17926    2743
     Max         411     165     48                70858    17931    2751
     Sum        3275    1317    379               566857   143421   21985
 
     Using Slab Decomposition
 


     bravais-lattice index     =            0
     lattice parameter (alat)  =       1.8897  a.u.
     unit-cell volume          =    6658.9804 (a.u.)^3
     number of atoms/cell      =           58
     number of atomic types    =            5
     number of electrons       =       405.00
     number of Kohn-Sham states=          212
     kinetic-energy cutoff     =      29.3995  Ry
     charge density cutoff     =     293.9946  Ry
     scf convergence threshold =      7.3E-08
     mixing beta               =       0.0500
     number of iterations used =            8  plain     mixing
     Exchange-correlation= BEEF-VDW
                           (   1   4  43  14   2   0   0)

     celldm(1)=   1.889726  celldm(2)=   0.000000  celldm(3)=   0.000000
     celldm(4)=   0.000000  celldm(5)=   0.000000  celldm(6)=   0.000000

     crystal axes: (cart. coord. in units of alat)
               a(1) = (   6.579727   0.000000   0.000000 )  
               a(2) = (  -0.000775   5.961596   0.000000 )  
               a(3) = (   0.000000   0.000000  25.155947 )  

     reciprocal axes: (cart. coord. in units 2 pi/alat)
               b(1) = (  0.151982  0.000020  0.000000 )  
               b(2) = (  0.000000  0.167740  0.000000 )  
               b(3) = (  0.000000  0.000000  0.039752 )  


     PseudoPot. # 1 for Ti read from file:
     /storage/coda1/p-amedford6/0/shared/rich_project_chbe-medford/medford-share/data/pseudos_module/espresso/nninc/pbe/van/Ti.UPF
     MD5 check sum: 8e4df49b7f0d34bbd5052bf3f5ea0213
     Pseudo is Ultrasoft, Zval = 12.0
     Generated by new atomic code, or converted to UPF format
     Using radial grid of  851 points,  6 beta functions with: 
                l(1) =   0
                l(2) =   0
                l(3) =   1
                l(4) =   1
                l(5) =   2
                l(6) =   2
     Q(r) pseudized with  8 coefficients,  rinner =    1.000   1.000   1.000
                                                       1.000   1.000

     PseudoPot. # 2 for O  read from file:
     /storage/coda1/p-amedford6/0/shared/rich_project_chbe-medford/medford-share/data/pseudos_module/espresso/nninc/pbe/van/O.UPF
     MD5 check sum: 78c19812648e8988a0fe644b0f25305e
     Pseudo is Ultrasoft, Zval =  6.0
     Generated by new atomic code, or converted to UPF format
     Using radial grid of  737 points,  4 beta functions with: 
                l(1) =   0
                l(2) =   0
                l(3) =   1
                l(4) =   1
     Q(r) pseudized with  8 coefficients,  rinner =    0.800   0.800   0.800


     PseudoPot. # 3 for N  read from file:
     /storage/coda1/p-amedford6/0/shared/rich_project_chbe-medford/medford-share/data/pseudos_module/espresso/nninc/pbe/van/N.UPF
     MD5 check sum: 90d10febe142ad51ac9d5be1deb811c4
     Pseudo is Ultrasoft, Zval =  5.0
     Generated by new atomic code, or converted to UPF format
     Using radial grid of  729 points,  4 beta functions with: 
                l(1) =   0
                l(2) =   0
                l(3) =   1
                l(4) =   1
     Q(r) pseudized with  8 coefficients,  rinner =    0.800   0.800   0.800


     PseudoPot. # 4 for C  read from file:
     /storage/coda1/p-amedford6/0/shared/rich_project_chbe-medford/medford-share/data/pseudos_module/espresso/nninc/pbe/van/C.UPF
     MD5 check sum: 1a69bf6b8db32088f5b2163dbdb77a27
     Pseudo is Ultrasoft, Zval =  4.0
     Generated by new atomic code, or converted to UPF format
     Using radial grid of  721 points,  4 beta functions with: 
                l(1) =   0
                l(2) =   0
                l(3) =   1
                l(4) =   1
     Q(r) pseudized with  8 coefficients,  rinner =    0.800   0.800   0.800


     PseudoPot. # 5 for H  read from file:
     /storage/coda1/p-amedford6/0/shared/rich_project_chbe-medford/medford-share/data/pseudos_module/espresso/nninc/pbe/van/H.UPF
     MD5 check sum: b5ee9d7bfd3a09ee7748110bda690ff7
     Pseudo is Ultrasoft, Zval =  1.0
     Generated by new atomic code, or converted to UPF format
     Using radial grid of  615 points,  1 beta functions with: 
                l(1) =   0
     Q(r) pseudized with  8 coefficients,  rinner =    0.800

     atomic species   valence    mass     pseudopotential
        Ti1           12.00    47.86700     Ti( 1.00)
        O1             6.00    15.99900     O ( 1.00)
        N1             5.00    14.00700     N ( 1.00)
        C1             4.00    12.01100     C ( 1.00)
        H1             1.00     1.00800     H ( 1.00)

     No symmetry found



   Cartesian axes

     site n.     atom                  positions (alat units)
         1           Ti1 tau(   1) = (   0.0004258   2.9801865   6.0000000  )
         2           Ti1 tau(   2) = (   3.2906075   1.4906267   6.0002472  )
         3           O1  tau(   3) = (   0.0006271   0.0005054   7.9858123  )
         4           O1  tau(   4) = (   3.2906025   0.0005020   7.3038282  )
         5           O1  tau(   5) = (   4.5942328   1.4918067   9.2879030  )
         6           O1  tau(   6) = (   1.9868534   1.4903216   9.2879459  )
         7           Ti1 tau(   7) = (   3.2907910   2.8959150   9.1758416  )
         8           Ti1 tau(   8) = (   0.0015273   1.4827037   9.2680791  )
         9           O1  tau(   9) = (   3.3003128   0.0493987  11.3625472  )
        10           O1  tau(  10) = (   0.0116148   5.9584955  10.6183126  )
        11           O1  tau(  11) = (   1.2863924   1.5188706  12.6959087  )
        12           O1  tau(  12) = (   5.3173592   1.5183023  12.6957539  )
        13           Ti1 tau(  13) = (   0.0130489   2.9571150  12.5182267  )
        14           Ti1 tau(  14) = (   3.3124343   1.5987737  12.4587140  )
        15           O1  tau(  15) = (   0.0455642   5.8537743  14.6515032  )
        16           O1  tau(  16) = (   3.3135256   5.8999501  14.0036581  )
        17           O1  tau(  17) = (   4.5824137   1.5787328  16.0473457  )
        18           O1  tau(  18) = (   2.0456054   1.5356268  16.0652349  )
        19           Ti1 tau(  19) = (   3.2855744   2.9948502  15.7047272  )
        20           Ti1 tau(  20) = (   0.0729980   1.3194477  15.7501807  )
        21           O1  tau(  21) = (   3.2904802   0.0005063   4.7018136  )
        22           O1  tau(  22) = (   6.5643345   0.1786488  17.1561759  )
        23           O1  tau(  23) = (   1.3043587   1.4918075   6.0039043  )
        24           O1  tau(  24) = (   5.2767064   1.4903225   6.0039473  )
        25           Ti1 tau(  25) = (   0.0000382   5.9609847   6.0000000  )
        26           Ti1 tau(  26) = (   3.2902200   4.4714249   6.0002472  )
        27           O1  tau(  27) = (   0.0002396   2.9813036   7.9858123  )
        28           O1  tau(  28) = (   3.2902150   2.9813002   7.3038282  )
        29           O1  tau(  29) = (   4.5938453   4.4726049   9.2879030  )
        30           O1  tau(  30) = (   1.9864658   4.4711199   9.2879459  )
        31           Ti1 tau(  31) = (   3.2891106   5.8743827   9.1763621  )
        32           Ti1 tau(  32) = (   0.0006254   4.4649316   9.2693709  )
        33           O1  tau(  33) = (   3.3044115   2.9646987  11.3227374  )
        34           O1  tau(  34) = (   0.0092240   2.9805883  10.6323155  )
        35           O1  tau(  35) = (   1.2889249   4.4812606  12.6373974  )
        36           O1  tau(  36) = (   5.3198440   4.4849614  12.6453916  )
        37           Ti1 tau(  37) = (   0.0274371   5.9167426  12.5032498  )
        38           Ti1 tau(  38) = (   3.3124303   4.6827448  12.7121475  )
        39           O1  tau(  39) = (   0.0064664   3.0605765  14.9143048  )
        40           O1  tau(  40) = (   3.2921723   3.0190953  13.9337278  )
        41           O1  tau(  41) = (   4.5343043   4.4484976  16.2223827  )
        42           O1  tau(  42) = (   2.0055671   4.4324605  16.2273083  )
        43           Ti1 tau(  43) = (   3.3963104   0.0511244  16.3072024  )
        44           Ti1 tau(  44) = (   0.1011521   4.5293608  16.0606835  )
        45           O1  tau(  45) = (   3.2900926   2.9813045   4.7018136  )
        46           O1  tau(  46) = (   1.3039711   4.4726057   6.0039043  )
        47           O1  tau(  47) = (   5.2763189   4.4711207   6.0039473  )
        48           N1  tau(  48) = (   0.7799224   3.1460235  19.0808133  )
        49           N1  tau(  49) = (   6.3029119   3.3142126  18.0946246  )
        50           C1  tau(  50) = (   0.9829876   4.3811599  19.8296872  )
        51           H1  tau(  51) = (   0.0599524   4.7630682  20.3095108  )
        52           H1  tau(  52) = (   1.7087173   4.1728717  20.6153690  )
        53           H1  tau(  53) = (   1.3778604   5.1510331  19.1745456  )
        54           H1  tau(  54) = (   0.4845774   2.4057476  19.7140978  )
        55           H1  tau(  55) = (   5.5451363   3.8924421  18.4761980  )
        56           H1  tau(  56) = (   5.8791802   2.3931312  17.9634808  )
        57           O1  tau(  57) = (   3.3895457   0.1916509  18.1699706  )
        58           H1  tau(  58) = (   3.8128180   5.4341384  18.6581559  )

     number of k points=    10  Fermi-Dirac smearing, width (Ry)=  0.0073
                       cart. coord. in units 2pi/alat
        k(    1) = (   0.0000000   0.0000000   0.0000000), wk =   0.1250000
        k(    2) = (   0.0000000   0.0419351   0.0000000), wk =   0.2500000
        k(    3) = (   0.0000000  -0.0838702   0.0000000), wk =   0.1250000
        k(    4) = (   0.0379955   0.0000049   0.0000000), wk =   0.2500000
        k(    5) = (   0.0379955   0.0419400   0.0000000), wk =   0.2500000
        k(    6) = (   0.0379955  -0.0838652   0.0000000), wk =   0.2500000
        k(    7) = (   0.0379955  -0.0419301   0.0000000), wk =   0.2500000
        k(    8) = (  -0.0759910  -0.0000099   0.0000000), wk =   0.1250000
        k(    9) = (  -0.0759910   0.0419252   0.0000000), wk =   0.2500000
        k(   10) = (  -0.0759910  -0.0838800   0.0000000), wk =   0.1250000

     Dense  grid:   566857 G-vectors     FFT dimensions: (  72,  64, 270)

     Smooth grid:   143421 G-vectors     FFT dimensions: (  45,  40, 180)

     Estimated max dynamical RAM per process >     458.11 MB

     Estimated total dynamical RAM >       3.58 GB
     Cannot read rho : file not found

     Initial potential from superposition of free atoms

     starting charge  388.99913, renormalised to  405.00000

     negative rho (up, down):  1.367E-02 0.000E+00


     %%%%%%%%%%%%%%%%%%%%%%%%%%%%%%%%%%%%%%%%%%%%%%%%%%%%%%%%%%%%%%%%%%%%%%%%
     %                                                                      %
     % You are using vdW-DF, which was implemented by the Thonhauser group. %
     % Please cite the following two papers that made this development      %
     % possible and the two reviews that describe the various versions:     %
     %                                                                      %
     %   T. Thonhauser et al., PRL 115, 136402 (2015).                      %
     %   T. Thonhauser et al., PRB 76, 125112 (2007).                       %
     %   K. Berland et al., Rep. Prog. Phys. 78, 066501 (2015).             %
     %   D.C. Langreth et al., J. Phys.: Condens. Matter 21, 084203 (2009). %
     %                                                                      %
     %                                                                      %
     % If you are calculating the stress with vdW-DF, please also cite:     %
     %                                                                      %
     %   R. Sabatini et al., J. Phys.: Condens. Matter 24, 424209 (2012).   %
     %                                                                      %
     %%%%%%%%%%%%%%%%%%%%%%%%%%%%%%%%%%%%%%%%%%%%%%%%%%%%%%%%%%%%%%%%%%%%%%%%


 
     Adding external electric field

     Computed dipole along edir(3) : 
        Dipole              -14.8132 Ry au,        -37.6513 Debye
        Dipole field         -0.0280 Ry au, 
 
        Potential amp.        2.5913 Ry
        Total length         46.3494 bohr
 
     Starting wfcs are  307 atomic wfcs
  @ DRIVER MODE: Message from server: STATUS
  @ DRIVER MODE: Message from server: POSDATA
  @ DRIVER MODE: Reading and sharing cell 
  @ DRIVER MODE: Reading and sharing positions 
  @ DRIVER MODE: Received positions 

     total cpu time spent up to now is       63.3 secs

     Self-consistent Calculation

     iteration #  1     ecut=    29.40 Ry     beta= 0.05
     Davidson diagonalization with overlap
     c_bands:  4 eigenvalues not converged
     c_bands:  4 eigenvalues not converged
     c_bands:  5 eigenvalues not converged
     c_bands:  2 eigenvalues not converged
     c_bands:  3 eigenvalues not converged
     c_bands:  4 eigenvalues not converged
     c_bands:  2 eigenvalues not converged
     ethr =  1.00E-05,  avg # of iterations = 22.9

     negative rho (up, down):  7.854E-03 0.000E+00
 
     Adding external electric field

     Computed dipole along edir(3) : 
        Dipole               60.9964 Ry au,        155.0374 Debye
        Dipole field          0.1151 Ry au, 
 
        Potential amp.      -10.6704 Ry
        Total length         46.3494 bohr
 

     total cpu time spent up to now is      159.2 secs

     total energy              =   -2202.99282513 Ry
     estimated scf accuracy    <    8803.89600201 Ry

     iteration #  2     ecut=    29.40 Ry     beta= 0.05
     Davidson diagonalization with overlap
     ethr =  1.00E-02,  avg # of iterations = 32.0

     negative rho (up, down):  2.465E-04 0.000E+00
 
     Adding external electric field

     Computed dipole along edir(3) : 
        Dipole                0.3271 Ry au,          0.8315 Debye
        Dipole field          0.0006 Ry au, 
 
        Potential amp.       -0.0572 Ry
        Total length         46.3494 bohr
 

     total cpu time spent up to now is      283.3 secs

     total energy              =   -2446.29240466 Ry
     estimated scf accuracy    <   79752.46688656 Ry

     iteration #  3     ecut=    29.40 Ry     beta= 0.05
     Davidson diagonalization with overlap
     ethr =  1.00E-02,  avg # of iterations = 16.6

     negative rho (up, down):  2.927E-04 0.000E+00
 
     Adding external electric field

     Computed dipole along edir(3) : 
        Dipole               -3.4236 Ry au,         -8.7019 Debye
        Dipole field         -0.0065 Ry au, 
 
        Potential amp.        0.5989 Ry
        Total length         46.3494 bohr
 

     total cpu time spent up to now is      348.8 secs

     total energy              =   -2961.08666743 Ry
     estimated scf accuracy    <    8362.85782353 Ry

     iteration #  4     ecut=    29.40 Ry     beta= 0.05
     Davidson diagonalization with overlap
     ethr =  1.00E-02,  avg # of iterations = 12.0

     negative rho (up, down):  3.052E-04 0.000E+00
 
     Adding external electric field

     Computed dipole along edir(3) : 
        Dipole               -4.9742 Ry au,        -12.6433 Debye
        Dipole field         -0.0094 Ry au, 
 
        Potential amp.        0.8702 Ry
        Total length         46.3494 bohr
 

     total cpu time spent up to now is      380.5 secs

     total energy              =   -2972.58501065 Ry
     estimated scf accuracy    <    2239.77854278 Ry

     iteration #  5     ecut=    29.40 Ry     beta= 0.05
     Davidson diagonalization with overlap
     ethr =  1.00E-02,  avg # of iterations =  4.0

     negative rho (up, down):  3.593E-04 0.000E+00
 
     Adding external electric field

     Computed dipole along edir(3) : 
        Dipole               -8.3189 Ry au,        -21.1446 Debye
        Dipole field         -0.0157 Ry au, 
 
        Potential amp.        1.4553 Ry
        Total length         46.3494 bohr
 

     total cpu time spent up to now is      395.6 secs

     total energy              =   -2934.56607082 Ry
     estimated scf accuracy    <    2111.20216555 Ry

     iteration #  6     ecut=    29.40 Ry     beta= 0.05
     Davidson diagonalization with overlap
     ethr =  1.00E-02,  avg # of iterations = 11.7

     negative rho (up, down):  3.391E-04 0.000E+00
 
     Adding external electric field

     Computed dipole along edir(3) : 
        Dipole               -6.4155 Ry au,        -16.3066 Debye
        Dipole field         -0.0121 Ry au, 
 
        Potential amp.        1.1223 Ry
        Total length         46.3494 bohr
 

     total cpu time spent up to now is      434.6 secs

     total energy              =   -2979.98346866 Ry
     estimated scf accuracy    <     227.73576505 Ry

     iteration #  7     ecut=    29.40 Ry     beta= 0.05
     Davidson diagonalization with overlap
     ethr =  1.00E-02,  avg # of iterations =  1.8

     negative rho (up, down):  3.486E-04 0.000E+00
 
     Adding external electric field

     Computed dipole along edir(3) : 
        Dipole               -5.7322 Ry au,        -14.5697 Debye
        Dipole field         -0.0108 Ry au, 
 
        Potential amp.        1.0028 Ry
        Total length         46.3494 bohr
 

     total cpu time spent up to now is      448.6 secs

     total energy              =   -2980.69970953 Ry
     estimated scf accuracy    <      35.14873650 Ry

     iteration #  8     ecut=    29.40 Ry     beta= 0.05
     Davidson diagonalization with overlap
     ethr =  8.68E-03,  avg # of iterations =  1.7

     negative rho (up, down):  3.982E-04 0.000E+00
 
     Adding external electric field

     Computed dipole along edir(3) : 
        Dipole               -3.6240 Ry au,         -9.2114 Debye
        Dipole field         -0.0068 Ry au, 
 
        Potential amp.        0.6340 Ry
        Total length         46.3494 bohr
 

     total cpu time spent up to now is      462.1 secs

     total energy              =   -2977.56016685 Ry
     estimated scf accuracy    <      25.25226824 Ry

     iteration #  9     ecut=    29.40 Ry     beta= 0.05
     Davidson diagonalization with overlap
     c_bands:  2 eigenvalues not converged
     c_bands:  2 eigenvalues not converged
     c_bands:  5 eigenvalues not converged
     c_bands:  3 eigenvalues not converged
     c_bands:  3 eigenvalues not converged
     c_bands:  2 eigenvalues not converged
     c_bands:  3 eigenvalues not converged
     ethr =  6.24E-03,  avg # of iterations = 19.1

     negative rho (up, down):  3.990E-04 0.000E+00
 
     Adding external electric field

     Computed dipole along edir(3) : 
        Dipole               -3.5892 Ry au,         -9.1228 Debye
        Dipole field         -0.0068 Ry au, 
 
        Potential amp.        0.6279 Ry
        Total length         46.3494 bohr
 

     total cpu time spent up to now is      486.2 secs

     total energy              =   -2982.01809153 Ry
     estimated scf accuracy    <     235.97938760 Ry

     iteration # 10     ecut=    29.40 Ry     beta= 0.05
     Davidson diagonalization with overlap
     ethr =  6.24E-03,  avg # of iterations =  2.6

     negative rho (up, down):  4.358E-04 0.000E+00
 
     Adding external electric field

     Computed dipole along edir(3) : 
        Dipole               -2.8680 Ry au,         -7.2897 Debye
        Dipole field         -0.0054 Ry au, 
 
        Potential amp.        0.5017 Ry
        Total length         46.3494 bohr
 

     total cpu time spent up to now is      500.3 secs

     total energy              =   -2983.32427121 Ry
     estimated scf accuracy    <     244.60371173 Ry

     iteration # 11     ecut=    29.40 Ry     beta= 0.05
     Davidson diagonalization with overlap
     ethr =  6.24E-03,  avg # of iterations =  1.3

     negative rho (up, down):  5.409E-04 0.000E+00
 
     Adding external electric field

     Computed dipole along edir(3) : 
        Dipole               -2.7633 Ry au,         -7.0235 Debye
        Dipole field         -0.0052 Ry au, 
 
        Potential amp.        0.4834 Ry
        Total length         46.3494 bohr
 

     total cpu time spent up to now is      531.2 secs

     total energy              =   -2977.12200911 Ry
     estimated scf accuracy    <     337.61256031 Ry

     iteration # 12     ecut=    29.40 Ry     beta= 0.05
     Davidson diagonalization with overlap
     ethr =  6.24E-03,  avg # of iterations =  1.2

     negative rho (up, down):  6.304E-04 0.000E+00
 
     Adding external electric field

     Computed dipole along edir(3) : 
        Dipole               -3.0596 Ry au,         -7.7768 Debye
        Dipole field         -0.0058 Ry au, 
 
        Potential amp.        0.5352 Ry
        Total length         46.3494 bohr
 

     total cpu time spent up to now is      544.5 secs

     total energy              =   -2973.07935958 Ry
     estimated scf accuracy    <     161.85234030 Ry

     iteration # 13     ecut=    29.40 Ry     beta= 0.05
     Davidson diagonalization with overlap
     ethr =  6.24E-03,  avg # of iterations =  3.3

     negative rho (up, down):  6.688E-04 0.000E+00
 
     Adding external electric field

     Computed dipole along edir(3) : 
        Dipole               -2.9148 Ry au,         -7.4087 Debye
        Dipole field         -0.0055 Ry au, 
 
        Potential amp.        0.5099 Ry
        Total length         46.3494 bohr
 

     total cpu time spent up to now is      560.3 secs

     total energy              =   -2975.83613627 Ry
     estimated scf accuracy    <      13.27690223 Ry

     iteration # 14     ecut=    29.40 Ry     beta= 0.05
     Davidson diagonalization with overlap
     c_bands:  4 eigenvalues not converged
     ethr =  3.28E-03,  avg # of iterations =  3.7

     negative rho (up, down):  6.999E-04 0.000E+00
 
     Adding external electric field

     Computed dipole along edir(3) : 
        Dipole               -2.9900 Ry au,         -7.5998 Debye
        Dipole field         -0.0056 Ry au, 
 
        Potential amp.        0.5231 Ry
        Total length         46.3494 bohr
 

     total cpu time spent up to now is      576.1 secs

     total energy              =   -2975.92252859 Ry
     estimated scf accuracy    <       5.46647910 Ry

     iteration # 15     ecut=    29.40 Ry     beta= 0.05
     Davidson diagonalization with overlap
     c_bands:  3 eigenvalues not converged
     c_bands:  2 eigenvalues not converged
     c_bands:  3 eigenvalues not converged
     c_bands:  4 eigenvalues not converged
     ethr =  1.35E-03,  avg # of iterations = 20.6

     negative rho (up, down):  7.164E-04 0.000E+00
 
     Adding external electric field

     Computed dipole along edir(3) : 
        Dipole               -2.8356 Ry au,         -7.2073 Debye
        Dipole field         -0.0054 Ry au, 
 
        Potential amp.        0.4960 Ry
        Total length         46.3494 bohr
 

     total cpu time spent up to now is      602.2 secs

     total energy              =   -2976.78006104 Ry
     estimated scf accuracy    <       2.39137024 Ry

     iteration # 16     ecut=    29.40 Ry     beta= 0.05
     Davidson diagonalization with overlap
     ethr =  5.90E-04,  avg # of iterations =  3.1

     negative rho (up, down):  9.737E-04 0.000E+00
 
     Adding external electric field

     Computed dipole along edir(3) : 
        Dipole               -1.5286 Ry au,         -3.8853 Debye
        Dipole field         -0.0029 Ry au, 
 
        Potential amp.        0.2674 Ry
        Total length         46.3494 bohr
 

     total cpu time spent up to now is      616.7 secs

     total energy              =   -2976.35670173 Ry
     estimated scf accuracy    <       2.16909182 Ry

     iteration # 17     ecut=    29.40 Ry     beta= 0.05
     Davidson diagonalization with overlap
     c_bands:  1 eigenvalues not converged
     c_bands:  1 eigenvalues not converged
     ethr =  5.36E-04,  avg # of iterations = 13.3

     negative rho (up, down):  9.661E-04 0.000E+00
 
     Adding external electric field

     Computed dipole along edir(3) : 
        Dipole               -1.6054 Ry au,         -4.0806 Debye
        Dipole field         -0.0030 Ry au, 
 
        Potential amp.        0.2808 Ry
        Total length         46.3494 bohr
 

     total cpu time spent up to now is      636.3 secs

     total energy              =   -2976.54357083 Ry
     estimated scf accuracy    <       0.84895660 Ry

     iteration # 18     ecut=    29.40 Ry     beta= 0.05
     Davidson diagonalization with overlap
     c_bands:  2 eigenvalues not converged
     c_bands:  1 eigenvalues not converged
     ethr =  2.10E-04,  avg # of iterations =  9.2

     negative rho (up, down):  1.200E-03 0.000E+00
 
     Adding external electric field

     Computed dipole along edir(3) : 
        Dipole               -1.2598 Ry au,         -3.2020 Debye
        Dipole field         -0.0024 Ry au, 
 
        Potential amp.        0.2204 Ry
        Total length         46.3494 bohr
 

     total cpu time spent up to now is      658.1 secs

     total energy              =   -2976.48650274 Ry
     estimated scf accuracy    <       0.60118179 Ry

     iteration # 19     ecut=    29.40 Ry     beta= 0.05
     Davidson diagonalization with overlap
     c_bands:  4 eigenvalues not converged
     c_bands:  1 eigenvalues not converged
     c_bands:  1 eigenvalues not converged
     ethr =  1.48E-04,  avg # of iterations = 13.0

     negative rho (up, down):  1.508E-03 0.000E+00
 
     Adding external electric field

     Computed dipole along edir(3) : 
        Dipole               -0.6488 Ry au,         -1.6492 Debye
        Dipole field         -0.0012 Ry au, 
 
        Potential amp.        0.1135 Ry
        Total length         46.3494 bohr
 

     total cpu time spent up to now is      677.8 secs

     total energy              =   -2976.47795238 Ry
     estimated scf accuracy    <       0.62728806 Ry

     iteration # 20     ecut=    29.40 Ry     beta= 0.05
     Davidson diagonalization with overlap
     c_bands:  1 eigenvalues not converged
     ethr =  1.48E-04,  avg # of iterations = 10.1

     negative rho (up, down):  1.552E-03 0.000E+00
 
     Adding external electric field

     Computed dipole along edir(3) : 
        Dipole               -0.5673 Ry au,         -1.4420 Debye
        Dipole field         -0.0011 Ry au, 
 
        Potential amp.        0.0992 Ry
        Total length         46.3494 bohr
 

     total cpu time spent up to now is      695.2 secs

     total energy              =   -2976.49073331 Ry
     estimated scf accuracy    <       0.32069499 Ry

     iteration # 21     ecut=    29.40 Ry     beta= 0.05
     Davidson diagonalization with overlap
     ethr =  7.92E-05,  avg # of iterations =  4.2

     negative rho (up, down):  2.214E-03 0.000E+00
 
     Adding external electric field

     Computed dipole along edir(3) : 
        Dipole                0.2566 Ry au,          0.6522 Debye
        Dipole field          0.0005 Ry au, 
 
        Potential amp.       -0.0449 Ry
        Total length         46.3494 bohr
 

     total cpu time spent up to now is      710.0 secs

     total energy              =   -2976.44753015 Ry
     estimated scf accuracy    <       0.27736030 Ry

     iteration # 22     ecut=    29.40 Ry     beta= 0.05
     Davidson diagonalization with overlap
     c_bands:  3 eigenvalues not converged
     c_bands:  4 eigenvalues not converged
     c_bands:  2 eigenvalues not converged
     c_bands:  3 eigenvalues not converged
     c_bands:  4 eigenvalues not converged
     c_bands:  1 eigenvalues not converged
     c_bands:  5 eigenvalues not converged
     c_bands:  3 eigenvalues not converged
     c_bands:  1 eigenvalues not converged
     c_bands:  2 eigenvalues not converged
     ethr =  6.85E-05,  avg # of iterations = 20.0

     negative rho (up, down):  2.202E-03 0.000E+00
 
     Adding external electric field

     Computed dipole along edir(3) : 
        Dipole                0.2356 Ry au,          0.5989 Debye
        Dipole field          0.0004 Ry au, 
 
        Potential amp.       -0.0412 Ry
        Total length         46.3494 bohr
 

     total cpu time spent up to now is      736.9 secs

     total energy              =   -2976.47312789 Ry
     estimated scf accuracy    <       0.67090937 Ry

     iteration # 23     ecut=    29.40 Ry     beta= 0.05
     Davidson diagonalization with overlap
     c_bands:  3 eigenvalues not converged
     ethr =  6.85E-05,  avg # of iterations =  5.2

     negative rho (up, down):  2.886E-03 0.000E+00
 
     Adding external electric field

     Computed dipole along edir(3) : 
        Dipole                0.5419 Ry au,          1.3773 Debye
        Dipole field          0.0010 Ry au, 
 
        Potential amp.       -0.0948 Ry
        Total length         46.3494 bohr
 

     total cpu time spent up to now is      752.1 secs

     total energy              =   -2976.45311779 Ry
     estimated scf accuracy    <       0.27606330 Ry

     iteration # 24     ecut=    29.40 Ry     beta= 0.05
     Davidson diagonalization with overlap
     ethr =  6.82E-05,  avg # of iterations =  7.7

     negative rho (up, down):  3.914E-03 0.000E+00
 
     Adding external electric field

     Computed dipole along edir(3) : 
        Dipole                0.8565 Ry au,          2.1769 Debye
        Dipole field          0.0016 Ry au, 
 
        Potential amp.       -0.1498 Ry
        Total length         46.3494 bohr
 

     total cpu time spent up to now is      768.3 secs

     total energy              =   -2976.44965908 Ry
     estimated scf accuracy    <       0.06657949 Ry

     iteration # 25     ecut=    29.40 Ry     beta= 0.05
     Davidson diagonalization with overlap
     c_bands:  2 eigenvalues not converged
     c_bands:  2 eigenvalues not converged
     c_bands:  5 eigenvalues not converged
     c_bands:  1 eigenvalues not converged
     c_bands:  2 eigenvalues not converged
     c_bands:  4 eigenvalues not converged
     c_bands:  3 eigenvalues not converged
     c_bands:  2 eigenvalues not converged
     c_bands:  2 eigenvalues not converged
     c_bands:  2 eigenvalues not converged
     ethr =  1.64E-05,  avg # of iterations = 20.0

     negative rho (up, down):  3.690E-03 0.000E+00
 
     Adding external electric field

     Computed dipole along edir(3) : 
        Dipole                0.8191 Ry au,          2.0818 Debye
        Dipole field          0.0015 Ry au, 
 
        Potential amp.       -0.1433 Ry
        Total length         46.3494 bohr
 

     total cpu time spent up to now is      816.0 secs

     total energy              =   -2976.47006931 Ry
     estimated scf accuracy    <       0.15129561 Ry

     iteration # 26     ecut=    29.40 Ry     beta= 0.05
     Davidson diagonalization with overlap
     c_bands:  2 eigenvalues not converged
     c_bands:  3 eigenvalues not converged
     c_bands:  2 eigenvalues not converged
     ethr =  1.64E-05,  avg # of iterations = 10.1

     negative rho (up, down):  3.747E-03 0.000E+00
 
     Adding external electric field

     Computed dipole along edir(3) : 
        Dipole                0.8598 Ry au,          2.1853 Debye
        Dipole field          0.0016 Ry au, 
 
        Potential amp.       -0.1504 Ry
        Total length         46.3494 bohr
 

     total cpu time spent up to now is      833.1 secs

     total energy              =   -2976.46971571 Ry
     estimated scf accuracy    <       0.12069972 Ry

     iteration # 27     ecut=    29.40 Ry     beta= 0.05
     Davidson diagonalization with overlap
     ethr =  1.64E-05,  avg # of iterations =  3.0

     negative rho (up, down):  4.021E-03 0.000E+00
 
     Adding external electric field

     Computed dipole along edir(3) : 
        Dipole                0.9604 Ry au,          2.4411 Debye
        Dipole field          0.0018 Ry au, 
 
        Potential amp.       -0.1680 Ry
        Total length         46.3494 bohr
 

     total cpu time spent up to now is      883.2 secs

     total energy              =   -2976.46691310 Ry
     estimated scf accuracy    <       0.10381500 Ry

     iteration # 28     ecut=    29.40 Ry     beta= 0.05
     Davidson diagonalization with overlap
     ethr =  1.64E-05,  avg # of iterations =  2.0

     negative rho (up, down):  4.475E-03 0.000E+00
 
     Adding external electric field

     Computed dipole along edir(3) : 
        Dipole                1.0604 Ry au,          2.6954 Debye
        Dipole field          0.0020 Ry au, 
 
        Potential amp.       -0.1855 Ry
        Total length         46.3494 bohr
 

     total cpu time spent up to now is      948.9 secs

     total energy              =   -2976.46871219 Ry
     estimated scf accuracy    <       0.07223559 Ry

     iteration # 29     ecut=    29.40 Ry     beta= 0.05
     Davidson diagonalization with overlap
     ethr =  1.64E-05,  avg # of iterations =  3.2

     negative rho (up, down):  4.407E-03 0.000E+00
 
     Adding external electric field

     Computed dipole along edir(3) : 
        Dipole                1.0443 Ry au,          2.6544 Debye
        Dipole field          0.0020 Ry au, 
 
        Potential amp.       -0.1827 Ry
        Total length         46.3494 bohr
 

     total cpu time spent up to now is      963.8 secs

     total energy              =   -2976.47080915 Ry
     estimated scf accuracy    <       0.08872336 Ry

     iteration # 30     ecut=    29.40 Ry     beta= 0.05
     Davidson diagonalization with overlap
     ethr =  1.64E-05,  avg # of iterations =  1.0

     negative rho (up, down):  4.363E-03 0.000E+00
 
     Adding external electric field

     Computed dipole along edir(3) : 
        Dipole                1.0464 Ry au,          2.6597 Debye
        Dipole field          0.0020 Ry au, 
 
        Potential amp.       -0.1831 Ry
        Total length         46.3494 bohr
 

     total cpu time spent up to now is      977.0 secs

     total energy              =   -2976.47430169 Ry
     estimated scf accuracy    <       0.08281057 Ry

     iteration # 31     ecut=    29.40 Ry     beta= 0.05
     Davidson diagonalization with overlap
     ethr =  1.64E-05,  avg # of iterations =  3.8

     negative rho (up, down):  3.688E-03 0.000E+00
 
     Adding external electric field

     Computed dipole along edir(3) : 
        Dipole                0.9314 Ry au,          2.3673 Debye
        Dipole field          0.0018 Ry au, 
 
        Potential amp.       -0.1629 Ry
        Total length         46.3494 bohr
 

     total cpu time spent up to now is      991.5 secs

     total energy              =   -2976.46055872 Ry
     estimated scf accuracy    <       0.09774475 Ry

     iteration # 32     ecut=    29.40 Ry     beta= 0.05
     Davidson diagonalization with overlap
     c_bands:  2 eigenvalues not converged
     c_bands:  1 eigenvalues not converged
     ethr =  1.64E-05,  avg # of iterations =  8.7

     negative rho (up, down):  3.669E-03 0.000E+00
 
     Adding external electric field

     Computed dipole along edir(3) : 
        Dipole                0.9277 Ry au,          2.3579 Debye
        Dipole field          0.0018 Ry au, 
 
        Potential amp.       -0.1623 Ry
        Total length         46.3494 bohr
 

     total cpu time spent up to now is     1008.5 secs

     total energy              =   -2976.46205528 Ry
     estimated scf accuracy    <       0.03981678 Ry

     iteration # 33     ecut=    29.40 Ry     beta= 0.05
     Davidson diagonalization with overlap
     c_bands:  3 eigenvalues not converged
     c_bands:  1 eigenvalues not converged
     c_bands:  1 eigenvalues not converged
     c_bands:  4 eigenvalues not converged
     c_bands:  2 eigenvalues not converged
     c_bands:  1 eigenvalues not converged
     c_bands:  2 eigenvalues not converged
     c_bands:  1 eigenvalues not converged
     c_bands:  2 eigenvalues not converged
     ethr =  9.83E-06,  avg # of iterations = 19.5

     negative rho (up, down):  3.911E-03 0.000E+00
 
     Adding external electric field

     Computed dipole along edir(3) : 
        Dipole                0.9056 Ry au,          2.3017 Debye
        Dipole field          0.0017 Ry au, 
 
        Potential amp.       -0.1584 Ry
        Total length         46.3494 bohr
 

     total cpu time spent up to now is     1032.2 secs

     total energy              =   -2976.46328097 Ry
     estimated scf accuracy    <       0.07626994 Ry

     iteration # 34     ecut=    29.40 Ry     beta= 0.05
     Davidson diagonalization with overlap
     c_bands:  1 eigenvalues not converged
     c_bands:  1 eigenvalues not converged
     ethr =  9.83E-06,  avg # of iterations = 11.2

     negative rho (up, down):  5.174E-03 0.000E+00
 
     Adding external electric field

     Computed dipole along edir(3) : 
        Dipole                0.9357 Ry au,          2.3782 Debye
        Dipole field          0.0018 Ry au, 
 
        Potential amp.       -0.1637 Ry
        Total length         46.3494 bohr
 

     total cpu time spent up to now is     1049.6 secs

     total energy              =   -2976.45872199 Ry
     estimated scf accuracy    <       0.03309317 Ry

     iteration # 35     ecut=    29.40 Ry     beta= 0.05
     Davidson diagonalization with overlap
     c_bands:  1 eigenvalues not converged
     ethr =  8.17E-06,  avg # of iterations = 14.4

     negative rho (up, down):  5.478E-03 0.000E+00
 
     Adding external electric field

     Computed dipole along edir(3) : 
        Dipole                0.9861 Ry au,          2.5064 Debye
        Dipole field          0.0019 Ry au, 
 
        Potential amp.       -0.1725 Ry
        Total length         46.3494 bohr
 

     total cpu time spent up to now is     1077.2 secs

     total energy              =   -2976.47199932 Ry
     estimated scf accuracy    <       0.08138338 Ry

     iteration # 36     ecut=    29.40 Ry     beta= 0.05
     Davidson diagonalization with overlap
     c_bands:  2 eigenvalues not converged
     c_bands:  1 eigenvalues not converged
     c_bands:  5 eigenvalues not converged
     c_bands:  1 eigenvalues not converged
     c_bands:  1 eigenvalues not converged
     c_bands:  1 eigenvalues not converged
     ethr =  8.17E-06,  avg # of iterations = 19.9

     negative rho (up, down):  4.998E-03 0.000E+00
 
     Adding external electric field

     Computed dipole along edir(3) : 
        Dipole                0.8274 Ry au,          2.1032 Debye
        Dipole field          0.0016 Ry au, 
 
        Potential amp.       -0.1447 Ry
        Total length         46.3494 bohr
 

     total cpu time spent up to now is     1100.6 secs

     total energy              =   -2976.44910490 Ry
     estimated scf accuracy    <       0.52955892 Ry

     iteration # 37     ecut=    29.40 Ry     beta= 0.05
     Davidson diagonalization with overlap
     c_bands:  2 eigenvalues not converged
     c_bands:  4 eigenvalues not converged
     c_bands:  1 eigenvalues not converged
     c_bands:  1 eigenvalues not converged
     c_bands:  3 eigenvalues not converged
     c_bands:  2 eigenvalues not converged
     c_bands:  2 eigenvalues not converged
     c_bands:  1 eigenvalues not converged
     c_bands:  1 eigenvalues not converged
     ethr =  8.17E-06,  avg # of iterations = 20.0

     negative rho (up, down):  6.013E-03 0.000E+00
 
     Adding external electric field

     Computed dipole along edir(3) : 
        Dipole                0.9570 Ry au,          2.4325 Debye
        Dipole field          0.0018 Ry au, 
 
        Potential amp.       -0.1674 Ry
        Total length         46.3494 bohr
 

     total cpu time spent up to now is     1128.2 secs

     total energy              =   -2976.46068558 Ry
     estimated scf accuracy    <       0.02185992 Ry

     iteration # 38     ecut=    29.40 Ry     beta= 0.05
     Davidson diagonalization with overlap
     c_bands:  1 eigenvalues not converged
     c_bands:  2 eigenvalues not converged
     c_bands:  4 eigenvalues not converged
     c_bands:  2 eigenvalues not converged
     c_bands:  3 eigenvalues not converged
     c_bands:  1 eigenvalues not converged
     c_bands:  3 eigenvalues not converged
     c_bands:  3 eigenvalues not converged
     ethr =  5.40E-06,  avg # of iterations = 19.0

     negative rho (up, down):  7.378E-03 0.000E+00
 
     Adding external electric field

     Computed dipole along edir(3) : 
        Dipole                1.0623 Ry au,          2.7001 Debye
        Dipole field          0.0020 Ry au, 
 
        Potential amp.       -0.1858 Ry
        Total length         46.3494 bohr
 

     total cpu time spent up to now is     1157.9 secs

     total energy              =   -2976.46372263 Ry
     estimated scf accuracy    <       0.04099796 Ry

     iteration # 39     ecut=    29.40 Ry     beta= 0.05
     Davidson diagonalization with overlap
     c_bands:  1 eigenvalues not converged
     ethr =  5.40E-06,  avg # of iterations =  7.4

     negative rho (up, down):  8.927E-03 0.000E+00
 
     Adding external electric field

     Computed dipole along edir(3) : 
        Dipole                1.1474 Ry au,          2.9163 Debye
        Dipole field          0.0022 Ry au, 
 
        Potential amp.       -0.2007 Ry
        Total length         46.3494 bohr
 

     total cpu time spent up to now is     1173.9 secs

     total energy              =   -2976.46265978 Ry
     estimated scf accuracy    <       0.02284428 Ry

     iteration # 40     ecut=    29.40 Ry     beta= 0.05
     Davidson diagonalization with overlap
     c_bands:  1 eigenvalues not converged
     c_bands:  1 eigenvalues not converged
     c_bands:  1 eigenvalues not converged
     c_bands:  4 eigenvalues not converged
     c_bands:  1 eigenvalues not converged
     ethr =  5.40E-06,  avg # of iterations = 18.3

     negative rho (up, down):  9.528E-03 0.000E+00
 
     Adding external electric field

     Computed dipole along edir(3) : 
        Dipole                1.1495 Ry au,          2.9217 Debye
        Dipole field          0.0022 Ry au, 
 
        Potential amp.       -0.2011 Ry
        Total length         46.3494 bohr
 

     total cpu time spent up to now is     1195.7 secs

     total energy              =   -2976.46338513 Ry
     estimated scf accuracy    <       0.00434234 Ry

     iteration # 41     ecut=    29.40 Ry     beta= 0.05
     Davidson diagonalization with overlap
     c_bands:  1 eigenvalues not converged
     c_bands:  1 eigenvalues not converged
     c_bands:  2 eigenvalues not converged
     c_bands:  1 eigenvalues not converged
     c_bands:  1 eigenvalues not converged
     c_bands:  1 eigenvalues not converged
     ethr =  1.07E-06,  avg # of iterations = 18.4

     negative rho (up, down):  1.067E-02 0.000E+00
 
     Adding external electric field

     Computed dipole along edir(3) : 
        Dipole                1.1800 Ry au,          2.9993 Debye
        Dipole field          0.0022 Ry au, 
 
        Potential amp.       -0.2064 Ry
        Total length         46.3494 bohr
 

     total cpu time spent up to now is     1218.3 secs

     total energy              =   -2976.46358656 Ry
     estimated scf accuracy    <       0.00891712 Ry

     iteration # 42     ecut=    29.40 Ry     beta= 0.05
     Davidson diagonalization with overlap
     c_bands:  1 eigenvalues not converged
     c_bands:  1 eigenvalues not converged
     ethr =  1.07E-06,  avg # of iterations =  7.6

     negative rho (up, down):  1.149E-02 0.000E+00
 
     Adding external electric field

     Computed dipole along edir(3) : 
        Dipole                1.2017 Ry au,          3.0543 Debye
        Dipole field          0.0023 Ry au, 
 
        Potential amp.       -0.2102 Ry
        Total length         46.3494 bohr
 

     total cpu time spent up to now is     1234.4 secs

     total energy              =   -2976.46368316 Ry
     estimated scf accuracy    <       0.00543767 Ry

     iteration # 43     ecut=    29.40 Ry     beta= 0.05
     Davidson diagonalization with overlap
     c_bands:  2 eigenvalues not converged
     c_bands:  1 eigenvalues not converged
     ethr =  1.07E-06,  avg # of iterations =  9.4

     negative rho (up, down):  1.175E-02 0.000E+00
 
     Adding external electric field

     Computed dipole along edir(3) : 
        Dipole                1.2163 Ry au,          3.0914 Debye
        Dipole field          0.0023 Ry au, 
 
        Potential amp.       -0.2128 Ry
        Total length         46.3494 bohr
 

     total cpu time spent up to now is     1250.9 secs

     total energy              =   -2976.46346494 Ry
     estimated scf accuracy    <       0.00276282 Ry

     iteration # 44     ecut=    29.40 Ry     beta= 0.05
     Davidson diagonalization with overlap
     c_bands:  1 eigenvalues not converged
     c_bands:  1 eigenvalues not converged
     c_bands:  1 eigenvalues not converged
     c_bands:  2 eigenvalues not converged
     ethr =  6.82E-07,  avg # of iterations = 17.1

     negative rho (up, down):  1.177E-02 0.000E+00
 
     Adding external electric field

     Computed dipole along edir(3) : 
        Dipole                1.2087 Ry au,          3.0722 Debye
        Dipole field          0.0023 Ry au, 
 
        Potential amp.       -0.2114 Ry
        Total length         46.3494 bohr
 

     total cpu time spent up to now is     1273.4 secs

     total energy              =   -2976.46378758 Ry
     estimated scf accuracy    <       0.00304664 Ry

     iteration # 45     ecut=    29.40 Ry     beta= 0.05
     Davidson diagonalization with overlap
     ethr =  6.82E-07,  avg # of iterations =  3.2

     negative rho (up, down):  1.269E-02 0.000E+00
 
     Adding external electric field

     Computed dipole along edir(3) : 
        Dipole                1.2092 Ry au,          3.0734 Debye
        Dipole field          0.0023 Ry au, 
 
        Potential amp.       -0.2115 Ry
        Total length         46.3494 bohr
 

     total cpu time spent up to now is     1287.5 secs

     total energy              =   -2976.46378023 Ry
     estimated scf accuracy    <       0.00258422 Ry

     iteration # 46     ecut=    29.40 Ry     beta= 0.05
     Davidson diagonalization with overlap
     ethr =  6.38E-07,  avg # of iterations =  4.9

     negative rho (up, down):  1.371E-02 0.000E+00
 
     Adding external electric field

     Computed dipole along edir(3) : 
        Dipole                1.2211 Ry au,          3.1037 Debye
        Dipole field          0.0023 Ry au, 
 
        Potential amp.       -0.2136 Ry
        Total length         46.3494 bohr
 

     total cpu time spent up to now is     1302.6 secs

     total energy              =   -2976.46383592 Ry
     estimated scf accuracy    <       0.00058110 Ry

     iteration # 47     ecut=    29.40 Ry     beta= 0.05
     Davidson diagonalization with overlap
     c_bands:  1 eigenvalues not converged
     ethr =  1.43E-07,  avg # of iterations = 14.4

     negative rho (up, down):  1.379E-02 0.000E+00
 
     Adding external electric field

     Computed dipole along edir(3) : 
        Dipole                1.2237 Ry au,          3.1102 Debye
        Dipole field          0.0023 Ry au, 
 
        Potential amp.       -0.2141 Ry
        Total length         46.3494 bohr
 

     total cpu time spent up to now is     1322.5 secs

     total energy              =   -2976.46386331 Ry
     estimated scf accuracy    <       0.00037075 Ry

     iteration # 48     ecut=    29.40 Ry     beta= 0.05
     Davidson diagonalization with overlap
     ethr =  9.15E-08,  avg # of iterations =  8.9

     negative rho (up, down):  1.370E-02 0.000E+00
 
     Adding external electric field

     Computed dipole along edir(3) : 
        Dipole                1.2155 Ry au,          3.0896 Debye
        Dipole field          0.0023 Ry au, 
 
        Potential amp.       -0.2126 Ry
        Total length         46.3494 bohr
 

     total cpu time spent up to now is     1339.9 secs

     total energy              =   -2976.46388801 Ry
     estimated scf accuracy    <       0.00009446 Ry

     iteration # 49     ecut=    29.40 Ry     beta= 0.05
     Davidson diagonalization with overlap
     ethr =  2.33E-08,  avg # of iterations = 10.9

     negative rho (up, down):  1.370E-02 0.000E+00
 
     Adding external electric field

     Computed dipole along edir(3) : 
        Dipole                1.2187 Ry au,          3.0977 Debye
        Dipole field          0.0023 Ry au, 
 
        Potential amp.       -0.2132 Ry
        Total length         46.3494 bohr
 

     total cpu time spent up to now is     1363.5 secs

     total energy              =   -2976.46390738 Ry
     estimated scf accuracy    <       0.00008905 Ry

     iteration # 50     ecut=    29.40 Ry     beta= 0.05
     Davidson diagonalization with overlap
     ethr =  2.20E-08,  avg # of iterations = 10.2

     negative rho (up, down):  1.399E-02 0.000E+00
 
     Adding external electric field

     Computed dipole along edir(3) : 
        Dipole                1.2258 Ry au,          3.1157 Debye
        Dipole field          0.0023 Ry au, 
 
        Potential amp.       -0.2144 Ry
        Total length         46.3494 bohr
 

     total cpu time spent up to now is     1380.8 secs

     total energy              =   -2976.46392482 Ry
     estimated scf accuracy    <       0.00003339 Ry

     iteration # 51     ecut=    29.40 Ry     beta= 0.05
     Davidson diagonalization with overlap
     ethr =  8.24E-09,  avg # of iterations = 11.9

     negative rho (up, down):  1.402E-02 0.000E+00
 
     Adding external electric field

     Computed dipole along edir(3) : 
        Dipole                1.2246 Ry au,          3.1127 Debye
        Dipole field          0.0023 Ry au, 
 
        Potential amp.       -0.2142 Ry
        Total length         46.3494 bohr
 

     total cpu time spent up to now is     1406.3 secs

     total energy              =   -2976.46394046 Ry
     estimated scf accuracy    <       0.00005274 Ry

     iteration # 52     ecut=    29.40 Ry     beta= 0.05
     Davidson diagonalization with overlap
     ethr =  8.24E-09,  avg # of iterations =  8.7

     negative rho (up, down):  1.413E-02 0.000E+00
 
     Adding external electric field

     Computed dipole along edir(3) : 
        Dipole                1.2253 Ry au,          3.1143 Debye
        Dipole field          0.0023 Ry au, 
 
        Potential amp.       -0.2143 Ry
        Total length         46.3494 bohr
 

     total cpu time spent up to now is     1422.7 secs

     total energy              =   -2976.46394924 Ry
     estimated scf accuracy    <       0.00002747 Ry

     iteration # 53     ecut=    29.40 Ry     beta= 0.05
     Davidson diagonalization with overlap
     ethr =  6.78E-09,  avg # of iterations =  8.7

     negative rho (up, down):  1.426E-02 0.000E+00
 
     Adding external electric field

     Computed dipole along edir(3) : 
        Dipole                1.2265 Ry au,          3.1174 Debye
        Dipole field          0.0023 Ry au, 
 
        Potential amp.       -0.2146 Ry
        Total length         46.3494 bohr
 

     total cpu time spent up to now is     1442.4 secs

     total energy              =   -2976.46396275 Ry
     estimated scf accuracy    <       0.00000910 Ry

     iteration # 54     ecut=    29.40 Ry     beta= 0.05
     Davidson diagonalization with overlap
     ethr =  2.25E-09,  avg # of iterations = 10.5

     negative rho (up, down):  1.438E-02 0.000E+00
 
     Adding external electric field

     Computed dipole along edir(3) : 
        Dipole                1.2283 Ry au,          3.1220 Debye
        Dipole field          0.0023 Ry au, 
 
        Potential amp.       -0.2149 Ry
        Total length         46.3494 bohr
 

     total cpu time spent up to now is     1461.2 secs

     total energy              =   -2976.46397196 Ry
     estimated scf accuracy    <       0.00000602 Ry

     iteration # 55     ecut=    29.40 Ry     beta= 0.05
     Davidson diagonalization with overlap
     ethr =  1.49E-09,  avg # of iterations =  8.3

     negative rho (up, down):  1.437E-02 0.000E+00
 
     Adding external electric field

     Computed dipole along edir(3) : 
        Dipole                1.2280 Ry au,          3.1214 Debye
        Dipole field          0.0023 Ry au, 
 
        Potential amp.       -0.2148 Ry
        Total length         46.3494 bohr
 

     total cpu time spent up to now is     1478.9 secs

     total energy              =   -2976.46398008 Ry
     estimated scf accuracy    <       0.00000333 Ry

     iteration # 56     ecut=    29.40 Ry     beta= 0.05
     Davidson diagonalization with overlap
     ethr =  8.22E-10,  avg # of iterations =  4.6

     negative rho (up, down):  1.430E-02 0.000E+00
 
     Adding external electric field

     Computed dipole along edir(3) : 
        Dipole                1.2258 Ry au,          3.1158 Debye
        Dipole field          0.0023 Ry au, 
 
        Potential amp.       -0.2144 Ry
        Total length         46.3494 bohr
 

     total cpu time spent up to now is     1494.1 secs

     total energy              =   -2976.46398718 Ry
     estimated scf accuracy    <       0.00000245 Ry

     iteration # 57     ecut=    29.40 Ry     beta= 0.05
     Davidson diagonalization with overlap
     ethr =  6.06E-10,  avg # of iterations =  7.0

     negative rho (up, down):  1.427E-02 0.000E+00
 
     Adding external electric field

     Computed dipole along edir(3) : 
        Dipole                1.2251 Ry au,          3.1138 Debye
        Dipole field          0.0023 Ry au, 
 
        Potential amp.       -0.2143 Ry
        Total length         46.3494 bohr
 

     total cpu time spent up to now is     1511.5 secs

     total energy              =   -2976.46399362 Ry
     estimated scf accuracy    <       0.00000090 Ry

     iteration # 58     ecut=    29.40 Ry     beta= 0.05
     Davidson diagonalization with overlap
     ethr =  2.22E-10,  avg # of iterations = 11.5

     negative rho (up, down):  1.429E-02 0.000E+00
 
     Adding external electric field

     Computed dipole along edir(3) : 
        Dipole                1.2256 Ry au,          3.1152 Debye
        Dipole field          0.0023 Ry au, 
 
        Potential amp.       -0.2144 Ry
        Total length         46.3494 bohr
 

     total cpu time spent up to now is     1535.9 secs

     total energy              =   -2976.46399939 Ry
     estimated scf accuracy    <       0.00000103 Ry

     iteration # 59     ecut=    29.40 Ry     beta= 0.05
     Davidson diagonalization with overlap
     ethr =  2.22E-10,  avg # of iterations =  1.9

     negative rho (up, down):  1.429E-02 0.000E+00
 
     Adding external electric field

     Computed dipole along edir(3) : 
        Dipole                1.2257 Ry au,          3.1154 Debye
        Dipole field          0.0023 Ry au, 
 
        Potential amp.       -0.2144 Ry
        Total length         46.3494 bohr
 

     total cpu time spent up to now is     1550.0 secs

     total energy              =   -2976.46400442 Ry
     estimated scf accuracy    <       0.00000084 Ry

     iteration # 60     ecut=    29.40 Ry     beta= 0.05
     Davidson diagonalization with overlap
     ethr =  2.07E-10,  avg # of iterations =  6.3

     negative rho (up, down):  1.428E-02 0.000E+00
 
     Adding external electric field

     Computed dipole along edir(3) : 
        Dipole                1.2256 Ry au,          3.1152 Debye
        Dipole field          0.0023 Ry au, 
 
        Potential amp.       -0.2144 Ry
        Total length         46.3494 bohr
 

     total cpu time spent up to now is     1566.2 secs

     total energy              =   -2976.46400903 Ry
     estimated scf accuracy    <       0.00000068 Ry

     iteration # 61     ecut=    29.40 Ry     beta= 0.05
     Davidson diagonalization with overlap
     ethr =  1.68E-10,  avg # of iterations =  9.6

     negative rho (up, down):  1.430E-02 0.000E+00
 
     Adding external electric field

     Computed dipole along edir(3) : 
        Dipole                1.2256 Ry au,          3.1151 Debye
        Dipole field          0.0023 Ry au, 
 
        Potential amp.       -0.2144 Ry
        Total length         46.3494 bohr
 

     total cpu time spent up to now is     1594.3 secs

     total energy              =   -2976.46401335 Ry
     estimated scf accuracy    <       0.00000094 Ry

     iteration # 62     ecut=    29.40 Ry     beta= 0.05
     Davidson diagonalization with overlap
     ethr =  1.68E-10,  avg # of iterations =  5.0

     negative rho (up, down):  1.431E-02 0.000E+00
 
     Adding external electric field

     Computed dipole along edir(3) : 
        Dipole                1.2255 Ry au,          3.1150 Debye
        Dipole field          0.0023 Ry au, 
 
        Potential amp.       -0.2144 Ry
        Total length         46.3494 bohr
 

     total cpu time spent up to now is     1610.8 secs

     total energy              =   -2976.46401701 Ry
     estimated scf accuracy    <       0.00000047 Ry

     iteration # 63     ecut=    29.40 Ry     beta= 0.05
     Davidson diagonalization with overlap
     ethr =  1.16E-10,  avg # of iterations =  7.1

     negative rho (up, down):  1.432E-02 0.000E+00
 
     Adding external electric field

     Computed dipole along edir(3) : 
        Dipole                1.2257 Ry au,          3.1154 Debye
        Dipole field          0.0023 Ry au, 
 
        Potential amp.       -0.2144 Ry
        Total length         46.3494 bohr
 

     total cpu time spent up to now is     1629.9 secs

     total energy              =   -2976.46402044 Ry
     estimated scf accuracy    <       0.00000020 Ry

     iteration # 64     ecut=    29.40 Ry     beta= 0.05
     Davidson diagonalization with overlap
     ethr =  4.85E-11,  avg # of iterations =  6.6

     negative rho (up, down):  1.431E-02 0.000E+00
 
     Adding external electric field

     Computed dipole along edir(3) : 
        Dipole                1.2255 Ry au,          3.1150 Debye
        Dipole field          0.0023 Ry au, 
 
        Potential amp.       -0.2144 Ry
        Total length         46.3494 bohr
 

     total cpu time spent up to now is     1659.0 secs

     total energy              =   -2976.46402351 Ry
     estimated scf accuracy    <       0.00000014 Ry

     iteration # 65     ecut=    29.40 Ry     beta= 0.05
     Davidson diagonalization with overlap
     ethr =  3.34E-11,  avg # of iterations = 10.3

     negative rho (up, down):  1.440E-02 0.000E+00
 
     Adding external electric field

     Computed dipole along edir(3) : 
        Dipole                1.2252 Ry au,          3.1141 Debye
        Dipole field          0.0023 Ry au, 
 
        Potential amp.       -0.2143 Ry
        Total length         46.3494 bohr
 

     total cpu time spent up to now is     1679.7 secs

     End of self-consistent calculation

          k = 0.0000 0.0000 0.0000 ( 18029 PWs)   bands (ev):

   -55.4452 -55.3571 -55.3231 -55.2185 -55.2155 -55.1877 -55.1859 -55.1780
   -55.1537 -55.1308 -55.0877 -54.9860 -54.9373 -54.8944 -54.3321 -54.2981
   -31.8423 -31.7916 -31.7222 -31.7048 -31.6906 -31.6758 -31.6551 -31.6480
   -31.6169 -31.6033 -31.5975 -31.5097 -31.4949 -31.4875 -31.4676 -31.4642
   -31.4603 -31.4511 -31.4506 -31.4209 -31.4146 -31.3931 -31.3858 -31.3759
   -31.3713 -31.3551 -31.3542 -31.3222 -31.3217 -31.3153 -31.3145 -31.3088
   -31.3004 -31.2824 -31.2587 -31.2401 -31.1750 -31.1530 -31.1417 -31.1330
   -31.1126 -31.1035 -30.7381 -30.6517 -30.6293 -30.5556 -30.4692 -30.3575
   -17.7442 -16.3674 -16.0114 -15.8475 -15.6327 -15.5401 -15.5130 -15.3142
   -15.2192 -15.1610 -14.9596 -14.9325 -14.8948 -14.8821 -14.8733 -14.8522
   -14.8486 -14.7970 -14.7814 -14.7716 -14.7681 -14.7378 -14.7107 -14.6715
   -14.6119 -14.5981 -14.4954 -14.4401 -14.4002 -14.1589 -14.1387 -13.1765
   -12.8306 -12.7142  -9.4352  -6.4484  -5.7423  -4.2632  -3.9341  -3.3694
    -3.2679  -3.2563  -3.1992  -3.1324  -2.9701  -2.8846  -2.7840  -2.7439
    -2.6132  -2.5973  -2.4927  -2.4439  -2.3709  -2.3248  -2.2835  -2.2488
    -2.2210  -2.1650  -2.1427  -2.1169  -2.1057  -2.0328  -2.0144  -1.9247
    -1.8919  -1.8785  -1.7608  -1.7261  -1.6914  -1.6781  -1.6691  -1.6622
    -1.6191  -1.6088  -1.5982  -1.5558  -1.4556  -1.4478  -1.4301  -1.3395
    -1.2420  -0.9920  -0.9608  -0.9102  -0.8987  -0.8206  -0.7819  -0.7503
    -0.7176  -0.6478  -0.6367  -0.6106  -0.5493  -0.4738  -0.4196  -0.3718
    -0.3377  -0.2259  -0.1758  -0.1319  -0.0991  -0.0623   0.0006   0.0401
     0.0643   0.1074   0.1950   0.2584   0.2858   0.3026   0.3528   0.3946
     0.4326   0.4731   0.5448   0.5673   0.5775   0.6169   0.6254   0.6463
     0.7417   0.7602   0.8197   0.8469   0.9348   0.9658   1.0100   1.1794
     1.2490   1.3075   1.3853   1.4737   1.6398   1.6943   1.7192   1.8883
     2.2617   2.3071   3.7267   3.8741   3.8904   3.9681   3.9850   4.0492
     4.2157   4.2748   4.4154   4.4229

          k = 0.0000 0.0419 0.0000 ( 17933 PWs)   bands (ev):

   -55.4447 -55.3521 -55.3280 -55.2178 -55.2109 -55.1862 -55.1830 -55.1822
   -55.1586 -55.1271 -55.0912 -54.9844 -54.9378 -54.8958 -54.3271 -54.3030
   -31.7883 -31.7629 -31.6878 -31.6727 -31.6544 -31.6513 -31.6479 -31.6432
   -31.5961 -31.5885 -31.5633 -31.5208 -31.4958 -31.4796 -31.4566 -31.4553
   -31.4532 -31.4460 -31.4453 -31.4285 -31.4273 -31.4245 -31.3970 -31.3787
   -31.3727 -31.3695 -31.3648 -31.3532 -31.3502 -31.3296 -31.3236 -31.3180
   -31.3120 -31.2958 -31.2871 -31.2533 -31.1739 -31.1691 -31.1690 -31.1519
   -31.1396 -31.1033 -30.6840 -30.6483 -30.6323 -30.5431 -30.4818 -30.4146
   -17.7424 -16.3632 -15.8854 -15.7350 -15.5268 -15.4965 -15.4118 -15.2451
   -15.1693 -15.1511 -15.0754 -15.0064 -14.8926 -14.8793 -14.8638 -14.8483
   -14.8358 -14.8228 -14.8090 -14.7904 -14.7776 -14.7401 -14.7214 -14.6946
   -14.6554 -14.5591 -14.5531 -14.4982 -14.4592 -14.2598 -14.2110 -13.1768
   -12.8347 -12.7538  -9.4452  -6.4400  -5.7428  -4.2547  -3.9372  -3.1843
    -3.0964  -3.0864  -3.0675  -2.9850  -2.9455  -2.7573  -2.6906  -2.5802
    -2.5583  -2.4824  -2.4215  -2.3932  -2.3661  -2.3209  -2.2960  -2.2854
    -2.2620  -2.2095  -2.1956  -2.1790  -2.1091  -2.0654  -2.0489  -2.0349
    -1.9724  -1.9683  -1.9430  -1.9040  -1.8650  -1.8406  -1.8136  -1.7719
    -1.7454  -1.6086  -1.5884  -1.5302  -1.4324  -1.3611  -1.2561  -1.1266
    -1.0785  -1.0466  -1.0208  -0.9417  -0.8045  -0.7580  -0.6741  -0.6241
    -0.5797  -0.5628  -0.5261  -0.4567  -0.4326  -0.3673  -0.3119  -0.3069
    -0.2789  -0.2320  -0.1809  -0.1640  -0.1095  -0.1008  -0.0786  -0.0263
    -0.0069   0.0377   0.1089   0.1389   0.1616   0.2459   0.3206   0.3615
     0.3891   0.4299   0.4531   0.4699   0.4861   0.4942   0.5773   0.5896
     0.6610   0.7603   0.7858   0.8331   0.8477   0.9099   0.9858   1.0132
     1.0691   1.1112   1.2579   1.3113   1.4534   1.6082   1.8833   1.9774
     2.2170   2.2190   3.9441   3.9736   4.0968   4.1209   4.1584   4.1955
     4.2646   4.3157   4.3617   4.3683

          k = 0.0000-0.0839 0.0000 ( 17884 PWs)   bands (ev):

   -55.4443 -55.3401 -55.3399 -55.2172 -55.2038 -55.1896 -55.1865 -55.1720
   -55.1691 -55.1225 -55.0957 -54.9828 -54.9383 -54.8973 -54.3150 -54.3150
   -31.7279 -31.6699 -31.6561 -31.6559 -31.6556 -31.6479 -31.6335 -31.6332
   -31.5763 -31.5280 -31.5076 -31.4976 -31.4918 -31.4745 -31.4623 -31.4621
   -31.4561 -31.4505 -31.4428 -31.4368 -31.4304 -31.4295 -31.4219 -31.4207
   -31.4191 -31.3975 -31.3897 -31.3744 -31.3511 -31.3449 -31.3415 -31.3384
   -31.3162 -31.3121 -31.2935 -31.2527 -31.2354 -31.2074 -31.1728 -31.1518
   -31.1495 -31.1030 -30.6401 -30.6400 -30.5513 -30.5509 -30.5125 -30.5123
   -17.7407 -16.3598 -15.6422 -15.5503 -15.4677 -15.4489 -15.2564 -15.2519
   -15.2052 -15.1933 -15.0993 -15.0663 -15.0257 -15.0050 -14.9325 -14.8812
   -14.8193 -14.7896 -14.7315 -14.7258 -14.7230 -14.6953 -14.6932 -14.6622
   -14.6443 -14.6248 -14.6080 -14.5908 -14.4871 -14.4669 -14.2957 -13.1769
   -12.8166 -12.8164  -9.4552  -6.4324  -5.7433  -4.2473  -3.9403  -2.9443
    -2.8426  -2.7836  -2.7525  -2.7034  -2.6862  -2.6690  -2.6506  -2.6497
    -2.6136  -2.5893  -2.5531  -2.4947  -2.3839  -2.3700  -2.3638  -2.3479
    -2.3334  -2.3076  -2.2929  -2.2149  -2.1998  -2.1580  -2.1473  -2.0881
    -2.0730  -2.0222  -2.0167  -1.9250  -1.8761  -1.8021  -1.7386  -1.6707
    -1.6214  -1.4608  -1.4546  -1.3791  -1.3600  -1.3317  -1.1803  -1.1213
    -1.0304  -0.9776  -0.9514  -0.8601  -0.8023  -0.7668  -0.7562  -0.7527
    -0.7098  -0.7040  -0.6735  -0.6230  -0.5809  -0.4646  -0.4509  -0.3565
    -0.3464  -0.1330  -0.0428  -0.0102   0.0035   0.0253   0.0307   0.0758
     0.0876   0.1477   0.1753   0.1792   0.2000   0.2244   0.2479   0.2709
     0.3074   0.3354   0.3858   0.4298   0.4410   0.4492   0.4733   0.5167
     0.5549   0.5862   0.6021   0.6688   0.7250   0.8063   0.8893   0.9137
     0.9514   1.0601   1.1627   1.3472   1.4021   1.4439   2.0255   2.0335
     2.1526   2.1532   4.1789   4.2085   4.2155   4.2508   4.2703   4.2878
     4.3199   4.3363   4.3854   4.4348

          k = 0.0380 0.0000 0.0000 ( 17913 PWs)   bands (ev):

   -55.4451 -55.3570 -55.3230 -55.2184 -55.2154 -55.1875 -55.1858 -55.1779
   -55.1536 -55.1308 -55.0876 -54.9859 -54.9372 -54.8943 -54.3320 -54.2980
   -31.8431 -31.7932 -31.7227 -31.7066 -31.6908 -31.6726 -31.6537 -31.6478
   -31.6223 -31.6033 -31.5976 -31.5068 -31.4957 -31.4873 -31.4639 -31.4546
   -31.4510 -31.4478 -31.4465 -31.4207 -31.4144 -31.3924 -31.3785 -31.3756
   -31.3741 -31.3554 -31.3520 -31.3414 -31.3215 -31.3150 -31.3143 -31.3087
   -31.2999 -31.2830 -31.2586 -31.2400 -31.1792 -31.1539 -31.1415 -31.1329
   -31.1125 -31.1045 -30.7377 -30.6551 -30.6273 -30.5554 -30.4691 -30.3573
   -17.7436 -16.3646 -15.9297 -15.7643 -15.5816 -15.5319 -15.4250 -15.3446
   -15.2219 -15.1625 -15.0622 -15.0493 -14.9974 -14.9771 -14.9686 -14.9139
   -14.8466 -14.7861 -14.7739 -14.7650 -14.7578 -14.6367 -14.6227 -14.6025
   -14.5598 -14.5526 -14.5342 -14.5134 -14.4553 -14.1569 -14.1379 -13.1768
   -12.8274 -12.7139  -9.4346  -6.4482  -5.7449  -4.2638  -3.9257  -3.2408
    -3.0715  -3.0167  -2.9944  -2.9854  -2.9308  -2.8505  -2.7999  -2.7379
    -2.6925  -2.6631  -2.5926  -2.5767  -2.5200  -2.4373  -2.3839  -2.3001
    -2.2225  -2.1134  -2.0751  -2.0137  -1.9702  -1.9492  -1.9067  -1.8645
    -1.8076  -1.7648  -1.7354  -1.7259  -1.7148  -1.6733  -1.6727  -1.6424
    -1.6292  -1.5671  -1.5602  -1.4583  -1.3739  -1.2608  -1.2234  -1.2058
    -1.1333  -1.0954  -1.0210  -0.9554  -0.9234  -0.8680  -0.8261  -0.7894
    -0.7485  -0.7005  -0.6752  -0.6403  -0.6117  -0.5771  -0.5131  -0.4580
    -0.4214  -0.3353  -0.2407  -0.1693  -0.0955  -0.0690   0.0078   0.0275
     0.0891   0.1363   0.1710   0.2139   0.2598   0.2863   0.3487   0.3542
     0.3891   0.3983   0.4180   0.4912   0.5027   0.5225   0.5477   0.5966
     0.6634   0.7232   0.7434   0.8188   0.8822   0.9150   0.9633   1.0151
     1.0382   1.2508   1.3403   1.4675   1.5880   1.6480   1.7062   1.8582
     2.1505   2.2253   3.7410   3.8332   4.0707   4.1289   4.1700   4.2096
     4.2144   4.2397   4.2797   4.3351

          k = 0.0380 0.0419 0.0000 ( 17878 PWs)   bands (ev):

   -55.4447 -55.3520 -55.3280 -55.2177 -55.2108 -55.1862 -55.1829 -55.1821
   -55.1585 -55.1271 -55.0912 -54.9844 -54.9377 -54.8957 -54.3270 -54.3030
   -31.7891 -31.7641 -31.6893 -31.6699 -31.6528 -31.6525 -31.6486 -31.6430
   -31.5963 -31.5887 -31.5698 -31.5209 -31.4933 -31.4794 -31.4597 -31.4535
   -31.4452 -31.4415 -31.4371 -31.4281 -31.4274 -31.4183 -31.3860 -31.3788
   -31.3767 -31.3662 -31.3651 -31.3534 -31.3502 -31.3358 -31.3292 -31.3235
   -31.3121 -31.2937 -31.2908 -31.2532 -31.1776 -31.1690 -31.1687 -31.1532
   -31.1395 -31.1051 -30.6837 -30.6509 -30.6313 -30.5429 -30.4818 -30.4145
   -17.7420 -16.3615 -15.8130 -15.6607 -15.5264 -15.4315 -15.3335 -15.2639
   -15.1721 -15.1465 -15.0822 -15.0446 -15.0141 -14.9581 -14.9258 -14.8670
   -14.8518 -14.8372 -14.8242 -14.8050 -14.7630 -14.6885 -14.6706 -14.6402
   -14.6171 -14.6024 -14.5878 -14.5619 -14.4870 -14.2575 -14.2107 -13.1771
   -12.8325 -12.7541  -9.4448  -6.4401  -5.7457  -4.2574  -3.9236  -3.0758
    -2.9711  -2.9132  -2.8469  -2.8231  -2.8118  -2.7118  -2.6870  -2.5828
    -2.5617  -2.5015  -2.4733  -2.4345  -2.3515  -2.3340  -2.2628  -2.2363
    -2.2041  -2.1864  -2.1392  -2.1129  -2.0869  -2.0473  -2.0157  -2.0024
    -1.9777  -1.9625  -1.9158  -1.8939  -1.8603  -1.8061  -1.7638  -1.7212
    -1.6792  -1.5705  -1.5164  -1.4327  -1.4058  -1.3365  -1.2920  -1.1459
    -1.1038  -1.0425  -0.9929  -0.9280  -0.8226  -0.7698  -0.7377  -0.7129
    -0.6584  -0.6161  -0.5912  -0.5633  -0.5077  -0.4593  -0.3932  -0.3774
    -0.3465  -0.3263  -0.3125  -0.2290  -0.1529  -0.1382  -0.1084  -0.0899
    -0.0528  -0.0263   0.0325   0.0601   0.0804   0.1193   0.2130   0.2435
     0.2838   0.3148   0.3824   0.4036   0.4290   0.4814   0.4865   0.5795
     0.6938   0.7380   0.7975   0.8197   0.8833   0.9484   0.9826   1.0140
     1.0551   1.0848   1.2277   1.2815   1.4563   1.5438   1.8935   1.9803
     2.1397   2.1997   3.9382   3.9584   4.0930   4.1991   4.2297   4.2719
     4.3090   4.3344   4.3435   4.3782

          k = 0.0380-0.0839 0.0000 ( 17916 PWs)   bands (ev):

   -55.4444 -55.3401 -55.3399 -55.2172 -55.2039 -55.1896 -55.1865 -55.1720
   -55.1691 -55.1226 -55.0957 -54.9829 -54.9383 -54.8973 -54.3151 -54.3150
   -31.7290 -31.6699 -31.6568 -31.6567 -31.6561 -31.6450 -31.6336 -31.6333
   -31.5763 -31.5297 -31.5087 -31.4984 -31.4929 -31.4827 -31.4612 -31.4611
   -31.4579 -31.4561 -31.4433 -31.4390 -31.4369 -31.4304 -31.4177 -31.3997
   -31.3943 -31.3921 -31.3870 -31.3795 -31.3505 -31.3448 -31.3411 -31.3383
   -31.3228 -31.3163 -31.3035 -31.2524 -31.2352 -31.2072 -31.1760 -31.1536
   -31.1495 -31.1056 -30.6411 -30.6410 -30.5512 -30.5508 -30.5125 -30.5123
   -17.7404 -16.3586 -15.6175 -15.5044 -15.4155 -15.4007 -15.2043 -15.1870
   -15.1724 -15.1649 -15.1130 -15.0464 -15.0248 -14.9968 -14.9483 -14.8994
   -14.8759 -14.8175 -14.7878 -14.7716 -14.7674 -14.7235 -14.7110 -14.6988
   -14.6696 -14.6562 -14.6469 -14.6141 -14.4735 -14.4542 -14.2920 -13.1774
   -12.8164 -12.8162  -9.4547  -6.4327  -5.7458  -4.2481  -3.9317  -2.9487
    -2.8115  -2.6812  -2.6175  -2.5848  -2.5774  -2.5052  -2.4928  -2.4573
    -2.4543  -2.4385  -2.4240  -2.4118  -2.3470  -2.3333  -2.2911  -2.2568
    -2.2452  -2.2336  -2.2063  -2.1985  -2.1566  -2.1311  -2.0976  -2.0682
    -2.0473  -2.0186  -1.9928  -1.9620  -1.9276  -1.8164  -1.7490  -1.5629
    -1.5228  -1.4681  -1.4480  -1.3916  -1.3026  -1.2791  -1.2295  -1.1717
    -1.1597  -1.0983  -1.0960  -1.0694  -1.0182  -0.9983  -0.9622  -0.8857
    -0.8492  -0.7665  -0.6712  -0.6291  -0.5535  -0.5280  -0.4690  -0.4444
    -0.3559  -0.2531  -0.2067  -0.1781  -0.1398  -0.1183  -0.0849  -0.0416
    -0.0182  -0.0060   0.0159   0.0420   0.0551   0.0753   0.1017   0.1288
     0.2194   0.2446   0.3330   0.3926   0.4610   0.4846   0.5555   0.5815
     0.6963   0.7157   0.7595   0.7877   0.8258   0.8642   0.9142   0.9356
     0.9849   1.0554   1.1566   1.3260   1.3546   1.4493   2.0385   2.0461
     2.1421   2.1430   4.0877   4.1875   4.1944   4.2213   4.2572   4.2794
     4.3388   4.3438   4.4045   4.4191

          k = 0.0380-0.0419 0.0000 ( 17876 PWs)   bands (ev):

   -55.4447 -55.3520 -55.3280 -55.2177 -55.2108 -55.1861 -55.1829 -55.1821
   -55.1585 -55.1271 -55.0912 -54.9844 -54.9377 -54.8957 -54.3270 -54.3030
   -31.7891 -31.7645 -31.6888 -31.6699 -31.6530 -31.6524 -31.6486 -31.6430
   -31.5963 -31.5887 -31.5698 -31.5209 -31.4933 -31.4794 -31.4580 -31.4519
   -31.4452 -31.4414 -31.4370 -31.4281 -31.4274 -31.4227 -31.3860 -31.3790
   -31.3757 -31.3668 -31.3643 -31.3534 -31.3502 -31.3359 -31.3293 -31.3235
   -31.3121 -31.2938 -31.2906 -31.2532 -31.1776 -31.1689 -31.1687 -31.1532
   -31.1395 -31.1051 -30.6837 -30.6509 -30.6313 -30.5429 -30.4818 -30.4145
   -17.7420 -16.3613 -15.8124 -15.6593 -15.5281 -15.4281 -15.3332 -15.2641
   -15.1728 -15.1470 -15.0810 -15.0556 -15.0148 -14.9578 -14.9337 -14.8668
   -14.8420 -14.8354 -14.8250 -14.8032 -14.7603 -14.6879 -14.6694 -14.6402
   -14.6182 -14.6026 -14.5879 -14.5621 -14.4866 -14.2580 -14.2108 -13.1771
   -12.8325 -12.7541  -9.4445  -6.4399  -5.7450  -4.2536  -3.9338  -3.0756
    -2.9692  -2.9137  -2.8397  -2.8175  -2.8111  -2.7122  -2.6888  -2.5946
    -2.5591  -2.5015  -2.4776  -2.4320  -2.3598  -2.3329  -2.2606  -2.2390
    -2.2070  -2.1984  -2.1490  -2.1140  -2.0828  -2.0534  -2.0282  -2.0029
    -1.9805  -1.9639  -1.9083  -1.8875  -1.8356  -1.8035  -1.7617  -1.7037
    -1.6728  -1.5741  -1.4985  -1.4449  -1.4027  -1.3475  -1.2975  -1.1335
    -1.1047  -1.0258  -0.9771  -0.9456  -0.8276  -0.7663  -0.7284  -0.7126
    -0.6685  -0.6323  -0.5882  -0.5446  -0.5107  -0.4644  -0.4263  -0.3774
    -0.3355  -0.3180  -0.2611  -0.2416  -0.1549  -0.1419  -0.1256  -0.0654
    -0.0477  -0.0190   0.0100   0.0564   0.0882   0.1386   0.1711   0.2251
     0.2708   0.3003   0.3654   0.3928   0.4226   0.4754   0.4963   0.5874
     0.6875   0.7389   0.7974   0.8265   0.8870   0.9530   0.9789   1.0168
     1.0819   1.0945   1.2272   1.2813   1.4621   1.5442   1.8934   1.9803
     2.1394   2.2003   3.9384   3.9587   4.0871   4.1966   4.2338   4.2615
     4.3197   4.3389   4.3493   4.3798

          k =-0.0760-0.0000 0.0000 ( 17886 PWs)   bands (ev):

   -55.4450 -55.3570 -55.3230 -55.2183 -55.2153 -55.1874 -55.1858 -55.1779
   -55.1536 -55.1308 -55.0876 -54.9859 -54.9372 -54.8942 -54.3320 -54.2980
   -31.8440 -31.7950 -31.7233 -31.7085 -31.6909 -31.6700 -31.6521 -31.6476
   -31.6275 -31.6033 -31.5977 -31.5039 -31.4966 -31.4872 -31.4638 -31.4506
   -31.4466 -31.4448 -31.4207 -31.4148 -31.4133 -31.3913 -31.3783 -31.3768
   -31.3744 -31.3720 -31.3551 -31.3505 -31.3214 -31.3150 -31.3143 -31.3085
   -31.2996 -31.2839 -31.2586 -31.2403 -31.1843 -31.1551 -31.1414 -31.1329
   -31.1126 -31.1055 -30.7373 -30.6583 -30.6260 -30.5554 -30.4690 -30.3573
   -17.7431 -16.3623 -15.7917 -15.6811 -15.6268 -15.4456 -15.3362 -15.3245
   -15.2110 -15.1779 -15.1323 -15.1219 -15.0711 -15.0591 -15.0409 -15.0297
   -14.8270 -14.8120 -14.8067 -14.7517 -14.7130 -14.6525 -14.6480 -14.6172
   -14.6063 -14.5131 -14.4836 -14.4783 -14.4462 -14.1559 -14.1375 -13.1771
   -12.8244 -12.7136  -9.4341  -6.4482  -5.7477  -4.2651  -3.9173  -3.2097
    -2.9995  -2.9646  -2.8604  -2.8057  -2.7936  -2.7599  -2.7344  -2.6504
    -2.6337  -2.6177  -2.6153  -2.6044  -2.5974  -2.5607  -2.2696  -2.2635
    -2.1562  -2.0755  -1.9557  -1.9472  -1.8672  -1.8506  -1.8318  -1.7987
    -1.7878  -1.7748  -1.7393  -1.7100  -1.6918  -1.6726  -1.6367  -1.5878
    -1.5815  -1.5686  -1.5641  -1.4661  -1.4384  -1.3930  -1.2825  -1.1651
    -1.0861  -0.9594  -0.9472  -0.9407  -0.9389  -0.9047  -0.8652  -0.8193
    -0.8093  -0.7736  -0.7427  -0.6633  -0.6501  -0.6297  -0.5976  -0.5416
    -0.5128  -0.4478  -0.3183  -0.2229  -0.2082  -0.0933  -0.0636   0.0132
     0.0671   0.0793   0.1081   0.1261   0.1898   0.2133   0.2687   0.2773
     0.3229   0.3584   0.3810   0.4076   0.4480   0.4704   0.4940   0.5851
     0.6221   0.6894   0.7338   0.7641   0.8559   0.8881   0.9090   1.0135
     1.1377   1.2642   1.3090   1.3382   1.4788   1.6529   1.7271   1.8342
     2.0235   2.1702   3.7427   3.7900   4.0409   4.0630   4.1105   4.1633
     4.1909   4.2124   4.3059   4.3448

          k =-0.0760 0.0419 0.0000 ( 17914 PWs)   bands (ev):

   -55.4447 -55.3520 -55.3280 -55.2177 -55.2108 -55.1862 -55.1829 -55.1821
   -55.1585 -55.1272 -55.0912 -54.9844 -54.9377 -54.8958 -54.3270 -54.3030
   -31.7901 -31.7660 -31.6901 -31.6679 -31.6543 -31.6508 -31.6492 -31.6430
   -31.5964 -31.5890 -31.5760 -31.5212 -31.4912 -31.4794 -31.4607 -31.4533
   -31.4454 -31.4336 -31.4280 -31.4274 -31.4151 -31.4132 -31.3812 -31.3799
   -31.3749 -31.3689 -31.3633 -31.3627 -31.3504 -31.3491 -31.3291 -31.3234
   -31.3121 -31.2963 -31.2922 -31.2533 -31.1816 -31.1690 -31.1688 -31.1547
   -31.1396 -31.1070 -30.6835 -30.6537 -30.6306 -30.5429 -30.4819 -30.4145
   -17.7416 -16.3597 -15.6977 -15.5867 -15.5494 -15.3496 -15.2585 -15.2372
   -15.1556 -15.1242 -15.0996 -15.0902 -15.0724 -15.0294 -15.0164 -14.9792
   -14.8600 -14.8527 -14.8331 -14.7906 -14.7826 -14.6767 -14.6663 -14.6641
   -14.6435 -14.6202 -14.5867 -14.5407 -14.4830 -14.2558 -14.2117 -13.1776
   -12.8304 -12.7544  -9.4441  -6.4401  -5.7480  -4.2567  -3.9203  -3.0539
    -2.9690  -2.8370  -2.7229  -2.6191  -2.5726  -2.5547  -2.5354  -2.5135
    -2.4982  -2.4290  -2.4221  -2.3966  -2.3517  -2.3156  -2.2915  -2.2529
    -2.2035  -2.1595  -2.0916  -2.0777  -2.0288  -2.0163  -1.9690  -1.9340
    -1.9182  -1.8924  -1.8655  -1.8512  -1.8430  -1.8166  -1.7763  -1.7078
    -1.6205  -1.4534  -1.4398  -1.4112  -1.3386  -1.3106  -1.2736  -1.2443
    -1.1428  -1.0737  -0.9772  -0.9627  -0.8763  -0.8466  -0.7894  -0.7485
    -0.7260  -0.6785  -0.6223  -0.6084  -0.5889  -0.5819  -0.5605  -0.5271
    -0.5010  -0.4629  -0.4246  -0.3957  -0.3519  -0.2851  -0.2486  -0.2199
    -0.1558  -0.1177  -0.0725  -0.0355   0.0092   0.0455   0.0684   0.1387
     0.2365   0.2434   0.3372   0.4290   0.4530   0.4725   0.5216   0.5883
     0.6807   0.7476   0.7858   0.8706   0.9567   1.0013   1.0223   1.0883
     1.1415   1.1578   1.1946   1.2863   1.3451   1.4683   1.9068   1.9819
     2.0625   2.1889   3.9343   3.9529   4.0221   4.0945   4.1465   4.1882
     4.2679   4.2825   4.4367   4.4604

          k =-0.0760-0.0839 0.0000 ( 17948 PWs)   bands (ev):

   -55.4444 -55.3401 -55.3399 -55.2172 -55.2039 -55.1896 -55.1866 -55.1719
   -55.1691 -55.1227 -55.0958 -54.9829 -54.9383 -54.8973 -54.3151 -54.3150
   -31.7302 -31.6699 -31.6576 -31.6575 -31.6564 -31.6424 -31.6336 -31.6333
   -31.5763 -31.5313 -31.5098 -31.4990 -31.4936 -31.4886 -31.4657 -31.4600
   -31.4595 -31.4565 -31.4499 -31.4375 -31.4308 -31.4280 -31.4164 -31.3904
   -31.3859 -31.3840 -31.3763 -31.3684 -31.3500 -31.3446 -31.3413 -31.3409
   -31.3380 -31.3179 -31.3164 -31.2520 -31.2350 -31.2070 -31.1792 -31.1553
   -31.1496 -31.1083 -30.6420 -30.6420 -30.5512 -30.5508 -30.5126 -30.5124
   -17.7402 -16.3574 -15.5922 -15.4472 -15.3386 -15.3283 -15.2044 -15.1372
   -15.1274 -15.0938 -15.0710 -15.0491 -15.0307 -15.0154 -14.9607 -14.9209
   -14.8895 -14.8621 -14.8575 -14.8146 -14.8049 -14.7936 -14.7757 -14.7641
   -14.7089 -14.6727 -14.6631 -14.6046 -14.4654 -14.4449 -14.2890 -13.1779
   -12.8162 -12.8160  -9.4542  -6.4329  -5.7483  -4.2489  -3.9230  -2.9543
    -2.8018  -2.6587  -2.6103  -2.5631  -2.4497  -2.4254  -2.3674  -2.3169
    -2.2927  -2.2713  -2.2189  -2.2091  -2.1633  -2.1472  -2.1229  -2.1082
    -2.0917  -2.0852  -2.0573  -2.0415  -2.0311  -2.0180  -1.9911  -1.9800
    -1.9618  -1.9330  -1.9129  -1.9037  -1.8704  -1.8280  -1.7668  -1.6559
    -1.5820  -1.5711  -1.5275  -1.5026  -1.4864  -1.4453  -1.4327  -1.3917
    -1.3743  -1.3082  -1.1503  -1.1252  -1.1107  -0.9682  -0.9609  -0.9321
    -0.8579  -0.8162  -0.7944  -0.7364  -0.7065  -0.6658  -0.5895  -0.5462
    -0.4919  -0.4258  -0.3259  -0.3183  -0.3022  -0.2822  -0.2660  -0.2582
    -0.2250  -0.1878  -0.1148  -0.0682  -0.0595  -0.0535  -0.0023   0.0775
     0.1284   0.2427   0.3889   0.3934   0.4604   0.4612   0.6609   0.6697
     0.7464   0.7819   0.8163   0.8434   0.9372   0.9553   0.9929   1.0756
     1.1392   1.1687   1.1897   1.1944   1.2475   1.4556   2.0567   2.0645
     2.1274   2.1275   3.9678   4.2008   4.2417   4.2543   4.2727   4.2991
     4.3127   4.3268   4.3938   4.4170

     the Fermi energy is     3.7640 ev

!    total energy              =   -2976.46405156 Ry
     estimated scf accuracy    <       0.00000007 Ry
     smearing contrib. (-TS)   =      -0.01955622 Ry
     internal energy E=F+TS    =   -2976.44449533 Ry

     The total energy is F=E-TS. E is the sum of the following terms:
     one-electron contribution =  -23036.86111451 Ry
     hartree contribution      =   11616.15148191 Ry
     xc contribution           =    -495.72263530 Ry
     ewald contribution        =    8939.98493988 Ry
     electric field correction =       0.00283269 Ry

     convergence has been achieved in  65 iterations

     Forces acting on atoms (cartesian axes, Ry/au):

     atom    1 type  1   force =     0.00016137   -0.00022872    0.09415271
     atom    2 type  1   force =    -0.00010312    0.00018026   -0.17537843
     atom    3 type  2   force =     0.00005441   -0.00049347   -0.02103311
     atom    4 type  2   force =    -0.00002431   -0.00093722    0.05424485
     atom    5 type  2   force =    -0.00487877   -0.00215670    0.00107476
     atom    6 type  2   force =     0.00670213   -0.00138220    0.00109125
     atom    7 type  1   force =     0.00005998    0.00331219    0.00866229
     atom    8 type  1   force =    -0.00010021    0.00119770    0.00270029
     atom    9 type  2   force =    -0.00022031   -0.00030317   -0.00059105
     atom   10 type  2   force =    -0.00112034    0.00429265   -0.01024932
     atom   11 type  2   force =    -0.00008782   -0.00055115   -0.00011040
     atom   12 type  2   force =     0.00063024   -0.00031493   -0.00027261
     atom   13 type  1   force =    -0.00143418    0.00019269   -0.00057975
     atom   14 type  1   force =     0.00070931    0.00017303   -0.00047486
     atom   15 type  2   force =     0.00013322   -0.00001618    0.00004428
     atom   16 type  2   force =    -0.00009509   -0.00069222   -0.00029578
     atom   17 type  2   force =    -0.00042911    0.00068766    0.00008183
     atom   18 type  2   force =    -0.00076785    0.00031437   -0.00020627
     atom   19 type  1   force =     0.00042085   -0.00093233    0.00061888
     atom   20 type  1   force =    -0.00069496   -0.00006543    0.00054660
     atom   21 type  2   force =     0.00003761   -0.00000963    0.10320081
     atom   22 type  2   force =    -0.00010391    0.00003828    0.00043365
     atom   23 type  2   force =    -0.07198821   -0.00020087   -0.02727526
     atom   24 type  2   force =     0.07186593    0.00025567   -0.02734578
     atom   25 type  1   force =     0.00007490   -0.00017053    0.09388306
     atom   26 type  1   force =    -0.00011979   -0.00136718   -0.17552349
     atom   27 type  2   force =     0.00011090   -0.00005357   -0.01984417
     atom   28 type  2   force =     0.00006419   -0.00105089    0.04979330
     atom   29 type  2   force =    -0.00746246    0.00209630    0.00339883
     atom   30 type  2   force =     0.00906604    0.00223758    0.00331715
     atom   31 type  1   force =     0.00019684    0.00151311    0.00006446
     atom   32 type  1   force =    -0.00008754   -0.00227223    0.00301432
     atom   33 type  2   force =    -0.00017677   -0.00031615   -0.00002085
     atom   34 type  2   force =    -0.00117189   -0.00218377   -0.00964014
     atom   35 type  2   force =     0.00062649    0.00005577   -0.00022742
     atom   36 type  2   force =     0.00038818    0.00011574   -0.00035603
     atom   37 type  1   force =    -0.00096467    0.00025481    0.00034244
     atom   38 type  1   force =     0.00096584   -0.00023496    0.00019364
     atom   39 type  2   force =    -0.00016999   -0.00052544    0.00010154
     atom   40 type  2   force =    -0.00020046   -0.00019501   -0.00016276
     atom   41 type  2   force =     0.00025448   -0.00031703   -0.00008715
     atom   42 type  2   force =    -0.00066354    0.00005737   -0.00009345
     atom   43 type  1   force =     0.00023707    0.00092902    0.00047868
     atom   44 type  1   force =    -0.00041163    0.00086255    0.00008473
     atom   45 type  2   force =     0.00002584    0.00003363    0.10303646
     atom   46 type  2   force =    -0.07193987   -0.00007817   -0.02722886
     atom   47 type  2   force =     0.07182916    0.00035368   -0.02731193
     atom   48 type  3   force =    -0.00036524   -0.00034644   -0.00028306
     atom   49 type  3   force =    -0.00050323   -0.00020717   -0.00055220
     atom   50 type  4   force =    -0.00274681    0.00069494    0.00337992
     atom   51 type  5   force =     0.00218471   -0.00159615   -0.00294448
     atom   52 type  5   force =     0.00128034   -0.00035301   -0.00000454
     atom   53 type  5   force =    -0.00088409    0.00090009   -0.00023078
     atom   54 type  5   force =     0.00069576   -0.00029478   -0.00000078
     atom   55 type  5   force =     0.00059109   -0.00061168    0.00006990
     atom   56 type  5   force =     0.00063976   -0.00003770   -0.00006144
     atom   57 type  2   force =     0.00069282   -0.00120019    0.00012851
     atom   58 type  5   force =    -0.00078326    0.00094716    0.00024702

     Total force =     0.362047     Total SCF correction =     0.000692
  @ DRIVER MODE: Message from server: STATUS
  @ DRIVER MODE: Message from server: GETFORCE
  @ DRIVER MODE: Returning v,forces,stress,ensemble 

     Writing output data file ./calc.save/
  @ DRIVER MODE: Message from server: EXIT
  @ DRIVE MODE: Exiting  
 
     init_run     :     13.80s CPU     14.18s WALL (       1 calls)
     electrons    :   1559.07s CPU   1616.53s WALL (       1 calls)
     forces       :      6.73s CPU      8.78s WALL (       1 calls)

     Called by init_run:
     wfcinit      :      6.09s CPU      6.26s WALL (       1 calls)
     potinit      :      6.96s CPU      7.04s WALL (       1 calls)
     hinit0       :      0.36s CPU      0.38s WALL (       1 calls)

     Called by electrons:
     c_bands      :   1329.92s CPU   1372.67s WALL (      65 calls)
     sum_band     :    163.89s CPU    170.36s WALL (      65 calls)
     v_of_rho     :     48.81s CPU     51.38s WALL (      66 calls)
     newd         :     18.11s CPU     23.42s WALL (      66 calls)
     mix_rho      :      4.01s CPU      4.24s WALL (      65 calls)
     vdW_kernel   :      5.85s CPU      5.87s WALL (       1 calls)

     Called by c_bands:
     init_us_2    :      6.93s CPU      7.02s WALL (    1320 calls)
     cegterg      :   1307.01s CPU   1349.22s WALL (     665 calls)

     Called by *egterg:
     cdiaghg      :    209.31s CPU    212.82s WALL (    7110 calls)
     h_psi        :    730.32s CPU    761.23s WALL (    7123 calls)
     s_psi        :     84.32s CPU     84.79s WALL (    7123 calls)
     g_psi        :      2.16s CPU      2.17s WALL (    6448 calls)

     Called by h_psi:
     h_psi:calbec :     83.26s CPU     85.19s WALL (    7123 calls)
     vloc_psi     :    559.87s CPU    584.75s WALL (    7123 calls)
     add_vuspsi   :     84.62s CPU     86.46s WALL (    7123 calls)

     General routines
     calbec       :    112.99s CPU    116.20s WALL (    7813 calls)
     fft          :     26.01s CPU     26.60s WALL (    4158 calls)
     ffts         :      0.22s CPU      0.22s WALL (     131 calls)
     fftw         :    636.67s CPU    662.11s WALL (  923570 calls)
     interpolate  :      0.56s CPU      0.57s WALL (      66 calls)
     davcio       :      0.00s CPU      0.94s WALL (      10 calls)
 
     Parallel routines
 
     PWSCF        :  26m21.82s CPU  28m20.51s WALL

 
   This run was terminated on:  22:18:31  23Sep2021            

=------------------------------------------------------------------------------=
   JOB DONE.
=------------------------------------------------------------------------------=
