
     Program PWSCF v.6.7GPU starts on  9Sep2021 at  3:10:31 

     This program is part of the open-source Quantum ESPRESSO suite
     for quantum simulation of materials; please cite
         "P. Giannozzi et al., J. Phys.:Condens. Matter 21 395502 (2009);
         "P. Giannozzi et al., J. Phys.:Condens. Matter 29 465901 (2017);
         "P. Giannozzi et al., J. Chem. Phys. 152 154105 (2020);
          URL http://www.quantum-espresso.org", 
     in publications or presentations arising from this work. More details at
     http://www.quantum-espresso.org/quote

     Parallel version (MPI), running on    10 processors

     MPI processes distributed on     1 nodes
     R & G space division:  proc/nbgrp/npool/nimage =      10
     Reading input from /storage/home/hcoda1/3/ntian30/research/carbon/CxH_vib/CH3_calc/ads_slab/CH3NNH3_a/out_0016/pw.inp
Warning: card &CELL ignored
Warning: card   CELL_DYNAMICS='IPI', ignored
Warning: card / ignored

     Current dimensions of program PWSCF are:
     Max number of different atomic species (ntypx) = 10
     Max number of k-points (npk) =  40000
     Max angular momentum in pseudopotentials (lmaxx) =  3
     Presently no symmetry can be used with electric field

     Message from routine cell_base_init:
     DEPRECATED: use true lattice parameter, not A to a.u. conversion factor

     **************************************************************************
     Initializing libbeef V0.1.2 with the BEEF-vdW functional.
     Citation: Wellendorff et al., PRB 85, 235149 (2012).
     **************************************************************************


     IMPORTANT: XC functional enforced from input :
     Exchange-correlation= BEEF-VDW
                           (   1   4  43  14   2   0   0)
     Any further DFT definition will be discarded
     Please, verify this is what you really want


     Subspace diagonalization in iterative solution of the eigenvalue problem:
     one sub-group per band group will be used
     scalapack distributed-memory algorithm (size of sub-group:  3*  3 procs)

  @ DRIVER MODE: Connecting to 
 qe_1139763_2767402.sched-torque.pace.gatech.edu9_mjj5hy_scratch
  using UNIX socket
  @ DRIVER MODE: Message from server: STATUS
  @ DRIVER MODE: Message from server: INIT
  @ DRIVER MODE: Receiving replica           0          -1
  @ DRIVER MODE: Receiving encoded integer          25
  @ DRIVER MODE:  SCF:  T  FORCE:  T  STRESS:  F  VC:  F  ENSEMBLE:  F
  @ DRIVER MODE:  SCF:  T  FORCE:  T  STRESS:  F  VC:  F  ENSEMBLE:  F
 
     Parallelization info
     --------------------
     sticks:   dense  smooth     PW     G-vecs:    dense   smooth      PW
     Min         327     131     37                56683    14340    2191
     Max         328     133     38                56694    14346    2206
     Sum        3275    1317    379               566857   143421   21985
 
     Using Slab Decomposition
 


     bravais-lattice index     =            0
     lattice parameter (alat)  =       1.8897  a.u.
     unit-cell volume          =    6658.9804 (a.u.)^3
     number of atoms/cell      =           56
     number of atomic types    =            5
     number of electrons       =       398.00
     number of Kohn-Sham states=          209
     kinetic-energy cutoff     =      29.3995  Ry
     charge density cutoff     =     293.9946  Ry
     scf convergence threshold =      7.3E-08
     mixing beta               =       0.0500
     number of iterations used =            8  plain     mixing
     Exchange-correlation= BEEF-VDW
                           (   1   4  43  14   2   0   0)

     celldm(1)=   1.889726  celldm(2)=   0.000000  celldm(3)=   0.000000
     celldm(4)=   0.000000  celldm(5)=   0.000000  celldm(6)=   0.000000

     crystal axes: (cart. coord. in units of alat)
               a(1) = (   6.579727   0.000000   0.000000 )  
               a(2) = (  -0.000775   5.961596   0.000000 )  
               a(3) = (   0.000000   0.000000  25.155947 )  

     reciprocal axes: (cart. coord. in units 2 pi/alat)
               b(1) = (  0.151982  0.000020  0.000000 )  
               b(2) = (  0.000000  0.167740  0.000000 )  
               b(3) = (  0.000000  0.000000  0.039752 )  


     PseudoPot. # 1 for Ti read from file:
     /storage/coda1/p-amedford6/0/shared/rich_project_chbe-medford/medford-share/data/pseudos_module/espresso/nninc/pbe/van/Ti.UPF
     MD5 check sum: 8e4df49b7f0d34bbd5052bf3f5ea0213
     Pseudo is Ultrasoft, Zval = 12.0
     Generated by new atomic code, or converted to UPF format
     Using radial grid of  851 points,  6 beta functions with: 
                l(1) =   0
                l(2) =   0
                l(3) =   1
                l(4) =   1
                l(5) =   2
                l(6) =   2
     Q(r) pseudized with  8 coefficients,  rinner =    1.000   1.000   1.000
                                                       1.000   1.000

     PseudoPot. # 2 for O  read from file:
     /storage/coda1/p-amedford6/0/shared/rich_project_chbe-medford/medford-share/data/pseudos_module/espresso/nninc/pbe/van/O.UPF
     MD5 check sum: 78c19812648e8988a0fe644b0f25305e
     Pseudo is Ultrasoft, Zval =  6.0
     Generated by new atomic code, or converted to UPF format
     Using radial grid of  737 points,  4 beta functions with: 
                l(1) =   0
                l(2) =   0
                l(3) =   1
                l(4) =   1
     Q(r) pseudized with  8 coefficients,  rinner =    0.800   0.800   0.800


     PseudoPot. # 3 for N  read from file:
     /storage/coda1/p-amedford6/0/shared/rich_project_chbe-medford/medford-share/data/pseudos_module/espresso/nninc/pbe/van/N.UPF
     MD5 check sum: 90d10febe142ad51ac9d5be1deb811c4
     Pseudo is Ultrasoft, Zval =  5.0
     Generated by new atomic code, or converted to UPF format
     Using radial grid of  729 points,  4 beta functions with: 
                l(1) =   0
                l(2) =   0
                l(3) =   1
                l(4) =   1
     Q(r) pseudized with  8 coefficients,  rinner =    0.800   0.800   0.800


     PseudoPot. # 4 for C  read from file:
     /storage/coda1/p-amedford6/0/shared/rich_project_chbe-medford/medford-share/data/pseudos_module/espresso/nninc/pbe/van/C.UPF
     MD5 check sum: 1a69bf6b8db32088f5b2163dbdb77a27
     Pseudo is Ultrasoft, Zval =  4.0
     Generated by new atomic code, or converted to UPF format
     Using radial grid of  721 points,  4 beta functions with: 
                l(1) =   0
                l(2) =   0
                l(3) =   1
                l(4) =   1
     Q(r) pseudized with  8 coefficients,  rinner =    0.800   0.800   0.800


     PseudoPot. # 5 for H  read from file:
     /storage/coda1/p-amedford6/0/shared/rich_project_chbe-medford/medford-share/data/pseudos_module/espresso/nninc/pbe/van/H.UPF
     MD5 check sum: b5ee9d7bfd3a09ee7748110bda690ff7
     Pseudo is Ultrasoft, Zval =  1.0
     Generated by new atomic code, or converted to UPF format
     Using radial grid of  615 points,  1 beta functions with: 
                l(1) =   0
     Q(r) pseudized with  8 coefficients,  rinner =    0.800

     atomic species   valence    mass     pseudopotential
        Ti1           12.00    47.86700     Ti( 1.00)
        O1             6.00    15.99900     O ( 1.00)
        N1             5.00    14.00700     N ( 1.00)
        C1             4.00    12.01100     C ( 1.00)
        H1             1.00     1.00800     H ( 1.00)

     No symmetry found



   Cartesian axes

     site n.     atom                  positions (alat units)
         1           Ti1 tau(   1) = (   0.0004258   2.9801865   6.0000000  )
         2           Ti1 tau(   2) = (   3.2906075   1.4906267   6.0002472  )
         3           O1  tau(   3) = (   0.0006271   0.0005054   7.9858123  )
         4           O1  tau(   4) = (   3.2906025   0.0005020   7.3038282  )
         5           O1  tau(   5) = (   4.5942328   1.4918067   9.2879030  )
         6           O1  tau(   6) = (   1.9868534   1.4903216   9.2879459  )
         7           Ti1 tau(   7) = (   3.2907910   2.8959150   9.1758416  )
         8           Ti1 tau(   8) = (   0.0015273   1.4827037   9.2680791  )
         9           O1  tau(   9) = (   3.2915376   0.0135470  11.3011085  )
        10           O1  tau(  10) = (   0.0116148   5.9584955  10.6183126  )
        11           O1  tau(  11) = (   1.3264285   1.5112823  12.6233503  )
        12           O1  tau(  12) = (   5.3038506   1.5117067  12.6402039  )
        13           Ti1 tau(  13) = (   6.4820107   2.9926285  12.7699842  )
        14           Ti1 tau(  14) = (   3.1705855   1.5046985  12.4703807  )
        15           O1  tau(  15) = (   0.0265921   0.0018185  14.6022993  )
        16           O1  tau(  16) = (   3.3077976   0.0231332  13.8844522  )
        17           O1  tau(  17) = (   4.5431088   1.5356983  16.0582573  )
        18           O1  tau(  18) = (   2.0919096   1.5355568  16.0602035  )
        19           Ti1 tau(  19) = (   3.3160089   3.0194793  15.6930983  )
        20           Ti1 tau(  20) = (   0.0166562   1.5958061  16.1043543  )
        21           O1  tau(  21) = (   3.2904802   0.0005063   4.7018136  )
        22           O1  tau(  22) = (   0.0292894   0.0555714  17.2141426  )
        23           O1  tau(  23) = (   1.3043587   1.4918075   6.0039043  )
        24           O1  tau(  24) = (   5.2767064   1.4903225   6.0039473  )
        25           Ti1 tau(  25) = (   0.0000382   5.9609847   6.0000000  )
        26           Ti1 tau(  26) = (   3.2902200   4.4714249   6.0002472  )
        27           O1  tau(  27) = (   0.0002396   2.9813036   7.9858123  )
        28           O1  tau(  28) = (   3.2902150   2.9813002   7.3038282  )
        29           O1  tau(  29) = (   4.5938453   4.4726049   9.2879030  )
        30           O1  tau(  30) = (   1.9864658   4.4711199   9.2879459  )
        31           Ti1 tau(  31) = (   3.2891106   5.8743827   9.1763621  )
        32           Ti1 tau(  32) = (   0.0006254   4.4649316   9.2693709  )
        33           O1  tau(  33) = (   3.2938734   2.9940915  11.3014364  )
        34           O1  tau(  34) = (   0.0092240   2.9805883  10.6323155  )
        35           O1  tau(  35) = (   1.3265148   4.4779228  12.6213786  )
        36           O1  tau(  36) = (   5.3043665   4.4729268  12.6387898  )
        37           Ti1 tau(  37) = (   6.5102921   0.0103953  12.7821347  )
        38           Ti1 tau(  38) = (   3.1702703   4.4844908  12.4724723  )
        39           O1  tau(  39) = (   0.0044238   2.9856840  14.6711682  )
        40           O1  tau(  40) = (   3.3052367   3.0047533  13.8869641  )
        41           O1  tau(  41) = (   4.5463945   4.5179403  16.0573015  )
        42           O1  tau(  42) = (   2.0913021   4.5186677  16.0620504  )
        43           Ti1 tau(  43) = (   3.3128124   0.0388915  15.6953448  )
        44           Ti1 tau(  44) = (   0.0191476   4.5695365  16.1495174  )
        45           O1  tau(  45) = (   3.2900926   2.9813045   4.7018136  )
        46           O1  tau(  46) = (   1.3039711   4.4726057   6.0039043  )
        47           O1  tau(  47) = (   5.2763189   4.4711207   6.0039473  )
        48           N1  tau(  48) = (   0.0657769   3.0188755  17.3428317  )
        49           N1  tau(  49) = (   6.3710133   2.5762042  22.6422586  )
        50           C1  tau(  50) = (   0.3130180   3.0107025  18.7658599  )
        51           H1  tau(  51) = (   0.2928038   4.0066326  19.1970245  )
        52           H1  tau(  52) = (   6.1505335   2.3845869  19.2855718  )
        53           H1  tau(  53) = (   1.2957935   2.5555442  18.9776258  )
        54           H1  tau(  54) = (   5.9555952   3.1943721  23.3306195  )
        55           H1  tau(  55) = (   0.0098814   1.7053999  23.1148127  )
        56           H1  tau(  56) = (   0.6724875   2.9916800  22.3598805  )

     number of k points=    10  Fermi-Dirac smearing, width (Ry)=  0.0073
                       cart. coord. in units 2pi/alat
        k(    1) = (   0.0000000   0.0000000   0.0000000), wk =   0.1250000
        k(    2) = (   0.0000000   0.0419351   0.0000000), wk =   0.2500000
        k(    3) = (   0.0000000  -0.0838702   0.0000000), wk =   0.1250000
        k(    4) = (   0.0379955   0.0000049   0.0000000), wk =   0.2500000
        k(    5) = (   0.0379955   0.0419400   0.0000000), wk =   0.2500000
        k(    6) = (   0.0379955  -0.0838652   0.0000000), wk =   0.2500000
        k(    7) = (   0.0379955  -0.0419301   0.0000000), wk =   0.2500000
        k(    8) = (  -0.0759910  -0.0000099   0.0000000), wk =   0.1250000
        k(    9) = (  -0.0759910   0.0419252   0.0000000), wk =   0.2500000
        k(   10) = (  -0.0759910  -0.0838800   0.0000000), wk =   0.1250000

     Dense  grid:   566857 G-vectors     FFT dimensions: (  72,  64, 270)

     Smooth grid:   143421 G-vectors     FFT dimensions: (  45,  40, 180)

     Estimated max dynamical RAM per process >     364.09 MB

     Estimated total dynamical RAM >       3.56 GB
     Cannot read rho : file not found

     Initial potential from superposition of free atoms

     starting charge  381.99914, renormalised to  398.00000

     negative rho (up, down):  7.226E-03 0.000E+00


     %%%%%%%%%%%%%%%%%%%%%%%%%%%%%%%%%%%%%%%%%%%%%%%%%%%%%%%%%%%%%%%%%%%%%%%%
     %                                                                      %
     % You are using vdW-DF, which was implemented by the Thonhauser group. %
     % Please cite the following two papers that made this development      %
     % possible and the two reviews that describe the various versions:     %
     %                                                                      %
     %   T. Thonhauser et al., PRL 115, 136402 (2015).                      %
     %   T. Thonhauser et al., PRB 76, 125112 (2007).                       %
     %   K. Berland et al., Rep. Prog. Phys. 78, 066501 (2015).             %
     %   D.C. Langreth et al., J. Phys.: Condens. Matter 21, 084203 (2009). %
     %                                                                      %
     %                                                                      %
     % If you are calculating the stress with vdW-DF, please also cite:     %
     %                                                                      %
     %   R. Sabatini et al., J. Phys.: Condens. Matter 24, 424209 (2012).   %
     %                                                                      %
     %%%%%%%%%%%%%%%%%%%%%%%%%%%%%%%%%%%%%%%%%%%%%%%%%%%%%%%%%%%%%%%%%%%%%%%%


 
     Adding external electric field

     Computed dipole along edir(3) : 
        Dipole              -12.0378 Ry au,        -30.5970 Debye
        Dipole field         -0.0227 Ry au, 
 
        Potential amp.        2.1058 Ry
        Total length         46.3494 bohr
 
     Starting wfcs are  302 atomic wfcs
  @ DRIVER MODE: Message from server: STATUS
  @ DRIVER MODE: Message from server: POSDATA
  @ DRIVER MODE: Reading and sharing cell 
  @ DRIVER MODE: Reading and sharing positions 
  @ DRIVER MODE: Received positions 

     total cpu time spent up to now is       11.4 secs

     Self-consistent Calculation

     iteration #  1     ecut=    29.40 Ry     beta= 0.05
     Davidson diagonalization with overlap
     c_bands:  1 eigenvalues not converged
     c_bands:  1 eigenvalues not converged
     c_bands:  1 eigenvalues not converged
     c_bands:  1 eigenvalues not converged
     c_bands:  1 eigenvalues not converged
     c_bands:  1 eigenvalues not converged
     c_bands:  1 eigenvalues not converged
     c_bands:  2 eigenvalues not converged
     c_bands:  1 eigenvalues not converged
     ethr =  1.00E-05,  avg # of iterations = 19.6

     negative rho (up, down):  6.559E-03 0.000E+00
 
     Adding external electric field

     Computed dipole along edir(3) : 
        Dipole               44.7344 Ry au,        113.7036 Debye
        Dipole field          0.0844 Ry au, 
 
        Potential amp.       -7.8256 Ry
        Total length         46.3494 bohr
 

     total cpu time spent up to now is       52.5 secs

     total energy              =   -2520.03916321 Ry
     estimated scf accuracy    <    4725.47099767 Ry

     iteration #  2     ecut=    29.40 Ry     beta= 0.05
     Davidson diagonalization with overlap
     ethr =  1.00E-02,  avg # of iterations = 21.8

     negative rho (up, down):  8.526E-04 0.000E+00
 
     Adding external electric field

     Computed dipole along edir(3) : 
        Dipole               -4.2354 Ry au,        -10.7654 Debye
        Dipole field         -0.0080 Ry au, 
 
        Potential amp.        0.7409 Ry
        Total length         46.3494 bohr
 

     total cpu time spent up to now is      131.7 secs

     total energy              =   -2414.18604009 Ry
     estimated scf accuracy    <   75004.60882204 Ry

     iteration #  3     ecut=    29.40 Ry     beta= 0.05
     Davidson diagonalization with overlap
     c_bands:  1 eigenvalues not converged
     ethr =  1.00E-02,  avg # of iterations = 17.8

     negative rho (up, down):  9.101E-04 0.000E+00
 
     Adding external electric field

     Computed dipole along edir(3) : 
        Dipole               -5.5431 Ry au,        -14.0892 Debye
        Dipole field         -0.0105 Ry au, 
 
        Potential amp.        0.9697 Ry
        Total length         46.3494 bohr
 

     total cpu time spent up to now is      181.4 secs

     total energy              =   -2931.00835279 Ry
     estimated scf accuracy    <    4443.31224920 Ry

     iteration #  4     ecut=    29.40 Ry     beta= 0.05
     Davidson diagonalization with overlap
     c_bands:  2 eigenvalues not converged
     ethr =  1.00E-02,  avg # of iterations = 14.0

     negative rho (up, down):  9.399E-04 0.000E+00
 
     Adding external electric field

     Computed dipole along edir(3) : 
        Dipole               -6.5585 Ry au,        -16.6700 Debye
        Dipole field         -0.0124 Ry au, 
 
        Potential amp.        1.1473 Ry
        Total length         46.3494 bohr
 

     total cpu time spent up to now is      200.0 secs

     total energy              =   -2928.15632942 Ry
     estimated scf accuracy    <    1821.24520131 Ry

     iteration #  5     ecut=    29.40 Ry     beta= 0.05
     Davidson diagonalization with overlap
     c_bands:  1 eigenvalues not converged
     ethr =  1.00E-02,  avg # of iterations = 16.7

     negative rho (up, down):  9.192E-04 0.000E+00
 
     Adding external electric field

     Computed dipole along edir(3) : 
        Dipole               -5.1474 Ry au,        -13.0833 Debye
        Dipole field         -0.0097 Ry au, 
 
        Potential amp.        0.9005 Ry
        Total length         46.3494 bohr
 

     total cpu time spent up to now is      220.2 secs

     total energy              =   -2946.02148417 Ry
     estimated scf accuracy    <      75.96640226 Ry

     iteration #  6     ecut=    29.40 Ry     beta= 0.05
     Davidson diagonalization with overlap
     ethr =  1.00E-02,  avg # of iterations =  2.1

     negative rho (up, down):  9.025E-04 0.000E+00
 
     Adding external electric field

     Computed dipole along edir(3) : 
        Dipole               -3.9042 Ry au,         -9.9236 Debye
        Dipole field         -0.0074 Ry au, 
 
        Potential amp.        0.6830 Ry
        Total length         46.3494 bohr
 

     total cpu time spent up to now is      230.6 secs

     total energy              =   -2945.03799808 Ry
     estimated scf accuracy    <      75.20165268 Ry

     iteration #  7     ecut=    29.40 Ry     beta= 0.05
     Davidson diagonalization with overlap
     ethr =  1.00E-02,  avg # of iterations =  1.1

     negative rho (up, down):  8.891E-04 0.000E+00
 
     Adding external electric field

     Computed dipole along edir(3) : 
        Dipole                4.2102 Ry au,         10.7013 Debye
        Dipole field          0.0079 Ry au, 
 
        Potential amp.       -0.7365 Ry
        Total length         46.3494 bohr
 

     total cpu time spent up to now is      240.7 secs

     total energy              =   -2938.31483124 Ry
     estimated scf accuracy    <      70.22621797 Ry

     iteration #  8     ecut=    29.40 Ry     beta= 0.05
     Davidson diagonalization with overlap
     ethr =  1.00E-02,  avg # of iterations = 12.1

     negative rho (up, down):  9.258E-04 0.000E+00
 
     Adding external electric field

     Computed dipole along edir(3) : 
        Dipole                2.9687 Ry au,          7.5458 Debye
        Dipole field          0.0056 Ry au, 
 
        Potential amp.       -0.5193 Ry
        Total length         46.3494 bohr
 

     total cpu time spent up to now is      259.9 secs

     total energy              =   -2952.33043503 Ry
     estimated scf accuracy    <    2817.54041080 Ry

     iteration #  9     ecut=    29.40 Ry     beta= 0.05
     Davidson diagonalization with overlap
     ethr =  1.00E-02,  avg # of iterations =  1.1

     negative rho (up, down):  9.430E-04 0.000E+00
 
     Adding external electric field

     Computed dipole along edir(3) : 
        Dipole                3.0885 Ry au,          7.8501 Debye
        Dipole field          0.0058 Ry au, 
 
        Potential amp.       -0.5403 Ry
        Total length         46.3494 bohr
 

     total cpu time spent up to now is      270.0 secs

     total energy              =   -2954.18993122 Ry
     estimated scf accuracy    <    1838.74158482 Ry

     iteration # 10     ecut=    29.40 Ry     beta= 0.05
     Davidson diagonalization with overlap
     ethr =  1.00E-02,  avg # of iterations =  1.0

     negative rho (up, down):  1.046E-03 0.000E+00
 
     Adding external electric field

     Computed dipole along edir(3) : 
        Dipole                4.9804 Ry au,         12.6589 Debye
        Dipole field          0.0094 Ry au, 
 
        Potential amp.       -0.8712 Ry
        Total length         46.3494 bohr
 

     total cpu time spent up to now is      280.0 secs

     total energy              =   -2952.96067805 Ry
     estimated scf accuracy    <    2195.24874000 Ry

     iteration # 11     ecut=    29.40 Ry     beta= 0.05
     Davidson diagonalization with overlap
     ethr =  1.00E-02,  avg # of iterations =  3.9

     negative rho (up, down):  1.108E-03 0.000E+00
 
     Adding external electric field

     Computed dipole along edir(3) : 
        Dipole                3.0524 Ry au,          7.7583 Debye
        Dipole field          0.0058 Ry au, 
 
        Potential amp.       -0.5340 Ry
        Total length         46.3494 bohr
 

     total cpu time spent up to now is      291.5 secs

     total energy              =   -2940.79266680 Ry
     estimated scf accuracy    <    2461.08204133 Ry

     iteration # 12     ecut=    29.40 Ry     beta= 0.05
     Davidson diagonalization with overlap
     ethr =  1.00E-02,  avg # of iterations =  3.3

     negative rho (up, down):  1.113E-03 0.000E+00
 
     Adding external electric field

     Computed dipole along edir(3) : 
        Dipole                3.1260 Ry au,          7.9454 Debye
        Dipole field          0.0059 Ry au, 
 
        Potential amp.       -0.5468 Ry
        Total length         46.3494 bohr
 

     total cpu time spent up to now is      302.8 secs

     total energy              =   -2942.79873260 Ry
     estimated scf accuracy    <    1610.26371897 Ry

     iteration # 13     ecut=    29.40 Ry     beta= 0.05
     Davidson diagonalization with overlap
     ethr =  1.00E-02,  avg # of iterations =  2.8

     negative rho (up, down):  1.167E-03 0.000E+00
 
     Adding external electric field

     Computed dipole along edir(3) : 
        Dipole                0.8294 Ry au,          2.1081 Debye
        Dipole field          0.0016 Ry au, 
 
        Potential amp.       -0.1451 Ry
        Total length         46.3494 bohr
 

     total cpu time spent up to now is      313.7 secs

     total energy              =   -2931.48668011 Ry
     estimated scf accuracy    <    1567.00518570 Ry

     iteration # 14     ecut=    29.40 Ry     beta= 0.05
     Davidson diagonalization with overlap
     ethr =  1.00E-02,  avg # of iterations = 13.0

     negative rho (up, down):  1.184E-03 0.000E+00
 
     Adding external electric field

     Computed dipole along edir(3) : 
        Dipole               -0.6943 Ry au,         -1.7646 Debye
        Dipole field         -0.0013 Ry au, 
 
        Potential amp.        0.1214 Ry
        Total length         46.3494 bohr
 

     total cpu time spent up to now is      332.5 secs

     total energy              =   -2943.85695827 Ry
     estimated scf accuracy    <      98.48109230 Ry

     iteration # 15     ecut=    29.40 Ry     beta= 0.05
     Davidson diagonalization with overlap
     ethr =  1.00E-02,  avg # of iterations =  2.0

     negative rho (up, down):  1.146E-03 0.000E+00
 
     Adding external electric field

     Computed dipole along edir(3) : 
        Dipole               -0.2632 Ry au,         -0.6689 Debye
        Dipole field         -0.0005 Ry au, 
 
        Potential amp.        0.0460 Ry
        Total length         46.3494 bohr
 

     total cpu time spent up to now is      343.4 secs

     total energy              =   -2944.83950583 Ry
     estimated scf accuracy    <      29.18930580 Ry

     iteration # 16     ecut=    29.40 Ry     beta= 0.05
     Davidson diagonalization with overlap
     ethr =  7.33E-03,  avg # of iterations =  1.3

     negative rho (up, down):  1.090E-03 0.000E+00
 
     Adding external electric field

     Computed dipole along edir(3) : 
        Dipole               -0.7625 Ry au,         -1.9381 Debye
        Dipole field         -0.0014 Ry au, 
 
        Potential amp.        0.1334 Ry
        Total length         46.3494 bohr
 

     total cpu time spent up to now is      353.6 secs

     total energy              =   -2942.68907644 Ry
     estimated scf accuracy    <      55.52171123 Ry

     iteration # 17     ecut=    29.40 Ry     beta= 0.05
     Davidson diagonalization with overlap
     ethr =  7.33E-03,  avg # of iterations =  1.6

     negative rho (up, down):  1.136E-03 0.000E+00
 
     Adding external electric field

     Computed dipole along edir(3) : 
        Dipole               -0.5339 Ry au,         -1.3571 Debye
        Dipole field         -0.0010 Ry au, 
 
        Potential amp.        0.0934 Ry
        Total length         46.3494 bohr
 

     total cpu time spent up to now is      364.1 secs

     total energy              =   -2943.90545645 Ry
     estimated scf accuracy    <       6.19371819 Ry

     iteration # 18     ecut=    29.40 Ry     beta= 0.05
     Davidson diagonalization with overlap
     ethr =  1.56E-03,  avg # of iterations = 13.0

     negative rho (up, down):  1.102E-03 0.000E+00
 
     Adding external electric field

     Computed dipole along edir(3) : 
        Dipole               -1.1389 Ry au,         -2.8947 Debye
        Dipole field         -0.0021 Ry au, 
 
        Potential amp.        0.1992 Ry
        Total length         46.3494 bohr
 

     total cpu time spent up to now is      379.6 secs

     total energy              =   -2944.12803410 Ry
     estimated scf accuracy    <     103.59604672 Ry

     iteration # 19     ecut=    29.40 Ry     beta= 0.05
     Davidson diagonalization with overlap
     ethr =  1.56E-03,  avg # of iterations =  5.0

     negative rho (up, down):  1.133E-03 0.000E+00
 
     Adding external electric field

     Computed dipole along edir(3) : 
        Dipole               -1.8257 Ry au,         -4.6405 Debye
        Dipole field         -0.0034 Ry au, 
 
        Potential amp.        0.3194 Ry
        Total length         46.3494 bohr
 

     total cpu time spent up to now is      391.4 secs

     total energy              =   -2943.88425362 Ry
     estimated scf accuracy    <      64.49410603 Ry

     iteration # 20     ecut=    29.40 Ry     beta= 0.05
     Davidson diagonalization with overlap
     ethr =  1.56E-03,  avg # of iterations =  8.4

     negative rho (up, down):  8.751E-04 0.000E+00
 
     Adding external electric field

     Computed dipole along edir(3) : 
        Dipole               -1.6990 Ry au,         -4.3183 Debye
        Dipole field         -0.0032 Ry au, 
 
        Potential amp.        0.2972 Ry
        Total length         46.3494 bohr
 

     total cpu time spent up to now is      404.4 secs

     total energy              =   -2944.22874061 Ry
     estimated scf accuracy    <      32.00307475 Ry

     iteration # 21     ecut=    29.40 Ry     beta= 0.05
     Davidson diagonalization with overlap
     ethr =  1.56E-03,  avg # of iterations =  1.1

     negative rho (up, down):  6.292E-04 0.000E+00
 
     Adding external electric field

     Computed dipole along edir(3) : 
        Dipole               -1.9845 Ry au,         -5.0442 Debye
        Dipole field         -0.0037 Ry au, 
 
        Potential amp.        0.3472 Ry
        Total length         46.3494 bohr
 

     total cpu time spent up to now is      414.4 secs

     total energy              =   -2944.51296233 Ry
     estimated scf accuracy    <      65.09082783 Ry

     iteration # 22     ecut=    29.40 Ry     beta= 0.05
     Davidson diagonalization with overlap
     ethr =  1.56E-03,  avg # of iterations =  5.7

     negative rho (up, down):  5.829E-04 0.000E+00
 
     Adding external electric field

     Computed dipole along edir(3) : 
        Dipole               -1.3036 Ry au,         -3.3135 Debye
        Dipole field         -0.0025 Ry au, 
 
        Potential amp.        0.2281 Ry
        Total length         46.3494 bohr
 

     total cpu time spent up to now is      425.8 secs

     total energy              =   -2943.08879251 Ry
     estimated scf accuracy    <     138.70789570 Ry

     iteration # 23     ecut=    29.40 Ry     beta= 0.05
     Davidson diagonalization with overlap
     ethr =  1.56E-03,  avg # of iterations =  7.0

     negative rho (up, down):  9.201E-04 0.000E+00
 
     Adding external electric field

     Computed dipole along edir(3) : 
        Dipole               -0.7299 Ry au,         -1.8553 Debye
        Dipole field         -0.0014 Ry au, 
 
        Potential amp.        0.1277 Ry
        Total length         46.3494 bohr
 

     total cpu time spent up to now is      438.3 secs

     total energy              =   -2943.69787954 Ry
     estimated scf accuracy    <      27.46141412 Ry

     iteration # 24     ecut=    29.40 Ry     beta= 0.05
     Davidson diagonalization with overlap
     ethr =  1.56E-03,  avg # of iterations =  2.3

     negative rho (up, down):  6.094E-03 0.000E+00
 
     Adding external electric field

     Computed dipole along edir(3) : 
        Dipole               -0.2359 Ry au,         -0.5995 Debye
        Dipole field         -0.0004 Ry au, 
 
        Potential amp.        0.0413 Ry
        Total length         46.3494 bohr
 

     total cpu time spent up to now is      449.3 secs

     total energy              =   -2942.47847086 Ry
     estimated scf accuracy    <      41.32168287 Ry

     iteration # 25     ecut=    29.40 Ry     beta= 0.05
     Davidson diagonalization with overlap
     ethr =  1.56E-03,  avg # of iterations =  3.7

     negative rho (up, down):  5.456E-03 0.000E+00
 
     Adding external electric field

     Computed dipole along edir(3) : 
        Dipole               -0.2245 Ry au,         -0.5706 Debye
        Dipole field         -0.0004 Ry au, 
 
        Potential amp.        0.0393 Ry
        Total length         46.3494 bohr
 

     total cpu time spent up to now is      460.6 secs

     total energy              =   -2942.94911178 Ry
     estimated scf accuracy    <       1.75916859 Ry

     iteration # 26     ecut=    29.40 Ry     beta= 0.05
     Davidson diagonalization with overlap
     c_bands:  2 eigenvalues not converged
     c_bands:  1 eigenvalues not converged
     c_bands:  2 eigenvalues not converged
     c_bands:  3 eigenvalues not converged
     c_bands:  2 eigenvalues not converged
     c_bands:  4 eigenvalues not converged
     c_bands:  2 eigenvalues not converged
     ethr =  4.42E-04,  avg # of iterations = 16.6

     negative rho (up, down):  1.813E-03 0.000E+00
 
     Adding external electric field

     Computed dipole along edir(3) : 
        Dipole               -0.6751 Ry au,         -1.7160 Debye
        Dipole field         -0.0013 Ry au, 
 
        Potential amp.        0.1181 Ry
        Total length         46.3494 bohr
 

     total cpu time spent up to now is      477.7 secs

     total energy              =   -2942.89098327 Ry
     estimated scf accuracy    <       0.91099104 Ry

     iteration # 27     ecut=    29.40 Ry     beta= 0.05
     Davidson diagonalization with overlap
     ethr =  2.29E-04,  avg # of iterations =  7.4

     negative rho (up, down):  1.769E-03 0.000E+00
 
     Adding external electric field

     Computed dipole along edir(3) : 
        Dipole               -0.4153 Ry au,         -1.0555 Debye
        Dipole field         -0.0008 Ry au, 
 
        Potential amp.        0.0726 Ry
        Total length         46.3494 bohr
 

     total cpu time spent up to now is      490.5 secs

     total energy              =   -2942.92896901 Ry
     estimated scf accuracy    <       0.52808704 Ry

     iteration # 28     ecut=    29.40 Ry     beta= 0.05
     Davidson diagonalization with overlap
     c_bands:  3 eigenvalues not converged
     c_bands:  1 eigenvalues not converged
     ethr =  1.33E-04,  avg # of iterations =  7.7

     negative rho (up, down):  2.286E-03 0.000E+00
 
     Adding external electric field

     Computed dipole along edir(3) : 
        Dipole                0.3922 Ry au,          0.9968 Debye
        Dipole field          0.0007 Ry au, 
 
        Potential amp.       -0.0686 Ry
        Total length         46.3494 bohr
 

     total cpu time spent up to now is      503.1 secs

     total energy              =   -2942.85777633 Ry
     estimated scf accuracy    <       0.34802341 Ry

     iteration # 29     ecut=    29.40 Ry     beta= 0.05
     Davidson diagonalization with overlap
     c_bands:  1 eigenvalues not converged
     c_bands:  1 eigenvalues not converged
     c_bands:  2 eigenvalues not converged
     ethr =  8.74E-05,  avg # of iterations = 17.5

     negative rho (up, down):  1.829E-03 0.000E+00
 
     Adding external electric field

     Computed dipole along edir(3) : 
        Dipole                0.1823 Ry au,          0.4634 Debye
        Dipole field          0.0003 Ry au, 
 
        Potential amp.       -0.0319 Ry
        Total length         46.3494 bohr
 

     total cpu time spent up to now is      525.1 secs

     total energy              =   -2942.91051791 Ry
     estimated scf accuracy    <       0.37019892 Ry

     iteration # 30     ecut=    29.40 Ry     beta= 0.05
     Davidson diagonalization with overlap
     ethr =  8.74E-05,  avg # of iterations =  4.1

     negative rho (up, down):  1.716E-03 0.000E+00
 
     Adding external electric field

     Computed dipole along edir(3) : 
        Dipole                0.0706 Ry au,          0.1794 Debye
        Dipole field          0.0001 Ry au, 
 
        Potential amp.       -0.0123 Ry
        Total length         46.3494 bohr
 

     total cpu time spent up to now is      536.6 secs

     total energy              =   -2942.90658082 Ry
     estimated scf accuracy    <       0.24662761 Ry

     iteration # 31     ecut=    29.40 Ry     beta= 0.05
     Davidson diagonalization with overlap
     ethr =  6.20E-05,  avg # of iterations =  5.0

     negative rho (up, down):  2.252E-03 0.000E+00
 
     Adding external electric field

     Computed dipole along edir(3) : 
        Dipole                0.4164 Ry au,          1.0583 Debye
        Dipole field          0.0008 Ry au, 
 
        Potential amp.       -0.0728 Ry
        Total length         46.3494 bohr
 

     total cpu time spent up to now is      548.6 secs

     total energy              =   -2942.89810665 Ry
     estimated scf accuracy    <       0.17530814 Ry

     iteration # 32     ecut=    29.40 Ry     beta= 0.05
     Davidson diagonalization with overlap
     ethr =  4.40E-05,  avg # of iterations =  3.2

     negative rho (up, down):  3.348E-03 0.000E+00
 
     Adding external electric field

     Computed dipole along edir(3) : 
        Dipole                0.7150 Ry au,          1.8172 Debye
        Dipole field          0.0013 Ry au, 
 
        Potential amp.       -0.1251 Ry
        Total length         46.3494 bohr
 

     total cpu time spent up to now is      559.9 secs

     total energy              =   -2942.89516088 Ry
     estimated scf accuracy    <       0.10646819 Ry

     iteration # 33     ecut=    29.40 Ry     beta= 0.05
     Davidson diagonalization with overlap
     c_bands:  3 eigenvalues not converged
     c_bands:  1 eigenvalues not converged
     c_bands:  4 eigenvalues not converged
     c_bands:  1 eigenvalues not converged
     c_bands:  3 eigenvalues not converged
     c_bands:  2 eigenvalues not converged
     ethr =  2.68E-05,  avg # of iterations = 16.8

     negative rho (up, down):  3.155E-03 0.000E+00
 
     Adding external electric field

     Computed dipole along edir(3) : 
        Dipole                0.7221 Ry au,          1.8355 Debye
        Dipole field          0.0014 Ry au, 
 
        Potential amp.       -0.1263 Ry
        Total length         46.3494 bohr
 

     total cpu time spent up to now is      580.8 secs

     total energy              =   -2942.91003459 Ry
     estimated scf accuracy    <       0.09994671 Ry

     iteration # 34     ecut=    29.40 Ry     beta= 0.05
     Davidson diagonalization with overlap
     ethr =  2.51E-05,  avg # of iterations =  4.1

     negative rho (up, down):  2.893E-03 0.000E+00
 
     Adding external electric field

     Computed dipole along edir(3) : 
        Dipole                0.4374 Ry au,          1.1118 Debye
        Dipole field          0.0008 Ry au, 
 
        Potential amp.       -0.0765 Ry
        Total length         46.3494 bohr
 

     total cpu time spent up to now is      591.9 secs

     total energy              =   -2942.88822749 Ry
     estimated scf accuracy    <       0.09335646 Ry

     iteration # 35     ecut=    29.40 Ry     beta= 0.05
     Davidson diagonalization with overlap
     c_bands:  2 eigenvalues not converged
     c_bands:  3 eigenvalues not converged
     c_bands:  1 eigenvalues not converged
     c_bands:  4 eigenvalues not converged
     c_bands:  2 eigenvalues not converged
     ethr =  2.35E-05,  avg # of iterations = 17.0

     negative rho (up, down):  3.304E-03 0.000E+00
 
     Adding external electric field

     Computed dipole along edir(3) : 
        Dipole                0.5567 Ry au,          1.4150 Debye
        Dipole field          0.0011 Ry au, 
 
        Potential amp.       -0.0974 Ry
        Total length         46.3494 bohr
 

     total cpu time spent up to now is      611.8 secs

     total energy              =   -2942.89857633 Ry
     estimated scf accuracy    <       0.04155181 Ry

     iteration # 36     ecut=    29.40 Ry     beta= 0.05
     Davidson diagonalization with overlap
     c_bands:  2 eigenvalues not converged
     c_bands:  1 eigenvalues not converged
     c_bands:  4 eigenvalues not converged
     ethr =  1.04E-05,  avg # of iterations = 11.4

     negative rho (up, down):  4.495E-03 0.000E+00
 
     Adding external electric field

     Computed dipole along edir(3) : 
        Dipole                0.6063 Ry au,          1.5412 Debye
        Dipole field          0.0011 Ry au, 
 
        Potential amp.       -0.1061 Ry
        Total length         46.3494 bohr
 

     total cpu time spent up to now is      625.7 secs

     total energy              =   -2942.90192989 Ry
     estimated scf accuracy    <       0.01551789 Ry

     iteration # 37     ecut=    29.40 Ry     beta= 0.05
     Davidson diagonalization with overlap
     c_bands:  1 eigenvalues not converged
     c_bands:  2 eigenvalues not converged
     c_bands:  2 eigenvalues not converged
     c_bands:  1 eigenvalues not converged
     c_bands:  1 eigenvalues not converged
     ethr =  3.90E-06,  avg # of iterations = 16.6

     negative rho (up, down):  5.425E-03 0.000E+00
 
     Adding external electric field

     Computed dipole along edir(3) : 
        Dipole                0.6372 Ry au,          1.6197 Debye
        Dipole field          0.0012 Ry au, 
 
        Potential amp.       -0.1115 Ry
        Total length         46.3494 bohr
 

     total cpu time spent up to now is      645.8 secs

     total energy              =   -2942.90329891 Ry
     estimated scf accuracy    <       0.02063160 Ry

     iteration # 38     ecut=    29.40 Ry     beta= 0.05
     Davidson diagonalization with overlap
     c_bands:  1 eigenvalues not converged
     ethr =  3.90E-06,  avg # of iterations =  4.8

     negative rho (up, down):  6.707E-03 0.000E+00
 
     Adding external electric field

     Computed dipole along edir(3) : 
        Dipole                0.6546 Ry au,          1.6637 Debye
        Dipole field          0.0012 Ry au, 
 
        Potential amp.       -0.1145 Ry
        Total length         46.3494 bohr
 

     total cpu time spent up to now is      657.1 secs

     total energy              =   -2942.90213422 Ry
     estimated scf accuracy    <       0.01109689 Ry

     iteration # 39     ecut=    29.40 Ry     beta= 0.05
     Davidson diagonalization with overlap
     ethr =  2.79E-06,  avg # of iterations =  5.0

     negative rho (up, down):  6.817E-03 0.000E+00
 
     Adding external electric field

     Computed dipole along edir(3) : 
        Dipole                0.6403 Ry au,          1.6274 Debye
        Dipole field          0.0012 Ry au, 
 
        Potential amp.       -0.1120 Ry
        Total length         46.3494 bohr
 

     total cpu time spent up to now is      670.6 secs

     total energy              =   -2942.90384372 Ry
     estimated scf accuracy    <       0.00532915 Ry

     iteration # 40     ecut=    29.40 Ry     beta= 0.05
     Davidson diagonalization with overlap
     ethr =  1.34E-06,  avg # of iterations =  9.3

     negative rho (up, down):  6.349E-03 0.000E+00
 
     Adding external electric field

     Computed dipole along edir(3) : 
        Dipole                0.6049 Ry au,          1.5376 Debye
        Dipole field          0.0011 Ry au, 
 
        Potential amp.       -0.1058 Ry
        Total length         46.3494 bohr
 

     total cpu time spent up to now is      686.9 secs

     total energy              =   -2942.90415986 Ry
     estimated scf accuracy    <       0.00897552 Ry

     iteration # 41     ecut=    29.40 Ry     beta= 0.05
     Davidson diagonalization with overlap
     ethr =  1.34E-06,  avg # of iterations =  4.9

     negative rho (up, down):  6.243E-03 0.000E+00
 
     Adding external electric field

     Computed dipole along edir(3) : 
        Dipole                0.5895 Ry au,          1.4982 Debye
        Dipole field          0.0011 Ry au, 
 
        Potential amp.       -0.1031 Ry
        Total length         46.3494 bohr
 

     total cpu time spent up to now is      698.6 secs

     total energy              =   -2942.90386218 Ry
     estimated scf accuracy    <       0.00792308 Ry

     iteration # 42     ecut=    29.40 Ry     beta= 0.05
     Davidson diagonalization with overlap
     ethr =  1.34E-06,  avg # of iterations =  9.5

     negative rho (up, down):  7.466E-03 0.000E+00
 
     Adding external electric field

     Computed dipole along edir(3) : 
        Dipole                0.6349 Ry au,          1.6139 Debye
        Dipole field          0.0012 Ry au, 
 
        Potential amp.       -0.1111 Ry
        Total length         46.3494 bohr
 

     total cpu time spent up to now is      712.8 secs

     total energy              =   -2942.90431900 Ry
     estimated scf accuracy    <       0.00673744 Ry

     iteration # 43     ecut=    29.40 Ry     beta= 0.05
     Davidson diagonalization with overlap
     ethr =  1.34E-06,  avg # of iterations =  1.3

     negative rho (up, down):  8.057E-03 0.000E+00
 
     Adding external electric field

     Computed dipole along edir(3) : 
        Dipole                0.6571 Ry au,          1.6701 Debye
        Dipole field          0.0012 Ry au, 
 
        Potential amp.       -0.1149 Ry
        Total length         46.3494 bohr
 

     total cpu time spent up to now is      723.0 secs

     total energy              =   -2942.90403574 Ry
     estimated scf accuracy    <       0.00560534 Ry

     iteration # 44     ecut=    29.40 Ry     beta= 0.05
     Davidson diagonalization with overlap
     ethr =  1.34E-06,  avg # of iterations =  1.1

     negative rho (up, down):  8.260E-03 0.000E+00
 
     Adding external electric field

     Computed dipole along edir(3) : 
        Dipole                0.6637 Ry au,          1.6869 Debye
        Dipole field          0.0013 Ry au, 
 
        Potential amp.       -0.1161 Ry
        Total length         46.3494 bohr
 

     total cpu time spent up to now is      733.1 secs

     total energy              =   -2942.90355663 Ry
     estimated scf accuracy    <       0.00382953 Ry

     iteration # 45     ecut=    29.40 Ry     beta= 0.05
     Davidson diagonalization with overlap
     ethr =  9.62E-07,  avg # of iterations =  4.1

     negative rho (up, down):  8.531E-03 0.000E+00
 
     Adding external electric field

     Computed dipole along edir(3) : 
        Dipole                0.6731 Ry au,          1.7109 Debye
        Dipole field          0.0013 Ry au, 
 
        Potential amp.       -0.1178 Ry
        Total length         46.3494 bohr
 

     total cpu time spent up to now is      745.1 secs

     total energy              =   -2942.90366196 Ry
     estimated scf accuracy    <       0.00152493 Ry

     iteration # 46     ecut=    29.40 Ry     beta= 0.05
     Davidson diagonalization with overlap
     ethr =  3.83E-07,  avg # of iterations =  5.3

     negative rho (up, down):  8.821E-03 0.000E+00
 
     Adding external electric field

     Computed dipole along edir(3) : 
        Dipole                0.6851 Ry au,          1.7413 Debye
        Dipole field          0.0013 Ry au, 
 
        Potential amp.       -0.1198 Ry
        Total length         46.3494 bohr
 

     total cpu time spent up to now is      759.2 secs

     total energy              =   -2942.90388042 Ry
     estimated scf accuracy    <       0.00037110 Ry

     iteration # 47     ecut=    29.40 Ry     beta= 0.05
     Davidson diagonalization with overlap
     ethr =  9.32E-08,  avg # of iterations =  6.6

     negative rho (up, down):  8.773E-03 0.000E+00
 
     Adding external electric field

     Computed dipole along edir(3) : 
        Dipole                0.6768 Ry au,          1.7202 Debye
        Dipole field          0.0013 Ry au, 
 
        Potential amp.       -0.1184 Ry
        Total length         46.3494 bohr
 

     total cpu time spent up to now is      775.0 secs

     total energy              =   -2942.90394609 Ry
     estimated scf accuracy    <       0.00028324 Ry

     iteration # 48     ecut=    29.40 Ry     beta= 0.05
     Davidson diagonalization with overlap
     ethr =  7.12E-08,  avg # of iterations =  2.0

     negative rho (up, down):  8.956E-03 0.000E+00
 
     Adding external electric field

     Computed dipole along edir(3) : 
        Dipole                0.6710 Ry au,          1.7056 Debye
        Dipole field          0.0013 Ry au, 
 
        Potential amp.       -0.1174 Ry
        Total length         46.3494 bohr
 

     total cpu time spent up to now is      786.0 secs

     total energy              =   -2942.90396086 Ry
     estimated scf accuracy    <       0.00014892 Ry

     iteration # 49     ecut=    29.40 Ry     beta= 0.05
     Davidson diagonalization with overlap
     ethr =  3.74E-08,  avg # of iterations =  5.6

     negative rho (up, down):  8.926E-03 0.000E+00
 
     Adding external electric field

     Computed dipole along edir(3) : 
        Dipole                0.6737 Ry au,          1.7123 Debye
        Dipole field          0.0013 Ry au, 
 
        Potential amp.       -0.1178 Ry
        Total length         46.3494 bohr
 

     total cpu time spent up to now is      801.3 secs

     total energy              =   -2942.90401159 Ry
     estimated scf accuracy    <       0.00013482 Ry

     iteration # 50     ecut=    29.40 Ry     beta= 0.05
     Davidson diagonalization with overlap
     ethr =  3.39E-08,  avg # of iterations =  1.4

     negative rho (up, down):  8.974E-03 0.000E+00
 
     Adding external electric field

     Computed dipole along edir(3) : 
        Dipole                0.6866 Ry au,          1.7452 Debye
        Dipole field          0.0013 Ry au, 
 
        Potential amp.       -0.1201 Ry
        Total length         46.3494 bohr
 

     total cpu time spent up to now is      811.7 secs

     total energy              =   -2942.90399546 Ry
     estimated scf accuracy    <       0.00010161 Ry

     iteration # 51     ecut=    29.40 Ry     beta= 0.05
     Davidson diagonalization with overlap
     ethr =  2.55E-08,  avg # of iterations =  6.9

     negative rho (up, down):  9.306E-03 0.000E+00
 
     Adding external electric field

     Computed dipole along edir(3) : 
        Dipole                0.6824 Ry au,          1.7344 Debye
        Dipole field          0.0013 Ry au, 
 
        Potential amp.       -0.1194 Ry
        Total length         46.3494 bohr
 

     total cpu time spent up to now is      831.8 secs

     total energy              =   -2942.90403654 Ry
     estimated scf accuracy    <       0.00038845 Ry

     iteration # 52     ecut=    29.40 Ry     beta= 0.05
     Davidson diagonalization with overlap
     ethr =  2.55E-08,  avg # of iterations =  5.6

     negative rho (up, down):  9.415E-03 0.000E+00
 
     Adding external electric field

     Computed dipole along edir(3) : 
        Dipole                0.6802 Ry au,          1.7289 Debye
        Dipole field          0.0013 Ry au, 
 
        Potential amp.       -0.1190 Ry
        Total length         46.3494 bohr
 

     total cpu time spent up to now is      846.3 secs

     total energy              =   -2942.90406679 Ry
     estimated scf accuracy    <       0.00005221 Ry

     iteration # 53     ecut=    29.40 Ry     beta= 0.05
     Davidson diagonalization with overlap
     ethr =  1.31E-08,  avg # of iterations =  5.1

     negative rho (up, down):  9.501E-03 0.000E+00
 
     Adding external electric field

     Computed dipole along edir(3) : 
        Dipole                0.6842 Ry au,          1.7390 Debye
        Dipole field          0.0013 Ry au, 
 
        Potential amp.       -0.1197 Ry
        Total length         46.3494 bohr
 

     total cpu time spent up to now is      861.4 secs

     total energy              =   -2942.90409082 Ry
     estimated scf accuracy    <       0.00001608 Ry

     iteration # 54     ecut=    29.40 Ry     beta= 0.05
     Davidson diagonalization with overlap
     ethr =  4.04E-09,  avg # of iterations =  5.0

     negative rho (up, down):  9.582E-03 0.000E+00
 
     Adding external electric field

     Computed dipole along edir(3) : 
        Dipole                0.6833 Ry au,          1.7368 Debye
        Dipole field          0.0013 Ry au, 
 
        Potential amp.       -0.1195 Ry
        Total length         46.3494 bohr
 

     total cpu time spent up to now is      875.5 secs

     total energy              =   -2942.90410628 Ry
     estimated scf accuracy    <       0.00001351 Ry

     iteration # 55     ecut=    29.40 Ry     beta= 0.05
     Davidson diagonalization with overlap
     ethr =  3.39E-09,  avg # of iterations =  5.0

     negative rho (up, down):  9.562E-03 0.000E+00
 
     Adding external electric field

     Computed dipole along edir(3) : 
        Dipole                0.6814 Ry au,          1.7321 Debye
        Dipole field          0.0013 Ry au, 
 
        Potential amp.       -0.1192 Ry
        Total length         46.3494 bohr
 

     total cpu time spent up to now is      887.5 secs

     total energy              =   -2942.90411810 Ry
     estimated scf accuracy    <       0.00000397 Ry

     iteration # 56     ecut=    29.40 Ry     beta= 0.05
     Davidson diagonalization with overlap
     ethr =  9.98E-10,  avg # of iterations =  5.8

     negative rho (up, down):  9.560E-03 0.000E+00
 
     Adding external electric field

     Computed dipole along edir(3) : 
        Dipole                0.6817 Ry au,          1.7327 Debye
        Dipole field          0.0013 Ry au, 
 
        Potential amp.       -0.1193 Ry
        Total length         46.3494 bohr
 

     total cpu time spent up to now is      903.2 secs

     total energy              =   -2942.90412905 Ry
     estimated scf accuracy    <       0.00000533 Ry

     iteration # 57     ecut=    29.40 Ry     beta= 0.05
     Davidson diagonalization with overlap
     ethr =  9.98E-10,  avg # of iterations =  1.0

     negative rho (up, down):  9.629E-03 0.000E+00
 
     Adding external electric field

     Computed dipole along edir(3) : 
        Dipole                0.6841 Ry au,          1.7387 Debye
        Dipole field          0.0013 Ry au, 
 
        Potential amp.       -0.1197 Ry
        Total length         46.3494 bohr
 

     total cpu time spent up to now is      913.2 secs

     total energy              =   -2942.90413790 Ry
     estimated scf accuracy    <       0.00000433 Ry

     iteration # 58     ecut=    29.40 Ry     beta= 0.05
     Davidson diagonalization with overlap
     ethr =  9.98E-10,  avg # of iterations =  7.5

     negative rho (up, down):  9.635E-03 0.000E+00
 
     Adding external electric field

     Computed dipole along edir(3) : 
        Dipole                0.6828 Ry au,          1.7356 Debye
        Dipole field          0.0013 Ry au, 
 
        Potential amp.       -0.1195 Ry
        Total length         46.3494 bohr
 

     total cpu time spent up to now is      930.9 secs

     total energy              =   -2942.90414664 Ry
     estimated scf accuracy    <       0.00000519 Ry

     iteration # 59     ecut=    29.40 Ry     beta= 0.05
     Davidson diagonalization with overlap
     ethr =  9.98E-10,  avg # of iterations =  5.2

     negative rho (up, down):  9.664E-03 0.000E+00
 
     Adding external electric field

     Computed dipole along edir(3) : 
        Dipole                0.6829 Ry au,          1.7356 Debye
        Dipole field          0.0013 Ry au, 
 
        Potential amp.       -0.1195 Ry
        Total length         46.3494 bohr
 

     total cpu time spent up to now is      944.4 secs

     total energy              =   -2942.90415463 Ry
     estimated scf accuracy    <       0.00000116 Ry

     iteration # 60     ecut=    29.40 Ry     beta= 0.05
     Davidson diagonalization with overlap
     ethr =  2.93E-10,  avg # of iterations =  5.0

     negative rho (up, down):  9.671E-03 0.000E+00
 
     Adding external electric field

     Computed dipole along edir(3) : 
        Dipole                0.6831 Ry au,          1.7361 Debye
        Dipole field          0.0013 Ry au, 
 
        Potential amp.       -0.1195 Ry
        Total length         46.3494 bohr
 

     total cpu time spent up to now is      960.9 secs

     total energy              =   -2942.90416151 Ry
     estimated scf accuracy    <       0.00000179 Ry

     iteration # 61     ecut=    29.40 Ry     beta= 0.05
     Davidson diagonalization with overlap
     ethr =  2.93E-10,  avg # of iterations =  5.0

     negative rho (up, down):  9.674E-03 0.000E+00
 
     Adding external electric field

     Computed dipole along edir(3) : 
        Dipole                0.6831 Ry au,          1.7364 Debye
        Dipole field          0.0013 Ry au, 
 
        Potential amp.       -0.1195 Ry
        Total length         46.3494 bohr
 

     total cpu time spent up to now is      974.6 secs

     total energy              =   -2942.90416783 Ry
     estimated scf accuracy    <       0.00000049 Ry

     iteration # 62     ecut=    29.40 Ry     beta= 0.05
     Davidson diagonalization with overlap
     ethr =  1.23E-10,  avg # of iterations =  4.2

     negative rho (up, down):  9.683E-03 0.000E+00
 
     Adding external electric field

     Computed dipole along edir(3) : 
        Dipole                0.6832 Ry au,          1.7364 Debye
        Dipole field          0.0013 Ry au, 
 
        Potential amp.       -0.1195 Ry
        Total length         46.3494 bohr
 

     total cpu time spent up to now is      986.6 secs

     total energy              =   -2942.90417346 Ry
     estimated scf accuracy    <       0.00000027 Ry

     iteration # 63     ecut=    29.40 Ry     beta= 0.05
     Davidson diagonalization with overlap
     ethr =  6.85E-11,  avg # of iterations =  6.5

     negative rho (up, down):  9.687E-03 0.000E+00
 
     Adding external electric field

     Computed dipole along edir(3) : 
        Dipole                0.6830 Ry au,          1.7361 Debye
        Dipole field          0.0013 Ry au, 
 
        Potential amp.       -0.1195 Ry
        Total length         46.3494 bohr
 

     total cpu time spent up to now is     1004.6 secs

     total energy              =   -2942.90417851 Ry
     estimated scf accuracy    <       0.00000045 Ry

     iteration # 64     ecut=    29.40 Ry     beta= 0.05
     Davidson diagonalization with overlap
     ethr =  6.85E-11,  avg # of iterations =  3.2

     negative rho (up, down):  9.687E-03 0.000E+00
 
     Adding external electric field

     Computed dipole along edir(3) : 
        Dipole                0.6828 Ry au,          1.7356 Debye
        Dipole field          0.0013 Ry au, 
 
        Potential amp.       -0.1195 Ry
        Total length         46.3494 bohr
 

     total cpu time spent up to now is     1016.0 secs

     total energy              =   -2942.90418298 Ry
     estimated scf accuracy    <       0.00000025 Ry

     iteration # 65     ecut=    29.40 Ry     beta= 0.05
     Davidson diagonalization with overlap
     ethr =  6.36E-11,  avg # of iterations =  5.4

     negative rho (up, down):  9.690E-03 0.000E+00
 
     Adding external electric field

     Computed dipole along edir(3) : 
        Dipole                0.6830 Ry au,          1.7361 Debye
        Dipole field          0.0013 Ry au, 
 
        Potential amp.       -0.1195 Ry
        Total length         46.3494 bohr
 

     total cpu time spent up to now is     1028.7 secs

     total energy              =   -2942.90418707 Ry
     estimated scf accuracy    <       0.00000009 Ry

     iteration # 66     ecut=    29.40 Ry     beta= 0.05
     Davidson diagonalization with overlap
     ethr =  2.38E-11,  avg # of iterations =  5.5

     negative rho (up, down):  9.691E-03 0.000E+00
 
     Adding external electric field

     Computed dipole along edir(3) : 
        Dipole                0.6830 Ry au,          1.7359 Debye
        Dipole field          0.0013 Ry au, 
 
        Potential amp.       -0.1195 Ry
        Total length         46.3494 bohr
 

     total cpu time spent up to now is     1042.0 secs

     total energy              =   -2942.90419077 Ry
     estimated scf accuracy    <       0.00000009 Ry

     iteration # 67     ecut=    29.40 Ry     beta= 0.05
     Davidson diagonalization with overlap
     ethr =  2.32E-11,  avg # of iterations =  5.0

     negative rho (up, down):  9.691E-03 0.000E+00
 
     Adding external electric field

     Computed dipole along edir(3) : 
        Dipole                0.6828 Ry au,          1.7355 Debye
        Dipole field          0.0013 Ry au, 
 
        Potential amp.       -0.1194 Ry
        Total length         46.3494 bohr
 

     total cpu time spent up to now is     1055.9 secs

     total energy              =   -2942.90419410 Ry
     estimated scf accuracy    <       0.00000008 Ry

     iteration # 68     ecut=    29.40 Ry     beta= 0.05
     Davidson diagonalization with overlap
     ethr =  1.97E-11,  avg # of iterations =  5.1

     negative rho (up, down):  9.741E-03 0.000E+00
 
     Adding external electric field

     Computed dipole along edir(3) : 
        Dipole                0.6825 Ry au,          1.7348 Debye
        Dipole field          0.0013 Ry au, 
 
        Potential amp.       -0.1194 Ry
        Total length         46.3494 bohr
 

     total cpu time spent up to now is     1068.0 secs

     End of self-consistent calculation

          k = 0.0000 0.0000 0.0000 ( 18029 PWs)   bands (ev):

   -56.5014 -56.4678 -55.6109 -55.6020 -55.5756 -55.5695 -55.4738 -55.4382
   -55.2600 -55.2248 -55.1656 -55.1611 -55.1316 -55.0486 -54.6089 -54.5672
   -32.9289 -32.7753 -32.7471 -32.6781 -32.5870 -32.5550 -32.0901 -32.0685
   -32.0151 -31.8987 -31.8577 -31.8182 -31.8160 -31.7825 -31.7536 -31.7535
   -31.7511 -31.7333 -31.7246 -31.7185 -31.6975 -31.6824 -31.6562 -31.6425
   -31.6295 -31.6091 -31.6034 -31.5796 -31.5579 -31.5040 -31.4915 -31.4798
   -31.4028 -31.3988 -31.3764 -31.3344 -31.3271 -31.2929 -31.2784 -31.2547
   -31.2354 -31.1822 -31.1367 -30.8540 -30.8293 -30.8135 -30.7888 -30.6683
   -16.6632 -16.2225 -15.9947 -15.8629 -15.7905 -15.7410 -15.6887 -15.5750
   -15.4960 -15.4928 -15.4549 -15.4207 -15.3508 -15.2072 -15.1094 -15.0539
   -15.0120 -14.8975 -14.8299 -14.8051 -14.7954 -14.7642 -14.7466 -14.5472
   -14.5036 -14.4139 -14.4027 -14.2665 -14.0658 -13.9995 -13.6642 -13.5542
   -12.7023  -7.4338  -4.2301  -4.0948  -4.0756  -3.7184  -3.4773  -3.3905
    -3.2880  -3.2745  -3.2036  -3.0809  -3.0287  -2.9824  -2.8677  -2.8664
    -2.7424  -2.7226  -2.6764  -2.6668  -2.6344  -2.5778  -2.5540  -2.5022
    -2.4961  -2.4826  -2.3346  -2.2408  -2.1769  -2.1462  -2.1317  -2.1014
    -2.0274  -2.0027  -1.9898  -1.9814  -1.8954  -1.7430  -1.7384  -1.7115
    -1.6662  -1.6647  -1.6200  -1.6120  -1.4700  -1.3948  -1.2850  -1.2786
    -1.2432  -1.1743  -1.1721  -1.0727  -1.0004  -0.9487  -0.9087  -0.8024
    -0.7607  -0.7342  -0.6498  -0.5777  -0.5439  -0.5288  -0.5045  -0.4061
    -0.3884  -0.3675  -0.2845  -0.2748  -0.2260  -0.1382  -0.1170  -0.1135
    -0.0259  -0.0183   0.0817   0.1207   0.1615   0.1900   0.2789   0.3087
     0.4088   0.4537   0.4680   0.5914   0.6082   0.6676   0.7426   0.8055
     0.8258   0.8559   0.8871   0.8984   0.9787   1.1005   1.1043   1.1347
     1.2063   1.2532   1.4098   1.4487   1.7205   1.7431   2.4195   2.7737
     2.9352   3.2337   3.4340   3.5406   3.7506   3.7645   3.9441   3.9961
     4.0815

          k = 0.0000 0.0419 0.0000 ( 17933 PWs)   bands (ev):

   -56.4964 -56.4726 -55.6057 -55.5972 -55.5808 -55.5739 -55.4686 -55.4433
   -55.2549 -55.2297 -55.1605 -55.1597 -55.1365 -55.0499 -54.6047 -54.5712
   -32.8755 -32.7710 -32.7509 -32.6648 -32.6109 -32.6003 -32.0369 -32.0159
   -31.9596 -31.8841 -31.8518 -31.8189 -31.8066 -31.8055 -31.7740 -31.7526
   -31.7495 -31.7466 -31.7449 -31.7412 -31.6788 -31.6778 -31.6691 -31.6616
   -31.6423 -31.5962 -31.5860 -31.5782 -31.5052 -31.5003 -31.4831 -31.4780
   -31.4124 -31.3986 -31.3858 -31.3642 -31.3323 -31.3051 -31.2931 -31.2802
   -31.2551 -31.2390 -31.0874 -30.8663 -30.8269 -30.8149 -30.7920 -30.7066
   -16.5420 -16.1004 -15.9152 -15.8910 -15.8032 -15.7156 -15.6733 -15.5147
   -15.5094 -15.4664 -15.4373 -15.3528 -15.3307 -15.2399 -15.1527 -15.1412
   -15.0561 -14.8968 -14.8847 -14.8704 -14.8359 -14.7417 -14.6830 -14.5971
   -14.5006 -14.4696 -14.4089 -14.2901 -14.1342 -13.9991 -13.6714 -13.5952
   -12.7113  -7.4295  -4.0995  -4.0771  -4.0483  -3.5405  -3.3143  -3.2389
    -3.2028  -3.1409  -3.0733  -3.0298  -3.0113  -2.9988  -2.8337  -2.7732
    -2.7280  -2.6774  -2.6753  -2.6610  -2.6354  -2.5989  -2.5298  -2.5054
    -2.4871  -2.4537  -2.4019  -2.3697  -2.3473  -2.3051  -2.2419  -2.2086
    -2.1496  -2.1276  -2.0566  -1.9327  -1.9281  -1.9121  -1.7328  -1.7038
    -1.6983  -1.6536  -1.5865  -1.4952  -1.3482  -1.2988  -1.2918  -1.2539
    -1.2499  -1.0755  -1.0574  -1.0260  -0.9525  -0.9261  -0.9164  -0.8418
    -0.7771  -0.7651  -0.7246  -0.6150  -0.5413  -0.4766  -0.4111  -0.3341
    -0.3262  -0.2851  -0.2632  -0.2046  -0.1922  -0.1500  -0.1398  -0.1205
    -0.0494  -0.0125   0.0307   0.0613   0.0745   0.2039   0.2303   0.3285
     0.3515   0.3601   0.4191   0.4729   0.4878   0.5116   0.5270   0.5316
     0.7000   0.7439   0.8242   0.9072   1.0403   1.0886   1.1369   1.1585
     1.1803   1.1940   1.3549   1.3616   1.6208   1.6823   2.2927   3.0421
     3.0460   3.2425   3.5844   3.6188   3.6423   3.7234   3.7477   3.8962
     3.9339

          k = 0.0000-0.0839 0.0000 ( 17884 PWs)   bands (ev):

   -56.4846 -56.4843 -55.5938 -55.5929 -55.5878 -55.5830 -55.4579 -55.4538
   -55.2448 -55.2397 -55.1583 -55.1485 -55.1484 -55.0512 -54.5992 -54.5767
   -32.7610 -32.7608 -32.7446 -32.7445 -32.6326 -32.6324 -31.9085 -31.9057
   -31.8898 -31.8835 -31.8488 -31.8479 -31.8474 -31.8466 -31.8058 -31.8033
   -31.7779 -31.7725 -31.7462 -31.7442 -31.7091 -31.7055 -31.6608 -31.6552
   -31.5950 -31.5865 -31.5259 -31.5211 -31.4952 -31.4915 -31.4915 -31.4457
   -31.4448 -31.4068 -31.3742 -31.3741 -31.3720 -31.3348 -31.3348 -31.3298
   -31.2883 -31.2563 -30.9985 -30.9271 -30.8238 -30.7984 -30.7952 -30.7546
   -16.2409 -16.2402 -15.8242 -15.8205 -15.6699 -15.6681 -15.6590 -15.6589
   -15.5354 -15.5276 -15.3408 -15.3363 -15.2273 -15.2238 -15.1171 -15.1142
   -15.1052 -15.1032 -15.0239 -15.0115 -14.7236 -14.7140 -14.6070 -14.6043
   -14.5502 -14.5317 -14.3746 -14.3626 -14.2175 -13.9987 -13.6580 -13.6579
   -12.7201  -7.4252  -4.1052  -4.0777  -3.5940  -3.5939  -3.1242  -3.1169
    -3.1037  -3.1034  -2.9974  -2.9962  -2.9478  -2.9399  -2.7859  -2.7593
    -2.7418  -2.6614  -2.6532  -2.6301  -2.6271  -2.6139  -2.6037  -2.6019
    -2.5488  -2.5265  -2.4222  -2.4167  -2.3536  -2.3038  -2.2112  -2.1238
    -2.1122  -2.0629  -2.0238  -2.0123  -1.8302  -1.8057  -1.7966  -1.7861
    -1.7254  -1.7075  -1.6955  -1.6077  -1.5894  -1.4633  -1.4536  -1.1924
    -1.1834  -1.0062  -1.0009  -0.9795  -0.9395  -0.9052  -0.8624  -0.7907
    -0.7680  -0.6397  -0.6369  -0.6341  -0.5889  -0.4855  -0.4462  -0.3957
    -0.3921  -0.3085  -0.3002  -0.2794  -0.2581  -0.1928  -0.0709  -0.0614
    -0.0345   0.0100   0.0244   0.1297   0.1511   0.1678   0.2084   0.2479
     0.2710   0.2838   0.3345   0.4145   0.4190   0.4410   0.4802   0.4908
     0.5050   0.5934   0.7069   0.7985   1.0870   1.1165   1.1397   1.2202
     1.2209   1.2491   1.3268   1.3373   1.3590   1.6505   2.1624   3.2845
     3.2848   3.4200   3.4203   3.4798   3.4800   3.8524   3.8717   3.9760
     3.9898

          k = 0.0380 0.0000 0.0000 ( 17913 PWs)   bands (ev):

   -56.5013 -56.4677 -55.6101 -55.6025 -55.5755 -55.5694 -55.4736 -55.4381
   -55.2598 -55.2247 -55.1655 -55.1610 -55.1315 -55.0485 -54.6088 -54.5671
   -32.9296 -32.7750 -32.7470 -32.6760 -32.5867 -32.5547 -32.0940 -32.0688
   -32.0152 -31.8797 -31.8573 -31.8182 -31.8159 -31.7754 -31.7710 -31.7545
   -31.7534 -31.7333 -31.7254 -31.7167 -31.6984 -31.6760 -31.6723 -31.6530
   -31.6089 -31.6032 -31.6007 -31.5795 -31.5575 -31.5064 -31.4888 -31.4780
   -31.4092 -31.3989 -31.3762 -31.3342 -31.3269 -31.2928 -31.2789 -31.2546
   -31.2352 -31.1820 -31.1361 -30.8537 -30.8312 -30.8134 -30.7878 -30.6681
   -16.5592 -16.1457 -16.0205 -15.9595 -15.8424 -15.6851 -15.5971 -15.5789
   -15.4976 -15.4869 -15.4285 -15.4114 -15.3691 -15.3517 -15.0564 -15.0512
   -15.0112 -14.9356 -14.9302 -14.9151 -14.8352 -14.6407 -14.6351 -14.6283
   -14.5117 -14.4510 -14.3781 -14.2661 -14.0640 -13.9993 -13.6614 -13.5538
   -12.7008  -7.4322  -4.0952  -4.0758  -3.9463  -3.5544  -3.4190  -3.3992
    -3.3003  -3.2278  -3.0680  -3.0483  -3.0139  -2.9926  -2.8340  -2.8190
    -2.7980  -2.7436  -2.7000  -2.6868  -2.6377  -2.5893  -2.5391  -2.5055
    -2.4242  -2.3774  -2.3066  -2.2145  -2.1549  -2.1324  -2.1266  -2.1147
    -2.0081  -1.9742  -1.9190  -1.7939  -1.7868  -1.7585  -1.6942  -1.6695
    -1.6586  -1.6444  -1.5833  -1.5620  -1.5484  -1.4177  -1.3581  -1.3096
    -1.2529  -1.1923  -1.1469  -1.0631  -0.9962  -0.9689  -0.9344  -0.8915
    -0.8456  -0.8281  -0.7936  -0.7260  -0.6400  -0.5536  -0.4808  -0.4797
    -0.4288  -0.3777  -0.3223  -0.2860  -0.2795  -0.2404  -0.1795  -0.0274
     0.0167   0.0501   0.0755   0.1052   0.1554   0.2457   0.2717   0.3072
     0.3088   0.3287   0.4146   0.4862   0.5373   0.5822   0.6682   0.7189
     0.7643   0.8671   0.8692   0.8865   0.9650   1.0070   1.0510   1.0698
     1.1249   1.1358   1.3061   1.3594   1.6132   1.7287   2.2776   2.9192
     2.9514   3.2330   3.3932   3.5128   3.7592   3.7791   3.8454   3.8523
     3.9939

          k = 0.0380 0.0419 0.0000 ( 17878 PWs)   bands (ev):

   -56.4963 -56.4726 -55.6050 -55.5978 -55.5806 -55.5741 -55.4685 -55.4432
   -55.2548 -55.2297 -55.1604 -55.1596 -55.1365 -55.0499 -54.6047 -54.5712
   -32.8761 -32.7708 -32.7510 -32.6631 -32.6109 -32.6000 -32.0411 -32.0164
   -31.9597 -31.8674 -31.8513 -31.8190 -31.8066 -31.7938 -31.7822 -31.7602
   -31.7527 -31.7504 -31.7453 -31.7409 -31.6791 -31.6751 -31.6663 -31.6626
   -31.6552 -31.5962 -31.5783 -31.5709 -31.5049 -31.5022 -31.4822 -31.4758
   -31.4122 -31.4041 -31.3859 -31.3641 -31.3321 -31.3051 -31.2931 -31.2811
   -31.2551 -31.2388 -31.0870 -30.8663 -30.8282 -30.8148 -30.7917 -30.7065
   -16.4441 -16.0283 -16.0027 -15.8809 -15.7702 -15.7685 -15.6127 -15.5855
   -15.5096 -15.4019 -15.3769 -15.3531 -15.3306 -15.3286 -15.2095 -15.0541
   -15.0034 -14.9783 -14.9718 -14.9073 -14.7745 -14.7531 -14.7162 -14.6701
   -14.5048 -14.4775 -14.3888 -14.2903 -14.1329 -13.9990 -13.6694 -13.5955
   -12.7102  -7.4285  -4.0997  -4.0778  -3.7687  -3.3819  -3.2752  -3.2318
    -3.1505  -3.1273  -2.9308  -2.9231  -2.8929  -2.8508  -2.8221  -2.7996
    -2.7312  -2.7256  -2.6881  -2.6388  -2.5778  -2.5537  -2.5387  -2.4962
    -2.4672  -2.4438  -2.3920  -2.3725  -2.3117  -2.2310  -2.2003  -2.1516
    -2.0719  -2.0419  -2.0188  -1.9637  -1.8845  -1.8747  -1.7837  -1.7304
    -1.7034  -1.5796  -1.5264  -1.4451  -1.4033  -1.3882  -1.3407  -1.2973
    -1.2054  -1.1751  -1.1101  -1.0808  -1.0103  -0.9708  -0.9417  -0.9369
    -0.8004  -0.7837  -0.7029  -0.6683  -0.6505  -0.5758  -0.5422  -0.4593
    -0.4193  -0.3979  -0.3605  -0.3339  -0.2960  -0.2525  -0.2355  -0.1943
    -0.0987  -0.0392  -0.0193   0.0121   0.0712   0.1742   0.1924   0.2431
     0.2820   0.3328   0.3602   0.4235   0.4749   0.4904   0.5231   0.5577
     0.6818   0.7795   0.8324   0.9781   0.9980   1.0531   1.1019   1.1337
     1.1424   1.2245   1.2791   1.3380   1.5454   1.7046   2.2616   3.0348
     3.1933   3.2842   3.4408   3.6305   3.7124   3.7633   3.8533   3.9044
     4.0250

          k = 0.0380-0.0839 0.0000 ( 17916 PWs)   bands (ev):

   -56.4847 -56.4843 -55.5933 -55.5926 -55.5884 -55.5833 -55.4580 -55.4538
   -55.2448 -55.2397 -55.1583 -55.1486 -55.1485 -55.0513 -54.5992 -54.5768
   -32.7611 -32.7608 -32.7452 -32.7451 -32.6319 -32.6316 -31.9145 -31.9120
   -31.8915 -31.8852 -31.8486 -31.8477 -31.8288 -31.8284 -31.8059 -31.8034
   -31.7780 -31.7726 -31.7576 -31.7555 -31.7091 -31.7056 -31.6602 -31.6554
   -31.5951 -31.5867 -31.5266 -31.5218 -31.4922 -31.4921 -31.4913 -31.4446
   -31.4437 -31.4087 -31.3742 -31.3741 -31.3720 -31.3348 -31.3348 -31.3299
   -31.2912 -31.2563 -30.9985 -30.9270 -30.8245 -30.7985 -30.7959 -30.7545
   -16.1714 -16.1705 -15.8152 -15.8123 -15.7483 -15.7463 -15.6387 -15.6376
   -15.5082 -15.5011 -15.3211 -15.3157 -15.2122 -15.2100 -15.1114 -15.0973
   -15.0796 -15.0715 -15.0482 -15.0428 -14.7996 -14.7915 -14.7018 -14.6950
   -14.5208 -14.5013 -14.3691 -14.3538 -14.2157 -13.9987 -13.6578 -13.6578
   -12.7194  -7.4248  -4.1054  -4.0786  -3.3827  -3.3814  -3.0233  -3.0218
    -3.0105  -3.0100  -2.9630  -2.9589  -2.8724  -2.8638  -2.7284  -2.6731
    -2.6705  -2.6134  -2.6070  -2.5774  -2.5646  -2.5521  -2.5391  -2.5340
    -2.4830  -2.4344  -2.3900  -2.3332  -2.2856  -2.2791  -2.1756  -2.0741
    -2.0726  -2.0363  -2.0170  -1.9789  -1.9385  -1.9322  -1.8224  -1.8156
    -1.7602  -1.7236  -1.7033  -1.5607  -1.5498  -1.4662  -1.4568  -1.2696
    -1.2655  -1.2087  -1.2024  -1.0604  -1.0340  -1.0017  -0.9780  -0.8856
    -0.8746  -0.7756  -0.7706  -0.6897  -0.6768  -0.5716  -0.5515  -0.5097
    -0.5030  -0.4790  -0.4223  -0.3628  -0.2962  -0.2248  -0.1449  -0.1086
    -0.0925  -0.0458  -0.0261  -0.0036   0.0125   0.0796   0.0974   0.1258
     0.1589   0.2162   0.2662   0.3384   0.3497   0.4887   0.5835   0.5921
     0.6196   0.7630   0.8499   0.9073   1.0922   1.1191   1.1367   1.2294
     1.2305   1.2679   1.2858   1.3308   1.3379   1.6780   2.2339   3.2880
     3.2895   3.4508   3.4526   3.6484   3.6491   3.8236   3.8404   3.9726
     3.9863

          k = 0.0380-0.0419 0.0000 ( 17876 PWs)   bands (ev):

   -56.4963 -56.4726 -55.6050 -55.5978 -55.5806 -55.5741 -55.4685 -55.4432
   -55.2548 -55.2297 -55.1604 -55.1596 -55.1365 -55.0498 -54.6047 -54.5712
   -32.8761 -32.7708 -32.7510 -32.6631 -32.6109 -32.6000 -32.0411 -32.0164
   -31.9597 -31.8674 -31.8513 -31.8190 -31.8066 -31.7938 -31.7822 -31.7601
   -31.7528 -31.7505 -31.7452 -31.7410 -31.6790 -31.6750 -31.6667 -31.6625
   -31.6550 -31.5962 -31.5783 -31.5709 -31.5049 -31.5022 -31.4822 -31.4758
   -31.4122 -31.4040 -31.3859 -31.3641 -31.3321 -31.3051 -31.2929 -31.2813
   -31.2551 -31.2388 -31.0869 -30.8662 -30.8281 -30.8150 -30.7916 -30.7065
   -16.4439 -16.0282 -16.0035 -15.8808 -15.7697 -15.7685 -15.6124 -15.5856
   -15.5097 -15.4019 -15.3769 -15.3532 -15.3305 -15.3289 -15.2098 -15.0541
   -15.0030 -14.9786 -14.9719 -14.9073 -14.7751 -14.7512 -14.7167 -14.6706
   -14.5038 -14.4780 -14.3890 -14.2904 -14.1331 -13.9990 -13.6694 -13.5955
   -12.7102  -7.4286  -4.0996  -4.0777  -3.7680  -3.3810  -3.2768  -3.2328
    -3.1491  -3.1273  -2.9303  -2.9224  -2.8924  -2.8485  -2.8250  -2.7985
    -2.7310  -2.7271  -2.7042  -2.6321  -2.5790  -2.5546  -2.5301  -2.4977
    -2.4654  -2.4445  -2.3881  -2.3689  -2.3175  -2.2330  -2.1991  -2.1499
    -2.0724  -2.0474  -2.0107  -1.9707  -1.8812  -1.8768  -1.7741  -1.7340
    -1.7016  -1.5734  -1.5320  -1.4461  -1.4068  -1.3883  -1.3394  -1.3004
    -1.2007  -1.1705  -1.1101  -1.0769  -1.0118  -0.9724  -0.9455  -0.9366
    -0.7996  -0.7863  -0.7059  -0.6660  -0.6412  -0.5877  -0.5436  -0.4663
    -0.4203  -0.3871  -0.3768  -0.3370  -0.2890  -0.2530  -0.2390  -0.1903
    -0.1080  -0.0415  -0.0135   0.0172   0.0931   0.1573   0.1875   0.2526
     0.2817   0.3510   0.3543   0.4112   0.4744   0.4914   0.5192   0.5690
     0.6838   0.7717   0.8327   0.9684   1.0007   1.0554   1.1027   1.1337
     1.1436   1.2251   1.2787   1.3387   1.5451   1.7044   2.2645   3.0354
     3.1936   3.2842   3.4397   3.6301   3.7133   3.7627   3.8479   3.9038
     4.0219

          k =-0.0760-0.0000 0.0000 ( 17886 PWs)   bands (ev):

   -56.5012 -56.4677 -55.6092 -55.6033 -55.5755 -55.5694 -55.4736 -55.4381
   -55.2598 -55.2247 -55.1654 -55.1610 -55.1315 -55.0485 -54.6088 -54.5671
   -32.9303 -32.7749 -32.7469 -32.6740 -32.5870 -32.5547 -32.0979 -32.0692
   -32.0152 -31.8573 -31.8475 -31.8184 -31.8158 -31.8037 -31.7658 -31.7591
   -31.7534 -31.7332 -31.7262 -31.7149 -31.6999 -31.6871 -31.6670 -31.6533
   -31.6088 -31.6032 -31.5866 -31.5795 -31.5572 -31.5088 -31.4862 -31.4769
   -31.4163 -31.3995 -31.3761 -31.3340 -31.3268 -31.2927 -31.2798 -31.2544
   -31.2352 -31.1820 -31.1356 -30.8536 -30.8333 -30.8134 -30.7872 -30.6681
   -16.3962 -16.1038 -16.1035 -15.9342 -15.9154 -15.6813 -15.6481 -15.4998
   -15.4995 -15.4421 -15.4387 -15.3884 -15.3675 -15.3527 -15.1305 -15.0582
   -15.0520 -14.9925 -14.9702 -14.9480 -14.8460 -14.7226 -14.5842 -14.5533
   -14.5252 -14.4593 -14.3698 -14.2660 -14.0627 -13.9993 -13.6589 -13.5535
   -12.6993  -7.4308  -4.0957  -4.0762  -3.5588  -3.5551  -3.5150  -3.4012
    -3.1519  -3.1375  -3.1009  -2.9853  -2.9649  -2.8385  -2.7779  -2.7624
    -2.7341  -2.7105  -2.6991  -2.6070  -2.5965  -2.5839  -2.4577  -2.3922
    -2.3478  -2.2990  -2.2713  -2.2218  -2.2103  -2.1775  -2.1268  -2.0681
    -2.0351  -1.9289  -1.9207  -1.8864  -1.8069  -1.7876  -1.7576  -1.6588
    -1.6128  -1.5995  -1.5540  -1.5172  -1.4818  -1.4428  -1.3636  -1.3352
    -1.3087  -1.2614  -1.1884  -1.1573  -1.1232  -1.0955  -0.9930  -0.8873
    -0.8702  -0.7725  -0.7321  -0.7145  -0.6867  -0.6634  -0.5830  -0.5775
    -0.5466  -0.4245  -0.4152  -0.3584  -0.3214  -0.2420  -0.2036  -0.1812
    -0.1312  -0.0003   0.0823   0.1049   0.1837   0.1844   0.2535   0.2933
     0.3110   0.3672   0.4496   0.5044   0.5502   0.6019   0.6368   0.6479
     0.7326   0.7410   0.8093   0.8849   0.9581   0.9693   1.0244   1.0703
     1.1256   1.1619   1.1741   1.2937   1.4048   1.7288   2.1549   2.9099
     3.0463   3.1366   3.2320   3.5994   3.6209   3.7907   3.9068   3.9384
     4.0659

          k =-0.0760 0.0419 0.0000 ( 17914 PWs)   bands (ev):

   -56.4963 -56.4726 -55.6043 -55.5985 -55.5804 -55.5743 -55.4685 -55.4432
   -55.2548 -55.2297 -55.1605 -55.1597 -55.1365 -55.0499 -54.6047 -54.5712
   -32.8769 -32.7708 -32.7510 -32.6617 -32.6112 -32.6000 -32.0453 -32.0172
   -31.9599 -31.8518 -31.8360 -31.8190 -31.8114 -31.8065 -31.7720 -31.7697
   -31.7595 -31.7539 -31.7454 -31.7410 -31.6795 -31.6738 -31.6681 -31.6625
   -31.6602 -31.5963 -31.5783 -31.5596 -31.5048 -31.5043 -31.4815 -31.4738
   -31.4123 -31.4100 -31.3862 -31.3641 -31.3321 -31.3052 -31.2933 -31.2823
   -31.2551 -31.2389 -31.0867 -30.8662 -30.8299 -30.8150 -30.7915 -30.7065
   -16.2827 -16.0587 -16.0213 -15.8595 -15.8522 -15.7586 -15.6015 -15.5616
   -15.5085 -15.3937 -15.3540 -15.3518 -15.3332 -15.2694 -15.2207 -15.1087
   -15.0271 -15.0102 -14.9377 -14.9326 -14.8877 -14.7703 -14.7239 -14.6972
   -14.5066 -14.4657 -14.3793 -14.2909 -14.1323 -13.9990 -13.6676 -13.5958
   -12.7092  -7.4276  -4.1001  -4.0784  -3.3513  -3.3487  -3.2668  -3.2520
    -3.0277  -3.0197  -2.9226  -2.9023  -2.8433  -2.8231  -2.7333  -2.7190
    -2.6524  -2.6397  -2.5721  -2.5544  -2.5471  -2.5246  -2.5204  -2.4532
    -2.4482  -2.4171  -2.3767  -2.3343  -2.2578  -2.1498  -2.1341  -2.0843
    -2.0696  -2.0206  -1.9820  -1.9196  -1.8814  -1.8623  -1.8065  -1.6979
    -1.6399  -1.6300  -1.5258  -1.4938  -1.4899  -1.4725  -1.3791  -1.3137
    -1.2613  -1.2153  -1.1804  -1.1346  -1.0895  -1.0748  -1.0181  -0.9732
    -0.9114  -0.8523  -0.8185  -0.7734  -0.7189  -0.6739  -0.6446  -0.5826
    -0.5431  -0.4657  -0.4500  -0.4015  -0.3594  -0.3372  -0.3195  -0.2792
    -0.2132  -0.1826  -0.0800  -0.0728  -0.0466   0.0486   0.1124   0.1742
     0.3004   0.3063   0.4014   0.4079   0.4667   0.4903   0.6279   0.6842
     0.7755   0.8172   0.9090   0.9500   0.9850   1.0392   1.1278   1.1450
     1.1525   1.2091   1.2150   1.3250   1.4283   1.7235   2.2449   3.0472
     3.2189   3.2342   3.3317   3.7386   3.7875   3.7891   3.8333   3.9455
     4.0523

          k =-0.0760-0.0839 0.0000 ( 17948 PWs)   bands (ev):

   -56.4847 -56.4844 -55.5928 -55.5920 -55.5892 -55.5836 -55.4580 -55.4538
   -55.2448 -55.2398 -55.1583 -55.1486 -55.1485 -55.0513 -54.5992 -54.5768
   -32.7611 -32.7608 -32.7458 -32.7457 -32.6311 -32.6308 -31.9189 -31.9165
   -31.8931 -31.8868 -31.8486 -31.8477 -31.8060 -31.8035 -31.8026 -31.8017
   -31.7795 -31.7776 -31.7761 -31.7725 -31.7092 -31.7057 -31.6604 -31.6547
   -31.5953 -31.5869 -31.5272 -31.5225 -31.4928 -31.4928 -31.4874 -31.4436
   -31.4426 -31.4106 -31.3742 -31.3741 -31.3720 -31.3349 -31.3348 -31.3299
   -31.2942 -31.2563 -30.9985 -30.9270 -30.8252 -30.7985 -30.7966 -30.7545
   -16.0101 -16.0081 -15.9782 -15.9779 -15.7039 -15.7004 -15.6541 -15.6520
   -15.4831 -15.4768 -15.2660 -15.2578 -15.2539 -15.2497 -15.1217 -15.1151
   -15.0578 -15.0404 -14.9579 -14.9537 -14.8912 -14.8809 -14.8460 -14.8276
   -14.5057 -14.4847 -14.3654 -14.3476 -14.2140 -13.9987 -13.6577 -13.6576
   -12.7188  -7.4244  -4.1056  -4.0795  -3.1104  -3.1098  -3.0392  -3.0382
    -2.9171  -2.9120  -2.8422  -2.8414  -2.7322  -2.7299  -2.7212  -2.5964
    -2.5949  -2.5931  -2.5744  -2.5302  -2.4400  -2.4348  -2.4223  -2.4036
    -2.3574  -2.3543  -2.3460  -2.2661  -2.2519  -2.2161  -2.1760  -2.0703
    -2.0578  -2.0438  -2.0137  -1.9528  -1.9408  -1.9263  -1.8769  -1.8574
    -1.7772  -1.7230  -1.6600  -1.5511  -1.5464  -1.5378  -1.5259  -1.3699
    -1.3308  -1.3028  -1.2952  -1.2877  -1.2438  -1.1437  -1.1362  -0.9948
    -0.9944  -0.9234  -0.8424  -0.8264  -0.7960  -0.6660  -0.6225  -0.5825
    -0.5759  -0.5544  -0.5306  -0.5099  -0.4786  -0.3320  -0.3202  -0.2887
    -0.2483  -0.2407  -0.1929  -0.1271  -0.0381   0.0259   0.0272   0.0866
     0.1525   0.2129   0.2922   0.3099   0.3155   0.5953   0.6791   0.7657
     0.8421   0.9091   0.9745   0.9954   1.0649   1.0968   1.1336   1.2357
     1.2396   1.2572   1.2576   1.3276   1.3296   1.6989   2.3118   3.3475
     3.3479   3.4159   3.4164   3.7402   3.7458   3.8560   3.8662   3.9745
     3.9786

     the Fermi energy is     2.6072 ev

!    total energy              =   -2942.90422481 Ry
     estimated scf accuracy    <       0.00000004 Ry
     smearing contrib. (-TS)   =      -0.00457886 Ry
     internal energy E=F+TS    =   -2942.89964595 Ry

     The total energy is F=E-TS. E is the sum of the following terms:
     one-electron contribution =  -23043.00421992 Ry
     hartree contribution      =   11612.13400333 Ry
     xc contribution           =    -487.44172208 Ry
     ewald contribution        =    8975.41141365 Ry
     electric field correction =       0.00087907 Ry

     convergence has been achieved in  68 iterations

     Forces acting on atoms (cartesian axes, Ry/au):

     atom    1 type  1   force =     0.00001417   -0.00049758    0.12493986
     atom    2 type  1   force =    -0.00013531   -0.00063003   -0.16061865
     atom    3 type  2   force =     0.00017231   -0.00022313   -0.06928915
     atom    4 type  2   force =    -0.00004155   -0.00027970    0.02766271
     atom    5 type  2   force =    -0.01719239    0.00222255   -0.00887288
     atom    6 type  2   force =     0.01887385    0.00287305   -0.00919468
     atom    7 type  1   force =     0.00088335   -0.00375521    0.02224459
     atom    8 type  1   force =    -0.00036343   -0.00327580    0.11344363
     atom    9 type  2   force =     0.00050243   -0.00039718    0.00010533
     atom   10 type  2   force =    -0.00234778    0.00260207   -0.07311838
     atom   11 type  2   force =     0.00012437   -0.00096096   -0.00009183
     atom   12 type  2   force =     0.00000345   -0.00059786   -0.00001460
     atom   13 type  1   force =     0.00021524   -0.00019337   -0.00038657
     atom   14 type  1   force =    -0.00007755   -0.00053484   -0.00010076
     atom   15 type  2   force =    -0.00036123   -0.00092285    0.00099433
     atom   16 type  2   force =    -0.00013076   -0.00017104    0.00051327
     atom   17 type  2   force =     0.00093017   -0.00042025   -0.00032233
     atom   18 type  2   force =    -0.00062400   -0.00046080   -0.00028837
     atom   19 type  1   force =    -0.00025147    0.00007335   -0.00056005
     atom   20 type  1   force =     0.00059430   -0.00068587   -0.00087342
     atom   21 type  2   force =     0.00005205   -0.00006234    0.09968302
     atom   22 type  2   force =     0.00015526   -0.00033996   -0.00081776
     atom   23 type  2   force =    -0.07920301   -0.00006080   -0.03252001
     atom   24 type  2   force =     0.07905974    0.00037075   -0.03254859
     atom   25 type  1   force =     0.00002526   -0.00049287    0.12427609
     atom   26 type  1   force =    -0.00012219   -0.00048368   -0.16062317
     atom   27 type  2   force =     0.00028201   -0.00044555   -0.06829503
     atom   28 type  2   force =     0.00000314   -0.00013839    0.02751926
     atom   29 type  2   force =    -0.01765093    0.00173175   -0.00894463
     atom   30 type  2   force =     0.01922364    0.00199472   -0.00928338
     atom   31 type  1   force =     0.00080449   -0.00115670    0.02186679
     atom   32 type  1   force =    -0.00029640    0.00070632    0.11409318
     atom   33 type  2   force =    -0.00007931    0.00003977   -0.00051744
     atom   34 type  2   force =    -0.00201816    0.00206030   -0.07179080
     atom   35 type  2   force =     0.00000949   -0.00020327    0.00014324
     atom   36 type  2   force =    -0.00051475    0.00021785    0.00023746
     atom   37 type  1   force =     0.00086623    0.00095740   -0.00034981
     atom   38 type  1   force =    -0.00020290    0.00027115   -0.00024098
     atom   39 type  2   force =    -0.00002074   -0.00030781    0.00003599
     atom   40 type  2   force =    -0.00001067   -0.00019527   -0.00019702
     atom   41 type  2   force =     0.00023115   -0.00043586   -0.00029087
     atom   42 type  2   force =    -0.00002869   -0.00039987   -0.00033101
     atom   43 type  1   force =    -0.00037066    0.00007492   -0.00045611
     atom   44 type  1   force =     0.00002172    0.00119847   -0.00010213
     atom   45 type  2   force =     0.00004004   -0.00007569    0.09970375
     atom   46 type  2   force =    -0.07920500   -0.00002957   -0.03252567
     atom   47 type  2   force =     0.07905988    0.00041426   -0.03252827
     atom   48 type  3   force =    -0.00026887    0.00272239   -0.00056044
     atom   49 type  3   force =    -0.00074449   -0.00084523    0.00016656
     atom   50 type  4   force =    -0.00024278   -0.01956792    0.00069399
     atom   51 type  5   force =    -0.00074789    0.00954729    0.00264814
     atom   52 type  5   force =     0.00353795    0.00486747   -0.00236398
     atom   53 type  5   force =    -0.00333438    0.00360663   -0.00061519
     atom   54 type  5   force =     0.00050764   -0.00008103   -0.00010570
     atom   55 type  5   force =     0.00031864    0.00095910   -0.00053777
     atom   56 type  5   force =     0.00007532   -0.00018332   -0.00069376

     Total force =     0.427160     Total SCF correction =     0.000488
  @ DRIVER MODE: Message from server: STATUS
  @ DRIVER MODE: Message from server: GETFORCE
  @ DRIVER MODE: Returning v,forces,stress,ensemble 

     Writing output data file ./calc.save/
  @ DRIVER MODE: Message from server: EXIT
  @ DRIVE MODE: Exiting  
 
     init_run     :     10.84s CPU     11.07s WALL (       1 calls)
     electrons    :   1040.82s CPU   1056.64s WALL (       1 calls)
     forces       :      2.46s CPU      2.55s WALL (       1 calls)

     Called by init_run:
     wfcinit      :      4.83s CPU      4.90s WALL (       1 calls)
     potinit      :      5.35s CPU      5.42s WALL (       1 calls)
     hinit0       :      0.29s CPU      0.31s WALL (       1 calls)

     Called by electrons:
     c_bands      :    876.34s CPU    882.74s WALL (      68 calls)
     sum_band     :    110.88s CPU    114.71s WALL (      68 calls)
     v_of_rho     :     40.13s CPU     42.20s WALL (      69 calls)
     newd         :     16.56s CPU     20.11s WALL (      69 calls)
     mix_rho      :      1.49s CPU      1.53s WALL (      68 calls)
     vdW_kernel   :      4.55s CPU      4.56s WALL (       1 calls)

     Called by c_bands:
     init_us_2    :      7.84s CPU      7.88s WALL (    1380 calls)
     cegterg      :    856.48s CPU    862.58s WALL (     691 calls)

     Called by *egterg:
     cdiaghg      :    121.71s CPU    122.27s WALL (    5308 calls)
     h_psi        :    470.40s CPU    474.79s WALL (    5318 calls)
     s_psi        :     60.75s CPU     60.92s WALL (    5318 calls)
     g_psi        :      1.84s CPU      1.86s WALL (    4617 calls)

     Called by h_psi:
     h_psi:calbec :     58.33s CPU     58.63s WALL (    5318 calls)
     vloc_psi     :    347.27s CPU    350.78s WALL (    5318 calls)
     add_vuspsi   :     61.11s CPU     61.43s WALL (    5318 calls)

     General routines
     calbec       :     77.86s CPU     78.23s WALL (    6038 calls)
     fft          :     20.38s CPU     20.53s WALL (    4347 calls)
     ffts         :      0.13s CPU      0.13s WALL (     137 calls)
     fftw         :    389.42s CPU    393.35s WALL (  929750 calls)
     interpolate  :      0.42s CPU      0.43s WALL (      69 calls)
     davcio       :      0.00s CPU      0.13s WALL (      10 calls)
 
     Parallel routines
 
     PWSCF        :  17m34.44s CPU  17m50.91s WALL

 
   This run was terminated on:   3:28:22   9Sep2021            

=------------------------------------------------------------------------------=
   JOB DONE.
=------------------------------------------------------------------------------=
